Membrane in water
40167
    1TCq1    O1    1   3.833   2.479  11.199  0.5529 -0.3435  0.4965
    1TCq1    C1    2   3.922   2.528  11.292 -0.3243 -0.2668 -0.6577
    1TCq1    O2    3   4.042   2.523  11.276 -0.2709  0.4435 -0.0945
    1TCq1    C2    4   3.849   2.523  11.416 -0.0953  0.2257  0.2336
    1TCq1    C3    5   3.714   2.556  11.417 -0.2917 -0.3757 -0.4665
    1TCq1    C4    6   3.639   2.505  11.518  0.0953  0.2417  0.0473
    1TCq1    C5    7   3.691   2.424  11.613  0.2174  0.1105 -0.5028
    1TCq1    C6    8   3.828   2.401  11.611  0.4157  0.0978  0.2124
    1TCq1    C7    9   3.907   2.447  11.511 -0.5133  0.1573  0.4823
    1TCq1    C8   10   3.875   2.285  11.679 -0.0356 -0.1558 -0.0550
    1TCq1    O4   11   3.968   2.294  11.759 -0.3326 -0.0872 -0.4896
    1TCq1    C9   12   3.494   2.528  11.522  1.1714 -0.5229  0.7285
    1TCq1    O5   13   3.447   2.611  11.440  1.2218  0.2184 -0.7662
    1TCq1    O6   14   3.420   2.457  11.594 -0.7879  0.1336  0.4896
    1TCq1    H1   15   3.750   2.445  11.238 -1.0672  0.9490 -1.9025
    1TCq1    H2   16   3.673   2.615  11.336  0.4548  0.8498  0.0580
    1TCq1    H3   17   3.637   2.379  11.696  3.1618 -1.6442  0.4739
    1TCq1    H4   18   4.012   2.425  11.502 -0.9197 -1.2292 -0.8647
    2MPD2     C   19   3.829   1.798  11.818  0.0872  1.2261  0.4205
    2MPD2    C1   20   3.884   1.901  11.887 -1.0650  0.4713  0.1028
    2MPD2    C2   21   3.874   2.027  11.839 -0.0336 -0.0296 -0.5396
    2MPD2    C3   22   3.806   2.048  11.714  0.0111 -0.0240 -0.1224
    2MPD2    C4   23   3.755   1.941  11.638 -0.3756  0.5642  0.3237
    2MPD2    C5   24   3.781   1.816  11.692  0.2023  0.6843 -0.0376
    2MPD2     H   25   3.915   2.103  11.904  2.3504 -2.4409  0.7675
    2MPD2    H1   26   3.700   1.951  11.545 -0.0876 -2.2478 -0.1432
    2MPD2    H2   27   3.818   1.702  11.869  0.4602  1.4121  0.8500
    2MPD2    H3   28   3.737   1.732  11.639 -0.2590 -0.1699  1.6871
    2MPD2     N   29   3.791   2.178  11.656  0.2404  0.2473 -0.0222
    2MPD2    H5   30   3.726   2.195  11.580 -0.2366 -0.4783  0.2196
    2MPD2    N1   31   3.941   1.889  12.019  0.0705  0.2752 -0.2170
    2MPD2    H7   32   3.978   1.969  12.069  2.0719 -1.0707  0.4577
    3TCq1    O1   33   3.233   2.993  10.442 -0.3360 -0.2488 -0.2550
    3TCq1    C1   34   3.121   3.002  10.516  0.2906  0.5473 -0.0293
    3TCq1    O2   35   3.054   2.904  10.540  1.0290 -0.4062  0.4460
    3TCq1    C2   36   3.122   3.113  10.613 -0.0158 -0.5117  0.1556
    3TCq1    C3   37   3.225   3.182  10.634  0.4505  0.0485 -0.1896
    3TCq1    C4   38   3.224   3.287  10.723 -0.5301  0.0116  0.8091
    3TCq1    C5   39   3.103   3.318  10.786  0.4596 -0.5450  0.4196
    3TCq1    C6   40   2.993   3.245  10.761  0.5525 -0.0566 -0.3823
    3TCq1    C7   41   3.002   3.138  10.674 -0.0387 -0.5043 -0.3012
    3TCq1    C8   42   2.860   3.260  10.832 -0.2586 -1.1308  0.1686
    3TCq1    O4   43   2.782   3.162  10.835 -0.1329  0.0105  0.0175
    3TCq1    C9   44   3.339   3.370  10.755  0.2021  0.3109  0.3292
    3TCq1    O5   45   3.348   3.424  10.866  0.0119 -0.0362 -0.1193
    3TCq1    O6   46   3.432   3.373  10.669  0.4660 -0.1472 -0.1861
    3TCq1    H1   47   3.276   3.081  10.435 -0.8377 -0.0637 -1.0038
    3TCq1    H2   48   3.324   3.165  10.593  0.6343 -0.8708  0.6290
    3TCq1    H3   49   3.100   3.388  10.869 -0.1116  0.7203 -0.6773
    3TCq1    H4   50   2.921   3.071  10.648 -0.6336  0.4555 -0.9030
    4MPD2     C   51   2.536   3.519  11.129 -0.1913 -0.1248 -0.0094
    4MPD2    C1   52   2.647   3.602  11.108  0.0031 -0.6277  0.5596
    4MPD2    C2   53   2.753   3.551  11.034  0.6118 -0.3114  0.4790
    4MPD2    C3   54   2.744   3.435  10.963  0.5099 -0.5809  0.3853
    4MPD2    C4   55   2.643   3.351  10.999  0.0317  0.4694 -0.9442
    4MPD2    C5   56   2.544   3.387  11.089 -0.1227  0.6158  0.6749
    4MPD2     H   57   2.833   3.618  11.003  1.1559 -1.2827 -0.2142
    4MPD2    H1   58   2.624   3.260  10.944  0.4746  0.9026 -1.8144
    4MPD2    H2   59   2.447   3.551  11.180  0.0062 -1.5117  1.2127
    4MPD2    H3   60   2.461   3.325  11.122 -0.5237  1.4098  1.1419
    4MPD2     N   61   2.852   3.384  10.886 -0.7915  0.7164  0.7405
    4MPD2    H5   62   2.919   3.459  10.873 -1.4634  1.4206  1.3147
    4MPD2    N1   63   2.652   3.734  11.164  0.2965  0.1857 -0.0664
    4MPD2    H7   64   2.741   3.780  11.153 -0.7252  2.2318  0.1668
    5TCq1    O1   65   3.968   0.307  12.052  0.0327 -0.0049  0.8607
    5TCq1    C1   66   4.070   0.394  12.052 -0.5595 -0.8803  0.0203
    5TCq1    O2   67   4.119   0.449  12.153  0.0244 -0.9234 -0.1936
    5TCq1    C2   68   4.052   0.460  11.921  0.2769 -0.5606  0.1857
    5TCq1    C3   69   4.041   0.595  11.919  0.5249 -0.1408 -0.1882
    5TCq1    C4   70   3.954   0.643  11.817 -0.2894  0.3645 -0.1286
    5TCq1    C5   71   3.914   0.571  11.702 -0.1806  0.0635 -0.1090
    5TCq1    C6   72   3.948   0.439  11.705 -0.1611 -0.0171 -0.1483
    5TCq1    C7   73   4.004   0.380  11.819  0.1598 -0.1250  0.5195
    5TCq1    C8   74   3.910   0.349  11.596 -0.0962 -0.0583 -0.3838
    5TCq1    O4   75   3.910   0.228  11.620  0.6465 -0.0935  0.5824
    5TCq1    C9   76   3.918   0.786  11.820 -0.6163  0.6422  0.3016
    5TCq1    O5   77   3.821   0.824  11.755  0.0151 -0.1805 -0.3780
    5TCq1    O6   78   3.987   0.861  11.898 -0.7649  0.5092 -0.3252
    5TCq1    H1   79   3.929   0.291  11.963  0.1817  0.9290  0.6354
    5TCq1    H2   80   4.077   0.648  12.006  1.1288 -1.5415  0.4134
    5TCq1    H3   81   3.851   0.616  11.626 -0.9549  0.4125  0.7479
    5TCq1    H4   82   4.024   0.274  11.814 -1.1114 -0.4463  2.1187
    6MPD2     C   83   3.795   0.423  11.253 -0.3389  0.3986 -0.1314
    6MPD2    C1   84   3.848   0.352  11.357 -0.3921 -0.1858  0.2831
    6MPD2    C2   85   3.866   0.217  11.337  0.2225  0.4146 -0.9473
    6MPD2    C3   86   3.833   0.149  11.222  0.0265 -0.6406  0.2997
    6MPD2    C4   87   3.789   0.226  11.114  0.5983  0.4224  0.1048
    6MPD2    C5   88   3.778   0.364  11.133  0.1695  0.4280  0.0489
    6MPD2     H   89   3.928   0.163  11.408 -1.8745 -1.6705 -0.7091
    6MPD2    H1   90   3.765   0.190  11.015  1.0209  0.9159 -0.1787
    6MPD2    H2   91   3.781   0.530  11.264  0.4180  0.2341  2.4911
    6MPD2    H3   92   3.739   0.423  11.051  0.1436 -1.3979 -1.2785
    6MPD2     N   93   3.853   0.004  11.212 -0.9590  0.0237 -0.1509
    6MPD2    H5   94   3.886   4.674  11.292 -2.8052 -0.4951  0.2537
    6MPD2    N1   95   3.884   0.413  11.481 -0.3122  0.2472 -0.4777
    6MPD2    H7   96   3.882   0.514  11.492 -1.5734  0.1690 -0.0892
    7TCq1    O1   97   0.609   4.398  13.498 -0.3528 -0.5185 -0.2547
    7TCq1    C1   98   0.661   4.280  13.478  0.7909  0.0784  0.2539
    7TCq1    O2   99   0.710   4.241  13.373 -0.3794  0.0391  0.2730
    7TCq1    C2  100   0.675   4.216  13.607  0.2833 -0.1065  0.7942
    7TCq1    C3  101   0.588   4.240  13.709  1.0002  0.1682 -0.4005
    7TCq1    C4  102   0.619   4.191  13.829  0.0837 -0.3966 -0.8478
    7TCq1    C5  103   0.718   4.098  13.841 -0.3727 -0.1882  0.7967
    7TCq1    C6  104   0.798   4.077  13.733  0.1525  0.2747 -0.2844
    7TCq1    C7  105   0.785   4.136  13.612  0.6572 -0.2274  0.3055
    7TCq1    C8  106   0.880   3.958  13.745  0.4229  0.3989  0.1511
    7TCq1    O4  107   0.845   3.879  13.831  0.2210  0.1375 -0.0829
    7TCq1    C9  108   0.561   4.233  13.958  0.4423 -0.5216  0.5171
    7TCq1    O5  109   0.480   4.327  13.957  0.6924 -0.0199 -0.5085
    7TCq1    O6  110   0.621   4.190  14.064 -0.5612  0.3710  0.5489
    7TCq1    H1  111   0.604   4.430  13.590 -1.4652  1.4958 -1.0088
    7TCq1    H2  112   0.505   4.310  13.703  0.3153 -0.5297  0.9636
    7TCq1    H3  113   0.736   4.056  13.939  4.4581  1.4644  0.6162
    7TCq1    H4  114   0.841   4.111  13.523  0.9224 -1.0501  0.7053
    8MPD2     C  115   1.322   3.705  13.688 -0.3386 -0.4692 -0.3254
    8MPD2    C1  116   1.204   3.655  13.740 -0.5119 -0.4692 -0.0354
    8MPD2    C2  117   1.097   3.738  13.726  0.0477 -0.0765 -0.1050
    8MPD2    C3  118   1.103   3.861  13.661  0.0338 -0.3107  0.3506
    8MPD2    C4  119   1.216   3.899  13.603 -0.0157  0.3232 -0.0289
    8MPD2    C5  120   1.328   3.822  13.616 -0.2993 -0.2409  0.2988
    8MPD2     H  121   0.999   3.710  13.762 -0.7854  1.8292 -0.8599
    8MPD2    H1  122   1.214   3.999  13.560 -0.0423  1.7768  3.3548
    8MPD2    H2  123   1.416   3.652  13.697  0.6940  1.2049 -1.3456
    8MPD2    H3  124   1.429   3.838  13.579 -0.7595  1.3957 -0.2645
    8MPD2     N  125   0.993   3.955  13.663 -0.4597  0.1165 -0.8774
    8MPD2    H5  126   1.021   4.048  13.633 -1.2832  1.1602  1.6410
    8MPD2    N1  127   1.199   3.528  13.798  0.8552  0.8630  0.0609
    8MPD2    H7  128   1.282   3.470  13.795 -0.7602 -1.5077  0.8626
    9TCq1    O1  129   3.237   2.758  11.094 -0.1674  0.3586  0.7113
    9TCq1    C1  130   3.206   2.833  10.988  0.3233 -0.2191 -0.1854
    9TCq1    O2  131   3.088   2.852  10.961 -0.0908 -0.1815  0.5010
    9TCq1    C2  132   3.315   2.811  10.893 -0.6971 -1.2484  0.3027
    9TCq1    C3  133   3.278   2.756  10.774  0.5949 -1.2391 -0.3857
    9TCq1    C4  134   3.370   2.757  10.669  0.2247 -0.0657  0.1651
    9TCq1    C5  135   3.499   2.799  10.692 -0.0891 -0.9778 -0.2106
    9TCq1    C6  136   3.532   2.838  10.819  0.0727 -0.3079  0.0216
    9TCq1    C7  137   3.439   2.851  10.924  0.4880  0.1255 -0.1680
    9TCq1    C8  138   3.672   2.812  10.849  0.9890 -0.7673  0.0746
    9TCq1    O4  139   3.752   2.789  10.757  0.3247  0.2252  0.1135
    9TCq1    C9  140   3.327   2.711  10.543 -0.5898 -0.4929  0.2700
    9TCq1    O5  141   3.218   2.647  10.529 -0.3868 -0.1505 -0.3393
    9TCq1    O6  142   3.416   2.702  10.454 -0.0299 -0.1978  0.2850
    9TCq1    H1  143   3.331   2.732  11.109  0.1763  2.2236  1.6912
    9TCq1    H2  144   3.175   2.724  10.760  0.3880  0.3434 -2.5222
    9TCq1    H3  145   3.566   2.809  10.608 -1.5667  1.9118 -1.0324
    9TCq1    H4  146   3.452   2.898  11.021  3.0363 -1.1692  0.1162
   10MPD2     C  147   3.948   2.833  10.979  0.3459 -0.2464  0.1455
   10MPD2    C1  148   3.831   2.821  11.042 -0.0351 -0.6210 -0.4581
   10MPD2    C2  149   3.831   2.845  11.182  0.6101  1.1271 -0.6039
   10MPD2    C3  150   3.953   2.856  11.254  0.0170  0.2292  0.4559
   10MPD2    C4  151   4.076   2.854  11.188 -1.0500  0.0386  0.5532
   10MPD2    C5  152   4.068   2.839  11.051  0.1944  0.5032 -0.3103
   10MPD2     H  153   3.734   2.845  11.230  0.5651  0.1955 -0.6862
   10MPD2    H1  154   4.170   2.866  11.241 -0.6215 -0.0674 -0.1886
   10MPD2    H2  155   3.957   2.835  10.871  2.7809 -1.2505  0.3249
   10MPD2    H3  156   4.153   2.847  10.984  0.7352  0.0020  0.3176
   10MPD2     N  157   3.963   2.871  11.397  0.2561  0.1396  0.1532
   10MPD2    H5  158   4.054   2.859  11.439  0.4792  0.9059 -0.1152
   10MPD2    N1  159   3.702   2.818  10.982  0.7333  0.0824 -0.1596
   10MPD2    H7  160   3.627   2.817  11.050 -0.6426  2.7071 -1.6671
   11TCq1    O1  161   0.420   2.282  14.103  0.2563 -0.1683 -0.3787
   11TCq1    C1  162   0.545   2.340  14.107 -0.1371  0.4126 -0.4852
   11TCq1    O2  163   0.649   2.276  14.116  0.4836 -0.3004 -0.2732
   11TCq1    C2  164   0.536   2.457  14.203  0.3514 -0.4168  0.3268
   11TCq1    C3  165   0.662   2.490  14.251 -0.0382  0.7239 -0.0567
   11TCq1    C4  166   0.671   2.547  14.373 -0.4185 -0.1936  0.1651
   11TCq1    C5  167   0.560   2.574  14.450  0.3281  0.2461  0.5624
   11TCq1    C6  168   0.437   2.531  14.400 -1.0917  0.6676  0.8709
   11TCq1    C7  169   0.419   2.478  14.277 -0.1713 -0.2780 -0.0679
   11TCq1    C8  170   0.326   2.573  14.488  0.1154  0.2788 -0.0068
   11TCq1    O4  171   0.354   2.640  14.588 -0.3307 -0.4507 -0.1900
   11TCq1    C9  172   0.801   2.600  14.412 -0.5099  0.1579  0.0926
   11TCq1    O5  173   0.790   2.707  14.475  0.0810  0.6802  0.7189
   11TCq1    O6  174   0.911   2.538  14.389  0.6703  0.1583 -0.2996
   11TCq1    H1  175   0.347   2.345  14.087 -0.7833 -1.3336 -0.2921
   11TCq1    H2  176   0.755   2.498  14.196 -0.5829  1.2447 -0.8909
   11TCq1    H3  177   0.575   2.614  14.549  1.8243 -2.7050  1.5356
   11TCq1    H4  178   0.319   2.458  14.241  0.4949 -0.6559 -1.7278
   12MPD2     C  179   0.059   2.624  14.621 -0.0196 -0.0746 -0.8561
   12MPD2    C1  180   0.080   2.552  14.507 -0.8677  0.2006  0.3908
   12MPD2    C2  181   4.689   2.508  14.442  0.1751 -0.0012  0.5495
   12MPD2    C3  182   4.557   2.529  14.491  0.4863  0.9746 -0.6005
   12MPD2    C4  183   4.548   2.590  14.614 -0.7220 -0.4854  0.4065
   12MPD2    C5  184   4.658   2.636  14.673  0.0071 -0.0723  0.2776
   12MPD2     H  185   4.700   2.449  14.352 -1.4663  0.3506  0.1243
   12MPD2    H1  186   4.454   2.588  14.669 -1.9412  0.4195 -1.6513
   12MPD2    H2  187   0.148   2.648  14.678  0.6013  1.8329 -2.6790
   12MPD2    H3  188   4.638   2.690  14.765  1.1731 -0.0923  0.5414
   12MPD2     N  189   4.446   2.454  14.445  0.7411  0.2405 -0.5580
   12MPD2    H5  190   4.452   2.401  14.359  0.9086  0.8851 -0.9343
   12MPD2    N1  191   0.208   2.523  14.456  0.9115  0.2273  0.5500
   12MPD2    H7  192   0.202   2.459  14.377  0.4725  0.3389  0.4897
   13TCq1    O1  193   3.961   2.531  10.887 -0.1220 -0.0255  0.2093
   13TCq1    C1  194   3.937   2.427  10.805  0.2422 -0.2376 -0.0695
   13TCq1    O2  195   4.011   2.389  10.716 -0.0492 -0.1552 -0.5375
   13TCq1    C2  196   3.794   2.420  10.790  0.0770 -0.9579  0.7388
   13TCq1    C3  197   3.738   2.405  10.661  0.1161 -0.2244 -0.3969
   13TCq1    C4  198   3.604   2.374  10.647  0.4954 -0.3339 -0.2205
   13TCq1    C5  199   3.537   2.335  10.760  0.1502 -0.1330  1.7111
   13TCq1    C6  200   3.599   2.353  10.889  0.3730  0.6247 -0.2664
   13TCq1    C7  201   3.726   2.393  10.903 -1.3241  0.1916 -0.1623
   13TCq1    C8  202   3.511   2.375  11.006  0.3942 -0.7774 -0.2652
   13TCq1    O4  203   3.549   2.456  11.090  0.5151 -0.2450  0.4406
   13TCq1    C9  204   3.549   2.366  10.514  0.0100  0.3133 -0.9023
   13TCq1    O5  205   3.421   2.365  10.504  0.3583 -0.5150  0.0934
   13TCq1    O6  206   3.630   2.388  10.415  0.4384 -0.7055  0.5202
   13TCq1    H1  207   3.885   2.577  10.930 -0.5052  0.5841 -1.1199
   13TCq1    H2  208   3.798   2.421  10.572  0.3928  0.4482 -0.0961
   13TCq1    H3  209   3.430   2.321  10.747  0.2652  0.2839  0.3171
   13TCq1    H4  210   3.772   2.396  11.001  0.3337  1.7078 -0.9906
   14MPD2     C  211   3.178   2.231  11.061 -0.2045 -0.1965 -0.1691
   14MPD2    C1  212   3.278   2.321  11.077 -0.8005 -0.4267 -0.7433
   14MPD2    C2  213   3.273   2.401  11.189 -0.2648  0.1516  0.0724
   14MPD2    C3  214   3.164   2.396  11.277  0.0394 -0.6258 -0.1351
   14MPD2    C4  215   3.051   2.320  11.241 -0.1478 -1.0114  0.3842
   14MPD2    C5  216   3.062   2.238  11.129  0.2770  0.7380  0.4057
   14MPD2     H  217   3.356   2.463  11.220 -0.8488 -0.0009  1.9511
   14MPD2    H1  218   2.970   2.321  11.313 -0.0271 -1.2414  0.5238
   14MPD2    H2  219   3.181   2.154  10.985 -0.0202  0.6133 -0.9979
   14MPD2    H3  220   2.988   2.160  11.118  0.9518  0.3059 -1.0500
   14MPD2     N  221   3.173   2.470  11.400 -0.5972  0.0107  0.1220
   14MPD2    H5  222   3.256   2.525  11.419 -2.2569  2.0722  1.3330
   14MPD2    N1  223   3.391   2.314  10.990  0.2950  0.3436 -0.0632
   14MPD2    H7  224   3.386   2.242  10.919 -1.3946  0.8680 -0.4855
   15TCq1    O1  225   0.969   2.372   1.919  0.5428 -0.4454 -0.2378
   15TCq1    C1  226   0.915   2.368   1.798  0.9430  0.8123  0.0411
   15TCq1    O2  227   0.804   2.409   1.769  0.5718 -0.2064 -0.2848
   15TCq1    C2  228   1.010   2.329   1.697  0.2689 -0.1709  0.1417
   15TCq1    C3  229   1.144   2.342   1.728  0.5079 -0.7426  0.0117
   15TCq1    C4  230   1.228   2.264   1.661 -0.1329 -0.5072  0.3119
   15TCq1    C5  231   1.180   2.178   1.561  0.3715  0.5287 -0.0071
   15TCq1    C6  232   1.053   2.175   1.525 -0.0578  0.1613 -0.5847
   15TCq1    C7  233   0.962   2.249   1.595  0.4535  0.0401 -0.3571
   15TCq1    C8  234   1.017   2.061   1.439 -0.4405  0.4208 -0.0993
   15TCq1    O4  235   1.093   1.967   1.445  0.7663 -0.2392 -0.5130
   15TCq1    C9  236   1.374   2.275   1.683 -0.7591 -0.2489  0.4515
   15TCq1    O5  237   1.406   2.366   1.765 -0.0051 -0.2422 -0.1204
   15TCq1    O6  238   1.436   2.169   1.651  0.6250  0.1431  0.3531
   15TCq1    H1  239   1.034   2.301   1.936  0.2352 -0.9813 -1.3194
   15TCq1    H2  240   1.183   2.399   1.811 -1.0843 -0.6016  0.6691
   15TCq1    H3  241   1.258   2.124   1.509  1.5389  0.2230  2.0697
   15TCq1    H4  242   0.855   2.234   1.597  0.4804 -0.3720 -1.9620
   16MPD2     C  243   0.722   2.034   1.218  0.6814  0.0137 -0.5271
   16MPD2    C1  244   0.831   1.990   1.291 -0.3117 -0.4815  0.4458
   16MPD2    C2  245   0.864   1.853   1.275  0.1381  0.3671  0.1070
   16MPD2    C3  246   0.789   1.759   1.210 -0.4065  0.4224 -0.1341
   16MPD2    C4  247   0.677   1.813   1.149  0.5853  0.4039  0.8858
   16MPD2    C5  248   0.645   1.947   1.151 -0.0882 -0.0589  0.5429
   16MPD2     H  249   0.950   1.812   1.326  0.3584 -0.6041 -1.0547
   16MPD2    H1  250   0.613   1.750   1.088  2.4737 -0.5613 -0.0993
   16MPD2    H2  251   0.687   2.135   1.233 -2.9012 -1.2129 -0.6278
   16MPD2    H3  252   0.548   1.977   1.112  0.4450 -0.2116 -0.9116
   16MPD2     N  253   0.845   1.630   1.195 -1.3349  0.2246  0.6605
   16MPD2    H5  254   0.933   1.603   1.237 -1.0399 -0.9878 -0.7122
   16MPD2    N1  255   0.905   2.086   1.363 -0.1702  0.3998  0.1527
   16MPD2    H7  256   0.867   2.180   1.359  0.5458  0.7907  2.4527
   17TCq1    O1  257   3.288   2.297  11.741  0.3164  1.0178 -0.1045
   17TCq1    C1  258   3.185   2.229  11.691 -0.5950 -0.9942 -0.2079
   17TCq1    O2  259   3.108   2.162  11.765  0.0852 -1.0936 -0.1837
   17TCq1    C2  260   3.232   2.177  11.567 -0.0611  0.3346 -0.0994
   17TCq1    C3  261   3.133   2.104  11.505  0.1468 -0.2009 -0.4724
   17TCq1    C4  262   3.171   2.024  11.406 -0.3179 -0.4231 -0.3857
   17TCq1    C5  263   3.300   2.020  11.360  0.0326  0.2965  0.5447
   17TCq1    C6  264   3.397   2.095  11.424 -0.6713 -0.0272 -0.4032
   17TCq1    C7  265   3.366   2.168  11.532  0.2518 -0.5342 -0.0084
   17TCq1    C8  266   3.532   2.119  11.364 -0.2501  0.2810 -0.2649
   17TCq1    O4  267   3.613   2.184  11.432 -0.2836  0.6465  0.4273
   17TCq1    C9  268   3.065   1.956  11.324 -0.1030  1.0737 -0.0365
   17TCq1    O5  269   2.945   1.992  11.333  0.2243  0.3653  0.1125
   17TCq1    O6  270   3.106   1.861  11.249 -0.3338  0.6727 -0.8053
   17TCq1    H1  271   3.326   2.341  11.663 -0.3087  2.2514  0.2989
   17TCq1    H2  272   3.029   2.119  11.532  0.1857  0.8899 -0.9692
   17TCq1    H3  273   3.319   1.949  11.280  1.2571  1.0743  0.1485
   17TCq1    H4  274   3.448   2.222  11.578 -0.5757  0.0831  0.7432
   18MPD2     C  275   3.788   2.123  11.209 -0.0011 -0.3980  0.0021
   18MPD2    C1  276   3.669   2.068  11.166  0.4841 -0.2787 -0.1529
   18MPD2    C2  277   3.663   2.023  11.028 -0.1034 -0.1139  0.1129
   18MPD2    C3  278   3.772   2.046  10.942  0.8750 -0.0928  0.3106
   18MPD2    C4  279   3.888   2.096  10.999  0.0508  0.1189  0.0226
   18MPD2    C5  280   3.895   2.130  11.128 -0.1808  0.2318  0.0539
   18MPD2     H  281   3.580   1.960  10.997 -0.0862  0.4067 -0.9911
   18MPD2    H1  282   3.975   2.097  10.934  0.1599  1.2740  0.1856
   18MPD2    H2  283   3.802   2.163  11.309  0.1100  1.7834 -0.8800
   18MPD2    H3  284   3.987   2.171  11.167  0.7535 -1.2195 -0.6144
   18MPD2     N  285   3.768   2.015  10.803 -0.3750 -0.0460 -0.7528
   18MPD2    H5  286   3.857   2.014  10.754  0.0345  0.1426 -0.0150
   18MPD2    N1  287   3.554   2.051  11.246 -0.4640 -0.0788 -0.1218
   18MPD2    H7  288   3.478   1.996  11.207 -0.7398  0.5471 -0.4566
   19TMC2    C1  289   0.785   2.035  13.893  0.0874 -0.1232  0.2097
   19TMC2    C2  290   0.770   2.026  13.758 -0.0516  0.4496  0.0195
   19TMC2    C3  291   0.652   1.964  13.715  0.2577 -0.6224 -0.5568
   19TMC2    C4  292   0.703   1.970  13.990  1.0313  0.3060 -0.2560
   19TMC2    C5  293   0.595   1.898  13.942 -0.0960  0.2958 -0.5308
   19TMC2    C6  294   0.568   1.895  13.805  0.6533  0.0764 -0.0697
   19TMC2     C  295   0.915   2.082  13.942 -0.0899 -0.5330  0.2612
   19TMC2     O  296   0.967   2.167  13.870  0.7459  0.0623 -0.4934
   19TMC2     H  297   0.848   2.064  13.692  0.8099 -3.4674 -1.1903
   19TMC2    H1  298   0.728   1.984  14.095 -3.8952  0.3592  0.9247
   19TMC2    H2  299   0.472   1.854  13.778  0.4210 -0.3931  1.4857
   19TMC2    C7  300   0.512   1.813  14.029 -0.4402 -0.2923 -0.3959
   19TMC2    C8  301   0.630   1.935  13.578 -0.0468 -0.1582  0.4004
   19TMC2    O1  302   0.397   1.778  14.003  0.3567  0.0836 -0.1488
   19TMC2    O2  303   0.723   1.942  13.498  0.6946  0.4248  0.5724
   19TMC2    O5  304   0.510   1.988  13.546  0.0908 -0.2420 -0.2616
   19TMC2    H5  305   0.454   1.999  13.625 -0.6242 -0.2739 -0.7671
   20MPD2     C  306   1.173   2.156  14.106 -0.0158  0.8201  0.4289
   20MPD2    C1  307   1.074   2.060  14.130  0.1670 -0.1208  0.2168
   20MPD2    C2  308   1.056   2.019  14.260 -0.1029  0.0506 -0.0516
   20MPD2    C3  309   1.137   2.063  14.364 -0.0880  0.1212  1.0859
   20MPD2    C4  310   1.241   2.153  14.342 -0.4148 -0.2117 -0.0450
   20MPD2    C5  311   1.250   2.202  14.209  0.1749 -0.1497  0.1525
   20MPD2     H  312   0.973   1.956  14.290 -1.1996  0.4604 -2.1718
   20MPD2    H1  313   1.301   2.196  14.421 -1.0025  0.2979  0.1227
   20MPD2    H2  314   1.188   2.208  14.012  0.0755  0.4252  0.2287
   20MPD2    H3  315   1.317   2.285  14.192 -0.3428  0.0619 -0.8432
   20MPD2     N  316   1.101   2.030  14.500  0.6310 -0.8423  0.6008
   20MPD2    H5  317   1.131   2.096  14.571 -0.1272 -1.2230  1.2713
   20MPD2    N1  318   0.957   2.029  14.053 -0.6476 -0.4485 -0.0235
   20MPD2    H7  319   0.902   1.955  14.094  0.2844 -1.5715 -0.8148
   21MPD2     C  320   2.935   2.480  14.517 -0.7718  0.5355 -0.2400
   21MPD2    C1  321   3.033   2.500  14.612  0.4469 -0.9361 -0.5230
   21MPD2    C2  322   2.984   2.515  14.742 -0.4782  0.4301  0.0017
   21MPD2    C3  323   2.855   2.512  14.777  0.0625 -0.0985  0.2208
   21MPD2    C4  324   2.760   2.505  14.673 -0.2903  0.4892 -0.0816
   21MPD2    C5  325   2.803   2.486  14.549 -0.6563  0.2649 -0.0844
   21MPD2     H  326   3.060   2.518  14.819 -0.6657 -2.3815  0.2764
   21MPD2    H1  327   2.654   2.504  14.696 -0.1692  0.8307  0.4803
   21MPD2    H2  328   2.958   2.485  14.411  0.4186 -0.0842 -0.0030
   21MPD2    H3  329   2.737   2.471  14.464  0.3661 -2.1309 -0.4467
   21MPD2     N  330   2.822   2.515  14.919 -0.6476 -0.2353  0.6101
   21MPD2    H5  331   2.890   2.556  14.983 -0.9183 -1.4595  1.6648
   21MPD2    N1  332   3.172   2.496  14.586  0.9681 -0.1206 -0.0038
   21MPD2    H7  333   3.235   2.530  14.658 -1.4612  0.4147  1.8942
   22TCq2    C1  334   2.713   2.452  14.971  0.6813  0.6567  0.0652
   22TCq2    O2  335   2.654   2.360  14.919  0.0352 -0.1217  0.7355
   22TCq2    C2  336   2.716   2.473  15.109  0.2852  0.6499  0.9784
   22TCq2    C3  337   2.764   2.362  15.170 -0.2787 -0.3917 -0.5965
   22TCq2    C4  338   2.828   2.384  15.290 -0.5243  0.1425  0.4100
   22TCq2    C5  339   2.843   2.509  15.349 -0.2175  0.9734  0.0871
   22TCq2    C6  340   2.789   2.614  15.275 -0.0916 -0.1259  0.0304
   22TCq2    C7  341   2.737   2.594  15.152 -0.0304 -0.4484  0.2294
   22TCq2    C8  342   2.806   2.757  15.315 -0.5337 -0.0817 -0.7045
   22TCq2    O4  343   2.840   2.766  15.436  0.6180  0.3482 -0.1748
   22TCq2    C9  344   2.896   2.270  15.360 -0.2397 -0.2026  0.2472
   22TCq2    O5  345   2.979   2.306  15.449  0.3030 -0.5661  0.3436
   22TCq2    O6  346   2.885   2.158  15.307  0.0309  0.0102  0.4910
   22TCq2    H2  347   2.760   2.260  15.134 -1.3781 -0.7973  0.6947
   22TCq2    H3  348   2.902   2.533  15.438 -2.1775  0.5583  1.4981
   22TCq2    H4  349   2.731   2.676  15.081 -0.0554 -2.7473 -2.4510
   23MPD2     C  350   0.244   3.927  14.518  0.2512  0.0781 -0.6150
   23MPD2    C1  351   0.211   3.969  14.637 -0.8107 -0.1644  0.2905
   23MPD2    C2  352   0.135   4.083  14.654 -0.3813 -0.3133  0.3453
   23MPD2    C3  353   0.084   4.146  14.545 -1.1114 -0.0383  0.6058
   23MPD2    C4  354   0.118   4.107  14.420 -0.4191 -0.0971  0.1264
   23MPD2    C5  355   0.209   4.008  14.412 -0.2791  0.6259 -0.1114
   23MPD2     H  356   0.108   4.114  14.755  0.5256  1.0417  0.1747
   23MPD2    H1  357   0.104   4.161  14.327  1.4583  1.2399  0.6311
   23MPD2    H2  358   0.311   3.843  14.500 -2.4901 -2.2680  0.1954
   23MPD2    H3  359   0.245   3.980  14.314  0.2858 -0.6466  0.4618
   23MPD2     N  360   4.704   4.244  14.554 -0.4303 -0.2079 -0.1413
   23MPD2    H5  361   4.662   4.270  14.465 -1.4662 -1.6564 -0.0598
   23MPD2    N1  362   0.246   3.898  14.752  0.0384  0.4466  0.7917
   23MPD2    H7  363   0.225   3.946  14.838 -1.7664 -3.0474  2.2943
   24TCq2    C1  364   4.658   4.305  14.666 -0.6576  0.1004  0.2611
   24TCq2    O2  365   4.709   4.307  14.779 -0.1154  0.2488 -0.0658
   24TCq2    C2  366   4.524   4.355  14.644  0.1104 -0.2605 -0.0164
   24TCq2    C3  367   4.488   4.379  14.517 -0.2576  0.5782  0.6306
   24TCq2    C4  368   4.356   4.381  14.483  0.0250 -0.0885  0.4000
   24TCq2    C5  369   4.257   4.367  14.577  0.2383 -0.2385  0.8365
   24TCq2    C6  370   4.299   4.332  14.708  0.7107  0.6604  0.2547
   24TCq2    C7  371   4.432   4.333  14.742  0.1174  0.1152  0.4010
   24TCq2    C8  372   4.211   4.257  14.790  0.0455 -0.5622 -0.2178
   24TCq2    O4  373   4.267   4.187  14.876 -0.2046 -0.2297  0.0413
   24TCq2    C9  374   4.324   4.409  14.351  0.0692  0.8104 -0.5005
   24TCq2    O5  375   4.412   4.412  14.263 -0.0017 -0.0004 -0.1758
   24TCq2    O6  376   4.204   4.427  14.321  0.1632 -0.2115  0.6512
   24TCq2    H2  377   4.556   4.392  14.434  1.6748 -1.1460  1.9446
   24TCq2    H3  378   4.152   4.381  14.553 -0.2363 -2.3255  1.7472
   24TCq2    H4  379   4.475   4.308  14.838  2.9026 -0.1130 -0.9083
   25TMC2    C1  380   2.931   1.704  11.589 -0.1405 -0.8887  0.5104
   25TMC2    C2  381   2.863   1.820  11.572 -0.3628 -0.4488 -0.2545
   25TMC2    C3  382   2.867   1.922  11.670 -0.1079  0.4692  0.0117
   25TMC2    C4  383   3.013   1.679  11.700 -0.1758  0.3011  0.3444
   25TMC2    C5  384   3.025   1.788  11.784  0.3746  0.4112  0.1088
   25TMC2    C6  385   2.950   1.905  11.771 -1.1772  0.5772  0.2821
   25TMC2     C  386   2.931   1.616  11.471 -0.0734 -0.5625 -0.0186
   25TMC2     O  387   2.887   1.668  11.369  0.2190  0.1180 -0.5092
   25TMC2     H  388   2.795   1.837  11.489  0.1020  2.1251 -0.1293
   25TMC2    H1  389   3.078   1.592  11.691 -3.2223 -2.0922  1.3027
   25TMC2    H2  390   2.957   1.984  11.845  1.0766 -0.1695  0.8795
   25TMC2    C7  391   3.115   1.779  11.892 -0.5236  0.0666 -0.4045
   25TMC2    C8  392   2.809   2.051  11.668  0.6855 -0.2371 -0.5517
   25TMC2    O1  393   3.137   1.665  11.933  0.2445 -0.1786  0.6490
   25TMC2    O2  394   2.779   2.114  11.771 -0.1637 -0.4721  0.3625
   25TMC2    O5  395   2.760   2.069  11.551  0.2184  0.0797  0.3434
   25TMC2    H5  396   2.820   2.030  11.483  1.3150 -0.7244  1.7719
   26MPD2     C  397   2.929   1.183  11.219 -0.5012 -0.0815  0.2719
   26MPD2    C1  398   2.904   1.151  11.346 -0.3913  0.1861 -0.6731
   26MPD2    C2  399   2.910   1.253  11.444  0.5176 -0.3335 -0.0874
   26MPD2    C3  400   2.928   1.381  11.406 -0.0463 -0.1424 -0.1003
   26MPD2    C4  401   2.963   1.403  11.275  0.1892  0.1143  0.6792
   26MPD2    C5  402   2.966   1.307  11.181  0.0564 -0.4165 -0.0930
   26MPD2     H  403   2.889   1.232  11.548 -2.5830  0.5260 -0.5585
   26MPD2    H1  404   2.988   1.504  11.245 -1.2139  0.7360  1.6144
   26MPD2    H2  405   2.910   1.106  11.145  0.4114  1.0913 -1.1782
   26MPD2    H3  406   2.991   1.339  11.081 -2.0541  1.6855  0.0447
   26MPD2     N  407   2.936   1.484  11.504  0.2859  0.4628  0.5725
   26MPD2    H5  408   2.935   1.454  11.601 -0.6239 -2.3921 -0.3391
   26MPD2    N1  409   2.875   1.019  11.377  0.0417 -0.0354  0.5084
   26MPD2    H7  410   2.859   0.953  11.302 -1.9310 -0.1177  1.0016
   27TMC2    C1  411   2.031   3.256  12.516 -0.0460  0.3981 -0.0329
   27TMC2    C2  412   2.121   3.202  12.428  1.4122 -0.1125  0.0851
   27TMC2    C3  413   2.090   3.211  12.294 -0.4025 -0.0415  0.4999
   27TMC2    C4  414   1.929   3.332  12.478  1.4643  0.3522  0.6244
   27TMC2    C5  415   1.910   3.349  12.341 -0.6075 -0.1320  0.2723
   27TMC2    C6  416   1.987   3.289  12.246  0.0997 -0.2926  0.8712
   27TMC2     C  417   2.055   3.227  12.655  0.9334  0.0350 -0.1865
   27TMC2     O  418   2.132   3.132  12.673  0.2102 -0.3263  0.1555
   27TMC2     H  419   2.210   3.155  12.469  1.0720 -0.8788 -0.0634
   27TMC2    H1  420   1.870   3.392  12.547  0.2845  2.0202 -1.8365
   27TMC2    H2  421   1.982   3.314  12.141  2.8527  2.0747  1.2985
   27TMC2    C7  422   1.833   3.465  12.298  0.4083  0.0673  0.0324
   27TMC2    C8  423   2.193   3.174  12.202  0.1000  0.0729  0.0228
   27TMC2    O1  424   1.865   3.523  12.195 -0.1636  0.7356 -0.4857
   27TMC2    O2  425   2.308   3.148  12.235  0.2351  0.5371  0.0762
   27TMC2    O5  426   2.125   3.137  12.088  0.1506 -0.5207 -0.3455
   27TMC2    H5  427   2.028   3.148  12.089  0.0230 -1.7611 -0.2580
   28MPD2     C  428   1.969   3.278  13.160 -0.4090 -0.1715 -0.5317
   28MPD2    C1  429   1.888   3.367  13.084 -0.3497  0.9749  0.1313
   28MPD2    C2  430   1.892   3.359  12.945 -0.0230 -0.3492 -0.2645
   28MPD2    C3  431   1.969   3.274  12.875 -1.0946 -0.0937  0.1623
   28MPD2    C4  432   2.049   3.185  12.950  0.3740 -0.1587  0.6463
   28MPD2    C5  433   2.045   3.194  13.089 -0.4123  0.9476  0.2230
   28MPD2     H  434   1.830   3.433  12.896 -1.4260 -0.8737  0.7197
   28MPD2    H1  435   2.112   3.109  12.906 -1.5349 -1.9620  1.0191
   28MPD2    H2  436   1.975   3.276  13.268  0.6847 -0.7736 -0.6003
   28MPD2    H3  437   2.108   3.117  13.134  0.4607  0.9653 -0.9818
   28MPD2     N  438   1.978   3.296  12.737  0.2712  0.4182  0.5334
   28MPD2    H5  439   1.914   3.367  12.703 -3.7340 -2.0434  2.9682
   28MPD2    N1  440   1.786   3.438  13.156  0.0089  0.2705  0.4604
   28MPD2    H7  441   1.800   3.439  13.256  0.9540 -0.2910  0.3355
   29MPD2     C  442   1.781   0.807  13.942 -0.6390  1.0612  0.3322
   29MPD2    C1  443   1.856   0.772  14.049  0.2371  0.2574  0.8303
   29MPD2    C2  444   1.871   0.855  14.157 -0.1265 -0.1333 -0.5935
   29MPD2    C3  445   1.818   0.979  14.158 -0.3332 -0.0699 -0.3969
   29MPD2    C4  446   1.745   1.017  14.046  0.5009  0.2329 -0.4432
   29MPD2    C5  447   1.726   0.930  13.944 -0.4687  0.1138  0.1995
   29MPD2     H  448   1.929   0.819  14.241  1.7199  0.3157 -1.6711
   29MPD2    H1  449   1.686   1.106  14.026 -1.2603 -0.7624  0.3303
   29MPD2    H2  450   1.787   0.763  13.843  0.6868  0.8224  0.5191
   29MPD2    H3  451   1.681   0.955  13.848  0.0493  3.1511  0.7261
   29MPD2     N  452   1.820   1.061  14.269  0.9923  0.0881  0.5944
   29MPD2    H5  453   1.806   1.159  14.244  0.3290  0.0366  0.7650
   29MPD2    N1  454   1.914   0.642  14.055 -0.4604  0.7486  0.2987
   29MPD2    H7  455   1.976   0.606  14.126  1.2776  1.5132 -0.8109
   30TCq2    C1  456   1.851   1.018  14.394  0.0049 -0.9763  0.1252
   30TCq2    O2  457   1.850   0.902  14.440 -0.3354  0.1295  0.6029
   30TCq2    C2  458   1.886   1.129  14.481 -0.9634  0.4198 -0.5643
   30TCq2    C3  459   1.846   1.100  14.613 -0.3091  0.3528 -0.7264
   30TCq2    C4  460   1.864   1.199  14.704 -0.5256 -0.1660 -0.1857
   30TCq2    C5  461   1.927   1.319  14.664  0.4302 -0.7290 -0.6001
   30TCq2    C6  462   1.974   1.342  14.530  0.2998  0.1296  0.7400
   30TCq2    C7  463   1.944   1.246  14.436 -0.2364  0.3496  0.3245
   30TCq2    C8  464   2.028   1.469  14.484 -0.1182 -0.0138 -0.7566
   30TCq2    O4  465   2.012   1.486  14.362 -0.3503 -0.1639  0.2135
   30TCq2    C9  466   1.828   1.167  14.844  0.0557 -0.1924  0.5472
   30TCq2    O5  467   1.884   1.247  14.923 -0.2617 -0.1208  0.0302
   30TCq2    O6  468   1.722   1.097  14.867 -0.8823  0.4061  0.1442
   30TCq2    H2  469   1.788   1.015  14.648  2.5957 -1.2510  0.1475
   30TCq2    H3  470   1.924   1.401  14.735 -0.0003 -1.6482  0.4258
   30TCq2    H4  471   1.959   1.268  14.331  1.7772 -1.9251  0.1499
   31MPD2     C  472   4.503   0.314  14.712 -0.9603 -0.6096 -0.3825
   31MPD2    C1  473   4.363   0.312  14.688 -0.6611  0.0968 -0.2614
   31MPD2    C2  474   4.274   0.269  14.789  0.4347  0.1967 -0.8566
   31MPD2    C3  475   4.326   0.220  14.910 -0.2721  0.1923 -0.0427
   31MPD2    C4  476   4.461   0.205  14.922 -0.7175 -0.5793 -0.2733
   31MPD2    C5  477   4.548   0.256  14.830 -0.5503 -0.4330  0.0946
   31MPD2     H  478   4.167   0.277  14.774  0.1694 -1.0348  0.3414
   31MPD2    H1  479   4.508   0.157  15.007 -0.0920  0.5961  0.0382
   31MPD2    H2  480   4.578   0.347  14.641  0.3931 -0.5468  1.0807
   31MPD2    H3  481   4.655   0.259  14.843 -0.6108  2.5737 -0.0094
   31MPD2     N  482   4.243   0.188  15.019 -0.5504 -0.1012  0.0664
   31MPD2    H5  483   4.278   0.122  15.088  1.4704  0.7329 -0.1670
   31MPD2    N1  484   4.312   0.377  14.570 -0.2203 -0.0144  0.3179
   31MPD2    H7  485   4.380   0.411  14.502  0.2936 -0.1220  0.7740
   32TCq2    C1  486   4.105   0.214  15.035 -0.6137 -1.3321 -0.0753
   32TCq2    O2  487   4.030   0.261  14.951 -0.3817 -1.1654  0.1202
   32TCq2    C2  488   4.036   0.134  15.141 -0.3689 -0.4633 -0.6277
   32TCq2    C3  489   3.899   0.134  15.146  0.3945  0.2389  0.1851
   32TCq2    C4  490   3.833   0.070  15.248  0.0783 -0.7829 -0.1952
   32TCq2    C5  491   3.908   0.024  15.358  0.1178  0.1064 -0.0120
   32TCq2    C6  492   4.047   0.020  15.351 -0.5560  0.7117 -0.3669
   32TCq2    C7  493   4.112   0.068  15.242  0.6379  0.1497  0.2956
   32TCq2    C8  494   4.133   4.707  15.462 -0.2612 -0.3838 -0.3622
   32TCq2    O4  495   4.258   4.695  15.448 -0.1088 -0.1162  0.7065
   32TCq2    C9  496   3.687   0.074  15.257 -0.2397 -0.0358 -1.0735
   32TCq2    O5  497   3.624   0.046  15.364  0.3078 -0.0320  0.6557
   32TCq2    O6  498   3.628   0.114  15.151 -0.4788  1.1022  0.8483
   32TCq2    H2  499   3.853   0.183  15.062 -1.4946 -1.9871 -0.0664
   32TCq2    H3  500   3.857   4.707  15.445 -2.4648  1.2765 -0.9972
   32TCq2    H4  501   4.220   0.074  15.237  0.4407  2.1962 -1.3604
   33MPD2     C  502   3.321   2.049  10.148  0.4932  0.2757 -0.5359
   33MPD2    C1  503   3.437   2.120  10.163 -0.8511 -0.2288 -0.0173
   33MPD2    C2  504   3.475   2.199  10.054  0.2014 -0.2234  0.2457
   33MPD2    C3  505   3.388   2.229   9.947 -0.5177 -0.4617  0.4338
   33MPD2    C4  506   3.262   2.167   9.942  0.1661  0.4512  0.0257
   33MPD2    C5  507   3.235   2.074  10.040  0.2039 -0.6868  0.4401
   33MPD2     H  508   3.565   2.257  10.072 -1.0806  2.1503 -1.1018
   33MPD2    H1  509   3.187   2.200   9.871 -0.5135 -1.6939 -0.2661
   33MPD2    H2  510   3.290   1.961  10.205  0.3986  1.7348  1.6767
   33MPD2    H3  511   3.136   2.029  10.040 -0.2046  0.2130 -1.6945
   33MPD2     N  512   3.418   2.326   9.845 -0.5233  0.1708  0.1699
   33MPD2    H5  513   3.361   2.330   9.761  0.0290  1.0749 -0.1611
   33MPD2    N1  514   3.514   2.098  10.275  0.7542 -1.1576 -0.4201
   33MPD2    H7  515   3.463   2.064  10.356  2.1031  0.2689  1.0401
   34TCq2    C1  516   3.496   2.437   9.860  0.2367 -0.5713  0.4884
   34TCq2    O2  517   3.555   2.483   9.955  0.2228 -0.3590 -0.1329
   34TCq2    C2  518   3.510   2.501   9.731  0.3070  0.1797  0.4312
   34TCq2    C3  519   3.491   2.427   9.616  0.2090  0.4223  1.0579
   34TCq2    C4  520   3.499   2.502   9.500  0.5783 -0.0770 -0.2791
   34TCq2    C5  521   3.563   2.623   9.491 -0.1223 -0.4402  0.0083
   34TCq2    C6  522   3.602   2.685   9.609  0.9591 -0.7539 -0.8431
   34TCq2    C7  523   3.569   2.629   9.727 -0.4242  0.7671 -0.1110
   34TCq2    C8  524   3.648   2.824   9.621  0.4424  0.3347  0.6154
   34TCq2    O4  525   3.721   2.862   9.710  0.5088 -0.1824  0.5504
   34TCq2    C9  526   3.476   2.423   9.379 -0.1127 -0.1464 -0.7265
   34TCq2    O5  527   3.528   2.472   9.275 -0.0852 -0.6128  0.5616
   34TCq2    O6  528   3.468   2.296   9.396 -0.3880 -0.1107 -0.2447
   34TCq2    H2  529   3.454   2.326   9.613  0.2621  0.4404 -0.4591
   34TCq2    H3  530   3.593   2.666   9.396  0.1026  1.9537  1.1539
   34TCq2    H4  531   3.599   2.673   9.822 -2.7910 -0.3333  1.1444
   35MPD2     C  532   0.857   4.115  12.221 -0.7152 -0.0028 -0.2336
   35MPD2    C1  533   0.845   4.000  12.147  0.5672  0.6292 -0.6634
   35MPD2    C2  534   0.825   4.012  12.004 -0.2308  0.2011  0.1415
   35MPD2    C3  535   0.814   4.135  11.947 -0.1586  0.6223  0.0841
   35MPD2    C4  536   0.837   4.250  12.021  0.0024 -0.3941  0.5228
   35MPD2    C5  537   0.862   4.235  12.151  0.1196  0.2218 -0.2859
   35MPD2     H  538   0.806   3.924  11.943  0.1396  0.4382 -0.3138
   35MPD2    H1  539   0.830   4.350  11.981 -1.7559 -1.2999 -1.4141
   35MPD2    H2  540   0.877   4.108  12.328  1.9570 -1.1482 -0.7943
   35MPD2    H3  541   0.867   4.326  12.209 -1.0586 -0.4190  0.8197
   35MPD2     N  542   0.768   4.149  11.812 -0.2663  0.3128  0.6677
   35MPD2    H5  543   0.750   4.073  11.748  0.2328 -1.3208  2.4954
   35MPD2    N1  544   0.860   3.882  12.219 -0.2511  0.2088 -0.0023
   35MPD2    H7  545   0.906   3.895  12.308 -0.1380 -1.4378  0.1772
   36TCq2    C1  546   0.754   4.266  11.736 -0.1349 -0.1853  0.1646
   36TCq2    O2  547   0.800   4.376  11.762 -0.3541  0.2711 -0.2136
   36TCq2    C2  548   0.690   4.243  11.607  0.3299  0.8218 -0.0054
   36TCq2    C3  549   0.672   4.343  11.519  0.9379  0.4374  0.8294
   36TCq2    C4  550   0.595   4.324  11.406 -0.1028  0.0749  0.5119
   36TCq2    C5  551   0.531   4.206  11.390 -0.4404  0.1022 -0.6349
   36TCq2    C6  552   0.549   4.109  11.479 -1.1045  0.2658  0.1008
   36TCq2    C7  553   0.625   4.120  11.584  0.0700  0.7661  0.0188
   36TCq2    C8  554   0.494   3.978  11.444 -0.1580 -0.0971 -0.6115
   36TCq2    O4  555   0.490   3.894  11.540  0.8458 -0.0697  0.1852
   36TCq2    C9  556   0.600   4.404  11.285 -0.4328 -0.4785 -0.0475
   36TCq2    O5  557   0.700   4.472  11.262 -0.7283  0.3630 -0.1906
   36TCq2    O6  558   0.524   4.378  11.188 -0.0543 -0.4010 -0.0944
   36TCq2    H2  559   0.729   4.435  11.522 -0.2664  1.2328 -0.1664
   36TCq2    H3  560   0.477   4.191  11.297 -0.9307 -0.3748 -0.2728
   36TCq2    H4  561   0.618   4.040  11.657 -0.8791  1.3298  0.5455
   37TMC2    C1  562   3.147   3.855  11.204 -0.1066  0.0687 -0.3410
   37TMC2    C2  563   3.104   3.963  11.119  0.1392 -0.5451 -0.2769
   37TMC2    C3  564   3.192   4.061  11.109 -0.3277 -0.4312 -0.0041
   37TMC2    C4  565   3.272   3.836  11.255  0.4953  0.3105 -0.8193
   37TMC2    C5  566   3.361   3.935  11.216  0.0654  0.1599  0.5377
   37TMC2    C6  567   3.326   4.047  11.150  0.2772  0.7193 -0.4566
   37TMC2     C  568   3.035   3.771  11.243  0.6268 -0.3184  0.3487
   37TMC2     O  569   2.936   3.763  11.170 -0.1088 -0.2550 -0.1847
   37TMC2     H  570   2.998   3.975  11.100 -0.1994  0.2542  2.1000
   37TMC2    H1  571   3.305   3.761  11.325 -1.2209 -1.0106 -1.4302
   37TMC2    H2  572   3.385   4.133  11.122  0.2769  0.7675 -0.3067
   37TMC2    C7  573   3.502   3.932  11.264  0.1039 -0.1526  0.5239
   37TMC2    C8  574   3.160   4.162  11.014 -0.4108  0.4172  0.1991
   37TMC2    O1  575   3.550   4.041  11.282 -0.0625  0.6614 -0.0528
   37TMC2    O2  576   3.080   4.134  10.927 -0.6612  0.2942  0.0291
   37TMC2    O5  577   3.176   4.285  11.065  0.4058  0.3546 -0.7357
   37TMC2    H5  578   3.218   4.284  11.153  1.0290  2.5482 -1.0005
   38MPD2     C  579   2.840   3.390  11.536 -0.2236 -0.0402 -0.5743
   38MPD2    C1  580   2.900   3.485  11.615 -0.1249 -0.0092 -0.1192
   38MPD2    C2  581   2.957   3.599  11.556 -0.3686 -0.0328 -0.4750
   38MPD2    C3  582   2.964   3.618  11.424  0.5574 -0.2037  0.2028
   38MPD2    C4  583   2.892   3.527  11.341  0.8170  0.2303 -0.4548
   38MPD2    C5  584   2.831   3.418  11.399  0.4627  0.3674 -0.3848
   38MPD2     H  585   3.011   3.669  11.619  1.9616 -0.5585 -1.8958
   38MPD2    H1  586   2.895   3.534  11.233  1.4350  0.1850 -0.4416
   38MPD2    H2  587   2.797   3.296  11.570 -2.3785  0.8361 -0.8832
   38MPD2    H3  588   2.790   3.345  11.330 -0.4355  1.4546 -0.9900
   38MPD2     N  589   3.046   3.724  11.372  0.1831  0.6322 -0.7277
   38MPD2    H5  590   3.116   3.765  11.432  0.1366  1.2815 -1.1170
   38MPD2    N1  591   2.930   3.458  11.752 -0.4547  0.6935 -0.1809
   38MPD2    H7  592   2.994   3.525  11.793 -0.6281  1.5817 -1.3404
   39MPD2     C  593   1.419   0.598   1.442 -0.3278  0.2198  0.2898
   39MPD2    C1  594   1.348   0.670   1.531 -0.6843 -0.0075  0.5789
   39MPD2    C2  595   1.226   0.724   1.489  0.2686 -0.5505 -0.3784
   39MPD2    C3  596   1.177   0.706   1.360  0.3648 -0.2309  0.6708
   39MPD2    C4  597   1.235   0.610   1.280 -0.0467 -0.3949  0.1425
   39MPD2    C5  598   1.369   0.570   1.315  0.5220  0.3788  0.7490
   39MPD2     H  599   1.178   0.795   1.555  1.2227 -0.7271  0.5157
   39MPD2    H1  600   1.205   0.593   1.177  0.4380 -1.0821  0.1161
   39MPD2    H2  601   1.518   0.563   1.467  0.7958  1.2626 -2.7579
   39MPD2    H3  602   1.430   0.507   1.251 -0.4476 -1.1838  1.3706
   39MPD2     N  603   1.057   0.768   1.317  0.4085 -0.5488  0.9413
   39MPD2    H5  604   1.028   0.751   1.222 -0.8726 -2.2226  1.6342
   39MPD2    N1  605   1.407   0.692   1.661  0.4070  0.0490 -0.1602
   39MPD2    H7  606   1.506   0.668   1.665  0.8178  1.5544 -1.4701
   40TCq2    C1  607   1.338   0.724   1.773 -0.2407  0.8311 -0.1100
   40TCq2    O2  608   1.216   0.741   1.798  0.3072 -0.2727 -0.6656
   40TCq2    C2  609   1.431   0.717   1.887  0.1357 -0.0743 -0.2154
   40TCq2    C3  610   1.375   0.708   2.010  0.0484  0.0167 -0.0636
   40TCq2    C4  611   1.454   0.692   2.120 -0.3827 -0.0435  0.0512
   40TCq2    C5  612   1.594   0.694   2.110 -0.2625 -0.7394 -0.0354
   40TCq2    C6  613   1.643   0.701   1.986 -0.1222  0.4309 -0.4582
   40TCq2    C7  614   1.567   0.696   1.870 -0.0457 -0.5464 -0.8666
   40TCq2    C8  615   1.794   0.697   1.977 -0.2250  0.3926  0.4909
   40TCq2    O4  616   1.852   0.641   2.069  0.1764 -0.0882 -0.1111
   40TCq2    C9  617   1.397   0.697   2.250 -0.7201 -0.1618  0.3281
   40TCq2    O5  618   1.473   0.696   2.349 -0.0930 -0.8315 -0.2044
   40TCq2    O6  619   1.272   0.721   2.261  0.2438  0.1180 -0.1574
   40TCq2    H2  620   1.267   0.719   2.015 -0.0781 -1.1208 -0.1146
   40TCq2    H3  621   1.660   0.673   2.194 -0.1626 -0.3200 -0.0077
   40TCq2    H4  622   1.616   0.709   1.775 -1.2862  1.4882 -1.2332
   41TMC2    C1  623   0.586   3.799  14.434 -0.2537  0.5692  0.1454
   41TMC2    C2  624   0.625   3.928  14.449  0.6276  0.4576 -1.2360
   41TMC2    C3  625   0.590   4.021  14.354 -0.1961  0.5795 -0.6438
   41TMC2    C4  626   0.516   3.756  14.327  0.6197 -0.2827 -0.4929
   41TMC2    C5  627   0.488   3.847  14.232  0.7846 -0.3349  0.5783
   41TMC2    C6  628   0.510   3.981  14.248 -0.0875  0.7351 -0.1405
   41TMC2     C  629   0.613   3.703  14.535  0.2607  0.4453  0.1986
   41TMC2     O  630   0.606   3.584  14.493 -0.1763  0.6733 -0.7670
   41TMC2     H  631   0.695   3.953  14.528 -1.0066  1.2661 -0.0423
   41TMC2    H1  632   0.498   3.650  14.316 -1.9736  0.1511 -0.2492
   41TMC2    H2  633   0.452   4.040  14.178  0.8811  2.2873  0.3659
   41TMC2    C7  634   0.401   3.811  14.120 -0.6193  0.0681 -0.2769
   41TMC2    C8  635   0.563   4.155  14.407  0.2922  0.6758  0.2699
   41TMC2    O1  636   0.278   3.802  14.146  0.0862  0.0747 -0.3801
   41TMC2    O2  637   0.534   4.169  14.528 -0.3451  0.7059 -0.5772
   41TMC2    O5  638   0.525   4.235  14.303  0.0970 -0.2135  0.3962
   41TMC2    H5  639   0.566   4.205  14.219  0.2252 -1.8070  1.0186
   42MPD2     C  640   0.669   3.529  14.764  0.6380  0.3009 -0.1834
   42MPD2    C1  641   0.646   3.662  14.778  0.0869  0.3038  0.7856
   42MPD2    C2  642   0.636   3.717  14.900 -0.0667 -0.3624 -0.0095
   42MPD2    C3  643   0.654   3.638  15.011 -0.2393 -0.2858 -0.7178
   42MPD2    C4  644   0.675   3.499  15.000 -0.2330 -0.4088  0.3053
   42MPD2    C5  645   0.684   3.450  14.874 -0.7352 -0.1744  0.1496
   42MPD2     H  646   0.619   3.823  14.907  2.4218  0.0766 -0.7315
   42MPD2    H1  647   0.690   3.430  15.081  0.0326 -0.9962 -0.2492
   42MPD2    H2  648   0.693   3.486  14.667  1.6221  1.0586 -0.2794
   42MPD2    H3  649   0.716   3.347  14.859  1.2455  0.6473 -1.2420
   42MPD2     N  650   0.655   3.689  15.143 -0.5635  0.7451 -0.3793
   42MPD2    H5  651   0.664   3.618  15.216 -1.6681  0.1167 -0.8495
   42MPD2    N1  652   0.639   3.747  14.659 -0.0557 -0.4098  0.2375
   42MPD2    H7  653   0.633   3.846  14.682 -1.5453 -0.0705 -1.6606
   43MPD2     C  654   1.578   1.913   0.686 -0.6029  0.4778  0.2704
   43MPD2    C1  655   1.695   1.976   0.722  0.3019  0.4786  0.9445
   43MPD2    C2  656   1.705   2.104   0.750  0.3413  0.0821  0.1426
   43MPD2    C3  657   1.591   2.182   0.744 -0.0029  0.4046  0.9676
   43MPD2    C4  658   1.470   2.122   0.719 -0.2729  0.3401 -0.1857
   43MPD2    C5  659   1.460   1.991   0.691 -0.8601 -0.1481  0.0882
   43MPD2     H  660   1.800   2.148   0.778 -0.7772  0.9760  2.5434
   43MPD2    H1  661   1.376   2.177   0.719  1.0197  2.5535  2.1157
   43MPD2    H2  662   1.571   1.815   0.640 -0.1441  0.8620 -0.6033
   43MPD2    H3  663   1.382   1.941   0.635 -0.2563 -0.9596 -0.0224
   43MPD2     N  664   1.588   2.312   0.802 -0.8038 -0.8000  0.6059
   43MPD2    H5  665   1.509   2.374   0.788 -0.0983 -0.5320 -2.1645
   43MPD2    N1  666   1.821   1.910   0.719  0.3611  0.3658 -0.1616
   43MPD2    H7  667   1.907   1.962   0.729  1.3935 -1.3304 -0.1694
   44TCq2    C1  668   1.817   2.735   1.147 -0.2449 -0.3876  0.3089
   44TCq2    O2  669   1.914   2.750   1.069  0.0500 -0.0745 -0.2643
   44TCq2    C2  670   1.707   2.663   1.090 -0.1109 -0.5149 -0.4842
   44TCq2    C3  671   1.589   2.721   1.079  0.0117 -0.1321 -0.1506
   44TCq2    C4  672   1.497   2.669   0.986  0.1740 -0.1286 -0.1493
   44TCq2    C5  673   1.528   2.553   0.916  0.2909 -0.2766 -0.7101
   44TCq2    C6  674   1.652   2.502   0.925  0.5391 -0.5627  0.2806
   44TCq2    C7  675   1.741   2.562   1.011 -0.2476 -1.2593  0.1667
   44TCq2    C8  676   1.685   2.368   0.884  0.0083 -0.2773 -0.3225
   44TCq2    O4  677   1.777   2.320   0.943 -0.5042 -0.2070 -0.4595
   44TCq2    C9  678   1.363   2.724   0.986 -0.0843  0.2359  0.2431
   44TCq2    O5  679   1.328   2.773   1.096 -0.3303  0.5882  0.5969
   44TCq2    O6  680   1.293   2.686   0.884  0.5655 -0.4569 -0.5389
   44TCq2    H2  681   1.566   2.808   1.139 -0.1706  0.1291 -0.6011
   44TCq2    H3  682   1.452   2.514   0.849 -0.0473  0.5919 -0.8408
   44TCq2    H4  683   1.843   2.527   1.025  1.1113  0.5651 -5.3543
   45TMC2    C1  684   2.666   3.920   9.823  0.0518 -0.2545 -0.2583
   45TMC2    C2  685   2.769   3.884   9.742 -0.6885  0.8116 -0.1878
   45TMC2    C3  686   2.892   3.923   9.790  0.6487 -0.3830 -0.4937
   45TMC2    C4  687   2.682   4.001   9.934 -0.3983 -0.4880 -0.4928
   45TMC2    C5  688   2.810   4.028   9.973 -0.3818  0.5670 -0.7619
   45TMC2    C6  689   2.919   3.990   9.903 -0.9412 -0.0327 -0.4282
   45TMC2     C  690   2.537   3.860   9.782 -0.2178  0.1330 -0.3408
   45TMC2     O  691   2.547   3.765   9.703  0.3996  0.3490 -0.0946
   45TMC2     H  692   2.760   3.822   9.654  0.7300  1.0076 -0.4713
   45TMC2    H1  693   2.597   4.032   9.994  0.1023  1.8112 -0.9795
   45TMC2    H2  694   3.017   4.018   9.942 -1.2376 -1.9069  1.6288
   45TMC2    C7  695   2.827   4.126  10.079  0.6499 -0.2247 -0.2453
   45TMC2    C8  696   3.002   3.846   9.733  0.1513 -0.2641 -0.0297
   45TMC2    O1  697   2.722   4.144  10.138  0.6668 -0.5393  0.1690
   45TMC2    O2  698   2.981   3.740   9.675  0.0890  0.4539  1.0171
   45TMC2    O5  699   3.108   3.927   9.707 -0.1089 -0.3510  0.0530
   45TMC2    H5  700   3.099   4.016   9.749  0.2724 -1.1634  1.8486
   46MPD2     C  701   2.238   3.849   9.689 -0.5499  0.1202  0.3536
   46MPD2    C1  702   2.295   3.950   9.763 -0.2487  0.6162 -0.8631
   46MPD2    C2  703   2.218   4.052   9.809  0.7472  0.4761  0.4571
   46MPD2    C3  704   2.082   4.058   9.783  1.0302  0.0536  0.5506
   46MPD2    C4  705   2.024   3.956   9.709  0.4513 -0.0401 -0.4415
   46MPD2    C5  706   2.100   3.859   9.651  0.0501 -0.2193 -0.4446
   46MPD2     H  707   2.262   4.127   9.874 -1.2221  1.2081  0.9463
   46MPD2    H1  708   1.919   3.953   9.680  0.4546  0.0869 -0.4642
   46MPD2    H2  709   2.285   3.761   9.648 -1.0514  0.2939 -0.5832
   46MPD2    H3  710   2.060   3.800   9.570  1.4052 -0.4665 -0.9476
   46MPD2     N  711   2.014   4.170   9.830  0.3480  0.0466 -0.5581
   46MPD2    H5  712   2.067   4.233   9.890  0.5152 -1.0028  0.3892
   46MPD2    N1  713   2.433   3.945   9.815  0.3326  0.4381 -0.3600
   46MPD2    H7  714   2.453   4.024   9.875 -0.0758 -1.3818  2.1841
   47TMC2    C1  715   3.946   0.136   9.901 -0.0185  0.1658 -1.2000
   47TMC2    C2  716   3.965   0.025   9.817  0.1067 -0.2695 -0.3315
   47TMC2    C3  717   3.856   4.696   9.759 -0.1401  0.0153 -0.2110
   47TMC2    C4  718   3.821   0.195   9.915  0.8765 -0.5631  0.2976
   47TMC2    C5  719   3.715   0.139   9.848  0.3909  0.1244 -0.3193
   47TMC2    C6  720   3.732   0.026   9.774  0.3688  0.3850 -0.1337
   47TMC2     C  721   4.061   0.186   9.978  0.5275  0.2291 -0.3620
   47TMC2     O  722   4.036   0.271  10.062 -0.1310 -0.0481  0.0920
   47TMC2     H  723   4.061   4.709   9.784 -0.0559 -0.8626 -0.0816
   47TMC2    H1  724   3.807   0.277   9.985  0.4463  0.3750 -0.8961
   47TMC2    H2  725   3.657   4.690   9.724 -0.7146  1.0915  0.6700
   47TMC2    C7  726   3.599   0.215   9.845 -0.1435 -1.3663 -0.0738
   47TMC2    C8  727   3.878   4.608   9.654 -0.0047  0.5105  0.3292
   47TMC2    O1  728   3.586   0.301   9.935 -0.1453 -0.3585  0.1837
   47TMC2    O2  729   3.803   4.594   9.559  0.3044 -0.4223 -0.3004
   47TMC2    O5  730   3.959   4.510   9.704 -0.5888  0.1625  0.0781
   47TMC2    H5  731   3.997   4.520   9.794  2.6674 -0.7154 -1.1726
   48MPD2     C  732   4.339   0.245  10.087 -0.5780  0.5119 -0.3858
   48MPD2    C1  733   4.297   0.126  10.026 -0.0339  0.3076 -0.2341
   48MPD2    C2  734   4.382   0.017  10.007  0.4177 -0.2607  0.0175
   48MPD2    C3  735   4.514   0.027  10.032  0.3234 -0.4764 -0.5080
   48MPD2    C4  736   4.559   0.143  10.098 -0.0067 -0.4017 -0.0282
   48MPD2    C5  737   4.471   0.242  10.120  0.2279 -0.6120 -0.4251
   48MPD2     H  738   4.352   4.655   9.948  0.2274 -0.9608  1.1162
   48MPD2    H1  739   4.662   0.160  10.127 -0.2496 -0.4328  0.8691
   48MPD2    H2  740   4.277   0.333  10.097 -1.0280  0.1317  0.1982
   48MPD2    H3  741   4.516   0.332  10.160 -1.1268 -0.9441  1.8218
   48MPD2     N  742   4.594   4.642  10.004 -0.1020  0.6624 -0.8576
   48MPD2    H5  743   4.552   4.563   9.956  1.0541  0.3191 -1.3075
   48MPD2    N1  744   4.172   0.104   9.967  0.0934  0.0147 -0.2538
   48MPD2    H7  745   4.157   0.013   9.925 -0.1098  0.2652 -0.7280
   49MPD2     C  746   2.878   2.123   9.990 -0.5259 -0.0858  0.5686
   49MPD2    C1  747   2.927   2.223  10.073 -0.8608  0.3397  0.3098
   49MPD2    C2  748   2.919   2.206  10.210 -0.3269  0.9477 -0.2679
   49MPD2    C3  749   2.891   2.087  10.270  0.1850 -0.2316 -0.1807
   49MPD2    C4  750   2.853   1.981  10.189 -0.0002 -0.1775 -0.1062
   49MPD2    C5  751   2.839   2.007  10.051  0.6460  0.1505  0.0895
   49MPD2     H  752   2.949   2.294  10.266 -0.7747  0.0735  1.3500
   49MPD2    H1  753   2.817   1.895  10.244 -1.3444  1.2647  1.2797
   49MPD2    H2  754   2.858   2.127   9.884  2.2426  1.3023  0.1019
   49MPD2    H3  755   2.811   1.929   9.980 -0.1780  0.8387 -0.3554
   49MPD2     N  756   2.890   2.073  10.413 -0.7987  0.5069  0.5491
   49MPD2    H5  757   2.855   1.986  10.452  0.3939  0.2426  1.0338
   49MPD2    N1  758   2.969   2.351  10.037 -0.5190 -0.4139 -0.0793
   49MPD2    H7  759   2.995   2.415  10.112  1.2934 -0.9883 -0.2045
   50TCq2    C1  760   2.991   2.387   9.910 -0.1968 -0.2900 -0.0898
   50TCq2    O2  761   2.970   2.324   9.804  0.0661  0.3704 -0.4160
   50TCq2    C2  762   3.074   2.506   9.902 -0.3401  0.2568  0.6754
   50TCq2    C3  763   3.131   2.556  10.017 -0.5497  0.6605 -0.1164
   50TCq2    C4  764   3.220   2.659  10.004 -0.1506 -0.5536  0.2600
   50TCq2    C5  765   3.251   2.716   9.881  1.1805  0.2556 -0.3728
   50TCq2    C6  766   3.195   2.665   9.768  0.0593  0.2077  0.7167
   50TCq2    C7  767   3.105   2.558   9.777  0.0423 -0.1159  0.6080
   50TCq2    C8  768   3.224   2.727   9.637  0.8152 -0.2386 -0.0599
   50TCq2    O4  769   3.293   2.827   9.629 -0.4639 -0.0476  0.2014
   50TCq2    C9  770   3.281   2.714  10.125  0.2068 -0.4507  0.5432
   50TCq2    O5  771   3.251   2.653  10.229 -0.1498 -0.4162  1.4323
   50TCq2    O6  772   3.364   2.810  10.116 -0.1947  0.3090 -0.0011
   50TCq2    H2  773   3.126   2.509  10.115 -0.7934 -1.0779 -0.9680
   50TCq2    H3  774   3.314   2.804   9.876  0.7770  0.6313  1.1150
   50TCq2    H4  775   3.048   2.527   9.691 -1.1700  0.2228  1.2859
   51MPD2     C  776   3.996   0.938   1.599  0.2544  0.4709  0.6988
   51MPD2    C1  777   3.956   0.886   1.483  0.4356 -0.8133 -0.0623
   51MPD2    C2  778   3.830   0.895   1.440 -0.7106  0.1761 -0.5350
   51MPD2    C3  779   3.737   0.964   1.512 -0.5623 -0.3120  0.2045
   51MPD2    C4  780   3.771   1.031   1.629 -0.2139 -0.6139 -0.9578
   51MPD2    C5  781   3.892   0.998   1.679  0.2932  0.5249 -0.2835
   51MPD2     H  782   3.796   0.843   1.351 -1.3442  0.6374 -0.5586
   51MPD2    H1  783   3.700   1.090   1.686  1.5911  0.6600 -0.0589
   51MPD2    H2  784   4.085   0.905   1.650 -0.4014 -2.8369 -0.2623
   51MPD2    H3  785   3.916   1.037   1.777  2.7555 -0.6878 -0.4190
   51MPD2     N  786   3.611   0.985   1.456  0.6124  0.3929  0.2160
   51MPD2    H5  787   3.548   1.043   1.509 -1.4074  0.3499 -2.1412
   51MPD2    N1  788   4.054   0.819   1.401 -0.1179  0.3802  0.8173
   51MPD2    H7  789   4.017   0.781   1.315 -1.5814  0.3314  1.4734
   52TCq2    C1  790   3.557   0.932   1.340 -0.4129 -0.9251  0.0589
   52TCq2    O2  791   3.582   0.828   1.277 -0.0020 -0.2709  0.1878
   52TCq2    C2  792   3.430   1.003   1.320  0.6635 -0.3376 -0.0828
   52TCq2    C3  793   3.330   0.924   1.266 -0.5551 -0.3552  0.3292
   52TCq2    C4  794   3.226   0.997   1.214 -0.2708 -1.2398 -0.1017
   52TCq2    C5  795   3.235   1.132   1.195  0.5681  0.9118  0.4636
   52TCq2    C6  796   3.349   1.198   1.234 -0.4355 -0.5137 -0.2969
   52TCq2    C7  797   3.445   1.136   1.303  0.4690 -0.2796  0.7327
   52TCq2    C8  798   3.382   1.342   1.188  1.1659  0.2698  0.0723
   52TCq2    O4  799   3.492   1.385   1.225  0.1956  0.2118 -0.2612
   52TCq2    C9  800   3.114   0.929   1.144  0.4992  0.6205  0.4934
   52TCq2    O5  801   3.027   0.993   1.078 -0.2981 -0.1025  0.4609
   52TCq2    O6  802   3.099   0.809   1.162  0.7458 -0.4976  0.2910
   52TCq2    H2  803   3.325   0.817   1.283 -1.3469 -0.4853 -0.7098
   52TCq2    H3  804   3.157   1.182   1.139 -0.6356  1.0838  2.3004
   52TCq2    H4  805   3.535   1.186   1.337  1.2175 -0.4754 -0.9769
   53TMC2    C1  806   4.040   4.033  11.765  0.5956 -0.2690  0.9912
   53TMC2    C2  807   4.146   4.024  11.850  0.2275  0.4867 -0.1991
   53TMC2    C3  808   4.137   4.086  11.967 -0.3877 -0.1149 -0.0774
   53TMC2    C4  809   3.936   4.113  11.779 -0.5675  0.1353  0.1932
   53TMC2    C5  810   3.928   4.176  11.903  0.0751  0.6507  0.2667
   53TMC2    C6  811   4.030   4.159  11.991 -0.6089  0.1837 -0.6080
   53TMC2     C  812   4.050   3.946  11.644  0.5007  0.5557 -0.0629
   53TMC2     O  813   4.141   3.865  11.643  0.1328  0.3557 -0.4769
   53TMC2     H  814   4.240   3.975  11.829 -0.4364 -2.3446  3.2820
   53TMC2    H1  815   3.849   4.112  11.715  0.0996 -2.6504 -0.7008
   53TMC2    H2  816   4.041   4.203  12.090 -3.0894 -2.1716  0.7093
   53TMC2    C7  817   3.790   4.156  11.951 -0.6530  0.4361  0.3455
   53TMC2    C8  818   4.258   4.098  12.058  0.5334  0.1641 -0.0400
   53TMC2    O1  819   3.710   4.110  11.871  0.4194 -0.5216 -0.6567
   53TMC2    O2  820   4.301   4.201  12.112  0.3081  0.7115  0.1971
   53TMC2    O5  821   4.339   3.985  12.040 -0.2267 -0.3736 -0.5836
   53TMC2    H5  822   4.298   3.897  12.026  0.9547 -1.1286  0.6638
   54MPD2     C  823   3.915   3.716  11.504 -0.0716  0.9256  0.5662
   54MPD2    C1  824   3.883   3.854  11.483  0.0621 -0.7077  0.2342
   54MPD2    C2  825   3.766   3.884  11.415 -0.6654 -0.1422  0.4709
   54MPD2    C3  826   3.681   3.786  11.361  0.5259 -0.1671  0.3412
   54MPD2    C4  827   3.723   3.651  11.378 -0.1642  0.0442 -1.0652
   54MPD2    C5  828   3.844   3.617  11.446 -0.2160 -0.3757 -0.2396
   54MPD2     H  829   3.742   3.988  11.396 -1.4217 -0.3082  0.5138
   54MPD2    H1  830   3.666   3.573  11.330 -0.8451  0.2831 -0.6455
   54MPD2    H2  831   4.008   3.683  11.548 -1.0077 -0.5875  1.4205
   54MPD2    H3  832   3.875   3.513  11.450 -1.1909 -0.5644  2.5259
   54MPD2     N  833   3.560   3.810  11.295 -0.0619  0.1785  0.7314
   54MPD2    H5  834   3.509   3.729  11.262 -0.7088  1.7431 -2.1523
   54MPD2    N1  835   3.940   3.957  11.556  0.1596 -0.0975 -0.3146
   54MPD2    H7  836   3.885   4.042  11.559  1.6833  0.8779  0.3888
   55MPD2     C  837   4.346   1.946  17.520 -0.0516 -0.1729 -0.1181
   55MPD2    C1  838   4.274   1.906  17.628  0.4031 -0.5454  0.1164
   55MPD2    C2  839   4.165   1.977  17.679 -0.5403  0.1543  0.4565
   55MPD2    C3  840   4.150   2.109  17.633  0.1056  0.4151  0.9078
   55MPD2    C4  841   4.236   2.155  17.532 -0.1507  0.2686  0.6570
   55MPD2    C5  842   4.327   2.076  17.472  0.1236 -0.3035  0.5156
   55MPD2     H  843   4.108   1.951   0.072  0.1919 -1.6157  0.4176
   55MPD2    H1  844   4.235   2.257  17.496  0.9483  0.6714  1.7855
   55MPD2    H2  845   4.425   1.884  17.480  0.5131  0.8826 -0.6350
   55MPD2    H3  846   4.398   2.112  17.399  0.8760 -0.5233  1.1361
   55MPD2     N  847   4.060   2.193   0.009 -0.4794  0.3772 -0.3062
   55MPD2    H5  848   4.012   2.145   0.084  0.4768 -0.1292 -0.0267
   55MPD2    N1  849   4.313   1.782  17.687  0.1089 -0.3882 -0.6860
   55MPD2    H7  850   4.382   1.722  17.641 -1.0753 -1.4387 -1.0984
   56TCq2    C1  851   4.274   1.741   0.117 -0.3484  0.1773 -0.4994
   56TCq2    O2  852   4.231   1.814   0.204  0.3446 -0.4601  0.9159
   56TCq2    C2  853   4.333   1.618   0.160 -0.6662 -0.4554  0.4972
   56TCq2    C3  854   4.365   1.524   0.069 -0.0214  0.0313 -0.2328
   56TCq2    C4  855   4.424   1.414   0.122 -0.1962 -0.6524 -0.3579
   56TCq2    C5  856   4.448   1.402   0.257  0.1580 -0.1347  0.7695
   56TCq2    C6  857   4.420   1.508   0.341  0.5053 -0.1172 -1.0851
   56TCq2    C7  858   4.366   1.619   0.291 -0.0644 -0.5969  0.4638
   56TCq2    C8  859   4.501   1.522   0.462 -0.2029 -0.7294 -0.6719
   56TCq2    O4  860   4.559   1.426   0.507  0.7739  0.0841  0.3567
   56TCq2    C9  861   4.466   1.306   0.026  0.0529 -0.6952  0.2850
   56TCq2    O5  862   4.528   1.211   0.080 -0.4666  0.0047  0.1192
   56TCq2    O6  863   4.402   1.305  17.617 -0.4963  0.4836 -0.1651
   56TCq2    H2  864   4.343   1.522  17.659 -0.7658 -2.3508 -0.0329
   56TCq2    H3  865   4.500   1.315   0.294 -1.4555 -0.7053  1.7185
   56TCq2    H4  866   4.334   1.698   0.358  1.9119  0.3010  0.3211
   57TMC2    C1  867   4.197   3.056  14.180 -0.3740 -0.2564  0.0421
   57TMC2    C2  868   4.283   3.121  14.260 -0.5191 -0.4634 -0.1156
   57TMC2    C3  869   4.417   3.121  14.222 -0.0659 -0.3223  0.0747
   57TMC2    C4  870   4.235   2.986  14.070  0.0046 -0.1261  0.8600
   57TMC2    C5  871   4.370   2.987  14.036  0.5389  0.1493 -0.0277
   57TMC2    C6  872   4.461   3.053  14.116  0.4073  0.7474  0.2973
   57TMC2     C  873   4.054   3.058  14.216  0.5266  0.3316  0.3308
   57TMC2     O  874   3.986   2.974  14.159 -0.1865 -0.2588 -0.3344
   57TMC2     H  875   4.255   3.180  14.346  1.1134  1.2067 -0.7542
   57TMC2    H1  876   4.163   2.926  14.016  0.4070  0.7615 -0.6498
   57TMC2    H2  877   4.568   3.048  14.099  0.4610  0.6469  0.6697
   57TMC2    C7  878   4.425   2.876  13.957  0.4804 -0.3481 -0.2125
   57TMC2    C8  879   4.499   3.214  14.291 -0.3309  0.4476  0.3757
   57TMC2    O1  880   4.547   2.871  13.950  0.0059  0.3178 -0.4412
   57TMC2    O2  881   4.470   3.242  14.404 -0.2937 -0.0003  0.2463
   57TMC2    O5  882   4.530   3.306  14.195  0.0200 -0.1201 -0.4211
   57TMC2    H5  883   4.503   3.291  14.102  1.0507  0.7515 -0.8589
   58MPD2     C  884   3.657   3.185  14.526 -0.5963  0.2128 -0.7396
   58MPD2    C1  885   3.667   3.083  14.432  0.3054 -0.6471  0.2213
   58MPD2    C2  886   3.787   3.063  14.357  0.3438 -0.6191 -0.0812
   58MPD2    C3  887   3.899   3.139  14.387 -0.3067  0.3484  0.3550
   58MPD2    C4  888   3.881   3.237  14.489  0.2289 -0.0629  0.1812
   58MPD2    C5  889   3.767   3.248  14.565 -0.0196  0.7066  0.0457
   58MPD2     H  890   3.798   2.979  14.289 -0.2569  1.8508 -3.1875
   58MPD2    H1  891   3.962   3.305  14.514 -0.1065  0.3014  0.2639
   58MPD2    H2  892   3.568   3.219  14.578  0.8336  0.4497  1.5697
   58MPD2    H3  893   3.755   3.327  14.638  0.1114  1.1749 -0.4363
   58MPD2     N  894   4.022   3.142  14.317  0.2799  0.0880 -0.6104
   58MPD2    H5  895   4.092   3.207  14.350  1.0935 -1.5618  0.9214
   58MPD2    N1  896   3.552   3.006  14.386 -0.1200  0.6511 -0.2727
   58MPD2    H7  897   3.560   2.962  14.295  0.4105  0.4855 -0.1478
   59MPD2     C  898   1.630   2.801  13.455 -0.4290 -0.7165 -0.0794
   59MPD2    C1  899   1.620   2.935  13.489  0.1959  0.4326 -0.2250
   59MPD2    C2  900   1.718   2.999  13.564 -0.2664  0.2708  0.0866
   59MPD2    C3  901   1.816   2.919  13.622  0.4558 -0.5732  0.2821
   59MPD2    C4  902   1.815   2.784  13.612  0.1501  0.2072 -1.0572
   59MPD2    C5  903   1.723   2.721  13.524  0.1187  0.7063 -0.0422
   59MPD2     H  904   1.707   3.106  13.571  0.4546  0.2646  1.2321
   59MPD2    H1  905   1.884   2.713  13.655 -0.0463  1.5852  1.5104
   59MPD2    H2  906   1.557   2.746  13.396 -0.7694  2.2254 -2.3850
   59MPD2    H3  907   1.731   2.613  13.516  0.3429  0.6955  0.3241
   59MPD2     N  908   1.930   2.965  13.683  0.0394  0.0745 -0.1831
   59MPD2    H5  909   2.009   2.902  13.680  1.0490  1.4011 -1.4959
   59MPD2    N1  910   1.527   3.014  13.420  0.5691  0.6015 -0.7076
   59MPD2    H7  911   1.549   3.112  13.406  0.7914  0.7184  0.5239
   60TCq2    C1  912   1.416   2.956  13.364  0.1505 -0.1954  0.5786
   60TCq2    O2  913   1.353   2.854  13.394 -0.1217  0.2041 -0.2093
   60TCq2    C2  914   1.340   3.056  13.294  0.6596 -0.4265 -0.5478
   60TCq2    C3  915   1.210   3.027  13.285 -0.3640 -0.3595 -0.4089
   60TCq2    C4  916   1.123   3.097  13.211 -0.4932 -0.0891 -0.7625
   60TCq2    C5  917   1.171   3.210  13.156  0.2612 -0.3293 -0.3895
   60TCq2    C6  918   1.307   3.235  13.158 -0.5228 -0.2320 -0.1212
   60TCq2    C7  919   1.400   3.166  13.232 -0.1664  0.2775  0.2690
   60TCq2    C8  920   1.359   3.305  13.047 -0.0032 -0.0966  0.1659
   60TCq2    O4  921   1.479   3.309  13.045  0.1470 -0.1429 -0.1755
   60TCq2    C9  922   0.985   3.059  13.209  0.1647 -0.3380 -0.0324
   60TCq2    O5  923   0.952   2.949  13.259  0.1838  0.2277  0.4139
   60TCq2    O6  924   0.904   3.132  13.147 -0.4186  0.3364  0.6191
   60TCq2    H2  925   1.171   2.947  13.348  2.0468  0.7394  2.4938
   60TCq2    H3  926   1.100   3.269  13.099 -0.6544 -0.5172  0.5704
   60TCq2    H4  927   1.507   3.168  13.219 -0.3161 -1.7335 -1.4039
   61MPD2     C  928   0.961   3.981  15.111  0.4250 -0.0808  0.2445
   61MPD2    C1  929   1.059   4.068  15.162 -1.1322 -0.2668 -0.1824
   61MPD2    C2  930   1.099   4.168  15.068  0.0258 -0.2740  0.4645
   61MPD2    C3  931   1.031   4.193  14.947  0.0290  0.0287 -0.8824
   61MPD2    C4  932   0.936   4.105  14.906  0.1815 -0.8114 -0.1516
   61MPD2    C5  933   0.908   3.995  14.983 -0.3414 -0.8095 -0.5328
   61MPD2     H  934   1.174   4.239  15.100 -0.4193  1.1236 -1.5958
   61MPD2    H1  935   0.874   4.119  14.817  0.9340 -3.2778 -1.0489
   61MPD2    H2  936   0.929   3.893  15.165 -2.6616  0.9780  0.1239
   61MPD2    H3  937   0.836   3.922  14.949 -1.8034  0.3168  0.1567
   61MPD2     N  938   1.066   4.298  14.862 -0.1294 -0.2280  0.4465
   61MPD2    H5  939   1.003   4.315  14.784  3.1057  0.7158 -1.9497
   61MPD2    N1  940   1.108   4.077  15.293 -0.4871 -0.4194  0.3446
   61MPD2    H7  941   1.174   4.150  15.315 -0.3405 -0.8601  1.3645
   62TCq2    C1  942   1.071   3.996  15.397 -0.4873  0.4334  0.2744
   62TCq2    O2  943   1.007   3.893  15.393 -0.5790 -0.0418  0.2306
   62TCq2    C2  944   1.101   4.059  15.527 -0.1046  0.6838 -0.7803
   62TCq2    C3  945   1.097   3.988  15.644 -0.5151  0.2535  0.9300
   62TCq2    C4  946   1.126   4.060  15.761  0.2404  0.0435  0.3995
   62TCq2    C5  947   1.164   4.190  15.754  0.2925 -0.0427 -0.3419
   62TCq2    C6  948   1.167   4.261  15.639 -0.1772  0.3880  0.3231
   62TCq2    C7  949   1.134   4.195  15.519 -0.0030  0.5683  0.4400
   62TCq2    C8  950   1.178   4.400  15.642  1.0271 -0.1045  0.1688
   62TCq2    O4  951   1.224   4.449  15.537  0.2889  0.0141 -0.0194
   62TCq2    C9  952   1.091   3.996  15.894  0.3846  0.0064  0.2634
   62TCq2    O5  953   1.036   3.883  15.893 -0.4457 -0.3737 -0.2166
   62TCq2    O6  954   1.121   4.072  15.992 -0.7597 -0.7425  0.6727
   62TCq2    H2  955   1.064   3.885  15.657 -0.4977  0.4941  2.8842
   62TCq2    H3  956   1.181   4.237  15.850 -0.9808 -1.7635  0.7216
   62TCq2    H4  957   1.123   4.255  15.429 -1.0026  1.0853  0.8941
   63TMC2    C1  958   4.430   4.447  11.259 -0.2361 -0.4409  0.3569
   63TMC2    C2  959   4.388   4.515  11.364 -0.3812 -0.5059  0.6102
   63TMC2    C3  960   4.488   4.574  11.444 -0.4473 -0.2347  0.0696
   63TMC2    C4  961   4.565   4.443  11.225 -0.1350  0.4319 -0.7562
   63TMC2    C5  962   4.654   4.505  11.306  0.2567 -0.3335 -0.9464
   63TMC2    C6  963   4.618   4.560  11.422 -0.0964 -0.1396  0.2384
   63TMC2     C  964   4.330   4.393  11.168 -0.2015 -0.3417  0.5904
   63TMC2     O  965   4.230   4.466  11.159 -0.4984 -0.6032 -0.5093
   63TMC2     H  966   4.284   4.531  11.392  0.0686  1.9226  0.8734
   63TMC2    H1  967   4.606   4.406  11.132  1.4122 -0.1611  0.1700
   63TMC2    H2  968   4.692   4.608  11.485  1.3291 -3.1361  0.8236
   63TMC2    C7  969   0.035   4.573  11.234 -0.4547 -0.4611 -0.2652
   63TMC2    C8  970   4.452   4.634  11.569 -0.1098 -0.1155  0.1484
   63TMC2    O1  971   4.721   4.596  11.120 -0.4587  0.3690  0.5556
   63TMC2    O2  972   4.507   4.593  11.671 -0.4593  0.4420 -0.2670
   63TMC2    O5  973   4.352   4.720  11.563 -0.1907  0.2964  0.1572
   63TMC2    H5  974   4.332   0.028  11.473  0.6464 -0.9784 -0.4806
   64MPD2     C  975   4.236   4.145  10.716  0.2877 -0.4020  1.0156
   64MPD2    C1  976   4.352   4.091  10.772  0.6936  0.2278 -0.2779
   64MPD2    C2  977   4.389   4.137  10.897  0.1056  0.5186 -0.7114
   64MPD2    C3  978   4.318   4.234  10.968  0.2805  0.2548  0.3109
   64MPD2    C4  979   4.209   4.289  10.910 -0.2540 -0.0436 -0.1484
   64MPD2    C5  980   4.160   4.242  10.787  1.1808  0.5031  0.1817
   64MPD2     H  981   4.474   4.090  10.945 -0.3592  0.1391 -0.2620
   64MPD2    H1  982   4.139   4.355  10.960  0.8759  0.7061  0.4506
   64MPD2    H2  983   4.204   4.116  10.616 -1.0159  3.0143  0.4203
   64MPD2    H3  984   4.074   4.289  10.741  0.5288 -0.8157  0.0474
   64MPD2     N  985   4.367   4.281  11.094  0.2666  0.4231  0.1053
   64MPD2    H5  986   4.444   4.225  11.128 -1.8336 -2.6013 -0.1053
   64MPD2    N1  987   4.442   4.010  10.699 -0.2389  0.2482 -0.1154
   64MPD2    H7  988   4.522   3.982  10.754  0.3253  2.3387  0.1302
   65MPD2     C  989   1.671   3.568  16.095 -0.1008  0.1136 -0.3345
   65MPD2    C1  990   1.654   3.545  15.956 -0.4849 -0.3428 -0.0384
   65MPD2    C2  991   1.701   3.432  15.904  0.0267 -0.1015  0.3865
   65MPD2    C3  992   1.776   3.333  15.969 -0.0971 -0.2887 -0.2199
   65MPD2    C4  993   1.797   3.356  16.101 -0.0229  0.0934 -0.0035
   65MPD2    C5  994   1.751   3.476  16.160  0.1592 -0.1362 -0.5697
   65MPD2     H  995   1.678   3.425  15.799 -1.2017  1.4166  0.5693
   65MPD2    H1  996   1.842   3.288  16.172 -1.2718  0.6770  1.3590
   65MPD2    H2  997   1.626   3.653  16.144 -1.0679  0.6395 -2.1306
   65MPD2    H3  998   1.772   3.492  16.265  1.8387  1.4582 -1.1609
   65MPD2     N  999   1.807   3.213  15.895 -0.4936 -0.0835  0.5317
   65MPD2    H5 1000   1.832   3.125  15.940  1.1601  0.1319  0.0387
   65MPD2    N1 1001   1.585   3.626  15.866  0.1340  0.0293 -0.2149
   65MPD2    H7 1002   1.564   3.601  15.770 -1.4130 -0.7307  0.3130
   66TCq2    C1 1003   1.538   3.751  15.887  0.0613  0.2673  0.0835
   66TCq2    O2 1004   1.550   3.814  15.991 -0.0679  0.1906 -0.3769
   66TCq2    C2 1005   1.497   3.814  15.766 -0.2090 -0.9320 -0.6759
   66TCq2    C3 1006   1.433   3.734  15.673  0.5479 -0.1786 -0.7669
   66TCq2    C4 1007   1.413   3.789  15.554 -0.4100  0.5548  0.7786
   66TCq2    C5 1008   1.446   3.916  15.534  0.3451  0.0733  0.4720
   66TCq2    C6 1009   1.512   3.995  15.623  0.7482  0.6634  0.4755
   66TCq2    C7 1010   1.527   3.941  15.749 -0.2849 -0.2703  0.2816
   66TCq2    C8 1011   1.565   4.121  15.590  0.3965 -0.2130 -0.6125
   66TCq2    O4 1012   1.591   4.146  15.473  0.7127  0.0796  0.4337
   66TCq2    C9 1013   1.371   3.714  15.442 -0.0830 -0.4011  0.4302
   66TCq2    O5 1014   1.403   3.758  15.330 -0.2513 -0.2224 -0.5238
   66TCq2    O6 1015   1.312   3.602  15.469  0.3143  0.0355 -0.7681
   66TCq2    H2 1016   1.398   3.634  15.694  3.6738 -0.7315  1.7938
   66TCq2    H3 1017   1.444   3.950  15.431  0.6578 -0.4254  0.2993
   66TCq2    H4 1018   1.593   3.985  15.822  2.5171 -1.7444 -1.3902
   67MPD2     C 1019   1.381   3.680  14.540 -0.0919 -0.0111  0.1497
   67MPD2    C1 1020   1.428   3.584  14.627  0.9832 -0.3828  0.0620
   67MPD2    C2 1021   1.380   3.451  14.607  0.1546  0.1580  0.0054
   67MPD2    C3 1022   1.284   3.425  14.511 -0.4750  0.6123 -0.7758
   67MPD2    C4 1023   1.245   3.529  14.419  0.1528  0.1522 -0.3919
   67MPD2    C5 1024   1.293   3.656  14.437  0.0683  0.2794 -0.2272
   67MPD2     H 1025   1.408   3.375  14.679 -1.5873 -0.5670 -0.0812
   67MPD2    H1 1026   1.173   3.518  14.338 -0.1916 -0.5620  0.0060
   67MPD2    H2 1027   1.412   3.784  14.544 -0.1446  0.0023  0.2086
   67MPD2    H3 1028   1.257   3.739  14.378 -2.4182 -0.3842  0.3461
   67MPD2     N 1029   1.234   3.299  14.479 -0.1219 -0.3732 -0.8137
   67MPD2    H5 1030   1.160   3.290  14.409  0.4200 -1.1524 -1.2963
   67MPD2    N1 1031   1.526   3.608  14.731  0.4093 -0.0070  0.0083
   67MPD2    H7 1032   1.566   3.529  14.780 -1.0190 -0.1405  0.9519
   68TCq2    C1 1033   1.583   3.732  14.751 -0.2811 -0.3844  0.0547
   68TCq2    O2 1034   1.534   3.841  14.721 -0.1323 -0.2386  0.1118
   68TCq2    C2 1035   1.700   3.728  14.836 -0.1909  0.2204 -0.0154
   68TCq2    C3 1036   1.717   3.836  14.911 -0.1497 -0.0880 -0.2482
   68TCq2    C4 1037   1.808   3.837  15.008  0.2752  0.0889 -0.1926
   68TCq2    C5 1038   1.889   3.726  15.021  0.0344  0.6648  0.3782
   68TCq2    C6 1039   1.857   3.613  14.950 -0.1633  0.1148 -0.5327
   68TCq2    C7 1040   1.762   3.607  14.852  0.0358  0.2296 -0.6410
   68TCq2    C8 1041   1.934   3.495  14.965  0.0705 -0.8059  0.2364
   68TCq2    O4 1042   1.951   3.415  14.869  0.0964  0.6801 -0.2776
   68TCq2    C9 1043   1.844   3.962  15.078 -0.2859 -0.3770 -0.1046
   68TCq2    O5 1044   1.778   4.070  15.047 -0.4594  0.4109 -0.5303
   68TCq2    O6 1045   1.939   3.963  15.160  0.5803 -0.2443 -0.3601
   68TCq2    H2 1046   1.661   3.928  14.896 -0.2186 -0.1853 -0.5918
   68TCq2    H3 1047   1.981   3.735  15.078  1.3299 -0.5447 -1.5626
   68TCq2    H4 1048   1.747   3.511  14.804  0.2177 -1.4427  2.6186
   69TMC2    C1 1049   3.089   4.574  12.403  0.7443 -0.2075  0.0275
   69TMC2    C2 1050   3.023   4.609  12.287 -0.8769  0.3827 -0.2556
   69TMC2    C3 1051   3.098   4.660  12.185 -0.3825  0.5804  0.5002
   69TMC2    C4 1052   3.219   4.601  12.418  0.3790  0.4229 -0.0858
   69TMC2    C5 1053   3.294   4.653  12.315  0.2027  0.7077  0.1835
   69TMC2    C6 1054   3.231   4.685  12.197  0.5203  0.2480  0.2722
   69TMC2     C 1055   3.023   4.509  12.514 -0.0387 -0.6433 -0.4113
   69TMC2     O 1056   3.099   4.444  12.579  0.0066 -0.1051  0.0495
   69TMC2     H 1057   2.921   4.575  12.269 -0.1179 -2.0491  0.0644
   69TMC2    H1 1058   3.273   4.564  12.505 -0.5610 -1.8492 -0.4826
   69TMC2    H2 1059   3.289   4.717  12.111  1.0148  0.5547  0.7205
   69TMC2    C7 1060   3.433   4.692  12.324 -0.7032 -0.7134  0.5581
   69TMC2    C8 1061   3.022   0.012  12.089 -0.4373  0.3313  0.8068
   69TMC2    O1 1062   3.499   4.683  12.217  0.0047 -0.1922 -0.2675
   69TMC2    O2 1063   2.901   0.001  12.079  0.6855 -0.0877 -0.1450
   69TMC2    O5 1064   3.079   0.136  12.096  0.2487 -0.0663 -0.7116
   69TMC2    H5 1065   3.177   0.124  12.100  0.3232  0.6881 -0.2858
   70MPD2     C 1066   2.659   4.460  12.610 -0.2934  0.0119  0.2200
   70MPD2    C1 1067   2.801   4.461  12.628 -0.5477 -0.2068  0.3336
   70MPD2    C2 1068   2.853   4.405  12.746 -0.5813  0.3277  0.3545
   70MPD2    C3 1069   2.777   4.367  12.855  0.0423 -0.0948 -0.2158
   70MPD2    C4 1070   2.642   4.368  12.836  0.1918  0.5489  0.4702
   70MPD2    C5 1071   2.584   4.401  12.715 -0.1627 -0.2167  0.1779
   70MPD2     H 1072   2.961   4.401  12.755 -0.4075  1.1790 -1.3491
   70MPD2    H1 1073   2.579   4.337  12.918  0.7445  0.0158  0.6904
   70MPD2    H2 1074   2.620   4.493  12.515 -0.1616  1.8226  0.8053
   70MPD2    H3 1075   2.477   4.390  12.705 -0.1994  0.8454 -0.5452
   70MPD2     N 1076   2.818   4.298  12.970  0.4161 -0.8300 -0.3685
   70MPD2    H5 1077   2.750   4.259  13.034 -0.6610  1.5369 -0.0588
   70MPD2    N1 1078   2.883   4.515  12.520 -0.3330 -0.2819 -0.1274
   70MPD2    H7 1079   2.839   4.551  12.436  0.6330 -0.3833 -0.6775
   71TMC2    C1 1080   1.398   4.594   1.358  0.0269  0.2451 -0.0699
   71TMC2    C2 1081   1.507   4.521   1.324 -0.6361  0.1139  0.1347
   71TMC2    C3 1082   1.539   4.400   1.388 -0.1606 -0.1487  0.1596
   71TMC2    C4 1083   1.314   4.545   1.463 -0.2195  0.1860  0.5639
   71TMC2    C5 1084   1.356   4.435   1.530  0.0343  0.0995  0.1193
   71TMC2    C6 1085   1.467   4.364   1.506 -0.8233  0.3041  0.3361
   71TMC2     C 1086   1.350   4.708   1.276  0.2756 -0.8249  0.4958
   71TMC2     O 1087   1.230   4.719   1.271  0.3372  0.4664 -0.6670
   71TMC2     H 1088   1.564   4.550   1.236 -1.1024 -1.8196 -0.8035
   71TMC2    H1 1089   1.244   4.614   1.509 -0.6582 -0.9569  1.6081
   71TMC2    H2 1090   1.483   4.271   1.560 -2.1701 -1.1003 -1.6433
   71TMC2    C7 1091   1.259   4.377   1.618  0.5379  0.2719  0.6538
   71TMC2    C8 1092   1.647   4.324   1.321  0.2261 -0.5330 -0.2401
   71TMC2    O1 1093   1.297   4.324   1.720  0.5343  0.2502  0.2951
   71TMC2    O2 1094   1.682   4.343   1.206 -0.1428 -0.6484  0.6847
   71TMC2    O5 1095   1.733   4.280   1.414  0.0186 -0.0642  0.2316
   71TMC2    H5 1096   1.718   4.291   1.510  1.4074  1.3789  0.2981
   72MPD2     C 1097   1.384   0.356   0.943 -0.0352  0.3030 -0.2111
   72MPD2    C1 1098   1.286   0.260   0.961  0.1665 -0.0759  0.4687
   72MPD2    C2 1099   1.312   0.156   1.052  0.4603  0.2093  0.0438
   72MPD2    C3 1100   1.424   0.160   1.131  0.2945 -0.0513 -0.0073
   72MPD2    C4 1101   1.523   0.251   1.100 -0.6842  0.4115  0.3462
   72MPD2    C5 1102   1.502   0.351   1.010  0.2406 -0.3977  0.2028
   72MPD2     H 1103   1.243   0.073   1.062  0.4868  0.1371 -0.3706
   72MPD2    H1 1104   1.604   0.264   1.171 -0.9487 -2.5183  1.1909
   72MPD2    H2 1105   1.371   0.432   0.867 -1.3559  0.1415 -0.1478
   72MPD2    H3 1106   1.576   0.426   0.985 -1.7072  2.2750  2.4922
   72MPD2     N 1107   1.446   0.067   1.237  0.1919  0.3771 -0.8744
   72MPD2    H5 1108   1.543   0.054   1.267  0.2282  2.0917 -0.2760
   72MPD2    N1 1109   1.167   0.245   0.887  0.2032  0.2161  0.1183
   72MPD2    H7 1110   1.102   0.180   0.931 -1.0704  1.6205  0.3211
   73TMC2    C1 1111   1.469   1.840  14.228 -0.0814 -0.4627  0.7527
   73TMC2    C2 1112   1.409   1.831  14.354 -0.6991 -0.0417 -0.4001
   73TMC2    C3 1113   1.466   1.919  14.455 -0.2246  0.1463  0.5012
   73TMC2    C4 1114   1.581   1.918  14.209 -0.2533  0.2880 -0.4108
   73TMC2    C5 1115   1.618   2.009  14.307  0.9057 -0.4603 -0.9234
   73TMC2    C6 1116   1.560   2.012  14.429 -0.6450 -0.6346 -0.0057
   73TMC2     C 1117   1.390   1.846  14.108  0.3295 -0.2169  0.0059
   73TMC2     O 1118   1.434   1.916  14.018 -0.1601  0.5056 -0.0652
   73TMC2     H 1119   1.315   1.784  14.380 -1.2899  1.9512  1.0211
   73TMC2    H1 1120   1.635   1.920  14.115  0.8654 -0.6364  0.2076
   73TMC2    H2 1121   1.594   2.082  14.504  2.2471 -1.5571 -0.4642
   73TMC2    C7 1122   1.643   2.140  14.248 -0.1791  0.0115  0.3147
   73TMC2    C8 1123   1.395   1.937  14.578 -0.0333  0.0208 -0.1712
   73TMC2    O1 1124   1.683   2.228  14.319 -0.3206 -0.9831 -0.3601
   73TMC2    O2 1125   1.420   2.035  14.647  0.3499  0.0965 -0.0231
   73TMC2    O5 1126   1.349   1.820  14.627  0.0201  0.4962  0.2121
   73TMC2    H5 1127   1.356   1.737  14.574  0.8508  2.2495 -2.4217
   74MPD2     C 1128   1.018   1.738  13.771  0.1359 -0.1196 -0.8257
   74MPD2    C1 1129   1.115   1.836  13.772  0.3174  0.3134  0.0325
   74MPD2    C2 1130   1.198   1.847  13.885 -0.5457 -0.2436  0.1761
   74MPD2    C3 1131   1.189   1.764  13.991  0.5180  0.5755 -0.5573
   74MPD2    C4 1132   1.101   1.666  13.984 -0.4513 -0.4149 -0.2682
   74MPD2    C5 1133   1.027   1.647  13.874  0.1008  0.1170 -0.4753
   74MPD2     H 1134   1.273   1.925  13.879  1.2485 -2.2189 -3.4953
   74MPD2    H1 1135   1.100   1.589  14.061  0.7823 -0.1225  0.0512
   74MPD2    H2 1136   0.941   1.725  13.696 -1.7430  0.9725  0.9002
   74MPD2    H3 1137   0.956   1.564  13.873 -0.8933  0.9889 -1.3860
   74MPD2     N 1138   1.279   1.768  14.102 -0.5073 -0.2024 -0.0848
   74MPD2    H5 1139   1.250   1.714  14.184 -0.5675 -0.0824 -0.0277
   74MPD2    N1 1140   1.120   1.925  13.660 -0.0084 -0.5327 -0.0255
   74MPD2    H7 1141   1.047   1.924  13.589  0.1443 -0.5588 -0.1797
   75TCq2    C1 1142   1.275   3.180  14.534  0.6410  0.3468 -0.0862
   75TCq2    O2 1143   1.360   3.156  14.619  0.7939 -0.2407  0.7139
   75TCq2    C2 1144   1.204   3.069  14.490 -0.6848 -0.6795  0.0405
   75TCq2    C3 1145   1.267   2.968  14.417 -0.3453  0.0468 -0.3784
   75TCq2    C4 1146   1.182   2.881  14.353 -0.7908  0.0876  0.3673
   75TCq2    C5 1147   1.046   2.899  14.336  0.8633  0.1706  0.2746
   75TCq2    C6 1148   0.993   3.004  14.405 -0.3034 -1.1276  1.0487
   75TCq2    C7 1149   1.071   3.093  14.475 -0.2258 -0.0519 -0.7854
   75TCq2    C8 1150   0.868   3.053  14.353 -0.4466  0.0274  0.2983
   75TCq2    O4 1151   0.863   3.166  14.313 -0.5162  0.1814 -0.3382
   75TCq2    C9 1152   1.250   2.778  14.277 -0.1002 -0.0203 -0.1752
   75TCq2    O5 1153   1.375   2.790  14.260  0.1289  0.8742  0.1025
   75TCq2    O6 1154   1.184   2.681  14.239 -0.1030 -0.8646 -0.3555
   75TCq2    H2 1155   1.374   2.953  14.418 -0.5202 -1.2483 -1.6729
   75TCq2    H3 1156   0.997   2.824  14.275  0.6523 -0.2209  0.9277
   75TCq2    H4 1157   1.019   3.169  14.531  1.1283  0.5858 -0.3819
   76MPD2     C 1158   4.438   4.363  12.551  0.3658 -0.3260 -0.2692
   76MPD2    C1 1159   4.428   4.314  12.424 -1.2317  0.2091 -0.4635
   76MPD2    C2 1160   4.492   4.201  12.394  0.1324  0.5288 -0.2593
   76MPD2    C3 1161   4.565   4.131  12.490  0.2350 -0.0720  0.3444
   76MPD2    C4 1162   4.569   4.174  12.621 -0.3066  0.5352  0.0001
   76MPD2    C5 1163   4.501   4.289  12.650  0.2845  0.4520  0.7291
   76MPD2     H 1164   4.488   4.156  12.296  0.5100 -2.7071  1.1838
   76MPD2    H1 1165   4.613   4.117  12.702 -0.9535  1.0066  0.6733
   76MPD2    H2 1166   4.374   4.446  12.575  1.4733  0.0294  1.4791
   76MPD2    H3 1167   4.479   4.315  12.753 -1.3672  2.8577 -0.2262
   76MPD2     N 1168   4.612   4.007  12.447  0.4795  0.4515 -0.3151
   76MPD2    H5 1169   4.587   3.971  12.355  0.6384  0.9620 -0.5557
   76MPD2    N1 1170   4.365   4.387  12.316  0.3556 -0.3375  0.1818
   76MPD2    H7 1171   4.338   4.337  12.232 -1.5724  0.9354  0.0453
   77TCq2    C1 1172   4.673   3.917  12.530 -0.6894  0.2414  0.1328
   77TCq2    O2 1173   4.692   3.921  12.652  0.5589 -0.0837 -0.0799
   77TCq2    C2 1174   4.707   3.794  12.467  0.4369  0.5432 -0.7898
   77TCq2    C3 1175   4.628   3.746  12.367  0.2425  0.0195 -0.4761
   77TCq2    C4 1176   4.678   3.657  12.284 -0.2213 -0.2428 -0.2312
   77TCq2    C5 1177   0.072   3.592  12.309  0.1666 -1.0054  0.7267
   77TCq2    C6 1178   0.142   3.634  12.421  0.9914  0.2601 -0.3481
   77TCq2    C7 1179   0.102   3.730  12.499  0.0853  0.0918 -0.0405
   77TCq2    C8 1180   0.260   3.549  12.456  0.1862  0.4555  0.1825
   77TCq2    O4 1181   0.311   3.482  12.375 -0.0407 -0.2484 -0.3244
   77TCq2    C9 1182   4.601   3.629  12.170 -0.2252 -0.1624 -0.3644
   77TCq2    O5 1183   4.640   3.536  12.098 -0.2311 -0.5565 -0.4868
   77TCq2    O6 1184   4.502   3.704  12.151  0.2242  0.3470  0.3112
   77TCq2    H2 1185   4.532   3.795  12.349 -0.6821 -2.1036 -1.2794
   77TCq2    H3 1186   0.111   3.511  12.248  2.5463 -1.2701  2.6221
   77TCq2    H4 1187   0.169   3.763  12.577  1.1677 -0.5096 -0.7187
   78MPD1     C 1188   0.332   0.201   1.188 -0.2484  0.3951  0.2507
   78MPD1    C1 1189   0.269   0.122   1.276  0.6265  0.1767  0.0395
   78MPD1    C2 1190   0.341   0.092   1.388 -0.4403  0.1738  0.5318
   78MPD1    C3 1191   0.474   0.117   1.407  0.0010 -0.7455 -0.3206
   78MPD1    C4 1192   0.533   0.202   1.315 -0.6535 -0.5678 -0.4154
   78MPD1    C5 1193   0.461   0.239   1.203  0.2800 -0.6159  0.4481
   78MPD1     H 1194   0.279   0.047   1.465 -0.2483  0.0266  0.6013
   78MPD1    H1 1195   0.637   0.233   1.311 -1.1375  1.1537  0.2084
   78MPD1    H2 1196   0.282   0.235   1.098 -2.0039 -2.3586  0.1871
   78MPD1    H3 1197   0.506   0.304   1.129  0.4702 -1.1824  0.0732
   78MPD1     N 1198   0.547   0.072   1.517 -0.2120  0.0121  0.2658
   78MPD1    H5 1199   0.647   0.090   1.511 -0.4476  1.2152  0.0654
   78MPD1    N1 1200   0.129   0.099   1.267 -0.0406  0.4339 -0.2492
   78MPD1    H6 1201   0.067   0.163   1.316 -0.0567 -0.5758  1.0587
   78MPD1    H7 1202   0.104   0.091   1.169  1.9707 -0.2200 -0.7000
   79TCq2    C1 1203   0.505   4.723   1.624 -0.9894 -0.0572 -0.3038
   79TCq2    O2 1204   0.386   4.709   1.659  0.0817  0.0160 -0.0718
   79TCq2    C2 1205   0.605   4.699   1.730  0.1605 -0.3724 -0.6274
   79TCq2    C3 1206   0.558   4.646   1.847  0.0981  0.3548  0.5441
   79TCq2    C4 1207   0.647   4.602   1.946  0.2288 -0.9711 -0.0906
   79TCq2    C5 1208   0.783   4.605   1.919  0.5024 -0.2501  0.1646
   79TCq2    C6 1209   0.830   4.646   1.796 -0.4552  0.6545 -0.0714
   79TCq2    C7 1210   0.741   4.691   1.696 -0.0241 -0.0966  0.5602
   79TCq2    C8 1211   0.968   4.702   1.789  0.5632 -0.4030 -0.4854
   79TCq2    O4 1212   1.046   4.677   1.879 -0.1815  0.0806  0.4530
   79TCq2    C9 1213   0.589   4.565   2.075 -0.4757 -0.0625  0.1401
   79TCq2    O5 1214   0.461   4.569   2.084 -0.0206  0.0650  0.0514
   79TCq2    O6 1215   0.664   4.585   2.178 -0.8840  0.4688  0.4802
   79TCq2    H2 1216   0.452   4.636   1.864  0.4513  0.2638  2.6661
   79TCq2    H3 1217   0.849   4.586   2.002  0.4825  1.4346  0.5609
   79TCq2    H4 1218   0.779   4.699   1.595 -0.3521  1.7825  0.5738
   80MPD2     C 1219   3.557   3.812  12.358  0.5509 -0.0558  0.3330
   80MPD2    C1 1220   3.530   3.784  12.225  0.3653 -0.2448 -0.3817
   80MPD2    C2 1221   3.418   3.724  12.190  0.0964  0.1529 -0.4115
   80MPD2    C3 1222   3.329   3.682  12.286  0.8069  0.1555  0.1951
   80MPD2    C4 1223   3.355   3.704  12.419 -0.3010  0.1561 -0.0680
   80MPD2    C5 1224   3.465   3.775  12.451 -0.1795  0.0409 -0.0901
   80MPD2     H 1225   3.404   3.699  12.085  1.0117 -4.2498  0.5306
   80MPD2    H1 1226   3.296   3.657  12.497  0.2560  0.5436  0.5829
   80MPD2    H2 1227   3.649   3.859  12.390  0.0635  0.0955  1.5115
   80MPD2    H3 1228   3.482   3.798  12.556 -1.5993  3.3002 -0.5809
   80MPD2     N 1229   3.215   3.594  12.263 -0.5252  0.0317  0.1039
   80MPD2    H5 1230   3.172   3.548  12.343 -0.4446 -0.4442 -0.1272
   80MPD2    N1 1231   3.620   3.800  12.114 -0.3056  0.4575 -0.4045
   80MPD2    H7 1232   3.576   3.780  12.024 -1.5268 -0.1329  0.3270
   81TCq2    C1 1233   3.755   3.827  12.121  0.2992 -0.2974  0.4985
   81TCq2    O2 1234   3.813   3.861  12.223 -0.1391 -0.7369 -0.5596
   81TCq2    C2 1235   3.819   3.785  11.994  0.3244  0.0476 -0.9341
   81TCq2    C3 1236   3.957   3.781  12.010  0.7339 -1.0362  0.5076
   81TCq2    C4 1237   4.024   3.680  11.947 -0.2148  0.1617  0.5393
   81TCq2    C5 1238   3.967   3.590  11.860  0.6893  0.1953 -0.3303
   81TCq2    C6 1239   3.832   3.607  11.833 -0.0015  1.0144 -0.3009
   81TCq2    C7 1240   3.759   3.706  11.902  0.0485 -0.1467 -0.0919
   81TCq2    C8 1241   3.756   3.492  11.787 -0.1477 -0.9294 -0.1707
   81TCq2    O4 1242   3.645   3.516  11.730  0.5449 -0.3092  0.7247
   81TCq2    C9 1243   4.163   3.670  11.967  0.5522 -0.0507 -0.1563
   81TCq2    O5 1244   4.221   3.765  12.026  0.4424 -0.3439  0.3927
   81TCq2    O6 1245   4.219   3.561  11.944 -0.5421  0.1547 -0.7456
   81TCq2    H2 1246   4.001   3.847  12.085 -0.4146 -1.2849  1.3952
   81TCq2    H3 1247   4.028   3.506  11.829  0.7851 -0.0906  0.6321
   81TCq2    H4 1248   3.651   3.707  11.891 -0.1093 -0.9925  1.3477
   82MPD2     C 1249   1.476   3.455  10.285  0.3978  0.8240 -0.7400
   82MPD2    C1 1250   1.475   3.574  10.354  0.0545  0.3563 -0.0057
   82MPD2    C2 1251   1.511   3.573  10.487  0.5957  0.1001  0.6109
   82MPD2    C3 1252   1.537   3.455  10.557  0.5040 -0.2355 -0.4436
   82MPD2    C4 1253   1.539   3.340  10.480  0.2982 -0.3515  0.2997
   82MPD2    C5 1254   1.513   3.338  10.350  0.1370  0.0976 -0.3351
   82MPD2     H 1255   1.505   3.663  10.547 -0.0223  1.6498 -1.8026
   82MPD2    H1 1256   1.565   3.245  10.524  0.2737 -0.0280  1.0255
   82MPD2    H2 1257   1.440   3.442  10.183 -1.2503 -1.2926  0.1015
   82MPD2    H3 1258   1.508   3.239  10.305  0.3767 -0.2653  0.4230
   82MPD2     N 1259   1.578   3.460  10.690 -0.0941 -0.0093  0.6942
   82MPD2    H5 1260   1.581   3.553  10.731 -0.4570  0.6053 -0.6627
   82MPD2    N1 1261   1.412   3.684  10.285  0.1384  0.5035  0.4118
   82MPD2    H7 1262   1.368   3.654  10.198  0.8956  0.0111  0.2016
   83TCq2    C1 1263   1.610   3.351  10.770 -1.0608 -0.1739  0.5647
   83TCq2    O2 1264   1.656   3.245  10.736 -0.0277  0.0590 -0.1277
   83TCq2    C2 1265   1.612   3.388  10.913 -0.0559  0.6318 -0.0921
   83TCq2    C3 1266   1.508   3.465  10.960 -0.0847  0.2284  0.2453
   83TCq2    C4 1267   1.468   3.459  11.089  0.3626 -0.4206 -0.6018
   83TCq2    C5 1268   1.508   3.359  11.174  0.1786 -0.2478  0.4938
   83TCq2    C6 1269   1.604   3.274  11.124  0.0224 -0.3833  0.2791
   83TCq2    C7 1270   1.658   3.284  10.997 -0.4295  0.1737 -1.1550
   83TCq2    C8 1271   1.622   3.148  11.198 -0.2845 -0.8858  0.6286
   83TCq2    O4 1272   1.569   3.140  11.306 -0.6431  0.7205 -0.2081
   83TCq2    C9 1273   1.366   3.541  11.132  0.6097 -0.6660  0.3398
   83TCq2    O5 1274   1.319   3.525  11.250  0.2714  0.3248 -0.0737
   83TCq2    O6 1275   1.341   3.649  11.063 -0.0692  0.2451  0.2964
   83TCq2    H2 1276   1.460   3.541  10.899  2.7846  3.1105  1.5850
   83TCq2    H3 1277   1.464   3.359  11.273 -0.9166 -0.1432  0.0101
   83TCq2    H4 1278   1.730   3.212  10.959  1.3965  1.3202  0.1605
   84TCq2    C1 1279   2.937   2.167  10.501  0.3458  0.5975 -0.4529
   84TCq2    O2 1280   2.997   2.275  10.475 -0.2432 -0.4953  0.4660
   84TCq2    C2 1281   2.883   2.152  10.637  0.6154 -0.3113 -0.9624
   84TCq2    C3 1282   2.883   2.039  10.715 -0.0313 -0.2913  0.7299
   84TCq2    C4 1283   2.865   2.046  10.848 -0.0415  0.6323  0.3781
   84TCq2    C5 1284   2.829   2.163  10.905  0.2865 -0.3618  0.0327
   84TCq2    C6 1285   2.827   2.274  10.828  0.0245  0.2529 -1.1166
   84TCq2    C7 1286   2.867   2.274  10.697 -0.3018 -0.8279  0.1995
   84TCq2    C8 1287   2.769   2.392  10.891 -0.3205 -0.9515  0.8243
   84TCq2    O4 1288   2.683   2.376  10.972  0.2007  0.3782  0.7710
   84TCq2    C9 1289   2.867   1.936  10.930  0.5962 -0.2443 -0.1447
   84TCq2    O5 1290   2.925   1.839  10.880 -0.2745  0.0844 -0.0220
   84TCq2    O6 1291   2.830   1.948  11.047  0.3676  0.4684 -0.0201
   84TCq2    H2 1292   2.910   1.942  10.675  1.4555  0.4103  0.0519
   84TCq2    H3 1293   2.813   2.173  11.012  0.3354 -0.4111  0.0450
   84TCq2    H4 1294   2.851   2.356  10.629 -1.4015 -0.1360  1.3086
   85MPD2     C 1295   3.902   0.160  16.213  0.4249 -0.2850 -0.0341
   85MPD2    C1 1296   3.814   0.122  16.115  0.4828  0.6816  0.8281
   85MPD2    C2 1297   3.827   0.178  15.994 -0.0581  0.1195  0.2677
   85MPD2    C3 1298   3.905   0.293  15.982 -0.6825 -0.2977  0.4263
   85MPD2    C4 1299   3.984   0.337  16.087 -0.0456  0.5026  0.3980
   85MPD2    C5 1300   3.993   0.260  16.199  0.5445 -1.6999 -0.1210
   85MPD2     H 1301   3.755   0.151  15.917 -0.3648  1.1541  0.1913
   85MPD2    H1 1302   4.058   0.415  16.071 -1.5586  1.8814  0.0185
   85MPD2    H2 1303   3.916   0.093  16.298 -1.8666  0.1125  0.6581
   85MPD2    H3 1304   4.061   0.274  16.282  3.1285  0.6232 -2.6668
   85MPD2     N 1305   3.901   0.365  15.862 -0.2379 -0.0267  0.0364
   85MPD2    H5 1306   3.833   0.351  15.789  0.1533  1.0242 -0.5292
   85MPD2    N1 1307   3.720   0.022  16.125 -0.0439 -0.2471  0.2086
   85MPD2    H7 1308   3.681   4.716  16.037 -0.6285  1.0209  0.0493
   86TCq2    C1 1309   3.982   0.473  15.832  0.3735  0.1395  0.1417
   86TCq2    O2 1310   4.092   0.499  15.875  0.1805  0.1945  0.3607
   86TCq2    C2 1311   3.923   0.556  15.725  0.5747 -0.1313 -0.3322
   86TCq2    C3 1312   3.784   0.551  15.703 -0.4863  0.3672  0.4707
   86TCq2    C4 1313   3.736   0.639  15.605  0.0190  0.4760  0.2805
   86TCq2    C5 1314   3.818   0.725  15.539  0.3282 -0.0886 -0.2202
   86TCq2    C6 1315   3.945   0.739  15.584 -0.3591  0.4707 -0.3771
   86TCq2    C7 1316   4.007   0.653  15.674 -0.5937  0.0746 -0.0957
   86TCq2    C8 1317   4.026   0.836  15.515 -0.4626 -0.5986 -0.7892
   86TCq2    O4 1318   4.141   0.835  15.561 -0.5737 -0.1412 -0.0411
   86TCq2    C9 1319   3.599   0.624  15.560  0.0840 -0.4647  0.2599
   86TCq2    O5 1320   3.548   0.737  15.527 -0.0229 -0.0100 -0.4256
   86TCq2    O6 1321   3.537   0.525  15.606 -0.6102 -0.2166  0.4844
   86TCq2    H2 1322   3.712   0.494  15.761 -0.6420  0.7773  0.6798
   86TCq2    H3 1323   3.759   0.787  15.473  2.3547  0.8251 -1.1927
   86TCq2    H4 1324   4.108   0.670  15.708  0.1385 -0.6443 -1.9299
   87MPD2     C 1325   1.157   3.748   1.763  0.4124 -0.2081 -0.4551
   87MPD2    C1 1326   1.223   3.759   1.636  0.1963 -0.9186 -0.1151
   87MPD2    C2 1327   1.168   3.848   1.551  0.3619 -0.6583  0.2558
   87MPD2    C3 1328   1.061   3.930   1.576 -0.0586  0.7497  0.0603
   87MPD2    C4 1329   0.994   3.920   1.695  0.0075  0.5762  0.3112
   87MPD2    C5 1330   1.046   3.822   1.785  0.4255 -0.6488  0.0076
   87MPD2     H 1331   1.205   3.870   1.451  0.2528  3.0124  1.0204
   87MPD2    H1 1332   0.929   3.997   1.734  4.9113  3.7128  2.3236
   87MPD2    H2 1333   1.193   3.674   1.833  1.3782  1.2628  0.6244
   87MPD2    H3 1334   0.997   3.815   1.881 -0.1663 -0.8270 -0.3058
   87MPD2     N 1335   1.005   4.025   1.487  0.1296 -0.5471  0.2749
   87MPD2    H5 1336   0.922   4.072   1.520  0.6028 -0.9147  1.9674
   87MPD2    N1 1337   1.349   3.701   1.610  0.0720  0.0318  0.6997
   87MPD2    H7 1338   1.402   3.651   1.680  0.1627 -2.9508 -1.5088
   88TCq2    C1 1339   1.406   3.695   1.485 -0.3661  0.2358  0.8025
   88TCq2    O2 1340   1.363   3.731   1.378 -0.2386 -0.0308  0.6294
   88TCq2    C2 1341   1.541   3.634   1.489  0.4400 -0.2933 -0.2141
   88TCq2    C3 1342   1.628   3.672   1.586 -0.7828 -0.0352  0.4699
   88TCq2    C4 1343   1.761   3.664   1.563 -0.8967  0.7996  0.4393
   88TCq2    C5 1344   1.807   3.626   1.446  0.2877 -0.5752 -0.4674
   88TCq2    C6 1345   1.712   3.599   1.345  0.1686  0.5165  0.0075
   88TCq2    C7 1346   1.583   3.594   1.365  0.4481  0.4694 -0.0157
   88TCq2    C8 1347   1.760   3.570   1.215 -0.3575  0.1105  0.4805
   88TCq2    O4 1348   1.867   3.629   1.184 -0.1687  0.5129  0.2243
   88TCq2    C9 1349   1.849   3.703   1.668  0.2039 -0.4982  0.1799
   88TCq2    O5 1350   1.969   3.679   1.640 -0.0514 -0.2333 -0.4249
   88TCq2    O6 1351   1.798   3.744   1.771  0.4872 -0.1836  0.0853
   88TCq2    H2 1352   1.592   3.713   1.680 -0.6317  1.3760 -0.1028
   88TCq2    H3 1353   1.914   3.617   1.432  0.3656  0.0071 -0.2483
   88TCq2    H4 1354   1.515   3.585   1.281 -0.4614  3.2523  0.4273
   89MPD2     C 1355   2.092   0.707   1.925  0.4544  0.0349  0.1670
   89MPD2    C1 1356   1.998   0.781   1.851  0.1908 -0.4438 -0.1923
   89MPD2    C2 1357   2.027   0.870   1.753  0.6726  0.2739 -0.7212
   89MPD2    C3 1358   2.163   0.888   1.716 -1.0617  0.0756  0.2112
   89MPD2    C4 1359   2.256   0.822   1.790  0.0714  0.5044  0.1432
   89MPD2    C5 1360   2.218   0.735   1.889 -0.5432  0.1926 -0.1552
   89MPD2     H 1361   1.947   0.923   1.704 -0.0009  0.5849  0.7256
   89MPD2    H1 1362   2.361   0.849   1.788  0.3167 -0.5774 -1.8695
   89MPD2    H2 1363   2.072   0.633   2.002 -0.1976 -0.5246 -0.5339
   89MPD2    H3 1364   2.300   0.690   1.944  0.8533 -0.0830 -2.4805
   89MPD2     N 1365   2.193   0.983   1.616 -0.1685  0.7299 -0.5951
   89MPD2    H5 1366   2.127   1.055   1.588  1.0338  1.9768 -0.2321
   89MPD2    N1 1367   1.855   0.761   1.870  0.4530 -0.0550 -0.2560
   89MPD2    H7 1368   1.794   0.808   1.803 -1.4644 -3.3289 -0.8135
   90TCq2    C1 1369   2.316   1.014   1.565  0.9926 -0.3343  0.2974
   90TCq2    O2 1370   2.421   0.949   1.570  0.4974  0.1351 -0.3961
   90TCq2    C2 1371   2.313   1.137   1.473 -0.3138 -0.5858 -0.7146
   90TCq2    C3 1372   2.219   1.236   1.485  0.5094  0.0758  0.4610
   90TCq2    C4 1373   2.215   1.335   1.393  0.5866  0.5148 -1.2824
   90TCq2    C5 1374   2.303   1.340   1.283 -0.1789 -0.2523  0.4732
   90TCq2    C6 1375   2.404   1.245   1.284  0.7143 -0.4739 -0.0754
   90TCq2    C7 1376   2.417   1.152   1.383 -0.3950  0.1622  0.0798
   90TCq2    C8 1377   2.501   1.249   1.171 -0.0894 -0.3039 -0.4872
   90TCq2    O4 1378   2.586   1.161   1.157  0.5080 -0.9764 -0.6330
   90TCq2    C9 1379   2.106   1.432   1.398 -0.3644 -0.4103  0.2836
   90TCq2    O5 1380   2.014   1.406   1.478  0.3202  0.4443  0.0189
   90TCq2    O6 1381   2.085   1.511   1.299 -0.6712 -0.1042 -0.7977
   90TCq2    H2 1382   2.152   1.234   1.571 -1.8921 -0.2185 -1.3982
   90TCq2    H3 1383   2.277   1.415   1.210 -0.7849  1.1919  2.1719
   90TCq2    H4 1384   2.484   1.070   1.364 -1.7177 -0.6434 -1.1289
   91TMC2    C1 1385   3.619   1.255  16.377 -0.0514 -0.3055  0.7660
   91TMC2    C2 1386   3.617   1.322  16.499 -0.5105 -0.2003 -0.1515
   91TMC2    C3 1387   3.501   1.350  16.565  0.4063 -0.2042  0.9989
   91TMC2    C4 1388   3.503   1.188  16.334  0.0425 -0.2857  0.4577
   91TMC2    C5 1389   3.388   1.208  16.411  0.0765  0.1077  0.0746
   91TMC2    C6 1390   3.386   1.286  16.525  0.7815 -0.2216  0.3080
   91TMC2     C 1391   3.739   1.178  16.352  0.9120 -0.1206 -0.2783
   91TMC2     O 1392   3.726   1.065  16.313 -0.2465 -0.0533  0.7893
   91TMC2     H 1393   3.708   1.356  16.548 -0.7713 -0.2729  0.3791
   91TMC2    H1 1394   3.511   1.122  16.249  1.2458 -0.0245  0.3798
   91TMC2    H2 1395   3.293   1.302  16.579 -0.2556  1.5994 -2.0308
   91TMC2    C7 1396   3.282   1.113  16.406 -0.0308 -0.0627 -0.6910
   91TMC2    C8 1397   3.525   1.391  16.706  0.0974 -0.2875  0.3680
   91TMC2    O1 1398   3.237   1.072  16.513 -0.5626 -0.2316 -0.3577
   91TMC2    O2 1399   3.619   1.337  16.763 -0.2649 -0.3958  0.4868
   91TMC2    O5 1400   3.411   1.435  16.766  0.6798  0.1344 -0.4331
   91TMC2    H5 1401   3.336   1.448  16.704  0.6064  0.8161 -0.1991
   92MPD2     C 1402   4.024   1.060  16.347  0.6061  0.0838  0.1712
   92MPD2    C1 1403   3.989   1.188  16.387  0.4905  0.0959  0.2168
   92MPD2    C2 1404   4.086   1.272  16.431  0.9372 -0.2188  0.1948
   92MPD2    C3 1405   4.215   1.228  16.444 -0.3504 -0.1677 -0.3191
   92MPD2    C4 1406   4.255   1.110  16.394 -0.4230  0.6800  0.2067
   92MPD2    C5 1407   4.158   1.031  16.335  0.2266 -0.6620  0.3888
   92MPD2     H 1408   4.063   1.370  16.471 -0.6014 -0.7094  0.4828
   92MPD2    H1 1409   4.354   1.066  16.394  0.1636  2.0167  2.8636
   92MPD2    H2 1410   3.952   0.980  16.332  1.2996 -0.4266 -0.3849
   92MPD2    H3 1411   4.196   0.940  16.291  0.3603 -0.3271 -0.1862
   92MPD2     N 1412   4.305   1.316  16.507 -0.0843 -0.5345 -0.4071
   92MPD2    H5 1413   4.265   1.396  16.556  0.0075 -0.3537 -0.6288
   92MPD2    N1 1414   3.854   1.246  16.392  0.5669 -0.0100 -0.4922
   92MPD2    H7 1415   3.835   1.346  16.399  1.6663  0.1216  0.5731
   93MPD2     C 1416   1.128   1.299  13.771 -0.1678 -0.3236  0.8176
   93MPD2    C1 1417   1.091   1.303  13.904 -0.3414  0.0324 -0.0651
   93MPD2    C2 1418   0.954   1.308  13.936 -0.1154  0.1017  0.0587
   93MPD2    C3 1419   0.856   1.326  13.836  0.0684 -0.4596  0.8074
   93MPD2    C4 1420   0.903   1.335  13.710  0.3114 -0.0852 -0.6261
   93MPD2    C5 1421   1.032   1.317  13.680 -0.1225 -0.2740 -0.1297
   93MPD2     H 1422   0.923   1.284  14.037  0.1773  1.6748  0.5095
   93MPD2    H1 1423   0.836   1.359  13.628 -2.0887  1.2659  1.6979
   93MPD2    H2 1424   1.232   1.296  13.739 -0.1791 -2.1865  0.9755
   93MPD2    H3 1425   1.064   1.332  13.578  2.0195  0.4827  0.6535
   93MPD2     N 1426   0.721   1.354  13.866 -0.6830 -0.3478 -0.0155
   93MPD2    H5 1427   0.660   1.375  13.788  0.3515 -0.6749 -0.9075
   93MPD2    N1 1428   1.197   1.307  13.995  0.2152  0.0229 -0.6375
   93MPD2    H7 1429   1.286   1.309  13.947  0.3775  1.8083 -0.2586
   94TCq2    C1 1430   1.182   1.311  14.128  0.2240 -0.0335  0.0886
   94TCq2    O2 1431   1.085   1.331  14.193 -0.7972 -0.1517  0.1218
   94TCq2    C2 1432   1.309   1.349  14.189  0.2204  0.4160  0.0883
   94TCq2    C3 1433   1.305   1.410  14.311  0.1292  0.4430 -0.1900
   94TCq2    C4 1434   1.422   1.452  14.362  0.9222 -0.2272  0.1309
   94TCq2    C5 1435   1.542   1.422  14.302  0.3924 -0.0504  0.3509
   94TCq2    C6 1436   1.540   1.365  14.183  0.2093  0.0100 -0.9172
   94TCq2    C7 1437   1.426   1.323  14.122  0.7865 -0.2969 -0.1598
   94TCq2    C8 1438   1.664   1.366  14.111 -0.6361  0.8115  0.5718
   94TCq2    O4 1439   1.766   1.335  14.173  0.3683  0.1011  0.4878
   94TCq2    C9 1440   1.414   1.535  14.475 -0.5412  0.0512 -0.5374
   94TCq2    O5 1441   1.301   1.596  14.486  0.4506  0.1676 -0.0983
   94TCq2    O6 1442   1.520   1.590  14.513 -0.5171  0.0862 -0.7319
   94TCq2    H2 1443   1.209   1.427  14.358  1.4343  0.5496  2.4079
   94TCq2    H3 1444   1.635   1.454  14.347 -0.0708 -1.9756  2.6370
   94TCq2    H4 1445   1.442   1.263  14.033 -1.7598 -0.1383 -0.7401
   95TMC2    C1 1446   1.364   2.493  16.346  0.0980 -0.3495 -0.4740
   95TMC2    C2 1447   1.349   2.358  16.379  0.0324  0.0708  0.4388
   95TMC2    C3 1448   1.232   2.327  16.437  0.1932 -0.5502 -0.5994
   95TMC2    C4 1449   1.271   2.593  16.376 -0.0344  0.3836 -0.3187
   95TMC2    C5 1450   1.148   2.550  16.434  0.1015 -0.0652 -0.5181
   95TMC2    C6 1451   1.134   2.420  16.469 -0.5799 -0.0645 -0.5150
   95TMC2     C 1452   1.481   2.528  16.271 -0.9117  0.0881 -0.4834
   95TMC2     O 1453   1.496   2.649  16.255 -0.5704 -0.7029 -0.8168
   95TMC2     H 1454   1.424   2.280  16.380 -0.9056 -0.8014  1.8219
   95TMC2    H1 1455   1.287   2.696  16.347  2.4439  0.2383  0.5124
   95TMC2    H2 1456   1.040   2.395  16.516 -0.2058 -1.0872 -0.2908
   95TMC2    C7 1457   1.076   2.634  16.524  0.5660  0.6899 -0.1435
   95TMC2    C8 1458   1.203   2.193  16.473  1.3291 -0.1969  0.0221
   95TMC2    O1 1459   1.036   2.601  16.637  0.1359  0.2439 -0.0488
   95TMC2    O2 1460   1.286   2.118  16.525  0.1113  0.3787 -0.1321
   95TMC2    O5 1461   1.085   2.157  16.419 -0.2338 -0.3835 -0.3977
   95TMC2    H5 1462   1.043   2.232  16.372  1.6976  1.9510  1.6483
   96MPD2     C 1463   1.721   2.398  15.828  0.1678 -0.1149  0.3270
   96MPD2    C1 1464   1.676   2.519  15.876  0.0213 -0.4565 -0.0995
   96MPD2    C2 1465   1.601   2.530  15.998 -0.6213  0.2286 -0.9276
   96MPD2    C3 1466   1.578   2.414  16.067 -0.0260 -0.1313 -0.0504
   96MPD2    C4 1467   1.620   2.290  16.018 -0.2294  0.0965  0.1480
   96MPD2    C5 1468   1.682   2.282  15.896  0.5711  0.1557  0.0157
   96MPD2     H 1469   1.557   2.623  16.032  1.3137  0.8874 -0.2303
   96MPD2    H1 1470   1.595   2.200  16.073  2.7697  0.2088  1.6599
   96MPD2    H2 1471   1.766   2.365  15.735 -1.0872  0.2744 -0.4234
   96MPD2    H3 1472   1.719   2.184  15.868 -3.3981 -1.8610  1.8591
   96MPD2     N 1473   1.520   2.418  16.195 -0.1088 -0.2609 -0.5377
   96MPD2    H5 1474   1.526   2.330  16.246  1.8437 -0.3257 -0.9032
   96MPD2    N1 1475   1.714   2.636  15.795  0.2118  0.2966  0.8276
   96MPD2    H7 1476   1.760   2.613  15.708  1.2451 -0.2246  1.5171
   97MPD2     C 1477   3.191   4.645   1.259 -0.4776  0.2996  0.3151
   97MPD2    C1 1478   3.172   0.049   1.308 -0.1160 -0.6265 -0.1549
   97MPD2    C2 1479   3.259   0.151   1.268 -0.1935  0.3933  0.2289
   97MPD2    C3 1480   3.370   0.122   1.194  0.4412  0.5426  0.6041
   97MPD2    C4 1481   3.397   4.711   1.168  0.3274  0.3574 -0.8373
   97MPD2    C5 1482   3.309   4.614   1.194  0.3078 -0.2363 -0.3286
   97MPD2     H 1483   3.230   0.250   1.301  4.3416  1.5398  0.8111
   97MPD2    H1 1484   3.480   4.680   1.107 -0.0646 -0.4935 -0.9364
   97MPD2    H2 1485   3.122   4.564   1.281  2.5797 -2.3692  0.1519
   97MPD2    H3 1486   3.343   4.514   1.170  1.6169  0.0281  0.4310
   97MPD2     N 1487   3.469   0.219   1.156 -0.2910 -0.1266  0.1634
   97MPD2    H5 1488   3.547   0.186   1.101 -1.1530  1.9117 -2.2932
   97MPD2    N1 1489   3.053   0.067   1.387 -0.0928 -0.5500 -0.0199
   97MPD2    H7 1490   3.003   4.704   1.406  1.2575 -0.8092  2.4301
   98TCq2    C1 1491   3.459   0.355   1.181  1.0604  0.0897  0.3073
   98TCq2    O2 1492   3.363   0.418   1.221 -0.3357 -0.0844 -0.0478
   98TCq2    C2 1493   3.576   0.421   1.130  0.2843 -0.3490  0.0141
   98TCq2    C3 1494   3.688   0.352   1.091 -0.1027 -0.4013 -0.3654
   98TCq2    C4 1495   3.773   0.407   0.998 -0.2678 -1.3663 -0.6426
   98TCq2    C5 1496   3.762   0.540   0.968 -0.2692  0.0506  0.1448
   98TCq2    C6 1497   3.643   0.604   1.006  0.1898 -0.5383 -0.1178
   98TCq2    C7 1498   3.549   0.547   1.089  0.8865  0.0252 -0.5289
   98TCq2    C8 1499   3.634   0.739   0.966 -0.1220 -0.1165  0.3140
   98TCq2    O4 1500   3.732   0.800   0.925 -0.2779 -0.2640 -0.1974
   98TCq2    C9 1501   3.870   0.328   0.928  0.2179  0.4479  0.0316
   98TCq2    O5 1502   3.851   0.205   0.911  0.0862 -0.4812  0.3241
   98TCq2    O6 1503   3.960   0.391   0.870  0.0791  0.2574 -0.2635
   98TCq2    H2 1504   3.716   0.253   1.126  0.1979 -0.2019 -0.0342
   98TCq2    H3 1505   3.829   0.585   0.895 -1.5762  0.8067 -0.5883
   98TCq2    H4 1506   3.463   0.600   1.127  1.7025  1.0302 -0.0824
   99MPD2     C 1507   2.037   2.984   1.530 -0.2728  0.3399 -0.5271
   99MPD2    C1 1508   1.925   2.936   1.584  0.5700  0.5148  0.9151
   99MPD2    C2 1509   1.842   2.866   1.497  0.6676  0.0446 -0.1800
   99MPD2    C3 1510   1.875   2.843   1.362 -0.2515 -0.7530  0.0225
   99MPD2    C4 1511   1.996   2.889   1.313 -0.4975 -0.8016 -0.1888
   99MPD2    C5 1512   2.074   2.964   1.399 -0.3224 -0.3177 -0.2345
   99MPD2     H 1513   1.745   2.829   1.528  0.6852  0.5264  0.4570
   99MPD2    H1 1514   2.027   2.887   1.209 -0.7552 -0.2374 -0.2771
   99MPD2    H2 1515   2.104   3.052   1.580  0.5857  1.7463 -3.5562
   99MPD2    H3 1516   2.167   3.011   1.371 -1.5090  1.1371 -1.7424
   99MPD2     N 1517   1.793   2.765   1.282 -0.0170 -0.0699  0.2708
   99MPD2    H5 1518   1.704   2.732   1.319 -0.2672 -0.2043 -0.4631
   99MPD2    N1 1519   1.890   2.951   1.723 -0.2996 -0.0175  0.2095
   99MPD2    H7 1520   1.806   2.902   1.754  0.4042 -0.5362  1.3017
  100TCq2    C1 1521   1.960   3.016   1.820  0.2538 -0.1749 -0.1040
  100TCq2    O2 1522   2.075   3.060   1.815  0.3965 -0.5405  0.5355
  100TCq2    C2 1523   1.902   3.004   1.950 -0.1077 -0.0815 -0.3203
  100TCq2    C3 1524   1.987   2.986   2.058 -0.1896  0.2723  0.7047
  100TCq2    C4 1525   1.932   2.987   2.182  0.9875 -0.3712  0.0051
  100TCq2    C5 1526   1.802   3.022   2.202  0.4666 -0.0174  0.2334
  100TCq2    C6 1527   1.720   3.018   2.097  0.5220  1.0407 -0.2992
  100TCq2    C7 1528   1.765   3.019   1.967  0.3028 -0.5444 -0.1172
  100TCq2    C8 1529   1.589   3.059   2.122 -0.7198  0.0260 -0.3748
  100TCq2    O4 1530   1.561   3.134   2.215 -0.3029  0.0424 -0.0338
  100TCq2    C9 1531   2.020   2.972   2.298 -0.0678  0.4391 -0.1233
  100TCq2    O5 1532   2.136   2.939   2.262 -0.0528  0.6439 -0.1686
  100TCq2    O6 1533   1.977   3.005   2.412 -0.3338 -1.2512  0.1033
  100TCq2    H2 1534   2.094   2.978   2.044 -0.3312 -0.7380  0.1410
  100TCq2    H3 1535   1.761   3.042   2.301 -0.0637 -0.1791  0.0457
  100TCq2    H4 1536   1.692   3.017   1.887 -1.1015 -1.2860  1.1651
  101MPD2     C 1537   2.507   3.204  13.047  0.1121  0.2431 -0.2845
  101MPD2    C1 1538   2.408   3.292  13.091  0.0528  0.3776  0.0040
  101MPD2    C2 1539   2.363   3.259  13.217  0.5119  0.2660 -0.1101
  101MPD2    C3 1540   2.405   3.159  13.293 -0.1170 -0.4329 -0.5183
  101MPD2    C4 1541   2.497   3.072  13.242  0.3228 -0.0705  0.2790
  101MPD2    C5 1542   2.551   3.096  13.119 -1.3067  0.6710 -0.1288
  101MPD2     H 1543   2.288   3.322  13.262  1.5985  0.8138  0.9226
  101MPD2    H1 1544   2.532   2.992  13.307  0.2313  1.1326  1.7928
  101MPD2    H2 1545   2.529   3.205  12.941  1.0830  0.7577 -0.0747
  101MPD2    H3 1546   2.615   3.017  13.078 -1.8838  0.8885 -1.4637
  101MPD2     N 1547   2.338   3.138  13.417 -0.3974  0.1868 -0.2648
  101MPD2    H5 1548   2.263   3.202  13.442 -0.9118 -0.3199 -0.5224
  101MPD2    N1 1549   2.359   3.401  13.018  0.2931 -0.4129  0.2502
  101MPD2    H7 1550   2.375   3.397  12.918  1.0806 -0.2829  0.3747
  102TCq2    C1 1551   2.421   3.745  12.669 -0.3779 -0.4655  0.0893
  102TCq2    O2 1552   2.526   3.678  12.667  0.4114  0.2964 -0.2338
  102TCq2    C2 1553   2.342   3.745  12.803 -0.5373  0.0901  0.3431
  102TCq2    C3 1554   2.236   3.828  12.818  1.0168  0.0655 -0.4471
  102TCq2    C4 1555   2.145   3.811  12.922  1.4538 -0.0888  0.2867
  102TCq2    C5 1556   2.167   3.710  13.006 -0.0369  0.5033 -0.5035
  102TCq2    C6 1557   2.264   3.620  12.967  0.2262 -0.2502 -0.6492
  102TCq2    C7 1558   2.361   3.634  12.871 -0.1911  0.4388 -0.7571
  102TCq2    C8 1559   2.278   3.510  13.061 -0.1869 -0.6257 -0.9761
  102TCq2    O4 1560   2.217   3.516  13.170  0.7445 -0.2928 -0.2026
  102TCq2    C9 1561   2.047   3.909  12.956 -0.5566 -0.9477 -0.3569
  102TCq2    O5 1562   1.962   3.881  13.045 -0.1288 -0.2454  0.3377
  102TCq2    O6 1563   2.053   4.018  12.886  0.1291  0.2757  0.5992
  102TCq2    H2 1564   2.219   3.910  12.750 -2.2736 -1.2319 -1.1522
  102TCq2    H3 1565   2.104   3.690  13.092  1.0431 -0.7524  0.0022
  102TCq2    H4 1566   2.435   3.560  12.843 -0.4166  0.2451 -0.8390
  103TMC2    C1 1567   0.649   3.687  13.134  0.1252 -0.7379 -0.7848
  103TMC2    C2 1568   0.771   3.625  13.117  0.1440 -0.1052  0.1218
  103TMC2    C3 1569   0.842   3.626  13.235  0.1611 -0.7209  0.3245
  103TMC2    C4 1570   0.602   3.737  13.256 -0.0490  0.3844  0.5904
  103TMC2    C5 1571   0.683   3.738  13.363  0.1920  0.3825  0.5290
  103TMC2    C6 1572   0.807   3.684  13.352 -0.1163  0.3955  0.4321
  103TMC2     C 1573   0.560   3.676  13.029 -0.1921 -0.3203 -0.3070
  103TMC2     O 1574   0.462   3.750  13.021 -0.6955 -0.3026 -0.0909
  103TMC2     H 1575   0.822   3.633  13.022 -0.1353  2.1659  0.1548
  103TMC2    H1 1576   0.506   3.787  13.258 -0.9221 -1.2927  1.1154
  103TMC2    H2 1577   0.870   3.670  13.438 -1.4993 -2.3229  1.0084
  103TMC2    C7 1578   0.638   3.753  13.501 -0.8673  0.5504 -0.0811
  103TMC2    C8 1579   0.969   3.567  13.236 -0.9657  0.0890  0.4655
  103TMC2    O1 1580   0.725   3.751  13.589  0.2941  0.1750  0.2950
  103TMC2    O2 1581   1.066   3.626  13.278  0.2063 -0.1906  0.2304
  103TMC2    O5 1582   0.970   3.486  13.130 -0.0224  0.7065  0.0847
  103TMC2    H5 1583   0.882   3.446  13.114  1.1975 -1.6301 -0.6720
  104MPD2     C 1584   0.589   3.383  12.810  0.3328  0.3198  0.3809
  104MPD2    C1 1585   0.524   3.495  12.860 -0.5097  0.2212  0.4010
  104MPD2    C2 1586   0.434   3.560  12.781 -0.3729  0.1249 -0.0412
  104MPD2    C3 1587   0.410   3.508  12.652  0.7701  0.4505 -0.5382
  104MPD2    C4 1588   0.476   3.400  12.604 -0.2750  0.6604 -0.3599
  104MPD2    C5 1589   0.567   3.342  12.682  0.5393 -0.0095  0.2109
  104MPD2     H 1590   0.373   3.642  12.817  2.0638  2.1628 -0.5436
  104MPD2    H1 1591   0.450   3.350  12.512  1.5205 -0.5899 -0.1825
  104MPD2    H2 1592   0.668   3.336  12.868  1.2044  0.2218 -0.8834
  104MPD2    H3 1593   0.626   3.261  12.640 -1.7757 -1.8928  0.5587
  104MPD2     N 1594   0.298   3.573  12.584  0.4436  0.0405 -0.5139
  104MPD2    H5 1595   0.246   3.642  12.636 -3.4940 -0.8849 -3.2394
  104MPD2    N1 1596   0.583   3.548  12.976  0.5119 -0.7750  0.4310
  104MPD2    H7 1597   0.660   3.501  13.022  1.4136  0.0717 -0.2035
  105MPD2     C 1598   2.451   3.306  17.572 -0.3510 -0.0316 -0.2886
  105MPD2    C1 1599   2.329   3.366  17.602  0.1901  1.2233  0.5902
  105MPD2    C2 1600   2.306   3.401   0.040  0.2811  0.0388 -0.1091
  105MPD2    C3 1601   2.395   3.365   0.138  0.7555  0.0814  0.2977
  105MPD2    C4 1602   2.520   3.310   0.099  0.8434 -0.3460  0.5827
  105MPD2    C5 1603   2.551   3.285  17.662 -0.0622  0.1464  0.2259
  105MPD2     H 1604   2.215   3.452   0.070  0.6765  0.6389  0.0794
  105MPD2    H1 1605   2.597   3.283   0.170  0.0490  0.0916  1.6037
  105MPD2    H2 1606   2.473   3.267  17.473 -2.0175  1.1866 -1.1251
  105MPD2    H3 1607   2.635   3.222  17.637  0.1107  0.4654  0.0091
  105MPD2     N 1608   2.357   3.397   0.269  0.2471 -1.0805  0.4171
  105MPD2    H5 1609   2.264   3.434   0.288  0.8148  0.7134 -0.2805
  105MPD2    N1 1610   2.225   3.376  17.500 -0.1754  0.2277  0.0767
  105MPD2    H7 1611   2.135   3.413  17.529 -0.5736  0.4202 -1.4032
  106TCq2    C1 1612   2.446   3.385   0.379 -0.5131 -0.3608  0.2678
  106TCq2    O2 1613   2.566   3.348   0.392  0.1554 -0.2332  0.2909
  106TCq2    C2 1614   2.380   3.423   0.500  0.1116  0.2255  0.0224
  106TCq2    C3 1615   2.460   3.464   0.602  0.2448  0.4505 -0.2539
  106TCq2    C4 1616   2.398   3.515   0.713  0.3692 -0.2663  0.2094
  106TCq2    C5 1617   2.262   3.520   0.716 -0.2581  0.6805 -0.0298
  106TCq2    C6 1618   2.184   3.478   0.617 -0.0183  0.2892 -0.6450
  106TCq2    C7 1619   2.243   3.421   0.507  0.0339  0.3907 -0.1315
  106TCq2    C8 1620   2.039   3.453   0.643  0.3334 -1.1816 -0.5897
  106TCq2    O4 1621   1.978   3.416   0.547 -0.0463  0.2263 -0.3025
  106TCq2    C9 1622   2.477   3.543   0.829  0.5793 -0.3418  0.3143
  106TCq2    O5 1623   2.417   3.571   0.934 -0.1498  0.0949 -0.3926
  106TCq2    O6 1624   2.605   3.559   0.824 -0.5992  0.0196  0.3797
  106TCq2    H2 1625   2.568   3.463   0.591  0.3181  0.8898  0.4129
  106TCq2    H3 1626   2.227   3.552   0.814 -2.8536 -0.7827 -0.4698
  106TCq2    H4 1627   2.178   3.382   0.430  0.5582  0.4846 -0.6190
  107TMC2    C1 1628   2.412   2.964  11.398 -0.0255 -0.0618  0.2410
  107TMC2    C2 1629   2.321   3.064  11.408  0.3347  0.3213 -0.2156
  107TMC2    C3 1630   2.268   3.113  11.295 -0.9969 -0.3033 -0.4908
  107TMC2    C4 1631   2.442   2.905  11.275 -0.4205  0.2854 -0.4788
  107TMC2    C5 1632   2.392   2.968  11.167 -0.3425  0.6868 -0.4126
  107TMC2    C6 1633   2.310   3.072  11.170  0.6891 -0.1872  1.0833
  107TMC2     C 1634   2.434   2.876  11.514  0.0810 -0.8244  0.1160
  107TMC2     O 1635   2.395   2.926  11.619 -0.2904  0.2872 -0.4649
  107TMC2     H 1636   2.297   3.111  11.503 -1.6004  1.4070 -1.2351
  107TMC2    H1 1637   2.537   2.853  11.270 -0.0894  0.7773  0.7047
  107TMC2    H2 1638   2.276   3.118  11.078  1.5298 -0.7745  0.4854
  107TMC2    C7 1639   2.462   2.955  11.043 -0.0942  0.4226 -0.6062
  107TMC2    C8 1640   2.207   3.246  11.296 -0.4040 -0.1932  0.1515
  107TMC2    O1 1641   2.465   3.057  10.969  0.1218  0.5801 -0.0536
  107TMC2    O2 1642   2.132   3.289  11.208 -0.6305 -0.9223  0.1934
  107TMC2    O5 1643   2.306   3.320  11.348  0.3197  0.5426 -0.1900
  107TMC2    H5 1644   2.375   3.272  11.400 -0.3734  0.8086  0.9694
  108MPD2     C 1645   2.616   2.570  11.538  0.7282  0.0157 -0.0890
  108MPD2    C1 1646   2.535   2.669  11.580 -0.1108 -0.7651  0.3548
  108MPD2    C2 1647   2.525   2.696  11.720 -0.2093  0.0765 -0.1161
  108MPD2    C3 1648   2.599   2.615  11.808  0.3591  0.7102 -0.4844
  108MPD2    C4 1649   2.679   2.510  11.760 -0.6487 -0.0573  0.5397
  108MPD2    C5 1650   2.694   2.495  11.624 -0.4185 -0.0367 -0.9469
  108MPD2     H 1651   2.472   2.780  11.761 -2.5520 -1.3313 -0.2721
  108MPD2    H1 1652   2.739   2.444  11.821 -0.0223  0.7472  0.8002
  108MPD2    H2 1653   2.624   2.540  11.434  0.3682 -1.6199  0.3534
  108MPD2    H3 1654   2.760   2.422  11.579 -0.6113 -0.4671 -0.5279
  108MPD2     N 1655   2.585   2.621  11.952  0.5305  0.4003  0.2140
  108MPD2    H5 1656   2.647   2.562  12.007 -0.8714 -1.0464  0.2557
  108MPD2    N1 1657   2.477   2.754  11.483 -0.4225 -0.6548 -0.9546
  108MPD2    H7 1658   2.482   2.725  11.386 -0.3746 -0.8499 -0.8933
  109MPD2     C 1659   1.785   4.354   2.151  0.1969 -0.0898 -0.4581
  109MPD2    C1 1660   1.886   4.425   2.085 -0.0701  0.0398 -0.0174
  109MPD2    C2 1661   2.016   4.388   2.109 -0.7065 -0.1124  0.6730
  109MPD2    C3 1662   2.049   4.284   2.194  0.2832  0.8210  0.6279
  109MPD2    C4 1663   1.942   4.223   2.270 -0.2803 -0.3129  0.1007
  109MPD2    C5 1664   1.814   4.267   2.245 -0.1324  0.8043  0.1651
  109MPD2     H 1665   2.096   4.427   2.047 -0.4203 -0.8859  0.5537
  109MPD2    H1 1666   1.953   4.149   2.348 -0.3030 -1.7421 -1.2538
  109MPD2    H2 1667   1.681   4.367   2.123  0.2178  1.4512  0.1987
  109MPD2    H3 1668   1.733   4.218   2.297 -0.0175  0.5062  0.0634
  109MPD2     N 1669   2.181   4.235   2.201  0.5889  0.0130  0.4340
  109MPD2    H5 1670   2.257   4.281   2.152 -1.1749  0.0908 -2.2725
  109MPD2    N1 1671   1.846   4.509   1.981 -0.3848  0.4387 -0.1120
  109MPD2    H7 1672   1.748   4.534   1.975 -1.0833 -1.6343  2.6354
  110TCq2    C1 1673   2.221   4.130   2.273  0.7333 -0.0339 -0.1250
  110TCq2    O2 1674   2.160   4.057   2.346 -0.2929  0.5103  0.7340
  110TCq2    C2 1675   2.356   4.088   2.232 -0.2717  0.4200  0.2239
  110TCq2    C3 1676   2.406   3.971   2.269  0.2063  0.1212 -0.5312
  110TCq2    C4 1677   2.535   3.932   2.242  0.1444 -0.7226  0.2714
  110TCq2    C5 1678   2.614   4.019   2.181  0.2123  0.0667 -0.0652
  110TCq2    C6 1679   2.564   4.137   2.140 -0.3484 -0.1796 -0.0524
  110TCq2    C7 1680   2.436   4.177   2.159 -0.5804  0.8247  0.4625
  110TCq2    C8 1681   2.637   4.234   2.067 -0.3924 -0.2165  0.0372
  110TCq2    O4 1682   2.579   4.303   1.984  0.2229 -0.2416  0.0128
  110TCq2    C9 1683   2.590   3.803   2.284 -0.6891  0.1743  0.5726
  110TCq2    O5 1684   2.711   3.780   2.254  0.5018  0.0387 -0.1159
  110TCq2    O6 1685   2.512   3.737   2.358  0.7829  0.4412 -0.1169
  110TCq2    H2 1686   2.341   3.898   2.317 -0.3864  1.5369  0.8104
  110TCq2    H3 1687   2.717   3.989   2.165  0.1107  0.4574 -1.3850
  110TCq2    H4 1688   2.402   4.271   2.117  0.6781  1.5540  1.0689
  111TMC2    C1 1689   2.094   4.508  11.803  0.3891  0.4012  0.1529
  111TMC2    C2 1690   2.027   4.475  11.919  0.0433  0.3012 -0.5181
  111TMC2    C3 1691   2.095   4.387  12.002  0.6263 -0.4422  0.1866
  111TMC2    C4 1692   2.212   4.441  11.767 -0.5627  0.4767  0.5803
  111TMC2    C5 1693   2.274   4.360  11.860 -0.2779 -0.0518 -0.7876
  111TMC2    C6 1694   2.218   4.331  11.980  0.1585  0.2452  0.4056
  111TMC2     C 1695   2.040   4.595  11.701  0.2630 -0.3766  0.4580
  111TMC2     O 1696   2.110   4.621  11.603  0.3366  0.0900  0.4835
  111TMC2     H 1697   1.923   4.501  11.936 -0.7782 -1.8260 -2.1907
  111TMC2    H1 1698   2.248   4.445  11.665  1.0172  0.6867  1.1512
  111TMC2    H2 1699   2.266   4.264  12.050 -1.0320  0.7010  1.6456
  111TMC2    C7 1700   2.417   4.333  11.864 -0.5094 -0.2767  0.0143
  111TMC2    C8 1701   2.028   4.369  12.131 -0.0795 -0.5052  0.6273
  111TMC2    O1 1702   2.473   4.319  11.973 -0.9298 -0.0073 -0.6940
  111TMC2    O2 1703   1.934   4.441  12.166  0.0064 -0.4260  0.5488
  111TMC2    O5 1704   2.039   4.235  12.150 -0.5004  0.1841 -0.4532
  111TMC2    H5 1705   2.103   4.191  12.090  2.0573 -0.1365  2.4960
  112MPD2     C 1706   1.655   0.127  11.479 -0.1458 -0.5891 -0.2561
  112MPD2    C1 1707   1.786   0.131  11.451 -0.3250  0.1012 -0.2647
  112MPD2    C2 1708   1.869   0.060  11.534 -0.3652  0.5381 -1.1456
  112MPD2    C3 1709   1.824   4.712  11.643  0.8576  0.4174 -0.9319
  112MPD2    C4 1710   1.691   4.719  11.675 -1.1479  0.0640 -0.3162
  112MPD2    C5 1711   1.603   0.062  11.593  0.2662  0.2855 -0.1127
  112MPD2     H 1712   1.976   0.063  11.516  0.1454 -1.3950  1.7974
  112MPD2    H1 1713   1.647   4.667  11.759  1.7110  1.0286  1.7749
  112MPD2    H2 1714   1.586   0.178  11.413 -0.3791 -0.9069 -0.2582
  112MPD2    H3 1715   1.500   0.083  11.619 -0.6445 -0.3179 -3.2065
  112MPD2     N 1716   1.905   4.627  11.725  0.4197 -0.4248  0.4738
  112MPD2    H5 1717   1.860   4.592  11.809 -1.1433  1.6921  0.5479
  112MPD2    N1 1718   1.842   0.198  11.337  0.7079 -0.3322  0.4867
  112MPD2    H7 1719   1.942   0.188  11.324  0.5204 -1.2549 -0.2294
  113MPD2     C 1720   1.010   2.971   1.423  0.5133  0.4932  0.3688
  113MPD2    C1 1721   0.886   3.037   1.408 -0.3832  0.1690 -0.1333
  113MPD2    C2 1722   0.815   3.017   1.295  0.7678 -0.1094  0.3055
  113MPD2    C3 1723   0.853   2.920   1.202  0.5547  0.0722  1.0866
  113MPD2    C4 1724   0.967   2.851   1.224  0.2559 -0.2426  0.2887
  113MPD2    C5 1725   1.049   2.885   1.325  0.1751 -0.9097  0.0843
  113MPD2     H 1726   0.720   3.070   1.286  0.8078 -0.2464 -0.9821
  113MPD2    H1 1727   1.002   2.786   1.143 -1.0406 -0.8383  0.2098
  113MPD2    H2 1728   1.078   3.004   1.501 -0.4313  0.7400  1.0866
  113MPD2    H3 1729   1.151   2.850   1.338  1.2710  0.7968 -3.9141
  113MPD2     N 1730   0.770   2.888   1.092 -0.0030  0.2570  0.2744
  113MPD2    H5 1731   0.784   2.798   1.048 -3.1748  0.0472 -0.3355
  113MPD2    N1 1732   0.839   3.131   1.501  0.2461 -0.6631 -0.0480
  113MPD2    H7 1733   0.765   3.193   1.468 -0.7475 -0.9232  1.6934
  114TCq2    C1 1734   0.682   2.969   1.030 -0.5851 -0.5685  0.2967
  114TCq2    O2 1735   0.696   3.090   1.031 -0.1426 -0.0667  0.3180
  114TCq2    C2 1736   0.585   2.900   0.954  0.9549 -0.3975  0.3028
  114TCq2    C3 1737   0.488   2.984   0.904 -0.3099 -0.8376  0.0597
  114TCq2    C4 1738   0.359   2.944   0.890  0.6106 -0.0956  0.4468
  114TCq2    C5 1739   0.314   2.817   0.918 -0.1154 -0.2234  0.0863
  114TCq2    C6 1740   0.412   2.733   0.969 -0.2966 -0.2981 -0.0887
  114TCq2    C7 1741   0.543   2.773   0.990 -0.2677 -0.1277 -0.2489
  114TCq2    C8 1742   0.389   2.590   0.988 -0.4349  0.0092  0.3268
  114TCq2    O4 1743   0.460   2.521   1.064 -0.2038  0.0783 -0.1416
  114TCq2    C9 1744   0.277   3.033   0.808 -0.4462 -0.1423 -0.3022
  114TCq2    O5 1745   0.180   2.992   0.739  0.2676 -0.4952 -0.1343
  114TCq2    O6 1746   0.290   3.152   0.845  0.2554 -0.5596  0.4795
  114TCq2    H2 1747   0.522   3.083   0.877 -2.5438  0.0168  0.4184
  114TCq2    H3 1748   0.217   2.774   0.899  0.3407 -0.8812 -0.7703
  114TCq2    H4 1749   0.612   2.712   1.047 -0.8041  0.4782  1.0687
  115TMC2    C1 1750   1.521   0.590   0.317 -0.4739  0.3192 -0.1329
  115TMC2    C2 1751   1.615   0.561   0.418 -0.1708 -0.0020 -0.5169
  115TMC2    C3 1752   1.711   0.659   0.428  0.3135 -0.0762 -0.0029
  115TMC2    C4 1753   1.519   0.704   0.248 -1.3013 -0.1713  0.2279
  115TMC2    C5 1754   1.607   0.800   0.274 -0.1990  1.0505 -0.6720
  115TMC2    C6 1755   1.709   0.777   0.356  0.4368  0.2176  0.1761
  115TMC2     C 1756   1.449   0.481   0.262  0.5491 -0.1958  1.0271
  115TMC2     O 1757   1.355   0.510   0.190 -0.1192 -0.1025 -0.4283
  115TMC2     H 1758   1.628   0.468   0.472 -1.8219  0.1670  0.1859
  115TMC2    H1 1759   1.432   0.722   0.185 -0.4453  1.3504 -0.4901
  115TMC2    H2 1760   1.773   0.864   0.369 -0.8780  0.8933  2.1476
  115TMC2    C7 1761   1.589   0.928   0.209  0.1612 -0.2907 -0.4845
  115TMC2    C8 1762   1.810   0.652   0.532 -0.7679  0.0459  0.4970
  115TMC2    O1 1763   1.693   0.972   0.163  0.3001 -0.7980  0.4081
  115TMC2    O2 1764   1.911   0.726   0.523 -0.2020 -0.1230  0.1540
  115TMC2    O5 1765   1.726   0.658   0.640 -0.3602  0.1898  0.3057
  115TMC2    H5 1766   1.631   0.642   0.618 -0.0616  0.3412 -1.0876
  116MPD2     C 1767   1.445   4.710   0.119  0.0256 -0.0423 -0.4855
  116MPD2    C1 1768   1.372   0.090   0.074 -0.7673  0.3414 -1.0165
  116MPD2    C2 1769   1.383   0.217   0.130  0.2365 -0.7142 -0.4963
  116MPD2    C3 1770   1.484   0.237   0.224 -0.2984  0.5529 -0.1732
  116MPD2    C4 1771   1.558   0.131   0.268 -0.0777  0.3801  0.7193
  116MPD2    C5 1772   1.540   0.001   0.215 -1.1063  0.2424 -0.2842
  116MPD2     H 1773   1.319   0.299   0.098  0.3361 -0.2044  0.6232
  116MPD2    H1 1774   1.649   0.146   0.326  0.3973  2.7739 -0.6564
  116MPD2    H2 1775   1.442   4.607   0.084 -0.2487  0.0295 -0.6720
  116MPD2    H3 1776   1.608   4.647   0.247 -0.1896  1.7129  1.3246
  116MPD2     N 1777   1.514   0.358   0.283 -0.1411  0.0806 -0.1076
  116MPD2    H5 1778   1.590   0.353   0.351  0.7267 -1.2164 -1.1715
  116MPD2    N1 1779   1.286   0.067  17.664 -0.3644  0.4581 -0.3021
  116MPD2    H7 1780   1.296   4.696  17.627  4.0093  0.9014 -0.2723
  117TMC2    C1 1781   4.534   1.385  14.352  0.0886 -0.3926 -0.2291
  117TMC2    C2 1782   4.543   1.298  14.464  0.1308 -0.0266  0.4797
  117TMC2    C3 1783   4.661   1.300  14.532  0.6600  0.1848  0.2703
  117TMC2    C4 1784   4.643   1.451  14.304  0.2153 -0.2540 -0.2208
  117TMC2    C5 1785   0.030   1.461  14.381  0.0261 -0.1542  0.9032
  117TMC2    C6 1786   0.039   1.385  14.493 -0.2684 -0.4854 -0.6109
  117TMC2     C 1787   4.396   1.405  14.298  0.0793  0.4538  0.2248
  117TMC2     O 1788   4.315   1.329  14.357 -0.1932  0.0539 -0.6999
  117TMC2     H 1789   4.456   1.250  14.507 -0.9082 -0.8674 -2.5738
  117TMC2    H1 1790   4.632   1.513  14.216 -0.3791 -0.9468 -0.6275
  117TMC2    H2 1791   0.132   1.381  14.550 -1.6053  2.0652  1.7287
  117TMC2    C7 1792   0.143   1.537  14.324 -1.1578 -0.2239  0.3796
  117TMC2    C8 1793   4.674   1.231  14.664  0.2749  1.3212  0.6897
  117TMC2    O1 1794   0.133   1.576  14.206 -0.2952 -0.2790 -0.0209
  117TMC2    O2 1795   4.572   1.190  14.713  0.3509 -0.1341  0.4224
  117TMC2    O5 1796   0.069   1.180  14.677  0.3856 -0.2362  0.7166
  117TMC2    H5 1797   0.129   1.206  14.604 -0.6625 -3.2967 -1.2274
  118MPD2     C 1798   0.456   1.594  14.493 -0.3095 -0.0469 -0.0047
  118MPD2    C1 1799   0.370   1.603  14.388  0.1330  0.4836  0.1706
  118MPD2    C2 1800   0.410   1.662  14.270 -0.7173  0.2509  0.5113
  118MPD2    C3 1801   0.536   1.713  14.259 -0.7666  0.3785 -0.1538
  118MPD2    C4 1802   0.626   1.700  14.363 -0.9735 -0.4728  0.4613
  118MPD2    C5 1803   0.582   1.648  14.481  0.0085 -0.4378  0.5880
  118MPD2     H 1804   0.354   1.647  14.179  0.4027  0.5382 -0.2211
  118MPD2    H1 1805   0.727   1.738  14.349 -1.5791 -0.1817 -3.1240
  118MPD2    H2 1806   0.426   1.549  14.588  0.2251  0.5953  0.4643
  118MPD2    H3 1807   0.661   1.647  14.556  0.5602  1.8370  0.0632
  118MPD2     N 1808   0.589   1.772  14.139  0.3983 -0.7004 -0.5353
  118MPD2    H5 1809   0.689   1.783  14.142  0.0450  1.9716  1.4164
  118MPD2    N1 1810   0.240   1.544  14.417  0.3241  0.1218 -0.5484
  118MPD2    H7 1811   0.226   1.502  14.509  0.5214  1.3557  0.0487
  119MPD2     C 1812   3.381   2.790  13.826 -0.0240  0.4110  0.1316
  119MPD2    C1 1813   3.320   2.703  13.913  0.4083 -0.1579 -0.9282
  119MPD2    C2 1814   3.243   2.606  13.848  0.2334  0.0007  0.5825
  119MPD2    C3 1815   3.224   2.590  13.713  0.9915 -0.6529 -0.0460
  119MPD2    C4 1816   3.300   2.671  13.633 -0.0413  0.1936 -0.5667
  119MPD2    C5 1817   3.378   2.771  13.689  0.0395 -0.3308 -0.1198
  119MPD2     H 1818   3.205   2.524  13.909  0.4933 -1.9085 -1.8096
  119MPD2    H1 1819   3.306   2.656  13.526 -0.8885 -0.0090 -0.5893
  119MPD2    H2 1820   3.453   2.862  13.861  0.0160 -0.2042  1.3078
  119MPD2    H3 1821   3.432   2.841  13.626 -1.4482  0.9749  0.0698
  119MPD2     N 1822   3.140   2.486  13.662  0.0477  0.0890 -0.0575
  119MPD2    H5 1823   3.128   2.484  13.561 -1.6939  0.3226  0.1506
  119MPD2    N1 1824   3.348   2.726  14.047 -0.0913  0.1391 -0.1596
  119MPD2    H7 1825   3.398   2.811  14.070  0.8963 -0.1770 -1.1519
  120TCq2    C1 1826   3.071   2.387  13.728  0.2562  0.2746  0.2848
  120TCq2    O2 1827   3.060   2.359  13.848  0.1117 -0.3597  0.6007
  120TCq2    C2 1828   2.992   2.309  13.629 -0.2876  0.7859  0.0152
  120TCq2    C3 1829   3.025   2.305  13.497 -0.8752  0.3721 -0.3855
  120TCq2    C4 1830   2.922   2.258  13.417 -0.5234 -0.3609 -0.3667
  120TCq2    C5 1831   2.803   2.207  13.462 -0.6568 -0.1837 -0.2826
  120TCq2    C6 1832   2.782   2.206  13.592 -0.3230 -0.1811  0.5342
  120TCq2    C7 1833   2.879   2.248  13.683 -0.2506  0.3533 -0.1781
  120TCq2    C8 1834   2.653   2.267  13.623 -0.6747 -0.6274  0.4245
  120TCq2    O4 1835   2.584   2.314  13.534 -0.3648 -0.2590 -0.2109
  120TCq2    C9 1836   2.933   2.284  13.276  0.6588  0.1876  0.2215
  120TCq2    O5 1837   2.847   2.243  13.198 -0.0540  0.3512 -0.3059
  120TCq2    O6 1838   3.038   2.349  13.237 -0.1109 -0.0869  0.4673
  120TCq2    H2 1839   3.111   2.347  13.446 -1.2877  0.4483 -1.0160
  120TCq2    H3 1840   2.725   2.190  13.388  1.8078 -2.6760 -2.2881
  120TCq2    H4 1841   2.874   2.246  13.792  2.8568  0.2543 -0.0502
  121TMC2    C1 1842   4.135   0.029  14.313 -0.4724  0.1536 -0.5695
  121TMC2    C2 1843   4.066   4.670  14.390 -0.1752  0.6373 -0.4286
  121TMC2    C3 1844   3.943   4.634  14.341  0.8100  0.4042  0.2694
  121TMC2    C4 1845   4.079   0.100  14.208  0.0338 -0.4424 -0.1933
  121TMC2    C5 1846   3.956   0.071  14.169  0.5842  0.2441 -0.1341
  121TMC2    C6 1847   3.886   4.691  14.230  0.6515  0.2607  0.0853
  121TMC2     C 1848   4.282   0.043  14.338 -0.0720 -0.0963 -0.8096
  121TMC2     O 1849   4.332   4.716  14.438 -0.0172  0.1358  0.2212
  121TMC2     H 1850   4.112   4.622  14.476 -1.8808 -0.2743 -0.0107
  121TMC2    H1 1851   4.135   0.169  14.146 -0.3010  1.9930  2.2345
  121TMC2    H2 1852   3.793   4.650  14.194 -0.6653  3.5202 -0.2051
  121TMC2    C7 1853   3.912   0.138  14.056  0.2657  0.1992  0.1176
  121TMC2    C8 1854   3.874   4.520  14.394 -0.2687  0.0918  0.2880
  121TMC2    O1 1855   3.927   0.261  14.050 -0.1106 -0.5512  0.0953
  121TMC2    O2 1856   3.751   4.514  14.401 -0.4410 -0.1508  0.4216
  121TMC2    O5 1857   3.968   4.418  14.414  0.6010  0.4666 -0.1674
  121TMC2    H5 1858   4.058   4.434  14.381  1.3711  0.3720  1.8688
  122MPD2     C 1859   4.569   0.142  14.325  0.5769  0.3167  0.3002
  122MPD2    C1 1860   4.479   0.150  14.223 -0.5334  1.0795 -0.7571
  122MPD2    C2 1861   4.524   0.198  14.100  0.6287  0.0273 -0.6974
  122MPD2    C3 1862   4.646   0.261  14.088 -0.4445 -0.4075  1.1550
  122MPD2    C4 1863   0.014   0.250  14.191 -0.6509  0.3398  0.5719
  122MPD2    C5 1864   4.694   0.192  14.308  0.2589  0.2484 -0.0001
  122MPD2     H 1865   4.448   0.192  14.022 -0.5341  0.5747  0.3763
  122MPD2    H1 1866   0.101   0.315  14.196 -1.1535  0.9085  1.9427
  122MPD2    H2 1867   4.549   0.111  14.428  0.5596  2.3634  0.9162
  122MPD2    H3 1868   0.036   0.186  14.394 -0.6271 -0.5135  0.6176
  122MPD2     N 1869   4.676   0.331  13.970 -0.5291  0.0073 -0.5214
  122MPD2    H5 1870   0.044   0.374  13.975 -0.1827 -1.1868  3.4958
  122MPD2    N1 1871   4.346   0.103  14.228 -0.1607 -0.3299  0.0992
  122MPD2    H7 1872   4.288   0.134  14.151  1.2457  0.9342 -0.4328
  123MPD2     C 1873   3.339   3.333   9.122  0.1571 -0.1498 -0.2720
  123MPD2    C1 1874   3.271   3.265   9.220 -0.7431  0.9282  0.1963
  123MPD2    C2 1875   3.203   3.153   9.188  0.5117  0.4297 -0.1778
  123MPD2    C3 1876   3.184   3.111   9.057  0.0836  0.4629  0.0326
  123MPD2    C4 1877   3.244   3.188   8.956  0.4088  0.0264  0.0786
  123MPD2    C5 1878   3.320   3.292   8.998  0.0852  0.0194 -0.1421
  123MPD2     H 1879   3.180   3.084   9.268  0.6199  2.2322  1.3931
  123MPD2    H1 1880   3.226   3.170   8.850 -0.9816 -1.2127  0.5128
  123MPD2    H2 1881   3.384   3.429   9.145 -0.9728  0.3536 -0.1765
  123MPD2    H3 1882   3.368   3.340   8.914 -0.9469  0.0204 -0.7327
  123MPD2     N 1883   3.094   3.008   9.028 -0.3523  0.0104 -0.9314
  123MPD2    H5 1884   3.060   2.950   9.104  1.2561 -0.3958 -0.5319
  123MPD2    N1 1885   3.290   3.315   9.348 -0.5933 -0.4153 -0.0611
  123MPD2    H7 1886   3.359   3.388   9.362 -0.7033  0.3150 -3.3053
  124TCq2    C1 1887   3.053   2.957   8.909 -0.6858  0.0416 -0.4799
  124TCq2    O2 1888   3.079   2.990   8.796  0.5072  0.0733  0.4736
  124TCq2    C2 1889   2.958   2.847   8.925 -0.3019 -0.2516  0.4918
  124TCq2    C3 1890   2.955   2.755   8.828 -0.1054 -0.5275  0.2261
  124TCq2    C4 1891   2.877   2.647   8.854  0.0516 -0.0739 -0.0682
  124TCq2    C5 1892   2.818   2.621   8.974  0.0999 -0.2570  0.7503
  124TCq2    C6 1893   2.824   2.712   9.072  0.0229 -0.6208  0.0452
  124TCq2    C7 1894   2.895   2.824   9.049  0.7303 -0.2727  0.1151
  124TCq2    C8 1895   2.792   2.675   9.206  0.5056 -0.1056 -0.2865
  124TCq2    O4 1896   2.827   2.762   9.287 -0.3952  0.1288 -0.1312
  124TCq2    C9 1897   2.843   2.548   8.757 -0.8984 -0.3889 -0.2070
  124TCq2    O5 1898   2.875   2.583   8.641  0.0404  0.6001 -0.1667
  124TCq2    O6 1899   2.802   2.436   8.796  0.4247  0.2483 -0.0193
  124TCq2    H2 1900   3.022   2.755   8.742  0.1535 -0.3579  0.4248
  124TCq2    H3 1901   2.767   2.526   8.988  1.5301 -0.9838  0.9720
  124TCq2    H4 1902   2.889   2.900   9.126 -0.5942 -0.3491  0.0836
  125TMC2    C1 1903   2.862   0.654  10.119  0.6625  0.7260  0.5628
  125TMC2    C2 1904   2.730   0.660  10.095 -0.3447  0.2111 -0.3375
  125TMC2    C3 1905   2.681   0.596   9.987 -0.6010 -1.0192 -0.1215
  125TMC2    C4 1906   2.947   0.585  10.041  0.3736 -0.1237 -0.3738
  125TMC2    C5 1907   2.897   0.515   9.933 -0.0863  0.1912  0.5906
  125TMC2    C6 1908   2.761   0.526   9.906 -0.0792 -1.0260 -1.0311
  125TMC2     C 1909   2.923   0.737  10.224 -0.1518  0.3303  0.2627
  125TMC2     O 1910   3.022   0.695  10.285  0.2595 -0.2276 -0.2406
  125TMC2     H 1911   2.668   0.727  10.153  0.2779 -0.0617  0.6380
  125TMC2    H1 1912   3.051   0.587  10.071  0.4197 -1.7232 -0.4239
  125TMC2    H2 1913   2.717   0.474   9.822 -0.3113 -0.8493 -1.0198
  125TMC2    C7 1914   2.974   0.450   9.830  0.0113 -0.7263  0.3648
  125TMC2    C8 1915   2.536   0.597   9.961  0.1862 -0.3774  0.2504
  125TMC2    O1 1916   2.919   0.456   9.721 -0.3184  0.2546 -0.3490
  125TMC2    O2 1917   2.494   0.576   9.847  0.2912  0.4462  0.5613
  125TMC2    O5 1918   2.460   0.583  10.074  0.1648  0.3865  0.0681
  125TMC2    H5 1919   2.512   0.611  10.152 -1.3528 -0.8312  1.4867
  126MPD1     C 1920   2.845   1.064  10.608  0.2148 -0.0894 -0.2226
  126MPD1    C1 1921   2.817   1.133  10.493  0.7808 -0.1090 -0.5333
  126MPD1    C2 1922   2.825   1.062  10.372 -0.0624  0.7277 -0.4509
  126MPD1    C3 1923   2.860   0.928  10.368  1.5392 -0.4004  0.1749
  126MPD1    C4 1924   2.882   0.867  10.486 -0.5170 -0.2476 -0.1272
  126MPD1    C5 1925   2.877   0.930  10.607 -0.1041  0.5624 -0.1480
  126MPD1     H 1926   2.819   1.113  10.277 -1.1580  1.2430 -0.0944
  126MPD1    H1 1927   2.907   0.761  10.488  2.3643  0.4070 -1.8962
  126MPD1    H2 1928   2.846   1.110  10.706 -0.9347 -2.7782  1.0671
  126MPD1    H3 1929   2.898   0.886  10.704 -0.7611 -0.2142 -0.3624
  126MPD1     N 1930   2.849   0.852  10.251  0.7237  0.3942 -0.5235
  126MPD1    H5 1931   2.793   0.885  10.174  2.0637  2.1906 -0.7248
  126MPD1    N1 1932   2.812   1.273  10.496 -0.3252  0.0942  0.6579
  126MPD1    H6 1933   2.753   1.306  10.420 -0.5057  0.7347  1.0804
  126MPD1    H7 1934   2.780   1.309  10.586  1.9755  1.4683  0.9189
  127MPD2     C 1935   4.085   4.002   9.792  0.3538  0.3300  0.6415
  127MPD2    C1 1936   4.189   3.909   9.812 -0.5641 -0.5754  0.4160
  127MPD2    C2 1937   4.308   3.960   9.856  0.3464 -0.6768  0.0198
  127MPD2    C3 1938   4.330   4.095   9.882  0.6394 -0.1015  0.2210
  127MPD2    C4 1939   4.220   4.184   9.864  0.4277 -0.2607  0.9447
  127MPD2    C5 1940   4.104   4.134   9.823  0.5870  0.8384 -0.1873
  127MPD2     H 1941   4.394   3.897   9.876  1.7588  0.1209 -3.7059
  127MPD2    H1 1942   4.216   4.290   9.888 -2.2612  0.3797 -2.2553
  127MPD2    H2 1943   3.982   3.979   9.765  0.5097 -0.8440  1.0531
  127MPD2    H3 1944   4.011   4.190   9.815 -0.2203 -0.2370  1.6182
  127MPD2     N 1945   4.457   4.135   9.933  0.6044  0.2929 -0.6103
  127MPD2    H5 1946   4.522   4.058   9.944  0.2786  0.0210 -0.5612
  127MPD2    N1 1947   4.171   3.770   9.782  0.1044 -0.1904  0.1485
  127MPD2    H7 1948   4.074   3.741   9.777 -0.1485  0.4809  1.1695
  128TCq2    C1 1949   4.273   3.674   9.788  0.0983  0.2122  0.3075
  128TCq2    O2 1950   4.398   3.692   9.793  0.1353 -0.2426 -0.2449
  128TCq2    C2 1951   4.230   3.536   9.753  0.4329 -0.2848 -0.1279
  128TCq2    C3 1952   4.323   3.436   9.764 -0.1963  0.5599  0.5199
  128TCq2    C4 1953   4.312   3.322   9.686  0.4186 -0.1897 -0.6495
  128TCq2    C5 1954   4.202   3.303   9.609  0.0918  0.1441 -0.4609
  128TCq2    C6 1955   4.110   3.398   9.596  0.4889  0.0055  0.5275
  128TCq2    C7 1956   4.126   3.523   9.663 -0.7209  0.2527 -0.1635
  128TCq2    C8 1957   3.987   3.368   9.518 -0.8950  1.0138  0.2255
  128TCq2    O4 1958   3.921   3.462   9.471  0.0863  0.3084 -0.0036
  128TCq2    C9 1959   4.421   3.230   9.682 -0.4908 -0.5484  0.1641
  128TCq2    O5 1960   4.522   3.272   9.737  0.0020  0.2200  0.0887
  128TCq2    O6 1961   4.424   3.160   9.580 -0.2647  0.7987  0.3699
  128TCq2    H2 1962   4.411   3.437   9.829 -0.1510  0.2704  0.4629
  128TCq2    H3 1963   4.196   3.210   9.552  1.9414 -0.9278  1.0837
  128TCq2    H4 1964   4.059   3.607   9.653  0.4490  1.5292  2.8614
  129MPD2     C 1965   4.003   4.697   1.284 -0.4297  0.2582  0.4004
  129MPD2    C1 1966   3.906   0.069   1.308  0.6087  0.0398 -0.0128
  129MPD2    C2 1967   3.939   0.197   1.286  0.6134 -0.3830  0.6373
  129MPD2    C3 1968   4.066   0.243   1.241 -0.6134 -0.0143  0.2085
  129MPD2    C4 1969   4.148   0.136   1.213  0.0411  0.3629 -0.8318
  129MPD2    C5 1970   4.127   0.005   1.233  0.0163  0.7776  0.5928
  129MPD2     H 1971   3.865   0.275   1.303  0.1205 -0.1959 -2.3532
  129MPD2    H1 1972   4.250   0.161   1.187  0.1347  0.1592 -0.6633
  129MPD2    H2 1973   3.991   4.596   1.322  2.5225 -0.2833 -0.0808
  129MPD2    H3 1974   4.207   4.658   1.213 -0.2420  0.2230  1.5299
  129MPD2     N 1975   4.096   0.379   1.213 -0.5801 -0.0611 -0.4825
  129MPD2    H5 1976   4.032   0.453   1.240  1.6188  1.5968  0.1751
  129MPD2    N1 1977   3.785   0.037   1.364 -0.1751  0.0316 -0.0877
  129MPD2    H7 1978   3.730   0.118   1.391 -1.1099 -0.7865  0.4654
  130TCq2    C1 1979   3.727   4.633   1.381 -0.9080 -0.4940 -0.2740
  130TCq2    O2 1980   3.748   4.528   1.322 -0.5754 -0.4485 -0.3367
  130TCq2    C2 1981   3.599   4.656   1.456 -0.4438  0.6182  0.2749
  130TCq2    C3 1982   3.577   0.056   1.513  0.5873 -0.0688  0.1766
  130TCq2    C4 1983   3.458   0.074   1.578 -0.2614  0.4477  0.7085
  130TCq2    C5 1984   3.369   4.697   1.595 -0.0615  0.0362  0.0292
  130TCq2    C6 1985   3.398   4.579   1.548 -0.6699 -0.4695  0.0410
  130TCq2    C7 1986   3.510   4.551   1.463 -0.1881 -0.0277 -0.2868
  130TCq2    C8 1987   3.296   4.481   1.570  0.2232 -0.1773  0.5298
  130TCq2    O4 1988   3.186   4.510   1.611  0.1682  0.5535  0.2877
  130TCq2    C9 1989   3.439   0.200   1.656  0.0916  0.5225  0.1124
  130TCq2    O5 1990   3.526   0.290   1.636 -0.6178 -0.4565  0.3736
  130TCq2    O6 1991   3.336   0.208   1.725  0.7305  0.1482 -0.0654
  130TCq2    H2 1992   3.646   0.139   1.523  1.0676 -0.5113  0.5484
  130TCq2    H3 1993   3.298   4.709   1.676  1.7977  3.1735  1.1967
  130TCq2    H4 1994   3.540   4.460   1.413  2.7808 -0.2747  1.9663
  131MPD2     C 1995   2.801   3.699  10.235 -0.4289  0.5868  0.0947
  131MPD2    C1 1996   2.917   3.761  10.211 -0.6131 -0.1292 -0.3209
  131MPD2    C2 1997   3.000   3.725  10.104 -0.1486  0.9411  0.2629
  131MPD2    C3 1998   2.951   3.614  10.030  0.5012  0.4530 -0.1378
  131MPD2    C4 1999   2.824   3.556  10.042 -0.4187  0.6704  0.0993
  131MPD2    C5 2000   2.753   3.604  10.154 -0.0404  0.4708 -0.3421
  131MPD2     H 2001   3.102   3.761  10.100  1.5157 -3.7157  0.9148
  131MPD2    H1 2002   2.795   3.459  10.004 -2.2845  1.1889  0.2337
  131MPD2    H2 2003   2.741   3.729  10.320 -1.0992 -0.2899 -0.0780
  131MPD2    H3 2004   2.662   3.546  10.170  1.1609 -1.2402  0.2124
  131MPD2     N 2005   3.048   3.563   9.939 -0.1538  0.4319  0.3314
  131MPD2    H5 2006   3.137   3.612   9.933 -0.2449  0.2142 -2.7484
  131MPD2    N1 2007   2.950   3.862  10.300 -0.1802 -0.1382  0.4664
  131MPD2    H7 2008   2.875   3.883  10.365 -1.3353  0.6551 -1.1179
  132TCq2    C1 2009   3.304   4.293  10.518 -0.2872  0.0580  0.6135
  132TCq2    O2 2010   3.410   4.254  10.481  0.2865 -0.1216 -0.2363
  132TCq2    C2 2011   3.192   4.199  10.524  0.3516 -0.7992  0.0573
  132TCq2    C3 2012   3.079   4.247  10.586 -0.3301 -0.4888  0.4599
  132TCq2    C4 2013   2.960   4.172  10.560  0.3903 -0.4275 -0.5904
  132TCq2    C5 2014   2.954   4.073  10.467 -0.2684  0.0102 -0.1848
  132TCq2    C6 2015   3.071   4.025  10.416  0.4358  0.2420  0.1713
  132TCq2    C7 2016   3.190   4.091  10.440 -0.6747 -0.3313  0.2336
  132TCq2    C8 2017   3.073   3.915  10.323  0.3100  0.2339  0.6370
  132TCq2    O4 2018   3.180   3.891  10.267  0.2490  0.1190 -0.2136
  132TCq2    C9 2019   2.851   4.182  10.651  0.4866 -0.4183 -0.2695
  132TCq2    O5 2020   2.749   4.109  10.637 -0.5215 -0.2263  0.0134
  132TCq2    O6 2021   2.860   4.258  10.747 -0.0423 -0.1751 -0.5055
  132TCq2    H2 2022   3.085   4.314  10.671 -0.4729  0.9330 -0.6460
  132TCq2    H3 2023   2.860   4.028  10.435 -0.8633  0.5918  0.7427
  132TCq2    H4 2024   3.283   4.052  10.399 -0.6268  1.2866 -1.2047
  133MPD2     C 2025   2.329   0.226   9.794  0.0659 -0.2058  0.5874
  133MPD2    C1 2026   2.201   0.269   9.830 -0.2033 -0.3255 -0.3714
  133MPD2    C2 2027   2.102   0.175   9.853 -0.1527 -0.1754  0.4079
  133MPD2    C3 2028   2.129   0.040   9.856 -0.3438 -0.0742 -0.6262
  133MPD2    C4 2029   2.258   0.002   9.825 -0.8060 -0.2565  0.0498
  133MPD2    C5 2030   2.354   0.092   9.798 -0.7087  0.1798  0.6127
  133MPD2     H 2031   1.998   0.204   9.859 -0.1927  0.0986 -1.8254
  133MPD2    H1 2032   2.286   4.622   9.808 -2.2801 -0.5272 -0.7379
  133MPD2    H2 2033   2.412   0.287   9.760 -0.2073 -0.2748 -0.2095
  133MPD2    H3 2034   2.451   0.045   9.782 -1.6627 -1.5636 -0.0209
  133MPD2     N 2035   2.033   4.664   9.856 -0.1878 -0.2054 -0.3029
  133MPD2    H5 2036   2.078   4.575   9.837 -1.0726 -0.5413 -0.8519
  133MPD2    N1 2037   2.179   0.410   9.827  0.2319  0.4115 -0.8428
  133MPD2    H7 2038   2.258   0.469   9.802  0.2649  0.3703 -0.8345
  134TCq2    C1 2039   2.051   0.468   9.848 -1.2113  0.1319  0.3587
  134TCq2    O2 2040   1.944   0.419   9.883  0.0875  0.0953  0.4324
  134TCq2    C2 2041   2.046   0.613   9.826  0.1678  0.0344 -0.7974
  134TCq2    C3 2042   1.919   0.671   9.809  0.3242  0.2318 -0.4878
  134TCq2    C4 2043   1.917   0.812   9.785  0.3204 -0.1059 -0.1714
  134TCq2    C5 2044   2.022   0.895   9.796 -0.1518 -0.2426 -0.7404
  134TCq2    C6 2045   2.142   0.829   9.823 -0.7076  0.1363 -0.7763
  134TCq2    C7 2046   2.159   0.693   9.846 -0.3793 -0.6431  0.2246
  134TCq2    C8 2047   2.248   0.916   9.878 -0.1826 -0.0869  0.8951
  134TCq2    O4 2048   2.265   1.026   9.821  0.3033  0.3130 -0.3491
  134TCq2    C9 2049   1.794   0.870   9.751 -0.2941  0.0451  0.6124
  134TCq2    O5 2050   1.798   0.992   9.717 -0.5999  0.2544 -0.1906
  134TCq2    O6 2051   1.690   0.798   9.737  0.0521  0.3274  0.0595
  134TCq2    H2 2052   1.833   0.606   9.794  0.2690 -0.6653  3.6574
  134TCq2    H3 2053   2.020   1.003   9.786 -1.6416 -0.1256  0.8728
  134TCq2    H4 2054   2.261   0.656   9.851  0.3143  1.2834  0.0878
  135MPD2     C 2055   4.068   0.430   9.687  0.2040 -0.6317 -0.0702
  135MPD2    C1 2056   3.978   0.337   9.630  0.3804  0.2180 -0.1217
  135MPD2    C2 2057   4.032   0.216   9.578 -0.0164 -0.0317 -0.2421
  135MPD2    C3 2058   4.166   0.184   9.597  0.0926  0.1023 -0.4113
  135MPD2    C4 2059   4.249   0.282   9.655 -0.3394 -0.6437 -0.0490
  135MPD2    C5 2060   4.201   0.396   9.708 -0.3435 -0.3614  0.2543
  135MPD2     H 2061   3.965   0.154   9.519  2.1388 -1.1306 -1.5843
  135MPD2    H1 2062   4.357   0.277   9.666 -0.5179 -0.5655  1.6948
  135MPD2    H2 2063   4.042   0.519   9.742 -1.6772 -2.2029  1.6081
  135MPD2    H3 2064   4.272   0.469   9.745 -0.8566  0.9148 -1.2509
  135MPD2     N 2065   4.233   0.065   9.546  0.3401  0.6176 -0.0701
  135MPD2    H5 2066   4.333   0.056   9.559 -0.1505 -1.2302  2.3536
  135MPD2    N1 2067   3.839   0.365   9.608  0.1128  0.0823 -0.0785
  135MPD2    H7 2068   3.788   0.291   9.561 -1.7191  0.5855  1.1108
  136TCq2    C1 2069   3.780   0.472   9.664 -0.7746  0.1685 -0.4041
  136TCq2    O2 2070   3.818   0.547   9.753  0.0499  0.1967  0.1801
  136TCq2    C2 2071   3.645   0.480   9.613  0.3805  0.0400  0.5247
  136TCq2    C3 2072   3.622   0.439   9.486  0.6223  0.4157  0.0940
  136TCq2    C4 2073   3.499   0.465   9.432  0.3896 -0.4348  0.4590
  136TCq2    C5 2074   3.400   0.521   9.500  0.3134  0.7020  0.1086
  136TCq2    C6 2075   3.423   0.568   9.626  0.7282  0.2507 -0.0272
  136TCq2    C7 2076   3.544   0.546   9.690  0.7422 -0.1941  0.7003
  136TCq2    C8 2077   3.327   0.663   9.686  0.3435  0.8214  0.2261
  136TCq2    O4 2078   3.246   0.689   9.603 -0.0498 -0.0021 -0.2578
  136TCq2    C9 2079   3.484   0.441   9.285  0.4053 -0.2120 -0.4637
  136TCq2    O5 2080   3.363   0.441   9.244 -0.5889 -0.2788  0.6372
  136TCq2    O6 2081   3.578   0.386   9.219  0.0016  0.6220 -0.0920
  136TCq2    H2 2082   3.696   0.396   9.420  0.2241  3.4041 -2.3143
  136TCq2    H3 2083   3.309   0.535   9.444 -0.2109 -2.6167  0.1563
  136TCq2    H4 2084   3.569   0.576   9.791 -0.6696 -0.1742  1.0471
  137MPD2     C 2085   3.701   4.374   9.933  0.3092 -0.2495  0.3980
  137MPD2    C1 2086   3.612   4.483   9.959  0.7715 -0.0142 -0.7539
  137MPD2    C2 2087   3.662   4.586  10.042  0.3916 -0.0658  0.2037
  137MPD2    C3 2088   3.792   4.575  10.092  0.3165 -0.2507  0.2766
  137MPD2    C4 2089   3.867   4.466  10.075 -0.5153  0.1569  0.5222
  137MPD2    C5 2090   3.820   4.359  10.001 -0.4370 -0.0675  0.5346
  137MPD2     H 2091   3.615   4.682  10.059 -3.4855 -1.7654 -0.9095
  137MPD2    H1 2092   3.965   4.449  10.117 -0.6902 -1.1899  0.3793
  137MPD2    H2 2093   3.676   4.298   9.859  1.1924 -0.9070  0.7638
  137MPD2    H3 2094   3.887   4.280   9.970 -1.9282 -1.5912  1.2324
  137MPD2     N 2095   3.842   4.680  10.177  0.4987 -0.5544  0.3915
  137MPD2    H5 2096   3.776   0.031  10.198  2.1449  0.6307  1.3098
  137MPD2    N1 2097   3.491   4.487   9.893 -0.2609 -0.4821 -0.0962
  137MPD2    H7 2098   3.476   4.415   9.823 -1.0974  1.0426 -1.4738
  138TCq2    C1 2099   3.388   4.572   9.915 -0.1614 -0.7738 -0.2143
  138TCq2    O2 2100   3.385   4.680   9.974  0.3755 -0.1522 -0.0522
  138TCq2    C2 2101   3.267   4.536   9.850 -0.2841  0.4391 -0.4810
  138TCq2    C3 2102   3.242   4.411   9.812  0.2443 -0.4240 -0.0312
  138TCq2    C4 2103   3.133   4.386   9.742  1.0351 -0.0661  0.5965
  138TCq2    C5 2104   3.046   4.478   9.706 -0.0765  0.4407  0.0966
  138TCq2    C6 2105   3.058   4.605   9.760 -0.0150 -0.2527  0.7726
  138TCq2    C7 2106   3.176   4.632   9.833  0.5076  0.4732  0.3856
  138TCq2    C8 2107   2.941   4.671   9.825 -0.5631  0.5151  0.7380
  138TCq2    O4 2108   2.826   4.645   9.788 -0.0787 -0.1003  0.0416
  138TCq2    C9 2109   3.093   4.248   9.722  0.2928 -0.2240 -0.5748
  138TCq2    O5 2110   3.118   4.166   9.808 -0.2755 -0.0506 -0.0053
  138TCq2    O6 2111   3.019   4.227   9.623  0.1111  0.0561 -0.1091
  138TCq2    H2 2112   3.309   4.330   9.841  0.9659  0.1317 -0.1486
  138TCq2    H3 2113   2.956   4.452   9.651  0.4583  0.3377 -0.7222
  138TCq2    H4 2114   3.221   0.006   9.844  2.3769 -0.2660 -0.5771
  139TMC2    C1 2115   4.353   2.913  13.446 -0.1026  0.2931  0.4601
  139TMC2    C2 2116   4.243   2.888  13.366  0.6257  0.0666  0.2323
  139TMC2    C3 2117   4.128   2.947  13.408 -0.1408 -0.4374 -0.2537
  139TMC2    C4 2118   4.355   2.982  13.562  0.2272  0.3620  0.0819
  139TMC2    C5 2119   4.232   3.032  13.594  0.1878  0.6139 -0.5924
  139TMC2    C6 2120   4.117   3.013  13.524  0.3455 -0.3601 -0.3656
  139TMC2     C 2121   4.449   2.803  13.445  0.0549 -0.7546 -0.4033
  139TMC2     O 2122   4.430   2.723  13.353 -0.2688 -0.2661 -0.4089
  139TMC2     H 2123   4.245   2.832  13.273  1.0258 -0.2274  0.4161
  139TMC2    H1 2124   4.447   3.021  13.602  0.8167 -0.6790 -0.2623
  139TMC2    H2 2125   4.023   3.066  13.539  0.2095 -0.4837 -0.7937
  139TMC2    C7 2126   4.229   3.103  13.715 -0.3708 -0.1601 -0.0130
  139TMC2    C8 2127   4.014   2.920  13.325  0.3544 -0.2893  0.3785
  139TMC2    O1 2128   4.331   3.139  13.766  0.6568 -0.2206  0.2825
  139TMC2    O2 2129   4.020   2.925  13.203 -0.3836  0.1505  0.1132
  139TMC2    O5 2130   3.908   2.917  13.414 -0.1688 -0.0328 -0.4214
  139TMC2    H5 2131   3.934   2.905  13.508  2.0804 -0.2831 -1.0898
  140MPD2     C 2132   4.709   2.702  13.683  0.9502  0.4631  0.0505
  140MPD2    C1 2133   4.637   2.689  13.571 -0.5748  0.3754 -0.7622
  140MPD2    C2 2134   4.669   2.594  13.475 -0.6045 -0.6372 -0.2817
  140MPD2    C3 2135   0.048   2.505  13.496 -0.3700  0.4323  0.2220
  140MPD2    C4 2136   0.129   2.519  13.609 -0.1920 -0.1513  0.3104
  140MPD2    C5 2137   0.091   2.618  13.700 -0.1795 -0.2845 -0.4632
  140MPD2     H 2138   4.616   2.582  13.381 -1.1678 -0.4649  0.0091
  140MPD2    H1 2139   0.204   2.445  13.636 -1.2032 -1.3383 -0.1204
  140MPD2    H2 2140   4.689   2.777  13.758  1.9152 -0.9054  1.6914
  140MPD2    H3 2141   0.141   2.609  13.796  0.5483  1.4559 -0.6756
  140MPD2     N 2142   0.073   2.399  13.403  0.4645 -0.4610  0.1699
  140MPD2    H5 2143   0.013   2.388  13.322 -1.1212  2.0226  0.9905
  140MPD2    N1 2144   4.542   2.798  13.547  0.2221  0.1547 -0.2931
  140MPD2    H7 2145   4.543   2.870  13.619 -1.8805  1.1655 -1.2885
  141TCq2    C1 2146   0.636   3.825  15.177  0.1130  0.1664 -0.2691
  141TCq2    O2 2147   0.624   3.925  15.106 -0.3333  0.2168 -0.0133
  141TCq2    C2 2148   0.662   3.853  15.319 -0.3484  0.7931 -0.2490
  141TCq2    C3 2149   0.693   3.752  15.414  0.6610 -0.4996  0.4493
  141TCq2    C4 2150   0.723   3.786  15.544  0.5386  0.7593 -0.2900
  141TCq2    C5 2151   0.711   3.914  15.588  0.0960  0.0823 -0.1199
  141TCq2    C6 2152   0.685   4.015  15.500 -0.3250  0.0010 -0.2010
  141TCq2    C7 2153   0.661   3.985  15.362 -0.8667  0.1566  0.0486
  141TCq2    C8 2154   0.722   4.154  15.529 -0.6574 -0.1471  0.5552
  141TCq2    O4 2155   0.710   4.201  15.644  0.1577 -0.3147 -0.4212
  141TCq2    C9 2156   0.769   3.685  15.632  0.4106 -0.9023  0.2759
  141TCq2    O5 2157   0.787   3.714  15.754 -0.1246 -0.3561  0.4403
  141TCq2    O6 2158   0.760   3.564  15.591  0.1833  0.4661  0.2670
  141TCq2    H2 2159   0.678   3.646  15.395  2.4176 -0.8243  0.8857
  141TCq2    H3 2160   0.746   3.925  15.690 -1.8820  1.0385  0.4517
  141TCq2    H4 2161   0.660   4.063  15.287  1.4674  0.8333  0.7280
  142MPD2     C 2162   2.498   2.362  10.641  0.5685 -0.2329 -0.4629
  142MPD2    C1 2163   2.530   2.287  10.531 -0.3232  0.3654  0.3293
  142MPD2    C2 2164   2.589   2.355  10.429  0.0007  0.9259  0.1665
  142MPD2    C3 2165   2.605   2.491  10.425 -0.1233 -0.3880 -0.1661
  142MPD2    C4 2166   2.573   2.563  10.538 -0.1786 -0.4247  0.1477
  142MPD2    C5 2167   2.516   2.502  10.641  0.0217  0.2139  0.2720
  142MPD2     H 2168   2.640   2.303  10.349 -3.0097  1.7006 -2.2572
  142MPD2    H1 2169   2.591   2.668  10.553  0.5870 -0.5785  0.3087
  142MPD2    H2 2170   2.444   2.321  10.725 -0.7184 -1.7526 -2.0182
  142MPD2    H3 2171   2.495   2.563  10.728  1.0632 -2.0720  2.1352
  142MPD2     N 2172   2.641   2.569  10.315  0.0063 -0.3636  0.1756
  142MPD2    H5 2173   2.637   2.670  10.320 -1.4933 -0.4962  1.5249
  142MPD2    N1 2174   2.519   2.142  10.526  0.1822 -0.1711 -0.1664
  142MPD2    H7 2175   2.535   2.097  10.436 -1.1044  0.9983 -0.9862
  143TCq2    C1 2176   2.666   2.516  10.186  0.2881  0.0638 -0.6930
  143TCq2    O2 2177   2.651   2.403  10.140  0.2279 -0.1244  0.2542
  143TCq2    C2 2178   2.718   2.619  10.099  0.7702  0.4499 -0.2745
  143TCq2    C3 2179   2.810   2.702  10.150 -0.1596  0.0350  0.1335
  143TCq2    C4 2180   2.877   2.779  10.063 -0.0376 -0.3501  0.4160
  143TCq2    C5 2181   2.859   2.763   9.928  0.6063 -0.8566  0.0482
  143TCq2    C6 2182   2.761   2.677   9.882 -0.0409 -1.0394  0.6303
  143TCq2    C7 2183   2.694   2.600   9.969 -0.3484 -0.3266 -0.0800
  143TCq2    C8 2184   2.759   2.656   9.742  1.1711  0.3213 -0.1794
  143TCq2    O4 2185   2.833   2.728   9.674  0.1928  0.3528 -0.8154
  143TCq2    C9 2186   2.968   2.888  10.111 -0.1527  0.3791 -0.5580
  143TCq2    O5 2187   3.038   2.952  10.031 -0.0436  0.6022 -0.0082
  143TCq2    O6 2188   2.991   2.882  10.235  0.2678 -0.1120  0.1766
  143TCq2    H2 2189   2.825   2.721  10.255 -0.7055  1.1408  0.0174
  143TCq2    H3 2190   2.914   2.831   9.863 -0.1458  1.1390  1.4929
  143TCq2    H4 2191   2.604   2.543   9.946  0.3822 -1.5351  0.1045
  144MPD2     C 2192   0.367   2.033   0.694 -0.0928  0.1538  0.8671
  144MPD2    C1 2193   0.411   1.909   0.662  1.1009  0.0066  0.1660
  144MPD2    C2 2194   0.534   1.863   0.704 -0.0938 -0.2131 -0.3366
  144MPD2    C3 2195   0.612   1.940   0.786 -0.3057 -0.5662  0.3329
  144MPD2    C4 2196   0.565   2.060   0.823  0.2620 -0.2217 -0.5986
  144MPD2    C5 2197   0.446   2.113   0.779  0.8387 -0.2958 -0.0531
  144MPD2     H 2198   0.557   1.763   0.669 -1.9359 -0.6967 -0.1627
  144MPD2    H1 2199   0.625   2.118   0.892 -0.3372 -1.1015  0.6541
  144MPD2    H2 2200   0.269   2.068   0.664 -0.9750 -1.3938  1.9183
  144MPD2    H3 2201   0.424   2.217   0.804 -2.0862 -0.8178 -0.4961
  144MPD2     N 2202   0.734   1.894   0.848 -0.1708  0.3402 -0.3819
  144MPD2    H5 2203   0.785   1.970   0.891  2.0114 -0.4093 -1.6578
  144MPD2    N1 2204   0.342   1.824   0.564 -0.3938 -0.1898  0.4136
  144MPD2    H7 2205   0.362   1.725   0.563  0.1993 -0.0346 -2.4484
  145TCq2    C1 2206   0.789   1.770   0.839  0.1872  0.2629  0.0368
  145TCq2    O2 2207   0.743   1.673   0.783  0.3874  0.4562 -0.3747
  145TCq2    C2 2208   0.932   1.767   0.861 -0.8758  0.6084 -0.7232
  145TCq2    C3 2209   0.998   1.651   0.824  0.0792  0.1703 -0.9358
  145TCq2    C4 2210   1.129   1.621   0.860 -0.5305  0.2038 -0.8927
  145TCq2    C5 2211   1.197   1.717   0.930  0.2495  0.0542  0.1146
  145TCq2    C6 2212   1.134   1.836   0.967 -0.6775  0.3726 -0.9695
  145TCq2    C7 2213   1.003   1.859   0.929 -0.0264 -0.2523 -0.2079
  145TCq2    C8 2214   1.212   1.950   1.006 -0.8374  0.1233  0.0888
  145TCq2    O4 2215   1.331   1.920   1.013  0.5264 -0.2067  0.1003
  145TCq2    C9 2216   1.189   1.494   0.825  0.6355 -0.4565 -0.9242
  145TCq2    O5 2217   1.309   1.467   0.844 -0.0523  0.0930 -1.0595
  145TCq2    O6 2218   1.115   1.414   0.757  0.2734  0.7185 -0.1223
  145TCq2    H2 2219   0.938   1.581   0.768  0.1618 -0.6123 -0.0457
  145TCq2    H3 2220   1.303   1.706   0.952 -0.2665 -1.0829  2.0268
  145TCq2    H4 2221   0.958   1.947   0.975 -1.5808  0.0142 -2.2394
  146TMC2    C1 2222   2.444   4.719  11.747 -0.0235 -0.3296  0.4513
  146TMC2    C2 2223   2.446   0.041  11.618 -0.4436  0.4231 -0.4442
  146TMC2    C3 2224   2.567   0.049  11.554 -0.0099 -0.2114 -0.5586
  146TMC2    C4 2225   2.556   4.655  11.799 -0.4165  0.5912  0.6165
  146TMC2    C5 2226   2.672   4.645  11.722 -0.2130  0.1998  0.4554
  146TMC2    C6 2227   2.679   4.710  11.606 -0.0066 -0.3421  1.3046
  146TMC2     C 2228   2.339   0.043  11.836  0.0683 -0.6833 -0.0394
  146TMC2     O 2229   2.247   0.106  11.783 -0.2505  0.3286  0.0721
  146TMC2     H 2230   2.363   0.097  11.576 -0.8463 -1.2256 -1.8472
  146TMC2    H1 2231   2.550   4.605  11.894 -0.7668  1.0638  0.8432
  146TMC2    H2 2232   2.773   4.701  11.552  0.8201  1.9375  2.3807
  146TMC2    C7 2233   2.802   4.603  11.785 -0.1897 -0.2289 -0.3060
  146TMC2    C8 2234   2.575   0.125  11.432  0.0780 -0.2620 -0.1764
  146TMC2    O1 2235   2.902   4.650  11.728 -0.0836 -0.6711 -0.3925
  146TMC2    O2 2236   2.483   0.200  11.399  0.4643 -0.1773  0.0201
  146TMC2    O5 2237   2.662   0.060  11.348 -0.0948  0.1863 -0.1198
  146TMC2    H5 2238   2.702   4.701  11.384 -1.6504  0.6062  2.5970
  147MPD2     C 2239   3.088   4.304  12.067  0.2047 -0.2834  0.5160
  147MPD2    C1 2240   2.967   4.300  12.120  0.7358 -0.4500 -0.1428
  147MPD2    C2 2241   2.859   4.369  12.053  0.3769 -0.0927 -0.3848
  147MPD2    C3 2242   2.886   4.444  11.945 -0.2044  0.2194  0.0116
  147MPD2    C4 2243   3.015   4.434  11.886 -0.2575 -0.2666 -0.2711
  147MPD2    C5 2244   3.114   4.364  11.946 -0.5745 -0.4523 -0.0992
  147MPD2     H 2245   2.761   4.380  12.098  0.9358  0.0191  0.7959
  147MPD2    H1 2246   3.036   4.483  11.791 -0.5405 -0.4213 -0.4134
  147MPD2    H2 2247   3.170   4.252  12.115  1.6988  5.1135  3.9026
  147MPD2    H3 2248   3.215   4.362  11.904 -0.9351 -2.9333 -0.8811
  147MPD2     N 2249   2.783   4.524  11.896  0.2819  0.9634 -0.3939
  147MPD2    H5 2250   2.690   4.501  11.931  0.9508 -0.2924  0.5591
  147MPD2    N1 2251   2.953   4.237  12.251 -0.4335 -0.1049  0.1188
  147MPD2    H7 2252   3.042   4.199  12.281  0.2190 -1.3194 -3.3538
  148MPD2     C 2253   1.943   3.767  10.591 -0.0682 -0.3481  0.0818
  148MPD2    C1 2254   2.032   3.676  10.538 -0.1295  0.1584 -0.3104
  148MPD2    C2 2255   1.999   3.624  10.413 -0.3674  1.3442 -0.2079
  148MPD2    C3 2256   1.886   3.666  10.347  0.1014 -0.0805  0.0177
  148MPD2    C4 2257   1.801   3.757  10.409 -0.4915 -0.2441  0.0386
  148MPD2    C5 2258   1.836   3.809  10.528 -1.0763  0.0650 -0.3240
  148MPD2     H 2259   2.060   3.548  10.366  0.8224  2.2870 -0.1860
  148MPD2    H1 2260   1.709   3.792  10.362 -0.0621 -0.8747 -1.2797
  148MPD2    H2 2261   1.967   3.813  10.686  1.0582 -1.8981  0.5542
  148MPD2    H3 2262   1.778   3.886  10.579 -0.9946 -1.0196  1.4073
  148MPD2     N 2263   1.856   3.622  10.216 -0.0770  0.7056  0.2998
  148MPD2    H5 2264   1.791   3.677  10.161 -1.5128  0.7674  2.0334
  148MPD2    N1 2265   2.157   3.647  10.607 -0.1907 -0.1889 -0.7358
  148MPD2    H7 2266   2.229   3.593  10.559  1.9023  1.9036  0.0712
  149TCq2    C1 2267   2.193   3.683  10.732  0.3322  0.4951  0.0976
  149TCq2    O2 2268   2.133   3.738  10.823 -0.4179  0.4539 -0.4179
  149TCq2    C2 2269   2.330   3.670  10.760 -0.2846  0.8592  0.2112
  149TCq2    C3 2270   2.394   3.767  10.838  0.4831  0.2755  0.5663
  149TCq2    C4 2271   2.532   3.774  10.832  0.2026  0.0559  0.0675
  149TCq2    C5 2272   2.603   3.681  10.761  0.2655  0.5665  0.1254
  149TCq2    C6 2273   2.538   3.581  10.688  0.5655  0.2492  0.0601
  149TCq2    C7 2274   2.404   3.577  10.691 -0.4187  0.3305 -0.3373
  149TCq2    C8 2275   2.605   3.465  10.641 -0.2549  0.2015 -0.2147
  149TCq2    O4 2276   2.539   3.364  10.645  0.2567  0.2081 -0.0401
  149TCq2    C9 2277   2.598   3.902  10.869 -0.1803 -0.0702  0.0531
  149TCq2    O5 2278   2.721   3.908  10.868  0.6818  0.1461 -0.2415
  149TCq2    O6 2279   2.518   4.002  10.893 -0.5115 -0.2134  0.3238
  149TCq2    H2 2280   2.334   3.835  10.897 -0.7680  0.4125 -0.8710
  149TCq2    H3 2281   2.711   3.692  10.768  0.6364 -2.8385 -0.0151
  149TCq2    H4 2282   2.360   3.503  10.625 -0.0545  1.0401 -1.3844
  150MPD2     C 2283   4.390   2.685  12.072 -0.9035 -0.2923  0.1964
  150MPD2    C1 2284   4.329   2.801  12.021  0.2878  0.5916  0.1584
  150MPD2    C2 2285   4.370   2.920  12.072  0.0083 -0.1477 -0.0452
  150MPD2    C3 2286   4.465   2.926  12.171 -0.1768 -0.6118 -0.3584
  150MPD2    C4 2287   4.527   2.808  12.219 -0.2779  0.1745 -0.0961
  150MPD2    C5 2288   4.480   2.690  12.175  0.1419  0.5489  0.5373
  150MPD2     H 2289   4.331   3.019  12.049 -0.1027 -0.4520 -1.1624
  150MPD2    H1 2290   4.599   2.794  12.299  1.0344  1.6452 -1.0186
  150MPD2    H2 2291   4.360   2.585  12.043  0.6330 -0.6510 -0.1804
  150MPD2    H3 2292   4.510   2.593  12.212  0.9619  0.9376  0.8775
  150MPD2     N 2293   4.505   3.051  12.219  0.1706 -0.7802 -0.3667
  150MPD2    H5 2294   4.442   3.126  12.192 -0.2058 -0.9771 -0.0295
  150MPD2    N1 2295   4.229   2.789  11.926  0.3539  0.5873  0.3412
  150MPD2    H7 2296   4.203   2.694  11.903 -0.6614  1.1300 -0.7394
  151TCq2    C1 2297   4.613   3.073  12.301 -0.0504 -0.4671 -0.2510
  151TCq2    O2 2298   4.710   3.005  12.328 -0.1313 -0.7236  0.1265
  151TCq2    C2 2299   4.618   3.211  12.361 -0.2120  0.8546  0.2978
  151TCq2    C3 2300   4.522   3.298  12.310  0.2649 -0.0236 -0.0270
  151TCq2    C4 2301   4.478   3.408  12.383 -0.4291 -0.4252  0.4222
  151TCq2    C5 2302   4.539   3.433  12.504 -0.4579  0.3094 -0.0781
  151TCq2    C6 2303   4.628   3.340  12.559  0.0130 -0.0406 -0.9214
  151TCq2    C7 2304   4.679   3.232  12.482  0.2982  0.2733 -0.0893
  151TCq2    C8 2305   4.694   3.384  12.681  0.6901 -0.1126  0.1394
  151TCq2    O4 2306   4.637   3.472  12.745  0.1219 -0.4185  0.2450
  151TCq2    C9 2307   4.373   3.492  12.327  0.1285  0.1603 -0.5550
  151TCq2    O5 2308   4.350   3.593  12.395 -0.3884  0.3363 -0.0952
  151TCq2    O6 2309   4.335   3.472  12.207  0.2434  0.2848 -0.3081
  151TCq2    H2 2310   4.482   3.292  12.209 -0.7326  0.3997  0.3431
  151TCq2    H3 2311   4.510   3.520  12.562  1.7705  0.0467  1.4375
  151TCq2    H4 2312   0.026   3.160  12.522  1.2994  0.7248 -1.0165
  152MPD2     C 2313   4.510   2.616  12.536 -0.4525  1.1530 -0.7381
  152MPD2    C1 2314   4.462   2.738  12.563  0.1612  0.2859  0.2897
  152MPD2    C2 2315   4.334   2.762  12.523  0.1847 -0.2347  0.1915
  152MPD2    C3 2316   4.256   2.664  12.460 -0.3400  0.5333 -0.5701
  152MPD2    C4 2317   4.313   2.543  12.431  0.2459  0.3256  0.2752
  152MPD2    C5 2318   4.439   2.521  12.466  0.1239  0.1155  0.0901
  152MPD2     H 2319   4.293   2.862  12.530  0.6242 -0.0473  0.1185
  152MPD2    H1 2320   4.260   2.454  12.398  1.9944  0.1562 -2.0424
  152MPD2    H2 2321   4.607   2.581  12.570 -1.7750 -0.4840  1.3740
  152MPD2    H3 2322   4.480   2.421  12.452  0.5696  0.4481 -1.0095
  152MPD2     N 2323   4.128   2.695  12.425 -0.9314 -0.1670  0.2061
  152MPD2    H5 2324   4.108   2.794  12.442 -0.5712 -0.1388  0.4670
  152MPD2    N1 2325   4.544   2.826  12.633  0.4487  0.5365 -0.0431
  152MPD2    H7 2326   4.635   2.794  12.667 -1.0668 -1.8086  1.8400
  153TCq2    C1 2327   4.518   2.957  12.648  1.0194  0.0705  0.3873
  153TCq2    O2 2328   4.414   3.019  12.638  0.1360  0.5800 -0.2601
  153TCq2    C2 2329   4.618   3.016  12.735  0.2350 -0.9265 -0.6902
  153TCq2    C3 2330   0.011   2.945  12.754 -0.3570 -0.0209 -0.5981
  153TCq2    C4 2331   0.062   2.937  12.878 -0.0227 -0.6568 -0.3457
  153TCq2    C5 2332   0.010   3.003  12.979 -0.4202 -0.0125 -0.6083
  153TCq2    C6 2333   4.620   3.080  12.961  0.1836  0.5773 -0.0740
  153TCq2    C7 2334   4.558   3.083  12.840  0.3203 -0.1999 -0.0891
  153TCq2    C8 2335   4.568   3.162  13.069  0.0852 -0.0981 -0.9983
  153TCq2    O4 2336   4.449   3.176  13.081  0.3510  0.1656 -0.0832
  153TCq2    C9 2337   0.186   2.857  12.897  0.2841  0.6601  0.2966
  153TCq2    O5 2338   0.238   2.810  12.792  0.1977 -0.2655  0.2095
  153TCq2    O6 2339   0.207   2.826  13.019  0.2164 -0.5196  0.2956
  153TCq2    H2 2340   0.059   2.897  12.670 -1.9310 -0.7981 -1.0615
  153TCq2    H3 2341   0.056   2.998  13.077 -2.7213  0.1669  0.4918
  153TCq2    H4 2342   4.466   3.140  12.839  0.6262  0.3026  0.4782
  154MPD2     C 2343   0.482   3.126   0.292 -0.2823 -0.2234  0.4738
  154MPD2    C1 2344   0.517   3.085   0.417 -0.7989 -0.4569  0.1138
  154MPD2    C2 2345   0.480   3.164   0.525 -0.6103 -0.7698 -0.3360
  154MPD2    C3 2346   0.415   3.288   0.510  0.0499 -0.0383  0.0841
  154MPD2    C4 2347   0.392   3.333   0.380  0.1793  0.0089  0.1045
  154MPD2    C5 2348   0.415   3.245   0.272  0.1642 -0.7656 -0.5282
  154MPD2     H 2349   0.517   3.138   0.623  2.1655 -2.7274 -1.8689
  154MPD2    H1 2350   0.333   3.423   0.365 -1.2134 -1.0945 -1.0632
  154MPD2    H2 2351   0.517   3.066   0.210 -1.5954  0.5305 -0.6497
  154MPD2    H3 2352   0.398   3.273   0.169  0.0931  1.5022  0.0948
  154MPD2     N 2353   0.371   3.361   0.625  0.1458  0.5354  0.0399
  154MPD2    H5 2354   0.365   3.307   0.711 -1.3299 -1.3500 -1.2612
  154MPD2    N1 2355   0.589   2.964   0.424  0.1024 -0.0956  0.1418
  154MPD2    H7 2356   0.601   2.911   0.338 -1.6034  0.2483 -0.3106
  155TCq2    C1 2357   0.660   2.917   0.537  0.0450 -0.2230 -0.0870
  155TCq2    O2 2358   0.685   2.970   0.644 -0.4083 -0.3555  0.5836
  155TCq2    C2 2359   0.741   2.802   0.499 -0.7167  1.0136 -0.1827
  155TCq2    C3 2360   0.868   2.812   0.539  0.1452 -0.1106 -0.7669
  155TCq2    C4 2361   0.959   2.725   0.484 -0.4820 -0.4329  0.0431
  155TCq2    C5 2362   0.938   2.644   0.374 -0.6403  0.0685  0.1240
  155TCq2    C6 2363   0.805   2.645   0.334  0.0454 -0.1721 -0.3221
  155TCq2    C7 2364   0.709   2.724   0.395  0.3945  0.8100 -0.2081
  155TCq2    C8 2365   0.759   2.518   0.268  0.3224 -0.4436  0.3196
  155TCq2    O4 2366   0.655   2.517   0.207  0.0119 -0.8793  0.0634
  155TCq2    C9 2367   1.097   2.729   0.530  0.0062  0.6290  0.0427
  155TCq2    O5 2368   1.176   2.647   0.480  0.1814  0.1382 -0.0029
  155TCq2    O6 2369   1.120   2.768   0.646 -0.5024  0.5825 -0.1240
  155TCq2    H2 2370   0.901   2.876   0.621 -1.3919 -1.5859  1.0091
  155TCq2    H3 2371   1.012   2.585   0.321  0.3555  2.9901 -1.7225
  155TCq2    H4 2372   0.609   2.724   0.355  1.1431 -0.1273 -2.1035
  156MPD2     C 2373   4.551   0.368  11.860 -0.5170  0.4516  0.1641
  156MPD2    C1 2374   4.445   0.446  11.815  0.0683 -1.0177  0.4561
  156MPD2    C2 2375   4.398   0.550  11.894  0.3308 -0.1375  0.3192
  156MPD2    C3 2376   4.445   0.580  12.021  0.3388 -0.5203  0.5502
  156MPD2    C4 2377   4.545   0.499  12.069  0.2873 -0.0013  0.2412
  156MPD2    C5 2378   4.596   0.395  11.991 -0.3716 -0.4712  0.2121
  156MPD2     H 2379   4.315   0.613  11.862 -0.9241 -1.1535  1.5371
  156MPD2    H1 2380   4.579   0.508  12.171 -0.7634 -0.5847  0.6478
  156MPD2    H2 2381   4.587   0.287  11.798  3.1012  0.9938  1.5537
  156MPD2    H3 2382   4.677   0.336  12.034  0.0838 -0.2945 -0.4128
  156MPD2     N 2383   4.412   0.706  12.068 -0.2161  0.3178  0.1804
  156MPD2    H5 2384   4.346   0.759  12.011  1.3153  1.2446 -0.7565
  156MPD2    N1 2385   4.401   0.419  11.685  0.3754 -0.2360 -0.8163
  156MPD2    H7 2386   4.436   0.333  11.644 -0.2973  0.3107 -2.5308
  157TCq2    C1 2387   4.307   0.496  11.609 -0.5654  0.7261 -0.6423
  157TCq2    O2 2388   4.255   0.604  11.636 -0.0004  0.1899  0.5086
  157TCq2    C2 2389   4.297   0.458  11.466 -1.2354 -0.0670 -0.2899
  157TCq2    C3 2390   4.283   0.318  11.428  0.0426 -0.2820 -0.3787
  157TCq2    C4 2391   4.236   0.296  11.294 -0.3184  0.1141 -0.1543
  157TCq2    C5 2392   4.211   0.407  11.211 -0.4026 -1.1341  0.5055
  157TCq2    C6 2393   4.208   0.534  11.261  0.4097  0.6595 -0.3952
  157TCq2    C7 2394   4.258   0.564  11.389  0.2959  0.3560  0.8447
  157TCq2    C8 2395   4.171   0.645  11.182 -0.2034 -0.7913 -0.5731
  157TCq2    O4 2396   4.242   0.744  11.200 -0.1940 -0.3419  0.2606
  157TCq2    C9 2397   4.234   0.156  11.245  0.5920 -0.7570 -0.2775
  157TCq2    O5 2398   4.288   0.080  11.327 -0.0708 -0.0507  0.2283
  157TCq2    O6 2399   4.215   0.144  11.121  0.7568  0.1570 -0.0168
  157TCq2    H2 2400   4.302   0.235  11.494  1.0210  0.9104  0.8340
  157TCq2    H3 2401   4.176   0.377  11.113  2.1087  0.0925 -0.7680
  157TCq2    H4 2402   4.272   0.666  11.422  1.5646  0.8862 -1.3200
  158TMC2    C1 2403   3.908   4.132  13.524  0.2796  0.3616  0.5939
  158TMC2    C2 2404   3.947   4.202  13.403  0.5297 -0.3185 -0.0317
  158TMC2    C3 2405   3.856   4.206  13.302  0.4925 -0.3919 -0.1173
  158TMC2    C4 2406   3.778   4.074  13.531 -0.3380 -0.6227  0.5014
  158TMC2    C5 2407   3.684   4.088  13.430  0.3532  0.1006  0.5185
  158TMC2    C6 2408   3.725   4.145  13.316  0.0468  0.1685 -0.2326
  158TMC2     C 2409   3.967   4.159  13.652  0.4143  0.3661 -0.8955
  158TMC2     O 2410   3.891   4.155  13.752 -0.6342  0.1913  0.5775
  158TMC2     H 2411   4.048   4.234  13.381  0.1832  0.2680 -0.7504
  158TMC2    H1 2412   3.755   4.022  13.623 -1.1922 -0.4692  0.3744
  158TMC2    H2 2413   3.644   4.152  13.245  1.3160  0.0919 -1.6761
  158TMC2    C7 2414   3.549   4.015  13.430 -0.3211 -0.4201  0.1055
  158TMC2    C8 2415   3.902   4.252  13.170 -0.3011 -0.2592 -0.5468
  158TMC2    O1 2416   3.465   4.038  13.345 -0.1378 -0.4912  0.7925
  158TMC2    O2 2417   4.002   4.312  13.146  0.2980 -0.1288  0.3938
  158TMC2    O5 2418   3.830   4.188  13.077 -0.2969 -0.0112 -0.0714
  158TMC2    H5 2419   3.800   4.100  13.110  0.5578  0.1061  1.0340
  159MPD2     C 2420   4.362   4.278  13.950 -0.7405  0.3296 -0.6645
  159MPD2    C1 2421   4.240   4.215  13.978  0.3997  0.5098 -0.4895
  159MPD2    C2 2422   4.158   4.184  13.875  0.4593 -0.1543  0.1604
  159MPD2    C3 2423   4.185   4.224  13.748  0.7152  0.7895 -0.4851
  159MPD2    C4 2424   4.304   4.285  13.716 -0.2703 -0.3991 -0.2607
  159MPD2    C5 2425   4.393   4.300  13.815  0.4426 -0.2108 -0.2929
  159MPD2     H 2426   4.070   4.124  13.896 -0.4007  1.2183  0.5225
  159MPD2    H1 2427   4.327   4.310  13.613 -2.6932 -1.4785 -1.0724
  159MPD2    H2 2428   4.428   4.309  14.030 -0.7159 -0.8231 -0.2379
  159MPD2    H3 2429   4.488   4.342  13.785  0.1998  0.3986 -0.2050
  159MPD2     N 2430   4.100   4.195  13.639 -0.8280  0.8972 -0.3954
  159MPD2    H5 2431   4.145   4.203  13.548 -3.6020 -0.3615 -1.8896
  159MPD2    N1 2432   4.215   4.183  14.109  0.2162  0.0202  0.5355
  159MPD2    H7 2433   4.284   4.207  14.179  1.4589  1.0337 -1.0440
  160TMC2    C1 2434   4.296   2.218   1.652  0.1078  0.4174 -0.0052
  160TMC2    C2 2435   4.314   2.091   1.691  0.4079 -0.7229 -0.0082
  160TMC2    C3 2436   4.422   2.022   1.637 -0.4638 -0.5656 -0.6205
  160TMC2    C4 2437   4.376   2.276   1.557 -0.6760  0.4550 -1.0477
  160TMC2    C5 2438   4.478   2.207   1.505  0.3053  0.3374  0.7077
  160TMC2    C6 2439   4.508   2.076   1.546 -0.4582 -0.4478  0.5029
  160TMC2     C 2440   4.188   2.298   1.716  0.5338  0.5859 -0.0946
  160TMC2     O 2441   4.117   2.232   1.790 -0.9190  0.3032  0.2243
  160TMC2     H 2442   4.270   2.056   1.784  1.2001 -2.3825 -0.2540
  160TMC2    H1 2443   4.340   2.366   1.507  1.3107  1.1549 -1.2240
  160TMC2    H2 2444   4.596   2.018   1.520 -0.6568  0.4706 -2.1608
  160TMC2    C7 2445   4.550   2.254   1.397 -0.0237 -0.2331 -0.1142
  160TMC2    C8 2446   4.466   1.902   1.701  0.1723  0.3188 -0.1248
  160TMC2    O1 2447   4.601   2.177   1.319 -0.5415 -0.0085  0.0106
  160TMC2    O2 2448   4.581   1.862   1.712  0.1319  0.4260  0.3127
  160TMC2    O5 2449   4.364   1.837   1.747 -0.3236  0.3286 -0.5014
  160TMC2    H5 2450   4.278   1.861   1.707 -0.4831  0.2618 -0.1998
  161MPD2     C 2451   3.956   2.482   1.770  0.3188  0.2096 -0.1640
  161MPD2    C1 2452   4.057   2.509   1.673  0.1554 -0.2003  0.7377
  161MPD2    C2 2453   4.035   2.615   1.584  0.8906  0.4298 -0.0662
  161MPD2    C3 2454   3.921   2.694   1.590 -1.0411 -0.0541 -0.8144
  161MPD2    C4 2455   3.838   2.673   1.692  0.4023  0.0541  0.2325
  161MPD2    C5 2456   3.849   2.569   1.777  0.0497 -0.0744 -0.1034
  161MPD2     H 2457   4.112   2.628   1.509  0.6171 -1.5280 -0.6994
  161MPD2    H1 2458   3.748   2.734   1.687  1.1080  1.0865  0.0984
  161MPD2    H2 2459   3.963   2.391   1.827  2.2237  1.2729  1.2871
  161MPD2    H3 2460   3.774   2.535   1.847 -2.0443  0.0626 -2.2998
  161MPD2     N 2461   3.893   2.806   1.505 -0.0572 -0.4660  0.0708
  161MPD2    H5 2462   3.808   2.860   1.519  0.7697  0.9166 -0.2464
  161MPD2    N1 2463   4.168   2.421   1.649  0.5288 -0.5340  0.3330
  161MPD2    H7 2464   4.243   2.462   1.594  1.6629 -0.7350  1.7491
  162TMC2    C1 2465   2.152   4.545   1.163  0.0577 -0.0216 -0.9085
  162TMC2    C2 2466   2.047   4.619   1.118  0.8682 -0.1271 -0.6370
  162TMC2    C3 2467   1.942   4.640   1.212  0.3017 -0.1817 -0.7030
  162TMC2    C4 2468   2.156   4.485   1.287  0.6043 -0.2352  0.4924
  162TMC2    C5 2469   2.047   4.502   1.370 -0.0655  0.6990 -0.3804
  162TMC2    C6 2470   1.941   4.576   1.336 -0.1878 -0.4531 -0.5212
  162TMC2     C 2471   2.278   4.557   1.098  0.5937  0.4330  0.1519
  162TMC2     O 2472   2.353   4.464   1.122 -0.4423  0.1864  0.3543
  162TMC2     H 2473   2.055   4.669   1.023 -0.9585 -0.6949 -1.0998
  162TMC2    H1 2474   2.243   4.432   1.323  0.1213 -1.5023 -0.2199
  162TMC2    H2 2475   1.864   4.598   1.409  1.4982  1.7419  0.5908
  162TMC2    C7 2476   2.043   4.441   1.503  0.5839  0.0922  0.7840
  162TMC2    C8 2477   1.821   4.713   1.169 -0.0355  0.4431 -0.2708
  162TMC2    O1 2478   1.960   4.489   1.576 -0.0658  0.1310 -0.6142
  162TMC2    O2 2479   1.725   0.027   1.243 -0.1120  0.0616 -0.1431
  162TMC2    O5 2480   1.803   4.676   1.046  0.4369  0.4550 -0.0119
  162TMC2    H5 2481   1.877   4.633   0.998  0.9586  0.8213  0.4657
  163MPD2     C 2482   2.638   0.065   0.819 -0.5655  0.1956 -0.0448
  163MPD2    C1 2483   2.619   4.658   0.852  0.0210  0.2789  0.1477
  163MPD2    C2 2484   2.507   4.620   0.920 -0.5170 -0.6148 -0.1907
  163MPD2    C3 2485   2.417   4.713   0.968 -0.3230  0.5118  0.2707
  163MPD2    C4 2486   2.440   0.126   0.945  0.3988  0.2978 -0.4884
  163MPD2    C5 2487   2.553   0.163   0.869 -0.0174 -0.1936 -0.2275
  163MPD2     H 2488   2.477   4.516   0.925  1.5874 -1.1345  1.6769
  163MPD2    H1 2489   2.381   0.210   0.982 -0.1423 -0.4604  0.3676
  163MPD2    H2 2490   2.716   0.102   0.753 -0.2726 -1.1387 -0.4420
  163MPD2    H3 2491   2.562   0.270   0.855 -1.7813  0.1887  1.5896
  163MPD2     N 2492   2.302   4.673   1.027 -0.4915 -0.1271 -0.0213
  163MPD2    H5 2493   2.236   0.026   1.035  0.3286  0.6557 -0.7064
  163MPD2    N1 2494   2.695   4.567   0.777 -0.0020 -0.3697  0.3659
  163MPD2    H7 2495   2.741   4.607   0.696 -0.2672  3.8515  2.3146
  164TCq2    C1 2496   2.550   3.801  11.226  0.3508  0.2216  0.7385
  164TCq2    O2 2497   2.433   3.764  11.235  0.4473 -0.1782  0.0923
  164TCq2    C2 2498   2.580   3.937  11.260  0.4788  0.6433 -0.3029
  164TCq2    C3 2499   2.687   3.999  11.196  0.0375 -0.4890  0.0877
  164TCq2    C4 2500   2.691   4.133  11.219  0.5877 -0.1581  0.0722
  164TCq2    C5 2501   2.598   4.202  11.288 -0.1534  0.8406  0.6670
  164TCq2    C6 2502   2.495   4.135  11.353 -0.1188 -0.0025 -0.5796
  164TCq2    C7 2503   2.496   3.996  11.347 -0.4509 -0.3495  0.3718
  164TCq2    C8 2504   2.368   4.197  11.388  0.5297 -0.0855 -0.8081
  164TCq2    O4 2505   2.329   4.295  11.323 -0.7300  0.0801 -0.2960
  164TCq2    C9 2506   2.801   4.211  11.160 -0.0354  0.5525 -0.3542
  164TCq2    O5 2507   2.827   4.327  11.198  0.1806 -0.4408 -0.3888
  164TCq2    O6 2508   2.822   4.179  11.039 -0.0424  0.2225 -0.1436
  164TCq2    H2 2509   2.755   3.946  11.130 -0.7976  0.4665 -1.5583
  164TCq2    H3 2510   2.596   4.310  11.282  0.7145  0.8463  0.5043
  164TCq2    H4 2511   2.420   3.929  11.385 -0.3973  0.4999  1.9817
  165MPD2     C 2512   3.232   1.533   0.905 -0.5269  0.1509  0.5853
  165MPD2    C1 2513   3.312   1.518   1.018 -0.4569  0.5880 -0.0600
  165MPD2    C2 2514   3.406   1.613   1.052 -0.1252  0.1114  0.0737
  165MPD2    C3 2515   3.430   1.716   0.964 -0.0791  0.9840  0.5498
  165MPD2    C4 2516   3.342   1.734   0.856 -0.0222  0.6491  0.2715
  165MPD2    C5 2517   3.243   1.643   0.822 -0.4691 -0.1930 -0.5924
  165MPD2     H 2518   3.478   1.601   1.132  0.9583  1.9442 -0.6257
  165MPD2    H1 2519   3.357   1.815   0.786  1.7625 -2.2008 -2.6198
  165MPD2    H2 2520   3.151   1.467   0.879 -0.7661  0.8750 -0.5172
  165MPD2    H3 2521   3.184   1.656   0.732 -1.1664 -0.7461 -0.2207
  165MPD2     N 2522   3.534   1.813   0.970 -0.1894 -0.1153 -0.0034
  165MPD2    H5 2523   3.547   1.886   0.901 -0.0268  1.9704  2.2376
  165MPD2    N1 2524   3.300   1.390   1.085 -0.2256  0.0347 -0.2381
  165MPD2    H7 2525   3.233   1.324   1.047  0.9329  0.3943 -2.9364
  166TCq2    C1 2526   3.635   1.806   1.067 -0.3733 -0.6323 -0.5686
  166TCq2    O2 2527   3.662   1.723   1.151 -0.0881 -0.0872  0.1453
  166TCq2    C2 2528   3.742   1.899   1.041 -0.1174 -0.3032  0.2992
  166TCq2    C3 2529   3.714   2.018   0.967  0.4064 -0.0743  0.1315
  166TCq2    C4 2530   3.818   2.113   0.955 -0.0397  1.0039  0.3852
  166TCq2    C5 2531   3.944   2.079   1.009 -0.2966 -0.2736  0.2476
  166TCq2    C6 2532   3.959   1.960   1.080  0.9753 -0.3311 -0.1649
  166TCq2    C7 2533   3.864   1.863   1.085  0.3357 -0.4187 -0.7263
  166TCq2    C8 2534   4.095   1.924   1.122 -0.5169  0.1603 -0.4400
  166TCq2    O4 2535   4.183   1.971   1.053 -0.0621  0.3140 -0.4414
  166TCq2    C9 2536   3.783   2.246   0.905 -0.8012  0.2407  0.3127
  166TCq2    O5 2537   3.665   2.284   0.939 -0.6724  0.1469  0.0136
  166TCq2    O6 2538   3.875   2.319   0.853  0.0232 -0.4416  0.6439
  166TCq2    H2 2539   3.612   2.046   0.943  0.1965 -1.8997 -1.1289
  166TCq2    H3 2540   4.026   2.145   0.984 -2.9780  2.8028 -0.3817
  166TCq2    H4 2541   3.883   1.768   1.133 -3.1544 -2.1741 -2.7886
  167TMC2    C1 2542   1.628   4.042  12.104  0.5917 -0.6908  0.2720
  167TMC2    C2 2543   1.502   4.086  12.145  0.0219 -0.2933  0.0781
  167TMC2    C3 2544   1.500   4.174  12.250  0.6409  0.4550  0.1955
  167TMC2    C4 2545   1.737   4.062  12.187  0.2313  0.6914 -0.7579
  167TMC2    C5 2546   1.726   4.128  12.306 -0.1446 -0.1344  0.1385
  167TMC2    C6 2547   1.607   4.189  12.340  0.1155 -0.7641  0.2406
  167TMC2     C 2548   1.620   3.892  12.091 -0.1906 -0.3082  0.2777
  167TMC2     O 2549   1.728   3.838  12.059  0.0171 -0.0238 -0.0385
  167TMC2     H 2550   1.406   4.065  12.099 -0.4170 -1.1977  1.3977
  167TMC2    H1 2551   1.833   4.029  12.148 -1.2368 -2.8461 -1.3585
  167TMC2    H2 2552   1.597   4.257  12.424 -0.1479  1.5346 -1.6403
  167TMC2    C7 2553   1.788   4.051  12.415 -0.0344 -0.1716 -0.1289
  167TMC2    C8 2554   1.369   4.225  12.291 -0.3312  0.6881  0.0964
  167TMC2    O1 2555   1.755   4.082  12.527  0.1088 -0.1849  0.2817
  167TMC2    O2 2556   1.267   4.169  12.267 -0.1876 -0.3221 -0.0335
  167TMC2    O5 2557   1.375   4.359  12.312 -0.1857 -0.1150 -0.7375
  167TMC2    H5 2558   1.461   4.406  12.325  0.1144 -0.3134 -2.0590
  168MPD2     C 2559   1.371   3.687  12.268 -0.1358 -0.0239 -0.3140
  168MPD2    C1 2560   1.492   3.721  12.208  1.0613  0.4402 -0.2559
  168MPD2    C2 2561   1.600   3.649  12.243  0.3615 -0.0170  0.8175
  168MPD2    C3 2562   1.596   3.544  12.333  0.9689  0.1259 -0.0753
  168MPD2    C4 2563   1.478   3.513  12.395  0.1762 -0.4477 -0.2292
  168MPD2    C5 2564   1.364   3.583  12.358 -0.4390  0.8885  0.5222
  168MPD2     H 2565   1.695   3.671  12.194 -0.3258 -1.3104 -1.1319
  168MPD2    H1 2566   1.467   3.423  12.454  0.0335  1.1093  2.1310
  168MPD2    H2 2567   1.281   3.746  12.256 -0.4732 -0.5797 -0.5078
  168MPD2    H3 2568   1.266   3.564  12.400 -1.3476  1.5663 -1.3312
  168MPD2     N 2569   1.709   3.465  12.355  0.3317 -0.0006 -0.7306
  168MPD2    H5 2570   1.692   3.376  12.400  0.3972  0.0111 -0.6827
  168MPD2    N1 2571   1.500   3.844  12.140  0.0052 -0.2341  0.0620
  168MPD2    H7 2572   1.415   3.899  12.146  0.9452  1.1099  1.1558
  169MPD1     C 2573   3.596   3.297   8.769 -0.1505  0.2809 -0.2363
  169MPD1    C1 2574   3.641   3.170   8.794 -0.0857 -0.1566 -0.0928
  169MPD1    C2 2575   3.736   3.148   8.884 -0.7523 -0.5255 -0.5120
  169MPD1    C3 2576   3.792   3.247   8.953  0.4219 -0.3883 -0.4979
  169MPD1    C4 2577   3.737   3.368   8.947  0.1954 -0.0079 -0.4375
  169MPD1    C5 2578   3.639   3.400   8.850  0.7566  0.5425 -0.1527
  169MPD1     H 2579   3.767   3.046   8.903 -0.5544 -0.6007 -1.2461
  169MPD1    H1 2580   3.768   3.456   9.004  1.7453 -1.1107  0.4225
  169MPD1    H2 2581   3.513   3.316   8.703  0.5115 -0.4023 -1.2638
  169MPD1    H3 2582   3.591   3.497   8.853 -0.3032 -0.0214  1.5722
  169MPD1     N 2583   3.901   3.220   9.042 -0.6070 -0.7623  0.1375
  169MPD1    H5 2584   3.939   3.127   9.053 -0.8799 -1.0515 -1.3501
  169MPD1    N1 2585   3.579   3.072   8.718 -0.2587  0.2129  0.1483
  169MPD1    H6 2586   3.483   3.093   8.692 -0.1180  0.3749 -0.2504
  169MPD1    H7 2587   3.600   2.975   8.743 -1.6745  0.6409  2.8860
  170MPD1     C 2588   2.755   0.737  13.461  0.7349 -0.2139 -0.7420
  170MPD1    C1 2589   2.859   0.734  13.377 -0.3344 -0.0385  0.0367
  170MPD1    C2 2590   2.956   0.827  13.402 -0.5514 -0.3995  0.4566
  170MPD1    C3 2591   2.948   0.925  13.500 -1.3492  0.8571  0.0527
  170MPD1    C4 2592   2.835   0.931  13.575 -0.0682  0.1148 -0.2265
  170MPD1    C5 2593   2.741   0.830  13.558  0.0391  0.0078 -0.3454
  170MPD1     H 2594   3.039   0.835  13.333 -0.3158  1.7397  1.0107
  170MPD1    H1 2595   2.807   1.007  13.647  0.5539 -0.7481  0.9188
  170MPD1    H2 2596   2.677   0.662  13.460  0.9117 -0.3783 -2.4944
  170MPD1    H3 2597   2.660   0.836  13.630  1.6274 -0.1775  1.4588
  170MPD1     N 2598   3.051   1.021  13.500 -0.1608  0.2439  0.1726
  170MPD1    H5 2599   3.123   1.011  13.428  1.2325 -2.0126  1.8689
  170MPD1    N1 2600   2.888   0.622  13.292 -0.1761 -0.3395 -0.4725
  170MPD1    H6 2601   2.961   0.639  13.222  0.8228 -1.1082  0.3831
  170MPD1    H7 2602   2.803   0.583  13.252  1.4448 -2.0537 -2.2516
  171MPD1     C 2603   1.322   1.898  16.241  1.1044 -0.3994  0.5062
  171MPD1    C1 2604   1.319   1.782  16.162 -0.1239  0.3519  0.2803
  171MPD1    C2 2605   1.427   1.763  16.079  0.7259  0.5401  0.0833
  171MPD1    C3 2606   1.545   1.831  16.091  0.0574  0.2895  0.2255
  171MPD1    C4 2607   1.552   1.937  16.179  0.7212 -0.1824 -0.2198
  171MPD1    C5 2608   1.437   1.973  16.251  0.2488 -0.5614  0.2839
  171MPD1     H 2609   1.423   1.683  16.005  0.3325  1.7268 -1.1878
  171MPD1    H1 2610   1.646   1.989  16.191  0.9209 -0.4736 -0.4927
  171MPD1    H2 2611   1.244   1.937  16.305 -0.8583  1.0353 -2.7781
  171MPD1    H3 2612   1.431   2.057  16.319 -0.0356 -0.6868  0.4145
  171MPD1     N 2613   1.662   1.793  16.011  0.8448  0.0076 -0.1580
  171MPD1    H5 2614   1.736   1.859  16.029  1.1779 -0.8404  1.7035
  171MPD1    N1 2615   1.202   1.705  16.150  0.5319  0.4531  0.2542
  171MPD1    H6 2616   1.150   1.704  16.238  2.7251 -0.2241  1.5180
  171MPD1    H7 2617   1.228   1.616  16.109 -1.4470 -0.8375  1.8332
  172MPD1     C 2618   0.625   1.264   0.376 -0.5026 -0.2275  0.2810
  172MPD1    C1 2619   0.551   1.377   0.402 -0.4263 -0.0726  0.1345
  172MPD1    C2 2620   0.617   1.499   0.404 -0.8144  0.2791 -0.4664
  172MPD1    C3 2621   0.754   1.509   0.403 -0.5926 -0.3752 -0.3611
  172MPD1    C4 2622   0.829   1.393   0.391 -0.6372  0.6251  0.2180
  172MPD1    C5 2623   0.765   1.273   0.372 -0.6058  0.1420  0.1553
  172MPD1     H 2624   0.565   1.594   0.417  3.3882  2.7238 -1.6032
  172MPD1    H1 2625   0.937   1.383   0.395 -0.8542 -1.4937  0.4329
  172MPD1    H2 2626   0.572   1.172   0.359 -1.9414  0.4321  1.2230
  172MPD1    H3 2627   0.819   1.185   0.342  1.2034  0.6506  1.9336
  172MPD1     N 2628   0.814   1.633   0.429  0.5778  0.0584 -0.1097
  172MPD1    H5 2629   0.915   1.634   0.446  0.8670  0.5068 -1.8712
  172MPD1    N1 2630   0.411   1.373   0.376 -0.0200  0.0345  0.0441
  172MPD1    H6 2631   0.368   1.442   0.437  1.2717 -0.0437  1.0466
  172MPD1    H7 2632   0.369   1.285   0.405 -1.6325  0.8286  0.1342
  173MPD1     C 2633   1.532   0.940  13.352  0.4343  0.6861 -0.0274
  173MPD1    C1 2634   1.608   0.826  13.379  0.6754 -0.0062  0.6653
  173MPD1    C2 2635   1.721   0.829  13.461  0.0410 -0.2604 -0.6945
  173MPD1    C3 2636   1.756   0.941  13.525 -0.2682  0.2915 -0.6526
  173MPD1    C4 2637   1.680   1.050  13.502  0.1351  0.7608  0.0939
  173MPD1    C5 2638   1.569   1.049  13.422 -0.0863 -0.3867 -0.2802
  173MPD1     H 2639   1.787   0.744  13.474 -0.1106 -0.5118 -1.5613
  173MPD1    H1 2640   1.702   1.146  13.548 -0.3706  0.1061  1.6970
  173MPD1    H2 2641   1.453   0.942  13.278 -0.6451  2.1849  1.1751
  173MPD1    H3 2642   1.523   1.145  13.399  0.9983  0.5047  1.2791
  173MPD1     N 2643   1.866   0.935  13.611  0.0392  0.4062  0.3477
  173MPD1    H5 2644   1.902   0.841  13.623  1.8229  0.5808 -3.5685
  173MPD1    N1 2645   1.588   0.714  13.302 -0.5536  0.4859  0.1391
  173MPD1    H6 2646   1.619   0.626  13.344  0.8432  0.9650  0.1159
  173MPD1    H7 2647   1.487   0.703  13.295 -0.3230 -0.4461 -1.7553
  174MPD1     C 2648   2.577   0.364  13.628 -0.5890  0.5345  0.2302
  174MPD1    C1 2649   2.441   0.375  13.591  0.1848 -0.1671 -0.0815
  174MPD1    C2 2650   2.357   0.450  13.675  0.7735  0.3336  0.4850
  174MPD1    C3 2651   2.416   0.545  13.761 -0.9171  0.5011 -0.4979
  174MPD1    C4 2652   2.554   0.548  13.780 -0.2343  0.1608  0.2968
  174MPD1    C5 2653   2.631   0.455  13.714 -0.2165  1.1003  0.1117
  174MPD1     H 2654   2.249   0.453  13.667  0.7700  0.3764  0.5456
  174MPD1    H1 2655   2.600   0.611  13.855  1.1215  1.0031 -1.2301
  174MPD1    H2 2656   2.642   0.291  13.581 -0.3173  0.4774  0.6974
  174MPD1    H3 2657   2.738   0.447  13.735 -0.1995  1.1708  0.0491
  174MPD1     N 2658   2.340   0.639  13.827 -0.1398  0.0343  0.4541
  174MPD1    H5 2659   2.405   0.697  13.879 -0.0268  0.1379  0.1978
  174MPD1    N1 2660   2.381   0.288  13.501 -0.2052  0.0226  0.2878
  174MPD1    H6 2661   2.450   0.248  13.437  0.1727  2.1127 -0.6165
  174MPD1    H7 2662   2.302   0.328  13.451 -0.6197 -1.7793 -0.4982
  175MPD1     C 2663   0.578   1.825  16.154  0.4199  0.8318  0.2562
  175MPD1    C1 2664   0.491   1.921  16.196 -0.5053  0.5774 -0.0178
  175MPD1    C2 2665   0.548   2.030  16.269 -0.7282 -0.6862 -0.1219
  175MPD1    C3 2666   0.672   2.016  16.326  0.0778  0.8399  0.4377
  175MPD1    C4 2667   0.752   1.913  16.297  0.6706 -0.9517  0.6284
  175MPD1    C5 2668   0.703   1.821  16.208  0.0061 -0.5925 -0.5138
  175MPD1     H 2669   0.481   2.107  16.305  0.1579  0.2626 -0.5013
  175MPD1    H1 2670   0.851   1.898  16.338  0.6669  0.4634  1.1504
  175MPD1    H2 2671   0.545   1.738  16.099 -1.2323  2.2237 -0.9365
  175MPD1    H3 2672   0.766   1.735  16.189  0.5603 -0.8793  2.6412
  175MPD1     N 2673   0.709   2.098  16.432 -0.1526 -0.3540 -0.1424
  175MPD1    H5 2674   0.788   2.062  16.485  1.8928  1.6987 -1.7459
  175MPD1    N1 2675   0.371   1.938  16.126 -0.3219  0.0429  0.4198
  175MPD1    H6 2676   0.335   1.851  16.088  1.5018  0.3995 -2.1740
  175MPD1    H7 2677   0.304   1.993  16.178  0.9071  1.2979  0.6912
  176MPD1     C 2678   2.260   4.130   0.640  0.0116  0.4488 -0.0004
  176MPD1    C1 2679   2.135   4.194   0.648  0.3080 -1.0579 -0.9688
  176MPD1    C2 2680   2.125   4.331   0.625  1.1282  0.6196 -0.8048
  176MPD1    C3 2681   2.244   4.401   0.608  0.3479 -0.3660  0.0430
  176MPD1    C4 2682   2.368   4.337   0.601  0.6670 -0.3180  0.3174
  176MPD1    C5 2683   2.370   4.203   0.612 -0.1143  0.0098 -0.2700
  176MPD1     H 2684   2.034   4.389   0.630  1.1644  0.4478  1.8194
  176MPD1    H1 2685   2.463   4.385   0.581 -0.1516  0.3228 -2.0821
  176MPD1    H2 2686   2.276   4.024   0.657 -2.8167 -0.0232 -0.2875
  176MPD1    H3 2687   2.468   4.158   0.623  0.5537  1.4402 -0.3319
  176MPD1     N 2688   2.231   4.541   0.610  0.4807 -0.0056  0.0639
  176MPD1    H5 2689   2.142   4.586   0.630  0.7592  0.8405 -0.6076
  176MPD1    N1 2690   2.030   4.119   0.704 -0.0678 -0.7914 -0.4097
  176MPD1    H6 2691   2.030   4.019   0.685 -1.6257 -0.6594 -1.1580
  176MPD1    H7 2692   1.938   4.152   0.673  0.8853  1.8271 -0.4792
  177MPD1     C 2693   0.368   3.767  10.304  0.1579  0.9632 -0.1316
  177MPD1    C1 2694   0.239   3.739  10.260  0.3618 -0.5955 -0.0279
  177MPD1    C2 2695   0.159   3.849  10.230 -0.0233  0.0373 -0.3702
  177MPD1    C3 2696   0.194   3.974  10.264  0.4099  0.1164 -0.0860
  177MPD1    C4 2697   0.322   3.999  10.306 -0.4401  0.5865  0.1983
  177MPD1    C5 2698   0.411   3.895  10.322 -0.2159 -0.2414  0.6423
  177MPD1     H 2699   0.059   3.829  10.194 -0.5051 -0.7721  1.3983
  177MPD1    H1 2700   0.373   4.093  10.325 -0.0529  0.3436  0.3705
  177MPD1    H2 2701   0.436   3.684  10.321  0.0574  1.2224  1.5205
  177MPD1    H3 2702   0.513   3.909  10.356  0.0878 -0.5836 -0.1193
  177MPD1     N 2703   0.100   4.076  10.242 -0.5340 -0.2018  0.0993
  177MPD1    H5 2704   0.015   4.046  10.196  0.0442 -2.3685  0.4680
  177MPD1    N1 2705   0.200   3.609  10.234 -0.3622  0.2160  1.5689
  177MPD1    H6 2706   0.099   3.595  10.232 -0.8394  3.4682  1.9222
  177MPD1    H7 2707   0.233   3.545  10.305  1.7479  0.8470  1.1726
  178MPD1     C 2708   2.717   1.010  17.263 -0.1469  0.0758  0.3002
  178MPD1    C1 2709   2.712   0.873  17.273 -0.3376  0.3240  0.5630
  178MPD1    C2 2710   2.813   0.792  17.227  0.3176 -0.7856  0.2616
  178MPD1    C3 2711   2.923   0.853  17.173  0.0739  0.2496 -0.2201
  178MPD1    C4 2712   2.937   0.986  17.182 -0.5836  0.1883  0.0278
  178MPD1    C5 2713   2.838   1.067  17.224 -0.2031 -0.0178  0.1000
  178MPD1     H 2714   2.788   0.687  17.214  1.4041 -0.9434 -0.5533
  178MPD1    H1 2715   3.026   1.033  17.142 -0.2120 -0.4797  0.0659
  178MPD1    H2 2716   2.637   1.072  17.301 -2.7859 -1.9652 -2.0193
  178MPD1    H3 2717   2.846   1.174  17.214 -1.3099 -0.1690 -2.5348
  178MPD1     N 2718   3.035   0.792  17.110 -0.5313 -0.2203 -0.1253
  178MPD1    H5 2719   3.106   0.852  17.069  0.2188 -0.2175  1.1564
  178MPD1    N1 2720   2.592   0.815  17.311 -0.7073 -0.2006  0.3044
  178MPD1    H6 2721   2.588   0.713  17.318 -2.4531 -0.0868  1.1228
  178MPD1    H7 2722   2.556   0.852  17.398 -0.5448  1.1934 -0.2307
  179MPD1     C 2723   2.454   3.723  15.485 -0.9009  1.0019  0.0302
  179MPD1    C1 2724   2.402   3.617  15.427 -0.5688 -0.6955  0.3242
  179MPD1    C2 2725   2.431   3.493  15.488 -0.1787  0.5132 -0.2151
  179MPD1    C3 2726   2.528   3.481  15.589 -0.6099  0.5417 -0.0446
  179MPD1    C4 2727   2.580   3.595  15.646 -0.7513  0.4095 -0.0061
  179MPD1    C5 2728   2.544   3.714  15.588 -0.4272 -0.2363 -1.1626
  179MPD1     H 2729   2.375   3.413  15.441 -0.9392  0.7618  0.2665
  179MPD1    H1 2730   2.666   3.601  15.712 -0.9188 -0.1454  0.2614
  179MPD1    H2 2731   2.429   3.819  15.441 -2.2567  1.3145  1.4689
  179MPD1    H3 2732   2.580   3.809  15.626  1.1265 -2.3385  2.6115
  179MPD1     N 2733   2.587   3.364  15.643 -0.1466 -0.2912 -0.7852
  179MPD1    H5 2734   2.643   3.375  15.728 -0.3333  2.9052 -1.0665
  179MPD1    N1 2735   2.301   3.636  15.335  0.2372  0.2996  0.2497
  179MPD1    H6 2736   2.303   3.559  15.268  3.3828  1.8692 -1.4691
  179MPD1    H7 2737   2.277   3.724  15.290  1.2754  1.6565  2.3441
  180MPD1     C 2738   2.377   4.670  15.094 -0.1744 -0.0975  0.4944
  180MPD1    C1 2739   2.494   4.655  15.019 -0.4393 -0.1368 -0.0361
  180MPD1    C2 2740   2.483   4.605  14.889  0.2812 -0.2227  0.2740
  180MPD1    C3 2741   2.360   4.550  14.847  0.4128 -0.0229 -0.7049
  180MPD1    C4 2742   2.254   4.557  14.935 -0.9166  0.3498  0.2249
  180MPD1    C5 2743   2.259   4.623  15.048 -0.3229 -0.0928 -0.4015
  180MPD1     H 2744   2.567   4.583  14.825 -1.2721  1.7445 -2.4220
  180MPD1    H1 2745   2.165   4.512  14.894 -0.3834 -0.8393  0.3726
  180MPD1    H2 2746   2.363   4.714  15.192 -2.0054 -2.5463  1.3252
  180MPD1    H3 2747   2.168   4.639  15.105 -0.1136 -3.1599  0.7904
  180MPD1     N 2748   2.366   4.489  14.719 -0.5245 -0.2023 -0.0539
  180MPD1    H5 2749   2.453   4.500  14.669 -0.8093  2.8795  0.1026
  180MPD1    N1 2750   2.616   4.715  15.056 -0.3434 -0.3310  0.1080
  180MPD1    H6 2751   2.625   0.006  15.157  0.3795  1.7036 -0.2700
  180MPD1    H7 2752   2.703   4.669  15.030 -1.2423 -1.6959 -0.4886
  181MPD1     C 2753   3.581   1.507   9.683 -0.6803 -0.9473  0.4730
  181MPD1    C1 2754   3.645   1.607   9.606  0.1366 -0.5143 -0.1799
  181MPD1    C2 2755   3.783   1.591   9.578  0.3993 -0.0023 -0.3057
  181MPD1    C3 2756   3.851   1.492   9.654  0.3646 -0.4808  0.0804
  181MPD1    C4 2757   3.784   1.409   9.737  0.0497 -0.1398 -0.2768
  181MPD1    C5 2758   3.652   1.416   9.751 -0.2011  0.3474 -0.0720
  181MPD1     H 2759   3.837   1.648   9.503 -0.3044  2.0228  0.7307
  181MPD1    H1 2760   3.838   1.335   9.796 -1.2628 -0.4660  0.5177
  181MPD1    H2 2761   3.475   1.486   9.674 -0.9534  0.8353 -0.5095
  181MPD1    H3 2762   3.606   1.340   9.814  0.7867  1.1777  1.6664
  181MPD1     N 2763   3.991   1.463   9.634  0.4851  0.2287 -0.0985
  181MPD1    H5 2764   4.026   1.382   9.685  1.9979  1.9073  1.4878
  181MPD1    N1 2765   3.561   1.692   9.528  0.8086 -0.2959  0.4539
  181MPD1    H6 2766   3.477   1.705   9.584  2.0161 -0.5857  2.3306
  181MPD1    H7 2767   3.606   1.778   9.497  0.3139  0.2886  1.3610
  182MPD1     C 2768   0.661   0.873   1.608 -0.0405 -0.4276  0.1422
  182MPD1    C1 2769   0.680   0.754   1.548  0.2212  0.6084  0.2825
  182MPD1    C2 2770   0.593   0.709   1.453  0.1260  0.1878 -0.1700
  182MPD1    C3 2771   0.484   0.787   1.414  0.2762 -0.1348 -0.3380
  182MPD1    C4 2772   0.477   0.912   1.461  0.7655  1.0977  1.2509
  182MPD1    C5 2773   0.567   0.958   1.553 -0.8534 -0.1305 -0.2868
  182MPD1     H 2774   0.609   0.614   1.404 -0.3950  0.6360 -1.2190
  182MPD1    H1 2775   0.400   0.982   1.431  0.7369  1.0041  1.1036
  182MPD1    H2 2776   0.720   0.910   1.690 -0.6483 -2.0553  1.3197
  182MPD1    H3 2777   0.556   1.057   1.595 -1.7205 -0.6064  0.5742
  182MPD1     N 2778   0.381   0.749   1.327  0.6046 -0.0740 -0.0386
  182MPD1    H5 2779   0.310   0.820   1.314  1.4811  0.7062 -0.6223
  182MPD1    N1 2780   0.771   0.662   1.595  0.4942 -0.1436  0.3966
  182MPD1    H6 2781   0.842   0.700   1.657  1.0475 -0.3624 -0.1075
  182MPD1    H7 2782   0.813   0.590   1.536 -1.4705 -0.3501 -0.7467
  183MPD1     C 2783   4.516   2.274   9.902  0.0873  0.0333 -0.8712
  183MPD1    C1 2784   4.538   2.347  10.016  0.1146 -0.5481 -0.7401
  183MPD1    C2 2785   4.669   2.381  10.048  0.3759 -0.4637 -0.0473
  183MPD1    C3 2786   0.057   2.324   9.991  0.7642 -0.0196 -0.2802
  183MPD1    C4 2787   0.032   2.239   9.880  0.3190  0.6423  0.1580
  183MPD1    C5 2788   4.626   2.214   9.844  0.2372  0.1672 -0.2291
  183MPD1     H 2789   4.681   2.442  10.138  1.3798 -1.9133  0.8006
  183MPD1    H1 2790   0.108   2.192   9.819  0.7805  0.2878  1.0095
  183MPD1    H2 2791   4.418   2.252   9.863 -0.0775  1.2101 -1.1333
  183MPD1    H3 2792   4.608   2.155   9.755  0.9820  0.3202 -0.4827
  183MPD1     N 2793   0.180   2.375  10.037  0.8517 -0.4148 -0.0504
  183MPD1    H5 2794   0.181   2.441  10.114 -1.9364 -0.9443  0.4427
  183MPD1    N1 2795   4.430   2.420  10.071  0.3313  0.6672 -0.3173
  183MPD1    H6 2796   4.340   2.372  10.065  0.8560 -0.2852 -0.6834
  183MPD1    H7 2797   4.454   2.430  10.169 -2.5902 -1.7817  0.6641
  184MPD1     C 2798   4.402   3.283  10.204 -0.5128  0.4168 -0.0614
  184MPD1    C1 2799   4.448   3.384  10.118  0.7184 -0.7002  0.2441
  184MPD1    C2 2800   4.382   3.502  10.107 -0.3283 -0.4277 -0.5570
  184MPD1    C3 2801   4.264   3.522  10.183  0.8436 -0.4987 -0.2260
  184MPD1    C4 2802   4.208   3.418  10.249  0.0370 -0.0672 -0.5944
  184MPD1    C5 2803   4.281   3.299  10.271  0.0623  0.2597  0.0382
  184MPD1     H 2804   4.426   3.570  10.035 -1.3115 -1.1511 -1.8192
  184MPD1    H1 2805   4.115   3.426  10.305  0.2640  0.1869 -0.2528
  184MPD1    H2 2806   4.467   3.200  10.228 -0.8910  0.0778 -0.2266
  184MPD1    H3 2807   4.248   3.224  10.342 -0.4181 -0.4776 -0.9668
  184MPD1     N 2808   4.190   3.640  10.187 -0.7461  0.5316 -0.3923
  184MPD1    H5 2809   4.103   3.640  10.239 -1.2530 -1.1825 -1.2334
  184MPD1    N1 2810   4.576   3.368  10.064 -0.2403 -0.8017 -0.0437
  184MPD1    H6 2811   4.612   3.273  10.057  0.4897 -0.5317  0.0393
  184MPD1    H7 2812   4.577   3.411   9.972  0.9583 -3.0313 -1.0676
  185MPD1     C 2813   3.370   4.148  10.026  0.2168 -0.3778 -0.3200
  185MPD1    C1 2814   3.448   4.075   9.938 -0.5247 -0.8808  0.1806
  185MPD1    C2 2815   3.573   4.047   9.981  0.5651 -0.0272 -0.0949
  185MPD1    C3 2816   3.629   4.093  10.101  0.6559  0.9468 -0.2999
  185MPD1    C4 2817   3.549   4.173  10.176  0.0770 -0.1411  0.0874
  185MPD1    C5 2818   3.417   4.193  10.139  0.4803 -0.2936 -0.0217
  185MPD1     H 2819   3.643   4.001   9.912 -0.0451 -1.4347  0.2222
  185MPD1    H1 2820   3.579   4.214  10.271  0.7042 -0.7334  0.1421
  185MPD1    H2 2821   3.265   4.162  10.001 -0.1357  0.5419  1.7292
  185MPD1    H3 2822   3.359   4.246  10.214 -0.6420 -1.1792 -0.2615
  185MPD1     N 2823   3.761   4.070  10.148 -1.0637 -0.8803  0.7680
  185MPD1    H5 2824   3.786   4.118  10.234  0.4326  1.2931 -0.8805
  185MPD1    N1 2825   3.395   4.013   9.818 -0.4553  0.5814 -0.3097
  185MPD1    H6 2826   3.323   4.073   9.778 -0.6359  0.4682 -0.1564
  185MPD1    H7 2827   3.467   4.009   9.746  0.1764  1.0153  0.2946
  186MPD1     C 2828   3.234   3.200  15.927  0.5193 -0.2584  0.4309
  186MPD1    C1 2829   3.356   3.256  15.908 -0.3041  0.1803  0.9110
  186MPD1    C2 2830   3.396   3.354  15.998 -0.0975  0.2611  0.0859
  186MPD1    C3 2831   3.319   3.396  16.107 -0.4548  0.5401 -0.2981
  186MPD1    C4 2832   3.193   3.340  16.119  0.7374  0.3322  0.0909
  186MPD1    C5 2833   3.154   3.241  16.033 -0.1893 -0.2885  0.3660
  186MPD1     H 2834   3.501   3.380  15.989 -0.7160  3.7362  2.6342
  186MPD1    H1 2835   3.117   3.376  16.187  0.4505 -0.1788  0.0344
  186MPD1    H2 2836   3.201   3.120  15.862 -2.5323  1.3128  0.0332
  186MPD1    H3 2837   3.058   3.192  16.041 -0.8089  0.8273 -0.4307
  186MPD1     N 2838   3.355   3.489  16.205 -0.1030  0.1182  0.0140
  186MPD1    H5 2839   3.286   3.530  16.266 -0.2631 -0.3745  0.1698
  186MPD1    N1 2840   3.436   3.216  15.799  0.6094 -0.3884  0.6520
  186MPD1    H6 2841   3.466   3.298  15.747  1.1956 -0.3130  1.1053
  186MPD1    H7 2842   3.396   3.145  15.738 -1.0100  0.6299  0.5256
  187MPD1     C 2843   2.474   0.571   0.882  1.0104  0.4566  0.3722
  187MPD1    C1 2844   2.583   0.634   0.833  0.0478  1.2658  0.8679
  187MPD1    C2 2845   2.573   0.707   0.717 -0.5840  0.2820 -0.5408
  187MPD1    C3 2846   2.454   0.719   0.655 -0.0990 -0.2245  0.7401
  187MPD1    C4 2847   2.348   0.649   0.703 -0.5997 -0.0759  0.9301
  187MPD1    C5 2848   2.362   0.562   0.810  0.3566 -0.4836 -0.2420
  187MPD1     H 2849   2.660   0.756   0.677  0.5161 -1.0046  0.2670
  187MPD1    H1 2850   2.256   0.671   0.649 -2.1064 -2.5932  2.4770
  187MPD1    H2 2851   2.486   0.512   0.972 -1.1860 -0.4535  0.0850
  187MPD1    H3 2852   2.283   0.496   0.844  1.2930 -0.8325  1.2608
  187MPD1     N 2853   2.427   0.809   0.546  0.4856  0.6377 -0.2623
  187MPD1    H5 2854   2.338   0.805   0.498 -0.0627 -1.6589  0.9760
  187MPD1    N1 2855   2.707   0.624   0.894 -0.1373  0.5241  0.2225
  187MPD1    H6 2856   2.769   0.705   0.885  2.0939 -0.9886  1.8159
  187MPD1    H7 2857   2.705   0.586   0.989  2.0011 -1.1894 -0.4114
  188MPD1     C 2858   1.827   1.050  10.180 -0.0288  0.4147  0.3750
  188MPD1    C1 2859   1.956   1.011  10.202  0.0577  0.0800 -0.0864
  188MPD1    C2 2860   1.987   0.877  10.215  0.8021  1.2826  1.4502
  188MPD1    C3 2861   1.900   0.777  10.185 -0.4904  0.4404  0.1973
  188MPD1    C4 2862   1.778   0.815  10.145  0.8547  0.9628 -0.5952
  188MPD1    C5 2863   1.740   0.947  10.154  0.3002 -0.6729  0.3376
  188MPD1     H 2864   2.090   0.852  10.239  0.6615 -1.6153 -0.9590
  188MPD1    H1 2865   1.696   0.745  10.134  0.9676  1.0079 -1.7170
  188MPD1    H2 2866   1.795   1.152  10.160 -2.2274 -0.1490  0.9291
  188MPD1    H3 2867   1.636   0.967  10.128  0.4869  1.7472  1.5051
  188MPD1     N 2868   1.932   0.642  10.184  0.0213 -0.3832 -0.3283
  188MPD1    H5 2869   1.851   0.581  10.178 -0.5155  0.3731 -0.6157
  188MPD1    N1 2870   2.050   1.114  10.224  0.2186 -0.8303  0.0448
  188MPD1    H6 2871   2.143   1.082  10.195 -0.4533 -2.4023 -0.4064
  188MPD1    H7 2872   2.027   1.197  10.170 -1.6508 -0.9458  0.6644
  189MPD1     C 2873   4.479   1.489   1.128 -0.2543  0.2814 -0.8157
  189MPD1    C1 2874   4.382   1.416   1.203  0.1008  0.3089  0.5320
  189MPD1    C2 2875   4.251   1.425   1.156 -0.6068  0.4777 -0.4675
  189MPD1    C3 2876   4.210   1.512   1.051 -0.2825 -0.0771 -0.7906
  189MPD1    C4 2877   4.309   1.560   0.974 -0.0127  0.8184 -0.0017
  189MPD1    C5 2878   4.437   1.562   1.026 -0.8308  0.1442 -0.0816
  189MPD1     H 2879   4.168   1.376   1.204  0.2543 -0.3303  0.1917
  189MPD1    H1 2880   4.298   1.622   0.886 -0.4983 -0.4408 -0.8273
  189MPD1    H2 2881   4.586   1.497   1.142 -0.2277  0.0141 -0.8688
  189MPD1    H3 2882   4.518   1.616   0.978  0.2466  0.2111  1.7973
  189MPD1     N 2883   4.075   1.521   1.000 -0.3827  0.2971  0.2246
  189MPD1    H5 2884   4.007   1.477   1.061  0.6791  0.9712  1.8710
  189MPD1    N1 2885   4.422   1.332   1.307 -0.0448  0.3387 -0.3728
  189MPD1    H6 2886   4.349   1.300   1.371  1.6523  0.3807  1.6098
  189MPD1    H7 2887   4.508   1.352   1.359  0.1696 -2.7461  0.4765
  190MPD1     C 2888   2.415   4.656  15.594 -0.1919 -0.9562  0.0669
  190MPD1    C1 2889   2.443   4.636  15.728  0.5889 -0.3396  0.1122
  190MPD1    C2 2890   2.571   4.595  15.766  0.3551 -0.2697 -0.7335
  190MPD1    C3 2891   2.675   4.584  15.666 -0.1342 -0.2029 -0.0900
  190MPD1    C4 2892   2.644   4.614  15.538 -0.2602  0.1632 -0.0604
  190MPD1    C5 2893   2.513   4.650  15.502 -0.0494  0.3207 -0.0474
  190MPD1     H 2894   2.595   4.570  15.869  0.3145  3.2816  0.1522
  190MPD1    H1 2895   2.713   4.599  15.456 -0.1125  0.3805  0.0246
  190MPD1    H2 2896   2.316   4.682  15.558 -0.3654  0.4643  1.5906
  190MPD1    H3 2897   2.490   4.662  15.396 -0.4895  1.9429  0.2295
  190MPD1     N 2898   2.801   4.542  15.716 -0.1196  0.2669  0.8372
  190MPD1    H5 2899   2.817   4.509  15.811 -1.5642  1.3098  1.4312
  190MPD1    N1 2900   2.344   4.656  15.822  0.3749 -0.0009 -0.2518
  190MPD1    H6 2901   2.381   4.662  15.917 -0.5835  2.2564 -0.0181
  190MPD1    H7 2902   2.307   0.024  15.797 -0.5581 -1.0626 -2.7193
  191MPD1     C 2903   1.799   1.656  11.821  0.3137  0.1929 -0.3557
  191MPD1    C1 2904   1.867   1.574  11.905 -0.3602 -0.0861  0.7724
  191MPD1    C2 2905   1.941   1.629  12.009  0.0644  0.5058 -0.1730
  191MPD1    C3 2906   1.940   1.764  12.025  0.3842  0.5222  0.2061
  191MPD1    C4 2907   1.865   1.847  11.949  0.0619  0.2707  0.6427
  191MPD1    C5 2908   1.795   1.793  11.842 -0.3614 -0.0930 -0.8912
  191MPD1     H 2909   1.993   1.564  12.079 -0.4997  0.3530  0.1080
  191MPD1    H1 2910   1.849   1.954  11.956  0.4514  0.5455 -2.6217
  191MPD1    H2 2911   1.733   1.622  11.742 -1.8265  1.7242  0.7618
  191MPD1    H3 2912   1.733   1.860  11.785 -0.7327  0.8557  0.6450
  191MPD1     N 2913   2.014   1.811  12.126  0.1564  0.2529 -0.0223
  191MPD1    H5 2914   2.062   1.736  12.173 -0.9768 -0.2529  0.3290
  191MPD1    N1 2915   1.849   1.435  11.888  0.6001 -0.4665  0.7944
  191MPD1    H6 2916   1.931   1.394  11.933  1.8919  0.9304 -0.3032
  191MPD1    H7 2917   1.850   1.412  11.789  1.1138  1.0862  0.4434
  192MPD1     C 2918   2.500   1.647  12.977 -0.1054 -0.6158 -0.8076
  192MPD1    C1 2919   2.375   1.627  12.923  0.0931  0.0329  0.3374
  192MPD1    C2 2920   2.345   1.699  12.806  0.2589  0.3918 -0.1702
  192MPD1    C3 2921   2.441   1.776  12.738  0.4287 -0.8545  0.4780
  192MPD1    C4 2922   2.565   1.779  12.783 -0.1101 -0.0692 -0.7987
  192MPD1    C5 2923   2.596   1.719  12.898 -0.2253 -0.0816 -0.3929
  192MPD1     H 2924   2.243   1.700  12.769 -0.2892 -1.1884  1.2930
  192MPD1    H1 2925   2.645   1.840  12.742  1.2679 -0.3552  1.4668
  192MPD1    H2 2926   2.529   1.603  13.071  0.4083  0.3920 -0.4922
  192MPD1    H3 2927   2.694   1.747  12.936 -1.4353  1.8250  1.3519
  192MPD1     N 2928   2.420   1.847  12.617 -0.0702  0.0472 -0.0138
  192MPD1    H5 2929   2.503   1.867  12.563  1.4967  0.9076  2.7001
  192MPD1    N1 2930   2.277   1.569  13.008  0.3670 -0.6592  0.4857
  192MPD1    H6 2931   2.319   1.498  13.068  1.3708 -1.2252 -0.8897
  192MPD1    H7 2932   2.206   1.519  12.954  3.5748 -0.8763 -3.5202
  193MPD1     C 2933   1.564   2.265  17.187  0.3510  0.5182 -0.8309
  193MPD1    C1 2934   1.688   2.228  17.239  0.0999  0.1450 -0.3483
  193MPD1    C2 2935   1.770   2.324  17.291 -0.4655 -0.5283 -0.5005
  193MPD1    C3 2936   1.730   2.457  17.292  0.1588  0.4454 -0.3445
  193MPD1    C4 2937   1.605   2.489  17.257  1.0052  0.0184 -0.3915
  193MPD1    C5 2938   1.518   2.392  17.206 -0.0871 -0.2092  0.2802
  193MPD1     H 2939   1.858   2.294  17.347 -0.6597 -1.7877 -0.8851
  193MPD1    H1 2940   1.584   2.595  17.257 -0.4892 -0.2732  1.0225
  193MPD1    H2 2941   1.486   2.195  17.160  1.8078 -0.9368 -1.2825
  193MPD1    H3 2942   1.416   2.420  17.183 -0.0351 -0.9974 -0.8868
  193MPD1     N 2943   1.820   2.556  17.335  0.5460  0.1814  0.3207
  193MPD1    H5 2944   1.783   2.649  17.353  1.9260  0.5636  1.2054
  193MPD1    N1 2945   1.746   2.104  17.199 -0.0617  0.8480  0.2640
  193MPD1    H6 2946   1.680   2.028  17.188  1.0340 -0.1555  0.6700
  193MPD1    H7 2947   1.818   2.072  17.262 -0.7109  1.6694  1.4258
  194MPD1     C 2948   0.591   0.398  17.111  0.6447 -0.3510 -0.1660
  194MPD1    C1 2949   0.668   0.293  17.074  0.3289  0.5217  0.2713
  194MPD1    C2 2950   0.635   0.161  17.108 -0.1712 -0.0079  0.8111
  194MPD1    C3 2951   0.519   0.136  17.179  0.3155 -0.1598  0.7829
  194MPD1    C4 2952   0.454   0.246  17.233 -0.1589 -0.2583 -0.2739
  194MPD1    C5 2953   0.492   0.377  17.201  0.1797 -0.5230  0.2443
  194MPD1     H 2954   0.691   0.078  17.066  1.8976  0.3901  2.8001
  194MPD1    H1 2955   0.369   0.243  17.300  1.0314 -3.0205  1.1074
  194MPD1    H2 2956   0.620   0.501  17.094  1.9530 -0.4882  1.2021
  194MPD1    H3 2957   0.436   0.459  17.244 -0.9792 -1.9984  1.5092
  194MPD1     N 2958   0.489   0.004  17.225  0.3847 -0.0528  0.1964
  194MPD1    H5 2959   0.405   4.710  17.280  1.4752 -1.4654  1.4084
  194MPD1    N1 2960   0.776   0.322  16.987  0.5298 -0.1663 -0.2819
  194MPD1    H6 2961   0.812   0.415  17.007 -0.0621  0.6707 -3.0024
  194MPD1    H7 2962   0.853   0.256  16.997 -0.9544 -1.9096 -0.2416
  195MPD1     C 2963   2.106   1.162   0.379  0.0832 -0.3903  0.8016
  195MPD1    C1 2964   1.988   1.123   0.326 -0.1653  0.4112  0.2744
  195MPD1    C2 2965   1.885   1.109   0.409  0.5093  0.4674 -0.3740
  195MPD1    C3 2966   1.899   1.107   0.545  0.9881 -0.7954 -0.0732
  195MPD1    C4 2967   2.028   1.139   0.599 -0.3142 -0.4797  0.1559
  195MPD1    C5 2968   2.130   1.175   0.515 -0.5599 -0.3133  0.0367
  195MPD1     H 2969   1.789   1.095   0.361  0.8385 -2.7878 -0.0326
  195MPD1    H1 2970   2.048   1.144   0.705  1.9628 -1.1647 -0.2407
  195MPD1    H2 2971   2.195   1.167   0.317 -0.4486 -1.1681 -0.0012
  195MPD1    H3 2972   2.226   1.209   0.553 -1.7054  1.4230  1.3849
  195MPD1     N 2973   1.797   1.090   0.636 -0.1252 -0.0739 -0.2180
  195MPD1    H5 2974   1.821   1.108   0.733 -3.9145  0.2752  0.6634
  195MPD1    N1 2975   1.966   1.135   0.187  0.1136  0.1272  0.1230
  195MPD1    H6 2976   2.051   1.115   0.134  2.1806  2.2480  2.6813
  195MPD1    H7 2977   1.896   1.072   0.148  0.3627 -1.4670  2.2502
  196MPD1     C 2978   0.542   4.509   0.252 -0.3302 -0.2060 -0.4084
  196MPD1    C1 2979   0.573   4.472   0.381 -0.0015 -0.2032 -0.1241
  196MPD1    C2 2980   0.623   4.566   0.469 -0.2859  0.3068 -0.6308
  196MPD1    C3 2981   0.644   4.695   0.431  0.4084  0.0651 -0.8359
  196MPD1    C4 2982   0.616   0.000   0.297 -0.0842  0.3530  0.5598
  196MPD1    C5 2983   0.559   4.634   0.211  0.3738 -0.1746  0.2978
  196MPD1     H 2984   0.664   4.531   0.563  1.2776 -0.8935 -1.7508
  196MPD1    H1 2985   0.647   0.093   0.250  0.1845 -0.2081 -0.3585
  196MPD1    H2 2986   0.508   4.444   0.173 -0.8314 -1.4094  0.7924
  196MPD1    H3 2987   0.550   4.665   0.108 -0.1352  1.2959  0.7782
  196MPD1     N 2988   0.707   0.083   0.498 -0.6135 -0.2471 -0.0475
  196MPD1    H5 2989   0.705   0.174   0.453 -2.2253 -0.9924 -1.4733
  196MPD1    N1 2990   0.582   4.335   0.408  0.1269  0.6964  0.2585
  196MPD1    H6 2991   0.524   4.275   0.349 -0.1792  1.1070  0.1456
  196MPD1    H7 2992   0.557   4.307   0.502 -3.5635  1.3651 -0.5107
  197MPD1     C 2993   0.451   2.333  17.473 -1.2151 -0.0382  0.0262
  197MPD1    C1 2994   0.425   2.438  17.398  0.2556  0.2153  0.4486
  197MPD1    C2 2995   0.483   2.563  17.424 -0.1784 -0.2910 -0.2749
  197MPD1    C3 2996   0.596   2.559  17.505  0.5120 -0.1590 -0.0389
  197MPD1    C4 2997   0.642   2.444  17.569 -0.1147 -0.1432 -0.3306
  197MPD1    C5 2998   0.554   2.341  17.565  0.7581  0.1479  0.2463
  197MPD1     H 2999   0.453   2.651  17.369 -0.8181 -1.0655 -1.1650
  197MPD1    H1 3000   0.732   2.449  17.630 -0.4161 -0.4892  0.1474
  197MPD1    H2 3001   0.405   2.235  17.464 -1.7752  0.2681 -0.4315
  197MPD1    H3 3002   0.580   2.250  17.617 -0.0592 -0.2308 -0.0100
  197MPD1     N 3003   0.690   2.666  17.514  0.2176  0.9302  0.9914
  197MPD1    H5 3004   0.778   2.646  17.562 -0.6636  1.0162  2.6278
  197MPD1    N1 3005   0.312   2.431  17.310  0.0827 -0.2368 -0.4001
  197MPD1    H6 3006   0.332   2.487  17.227  1.6309  3.0367  2.1576
  197MPD1    H7 3007   0.236   2.478  17.359  1.5879  1.6626  0.1337
  198MPD1     C 3008   2.448   0.267  15.185  0.0049 -0.4053 -0.3191
  198MPD1    C1 3009   2.530   0.361  15.120 -0.4902  0.0060 -0.1387
  198MPD1    C2 3010   2.633   0.407  15.195  0.1477 -0.3038 -0.8905
  198MPD1    C3 3011   2.665   0.377  15.330 -0.2620  0.1405 -0.2870
  198MPD1    C4 3012   2.580   0.291  15.390 -0.1867  0.2024 -0.6236
  198MPD1    C5 3013   2.477   0.234  15.316  0.4176 -0.0886  0.0800
  198MPD1     H 3014   2.687   0.482  15.139  1.0475 -1.2427 -1.2834
  198MPD1    H1 3015   2.592   0.263  15.494 -3.1668  1.1510 -0.0217
  198MPD1    H2 3016   2.357   0.227  15.142 -0.7691  1.4631 -0.4420
  198MPD1    H3 3017   2.415   0.166  15.372  0.1088  0.1486  0.0244
  198MPD1     N 3018   2.770   0.444  15.392  0.6269  0.0358  0.2041
  198MPD1    H5 3019   2.815   0.515  15.335  0.8724 -0.9444 -0.8157
  198MPD1    N1 3020   2.511   0.393  14.988 -0.8011  0.8362 -0.1175
  198MPD1    H6 3021   2.551   0.482  14.962 -2.2042  1.5027  0.0135
  198MPD1    H7 3022   2.412   0.393  14.966 -1.0130 -0.1891  0.8189
  199MPD1     C 3023   0.850   2.490   9.961  0.0966  0.5152 -0.0365
  199MPD1    C1 3024   0.765   2.607   9.950  0.2741  0.0581 -0.3163
  199MPD1    C2 3025   0.668   2.594   9.854 -0.7622 -0.8030 -0.0570
  199MPD1    C3 3026   0.639   2.469   9.798  0.6317  0.7870  0.3986
  199MPD1    C4 3027   0.724   2.360   9.809  0.5972  0.4683 -1.0255
  199MPD1    C5 3028   0.821   2.366   9.902 -0.3089  0.0450 -0.7496
  199MPD1     H 3029   0.604   2.678   9.830 -2.3737 -1.4852  1.8854
  199MPD1    H1 3030   0.695   2.263   9.769  1.0804 -0.1740  0.1676
  199MPD1    H2 3031   0.946   2.496  10.011  0.6006 -2.8710 -0.6424
  199MPD1    H3 3032   0.880   2.278   9.922  1.0653  0.7351 -1.7370
  199MPD1     N 3033   0.518   2.449   9.721  0.3392 -0.3104 -0.8380
  199MPD1    H5 3034   0.520   2.368   9.661 -1.0462 -1.6669  0.9448
  199MPD1    N1 3035   0.795   2.728  10.015 -0.0909  0.3092 -0.6257
  199MPD1    H6 3036   0.712   2.786  10.003 -0.2029 -0.0639 -1.7461
  199MPD1    H7 3037   0.814   2.707  10.112 -0.6568  2.1785 -0.1148
  200MPD1     C 3038   3.684   1.667  15.472  0.5928 -0.3242  0.0656
  200MPD1    C1 3039   3.638   1.654  15.342 -0.0219  0.4346  0.0821
  200MPD1    C2 3040   3.716   1.707  15.234  0.0731  0.4480  0.8072
  200MPD1    C3 3041   3.846   1.754  15.264  0.1331 -0.7784 -0.4134
  200MPD1    C4 3042   3.895   1.760  15.390 -0.8487 -0.6684  0.4350
  200MPD1    C5 3043   3.819   1.713  15.491  0.3006  0.1119 -0.1575
  200MPD1     H 3044   3.680   1.705  15.132 -1.2994  3.5038  1.2331
  200MPD1    H1 3045   3.990   1.807  15.412 -1.2828  0.2492  0.3463
  200MPD1    H2 3046   3.628   1.633  15.558  1.1257 -2.0352 -0.2617
  200MPD1    H3 3047   3.865   1.733  15.587 -0.5409  1.5620 -0.0552
  200MPD1     N 3048   3.913   1.808  15.161  0.3802  0.2650  0.5594
  200MPD1    H5 3049   3.863   1.816  15.073 -0.5400 -2.5666  0.8428
  200MPD1    N1 3050   3.505   1.609  15.311  0.2593  0.4216 -0.0317
  200MPD1    H6 3051   3.506   1.571  15.217  1.1879 -0.1538  0.2128
  200MPD1    H7 3052   3.481   1.533  15.374  1.6139  0.4978  0.5784
  201MPD1     C 3053   1.429   1.695  13.183  0.3380 -0.0337 -0.0763
  201MPD1    C1 3054   1.360   1.583  13.215  0.3942  0.4129 -0.1360
  201MPD1    C2 3055   1.424   1.461  13.209  0.7735 -0.4774  0.0468
  201MPD1    C3 3056   1.552   1.456  13.163  1.2504  0.4573 -0.0075
  201MPD1    C4 3057   1.625   1.568  13.133  0.1642 -1.0914 -0.3196
  201MPD1    C5 3058   1.562   1.687  13.151  0.6661 -0.3029 -0.2282
  201MPD1     H 3059   1.372   1.368  13.226 -0.0961  0.0629  0.3499
  201MPD1    H1 3060   1.731   1.571  13.112  0.0949  0.7427 -0.4490
  201MPD1    H2 3061   1.381   1.792  13.183  0.0926 -0.1664  1.1211
  201MPD1    H3 3062   1.621   1.777  13.136  0.8754 -0.4510 -0.2872
  201MPD1     N 3063   1.604   1.327  13.137 -0.0722 -0.4495  0.2747
  201MPD1    H5 3064   1.542   1.250  13.165 -0.8671  0.0682 -0.0614
  201MPD1    N1 3065   1.217   1.584  13.235  0.7304 -0.1815  1.3133
  201MPD1    H6 3066   1.189   1.664  13.292  0.2688  0.5030  0.1191
  201MPD1    H7 3067   1.178   1.501  13.279 -2.2039  0.7441  0.4856
  202MPD1     C 3068   0.080   1.511  10.004 -0.2083 -0.0829  0.4646
  202MPD1    C1 3069   0.160   1.449   9.916 -0.3857  0.0196 -0.1453
  202MPD1    C2 3070   0.287   1.423   9.967  0.2981 -0.1645  0.1685
  202MPD1    C3 3071   0.343   1.503  10.057  0.4388  0.0180  0.7010
  202MPD1    C4 3072   0.267   1.593  10.129  0.3819 -0.7841  0.4303
  202MPD1    C5 3073   0.132   1.581  10.112 -0.1877  0.1322  0.2553
  202MPD1     H 3074   0.354   1.352   9.920  0.4239  0.6020 -0.8006
  202MPD1    H1 3075   0.313   1.658  10.203 -2.9960  0.0878  1.7744
  202MPD1    H2 3076   4.697   1.520   9.987 -0.3097 -0.6398  0.7800
  202MPD1    H3 3077   0.067   1.648  10.168 -0.6254  0.8044 -1.0763
  202MPD1     N 3078   0.479   1.507  10.097  0.5606  0.1487 -0.2336
  202MPD1    H5 3079   0.517   1.578  10.159 -0.9631  0.7035  0.0620
  202MPD1    N1 3080   0.093   1.361   9.832 -0.0766  0.2872  0.1049
  202MPD1    H6 3081   0.026   1.423   9.787 -1.4729  1.4282  3.7720
  202MPD1    H7 3082   0.152   1.339   9.751 -0.5737 -0.3665 -0.0799
  203MPD1     C 3083   0.443   2.174  13.074 -0.0118  0.0419 -0.2906
  203MPD1    C1 3084   0.404   2.119  12.954  0.8210  0.4970 -0.1360
  203MPD1    C2 3085   0.366   1.986  12.954 -0.0194  0.0283 -0.0500
  203MPD1    C3 3086   0.358   1.908  13.068  0.0994  0.0502 -0.5589
  203MPD1    C4 3087   0.404   1.962  13.178  0.4625  0.0373 -0.2380
  203MPD1    C5 3088   0.445   2.093  13.187  0.8900  0.2555 -0.6660
  203MPD1     H 3089   0.344   1.938  12.860 -2.0217 -0.2138  0.5369
  203MPD1    H1 3090   0.395   1.910  13.273  2.0928 -3.0634 -1.7976
  203MPD1    H2 3091   0.475   2.277  13.075 -0.5751  0.2089  0.1352
  203MPD1    H3 3092   0.464   2.135  13.285  2.5871 -2.6862  0.2757
  203MPD1     N 3093   0.308   1.774  13.065 -0.2221  0.3343  0.5590
  203MPD1    H5 3094   0.255   1.747  12.982  1.1413  1.6443 -0.7495
  203MPD1    N1 3095   0.396   2.196  12.836 -0.0963  0.1668  0.1869
  203MPD1    H6 3096   0.480   2.252  12.822  0.0519  0.7260  3.2861
  203MPD1    H7 3097   0.356   2.158  12.750  0.4054 -2.0550  0.9330
  204MPD1     C 3098   4.480   3.223   0.357  0.1569 -0.1997 -0.6590
  204MPD1    C1 3099   4.380   3.128   0.371 -0.0511  0.4066  0.0540
  204MPD1    C2 3100   4.326   3.069   0.255 -0.6605  0.2660 -0.2093
  204MPD1    C3 3101   4.376   3.109   0.134 -0.2472  0.0959  0.5401
  204MPD1    C4 3102   4.470   3.214   0.126 -0.0524 -0.5392  0.0445
  204MPD1    C5 3103   4.521   3.275   0.236  0.2550  0.0123  0.6746
  204MPD1     H 3104   4.257   2.986   0.260 -1.5037  0.8710 -1.6874
  204MPD1    H1 3105   4.488   3.265   0.032 -3.0685 -1.0417 -0.8235
  204MPD1    H2 3106   4.539   3.254   0.443  0.7509 -0.0972 -1.1028
  204MPD1    H3 3107   4.601   3.347   0.231 -0.5225  0.5835 -3.2680
  204MPD1     N 3108   4.320   3.049   0.019  0.2504  0.2032 -0.7460
  204MPD1    H5 3109   4.252   2.975   0.033 -0.8930  1.1037 -1.5928
  204MPD1    N1 3110   4.350   3.070   0.499  0.1193  0.3348 -0.6116
  204MPD1    H6 3111   4.358   3.132   0.579 -2.1969  1.1182 -0.9780
  204MPD1    H7 3112   4.255   3.033   0.499 -0.3583  1.5460  0.2948
  205MPD1     C 3113   4.477   1.963  16.924  0.8477 -0.8740  0.4888
  205MPD1    C1 3114   4.492   1.874  17.035  0.6180  0.1230  0.3558
  205MPD1    C2 3115   4.383   1.876  17.119  0.3464 -0.2311  0.2380
  205MPD1    C3 3116   4.271   1.968  17.095 -0.1962 -0.1034 -0.2881
  205MPD1    C4 3117   4.267   2.042  16.980 -0.3837  0.5333  0.0471
  205MPD1    C5 3118   4.369   2.037  16.892 -0.0998  0.0494  0.2634
  205MPD1     H 3119   4.392   1.822  17.213 -0.2742  2.4183  1.8371
  205MPD1    H1 3120   4.176   2.095  16.954 -0.6853  0.4996  1.0092
  205MPD1    H2 3121   4.550   1.952  16.844 -0.2119 -0.5924 -0.5155
  205MPD1    H3 3122   4.357   2.097  16.803  0.4554  1.8553  1.4019
  205MPD1     N 3123   4.149   1.968  17.169 -0.2145 -0.0952  0.5116
  205MPD1    H5 3124   4.087   2.045  17.145 -0.2623  0.4356  2.3177
  205MPD1    N1 3125   4.592   1.774  17.035 -0.6046  0.5506 -0.1206
  205MPD1    H6 3126   4.683   1.804  17.003 -0.2824 -2.4739 -2.0598
  205MPD1    H7 3127   4.604   1.730  17.126  1.3271 -0.3257 -0.8046
  206MPD1     C 3128   0.111   4.075  16.666 -0.3929 -0.5283 -0.2858
  206MPD1    C1 3129   0.146   3.993  16.564  0.0710  0.4793 -0.2256
  206MPD1    C2 3130   0.116   4.039  16.437  0.1159 -0.1404  0.0716
  206MPD1    C3 3131   0.053   4.157  16.407 -0.3002 -0.3778 -0.7504
  206MPD1    C4 3132   0.019   4.237  16.516 -0.3421 -0.5455 -0.1327
  206MPD1    C5 3133   0.060   4.198  16.641 -0.5085  0.6139 -0.5030
  206MPD1     H 3134   0.133   3.971  16.354  0.3826  0.5833 -0.4743
  206MPD1    H1 3135   4.680   4.324  16.523  2.1100  1.3711 -2.0608
  206MPD1    H2 3136   0.128   4.042  16.768  1.2870 -1.4677 -0.8745
  206MPD1    H3 3137   0.038   4.253  16.732  1.3970 -1.9059  1.5135
  206MPD1     N 3138   0.014   4.198  16.279  0.5337  0.1062  0.0476
  206MPD1    H5 3139   4.679   4.281  16.276 -0.3231 -0.4520  1.0697
  206MPD1    N1 3140   0.227   3.885  16.587 -0.3210 -0.8205  0.2174
  206MPD1    H6 3141   0.198   3.804  16.531  0.4024 -0.3833 -0.7960
  206MPD1    H7 3142   0.219   3.854  16.684 -1.1849 -0.5710  0.2272
  207MPD1     C 3143   1.958   1.942   9.965 -0.7425  0.1187 -0.3925
  207MPD1    C1 3144   1.954   1.815  10.024  0.4495 -0.2662  0.1041
  207MPD1    C2 3145   2.034   1.788  10.133 -0.3574  0.0336 -0.5995
  207MPD1    C3 3146   2.124   1.889  10.179  0.4469 -0.2278 -0.6005
  207MPD1    C4 3147   2.117   2.018  10.128  0.6576 -0.3415  0.5849
  207MPD1    C5 3148   2.044   2.037  10.014 -0.3575  0.0623 -0.2941
  207MPD1     H 3149   2.039   1.685  10.165 -1.1901  0.4528  0.8908
  207MPD1    H1 3150   2.176   2.098  10.172  1.4137 -1.5603  1.8229
  207MPD1    H2 3151   1.896   1.958   9.878  0.5256 -1.8663 -1.6756
  207MPD1    H3 3152   2.035   2.135   9.969 -0.7132  1.1026  2.0443
  207MPD1     N 3153   2.214   1.870  10.287  0.5968  0.5758 -0.7561
  207MPD1    H5 3154   2.269   1.952  10.311 -0.2673  0.7825  0.5328
  207MPD1    N1 3155   1.895   1.714   9.952  0.5675 -0.6719  0.0463
  207MPD1    H6 3156   1.865   1.638  10.012  2.0257 -2.4731 -1.4547
  207MPD1    H7 3157   1.827   1.754   9.887  1.0941 -1.4290 -0.9728
  208MPD1     C 3158   3.655   0.628   0.198 -0.1042 -0.5129  0.0627
  208MPD1    C1 3159   3.680   0.729   0.109 -0.0462 -0.1743  0.1288
  208MPD1    C2 3160   3.774   0.821   0.152  0.2654 -0.0302  0.2453
  208MPD1    C3 3161   3.856   0.803   0.256  0.3370 -0.4185  0.1276
  208MPD1    C4 3162   3.846   0.694   0.343 -0.6567  0.9030  0.9284
  208MPD1    C5 3163   3.739   0.611   0.309  0.4736  0.5562  0.2123
  208MPD1     H 3164   3.790   0.910   0.092 -0.4260 -0.8457 -1.1523
  208MPD1    H1 3165   3.900   0.686   0.436 -0.6845  2.5497  1.0878
  208MPD1    H2 3166   3.574   0.558   0.179  1.3271 -2.2273  0.3209
  208MPD1    H3 3167   3.720   0.533   0.381  3.1829  0.5329  0.9000
  208MPD1     N 3168   3.962   0.900   0.274 -0.1777 -0.0496 -0.8628
  208MPD1    H5 3169   3.959   0.982   0.213  0.5129  0.6969  0.1099
  208MPD1    N1 3170   3.588   0.748   0.008 -0.2649  0.5281 -0.1796
  208MPD1    H6 3171   3.639   0.792  17.629 -0.5217  0.7869 -0.2021
  208MPD1    H7 3172   3.547   0.658  17.676  0.4968  0.3928 -0.8577
  209MPD1     C 3173   2.083   0.578  11.462  0.4111  0.2333 -0.3892
  209MPD1    C1 3174   2.055   0.685  11.380 -0.2712 -0.6872  0.1750
  209MPD1    C2 3175   2.122   0.800  11.397 -0.9771  0.1495 -0.1958
  209MPD1    C3 3176   2.221   0.814  11.486 -0.4586  0.1616  0.4865
  209MPD1    C4 3177   2.245   0.714  11.581 -0.0887 -1.0205 -0.3504
  209MPD1    C5 3178   2.166   0.598  11.572  0.0845  0.1340 -0.4229
  209MPD1     H 3179   2.108   0.878  11.323  0.2603  0.8478  0.3153
  209MPD1    H1 3180   2.311   0.718  11.667  0.4595 -1.1521 -0.7694
  209MPD1    H2 3181   2.033   0.483  11.447  0.8403 -0.2855  1.5098
  209MPD1    H3 3182   2.185   0.514  11.638  0.4368  0.3733 -0.2215
  209MPD1     N 3183   2.295   0.928  11.478 -0.9381  0.1396 -0.9244
  209MPD1    H5 3184   2.272   1.000  11.409  0.1723 -1.5024 -3.0112
  209MPD1    N1 3185   1.951   0.676  11.287 -0.1601  0.0633  0.4176
  209MPD1    H6 3186   1.967   0.727  11.200 -0.6421 -0.4132  0.0540
  209MPD1    H7 3187   1.928   0.580  11.262  1.8673 -0.6479  1.2677
  210MPD1     C 3188   2.628   1.830  11.918 -0.6590 -0.3997  0.4799
  210MPD1    C1 3189   2.699   1.718  11.957 -0.3338 -0.6397  0.1340
  210MPD1    C2 3190   2.689   1.610  11.869  0.5380  0.5780  0.5011
  210MPD1    C3 3191   2.616   1.613  11.749  0.4101 -0.5073 -0.2940
  210MPD1    C4 3192   2.562   1.734  11.709  0.4907  0.4436  0.7591
  210MPD1    C5 3193   2.563   1.843  11.796 -1.1217  0.3956  0.0272
  210MPD1     H 3194   2.735   1.516  11.896  1.0125  0.2566 -1.4401
  210MPD1    H1 3195   2.518   1.750  11.611 -0.0460 -0.4737  0.8568
  210MPD1    H2 3196   2.642   1.917  11.982 -1.3974  0.0502  0.0360
  210MPD1    H3 3197   2.528   1.943  11.774 -0.6828  0.3962 -0.6684
  210MPD1     N 3198   2.593   1.502  11.663  0.3230 -0.5807 -0.0969
  210MPD1    H5 3199   2.549   1.526  11.575  0.2282  0.3798  0.2110
  210MPD1    N1 3200   2.764   1.703  12.086  0.3964  0.4308 -0.4155
  210MPD1    H6 3201   2.836   1.631  12.086 -0.8779 -0.8498  0.5866
  210MPD1    H7 3202   2.811   1.788  12.117 -2.6332  1.0385  2.4915
  211MPD1     C 3203   0.361   1.528  17.227 -0.2091 -0.3026  0.7472
  211MPD1    C1 3204   0.345   1.656  17.172  0.8188  0.2132 -0.1535
  211MPD1    C2 3205   0.270   1.651  17.053 -0.6314 -0.2107 -0.1325
  211MPD1    C3 3206   0.203   1.534  17.011 -0.3668 -0.1528 -0.1221
  211MPD1    C4 3207   0.216   1.423  17.089 -0.4303  0.5415  0.5070
  211MPD1    C5 3208   0.305   1.413  17.190 -0.1405 -0.3741 -0.0686
  211MPD1     H 3209   0.254   1.740  16.994  2.7991 -0.6875 -1.7694
  211MPD1    H1 3210   0.176   1.326  17.061  0.0939  0.7068 -0.8129
  211MPD1    H2 3211   0.422   1.522  17.316  1.8880  2.2638 -0.4859
  211MPD1    H3 3212   0.322   1.320  17.242  0.3423 -0.3638 -0.2107
  211MPD1     N 3213   0.113   1.544  16.898 -0.0118  0.2372  0.1777
  211MPD1    H5 3214   0.117   1.634  16.850 -0.3118 -0.4119 -1.0552
  211MPD1    N1 3215   0.415   1.771  17.215  0.6829 -0.2387  0.4558
  211MPD1    H6 3216   0.360   1.852  17.185  0.5234  0.2306  2.0271
  211MPD1    H7 3217   0.425   1.785  17.315 -0.7335 -2.7108  0.9621
  212MPD1     C 3218   0.137   4.196  17.106  0.2229  0.1505  0.1248
  212MPD1    C1 3219   0.063   4.285  17.186 -0.1096 -1.0575  0.0494
  212MPD1    C2 3220   4.657   4.243  17.221  0.2839  0.5112 -0.0621
  212MPD1    C3 3221   4.600   4.126  17.164 -0.1121 -0.6386  0.3194
  212MPD1    C4 3222   4.672   4.042  17.084 -0.0704 -0.3906  0.2145
  212MPD1    C5 3223   0.080   4.083  17.061  0.3191  0.8232 -0.4084
  212MPD1     H 3224   4.604   4.311  17.287  0.2557  1.6758 -1.2908
  212MPD1    H1 3225   4.628   3.952  17.043  2.4645 -0.7679 -1.7058
  212MPD1    H2 3226   0.241   4.215  17.082  0.8883 -1.5540  1.7314
  212MPD1    H3 3227   0.137   4.021  16.993 -0.6487 -0.7300  0.1943
  212MPD1     N 3228   4.467   4.080  17.191 -0.6727  0.6200  0.2786
  212MPD1    H5 3229   4.430   4.001  17.140 -1.6992  0.8989  0.6050
  212MPD1    N1 3230   0.132   4.396  17.242 -0.5063  0.1235  0.1075
  212MPD1    H6 3231   0.221   4.434  17.211 -0.2933 -1.1683 -0.8561
  212MPD1    H7 3232   0.067   4.461  17.284 -0.5990  0.3779 -0.4226
  213MPD1     C 3233   2.056   0.069  16.283 -0.0286 -0.2373 -0.1977
  213MPD1    C1 3234   2.113   4.668  16.250 -0.1789  0.3808  0.8644
  213MPD1    C2 3235   2.089   4.629  16.120 -0.0605 -0.1736  0.0949
  213MPD1    C3 3236   1.982   4.677  16.042 -0.2103  0.0074  0.1796
  213MPD1    C4 3237   1.903   0.058  16.090  0.2100 -0.1596 -0.0412
  213MPD1    C5 3238   1.943   0.115  16.214  0.1897 -0.1741 -0.3033
  213MPD1     H 3239   2.147   4.548  16.079  0.4644 -0.2509  0.9974
  213MPD1    H1 3240   1.807   0.091  16.051 -0.4845 -2.9119 -0.6489
  213MPD1    H2 3241   2.072   0.129  16.373  1.4663 -2.3164  0.9235
  213MPD1    H3 3242   1.892   0.205  16.244 -0.4501 -0.6145 -0.0711
  213MPD1     N 3243   1.970   4.623  15.911  0.4397  0.0597  0.5378
  213MPD1    H5 3244   2.039   4.550  15.892  0.1531 -0.2948  0.8694
  213MPD1    N1 3245   2.235   4.630  16.312  0.5090  0.3911  0.0077
  213MPD1    H6 3246   2.282   4.545  16.281  0.7564  0.8162 -0.7730
  213MPD1    H7 3247   2.223   4.635  16.413  0.3028 -2.5992  0.1196
  214MPD1     C 3248   1.847   3.796  15.697 -0.3841 -0.1971  0.2732
  214MPD1    C1 3249   1.851   3.850  15.566  0.0910 -0.6062 -0.8458
  214MPD1    C2 3250   1.867   3.986  15.542  0.4844 -0.7785  0.1596
  214MPD1    C3 3251   1.890   4.075  15.646  0.7295 -0.2330  0.4808
  214MPD1    C4 3252   1.888   4.018  15.768 -0.2022  0.0963  0.0299
  214MPD1    C5 3253   1.876   3.885  15.796  0.2833 -0.1216  0.1848
  214MPD1     H 3254   1.857   4.028  15.443 -0.7001 -2.5531 -0.4785
  214MPD1    H1 3255   1.920   4.083  15.848  1.0443 -1.3461  0.6956
  214MPD1    H2 3256   1.833   3.693  15.727 -3.0663  0.1902  0.3427
  214MPD1    H3 3257   1.881   3.855  15.900 -0.3012 -1.4974 -0.1829
  214MPD1     N 3258   1.908   4.214  15.637 -0.4418  0.3364 -0.2244
  214MPD1    H5 3259   1.930   4.269  15.719  0.6819 -2.1398  1.1570
  214MPD1    N1 3260   1.865   3.768  15.449  0.5338  0.2179 -0.1072
  214MPD1    H6 3261   1.808   3.684  15.463  0.5409 -0.1104 -1.9597
  214MPD1    H7 3262   1.834   3.807  15.360 -0.5425  1.1616  0.6804
  215MPD1     C 3263   2.316   0.819  10.706  0.4764 -0.3837  0.1522
  215MPD1    C1 3264   2.269   0.932  10.655 -0.3346  0.1981  0.0422
  215MPD1    C2 3265   2.235   1.028  10.745 -0.7148  0.1005  0.2179
  215MPD1    C3 3266   2.233   1.013  10.880 -0.3912 -0.3405 -0.1515
  215MPD1    C4 3267   2.294   0.898  10.937  0.0308 -0.3239 -0.4095
  215MPD1    C5 3268   2.333   0.807  10.842  0.2206 -0.2475  0.0576
  215MPD1     H 3269   2.199   1.126  10.715 -2.3222 -1.0378 -1.6012
  215MPD1    H1 3270   2.312   0.884  11.043 -0.8304  1.1145 -0.0666
  215MPD1    H2 3271   2.347   0.734  10.646  0.4393 -1.0457  1.0762
  215MPD1    H3 3272   2.380   0.715  10.877 -1.1303 -1.0005 -0.1210
  215MPD1     N 3273   2.179   1.122  10.954  0.3924  0.1421  0.0064
  215MPD1    H5 3274   2.142   1.204  10.907 -0.0815 -0.5099 -0.7598
  215MPD1    N1 3275   2.247   0.953  10.519 -0.6968  0.9222  0.8403
  215MPD1    H6 3276   2.270   1.049  10.493 -0.4748  0.5642 -0.2902
  215MPD1    H7 3277   2.298   0.894  10.453  1.3378  1.6369  1.7817
  216MPD1     C 3278   4.520   3.921  16.434  0.4704 -0.2949 -0.3328
  216MPD1    C1 3279   4.557   3.787  16.419 -0.6468 -0.0309  0.3029
  216MPD1    C2 3280   4.547   3.706  16.531  0.2348 -0.1283  0.6784
  216MPD1    C3 3281   4.510   3.756  16.656  0.2226 -0.2668 -0.8907
  216MPD1    C4 3282   4.488   3.891  16.668  0.1408  0.2151  0.1261
  216MPD1    C5 3283   4.490   3.971  16.553  0.0921  0.5067 -0.9360
  216MPD1     H 3284   4.571   3.600  16.531  1.5305  0.1598 -1.0829
  216MPD1    H1 3285   4.470   3.949  16.758 -0.0340 -0.7290  0.7068
  216MPD1    H2 3286   4.537   3.994  16.356 -0.8302  1.1251  0.7073
  216MPD1    H3 3287   4.459   4.074  16.569 -1.7699  0.0481 -1.6613
  216MPD1     N 3288   4.496   3.666  16.767  0.0931 -0.3577 -0.4032
  216MPD1    H5 3289   4.521   3.569  16.752 -0.6190 -0.4423 -1.0351
  216MPD1    N1 3290   4.620   3.745  16.303 -0.6546 -0.1920  0.0930
  216MPD1    H6 3291   4.610   3.645  16.284 -2.3801 -0.2208  1.1582
  216MPD1    H7 3292   4.579   3.792  16.223 -1.3480  0.0168  0.5686
  217MPD1     C 3293   3.860   3.788   9.379  0.0140 -0.4042 -0.2619
  217MPD1    C1 3294   3.800   3.910   9.363  0.0070  0.9839 -1.2549
  217MPD1    C2 3295   3.876   4.023   9.384 -0.0879  0.0186  0.5883
  217MPD1    C3 3296   4.005   4.021   9.422 -0.3180 -0.3341  0.4488
  217MPD1    C4 3297   4.057   3.896   9.445  0.0426 -0.1720 -0.6086
  217MPD1    C5 3298   3.990   3.779   9.431 -0.0811  0.0890 -0.1645
  217MPD1     H 3299   3.819   4.115   9.385 -0.7524 -0.4267  3.4818
  217MPD1    H1 3300   4.163   3.880   9.464 -0.3248 -0.2770  1.2981
  217MPD1    H2 3301   3.807   3.693   9.373 -1.1498  0.3629 -2.0968
  217MPD1    H3 3302   4.042   3.684   9.422 -0.1685  0.0475 -0.2395
  217MPD1     N 3303   4.093   4.130   9.440 -0.1647 -0.4032 -0.8058
  217MPD1    H5 3304   4.189   4.108   9.463  0.3926  2.2498 -0.5609
  217MPD1    N1 3305   3.658   3.911   9.354  0.7825  0.5048  0.0041
  217MPD1    H6 3306   3.636   3.850   9.276  1.6808 -0.0018  0.1455
  217MPD1    H7 3307   3.627   4.000   9.316 -0.0735  0.3979  0.4581
  218MPD1     C 3308   2.967   1.581  12.600 -0.7691  0.3762  0.0670
  218MPD1    C1 3309   2.905   1.539  12.717  0.1398 -0.4568 -0.3093
  218MPD1    C2 3310   2.782   1.481  12.704 -0.3265 -0.4784 -0.2468
  218MPD1    C3 3311   2.707   1.501  12.589 -0.0016  0.6073 -0.2417
  218MPD1    C4 3312   2.774   1.537  12.472  0.1117  0.8863  0.0487
  218MPD1    C5 3313   2.904   1.578  12.476 -0.6883 -0.1618 -0.5206
  218MPD1     H 3314   2.731   1.443  12.792 -1.6742 -1.2008 -1.3461
  218MPD1    H1 3315   2.732   1.530  12.372  0.2520  1.6562 -0.0612
  218MPD1    H2 3316   3.069   1.617  12.602 -0.9770  0.6913  4.5801
  218MPD1    H3 3317   2.957   1.616  12.390  1.0905  0.0084  0.6416
  218MPD1     N 3318   2.569   1.460  12.607  0.3867  0.4572  0.7251
  218MPD1    H5 3319   2.552   1.431  12.703  0.3063  1.0619  0.8986
  218MPD1    N1 3320   2.976   1.514  12.836  0.0939  0.6089  0.3236
  218MPD1    H6 3321   3.053   1.578  12.855 -0.5093  0.7191  2.3425
  218MPD1    H7 3322   2.910   1.523  12.912 -2.0777 -0.0001 -1.5067
  219MPD1     C 3323   1.508   1.605  12.313 -0.2590  0.0419 -0.5944
  219MPD1    C1 3324   1.621   1.650  12.244 -0.1007  0.2022 -0.3813
  219MPD1    C2 3325   1.746   1.621  12.296 -0.2219 -0.7573  0.9832
  219MPD1    C3 3326   1.758   1.555  12.415  0.1321  0.4946  0.4230
  219MPD1    C4 3327   1.648   1.505  12.478 -0.3136  0.4367  0.0638
  219MPD1    C5 3328   1.521   1.527  12.420  0.2036  0.3341 -0.3544
  219MPD1     H 3329   1.839   1.643  12.245 -0.7830 -1.6731 -0.4222
  219MPD1    H1 3330   1.643   1.444  12.567  3.6017 -0.4824 -0.3704
  219MPD1    H2 3331   1.408   1.626  12.278 -0.3474  0.3410 -0.1664
  219MPD1    H3 3332   1.428   1.494  12.464  0.6695 -0.2287  0.2115
  219MPD1     N 3333   1.881   1.514  12.470 -0.1308 -0.2883 -0.6585
  219MPD1    H5 3334   1.871   1.465  12.559  0.1908  1.3614  0.2959
  219MPD1    N1 3335   1.607   1.725  12.125  0.2896  0.4297  0.0938
  219MPD1    H6 3336   1.524   1.695  12.074  0.2017  1.2474 -0.2450
  219MPD1    H7 3337   1.684   1.709  12.060  0.3931 -0.9303  0.5467
  220MPD1     C 3338   1.572   2.339   9.793  0.4194 -0.0652 -0.5636
  220MPD1    C1 3339   1.662   2.361   9.892 -0.6470 -1.0192 -0.0709
  220MPD1    C2 3340   1.689   2.252   9.978  0.5178 -0.1411  0.2263
  220MPD1    C3 3341   1.620   2.129   9.980 -0.0278 -0.5981 -0.1227
  220MPD1    C4 3342   1.523   2.115   9.882 -0.5089 -0.3473 -0.2098
  220MPD1    C5 3343   1.497   2.221   9.796  0.0785  0.3620  0.0038
  220MPD1     H 3344   1.774   2.258  10.045  0.1464 -0.2511  0.7070
  220MPD1    H1 3345   1.461   2.027   9.868  0.8954 -0.8591 -3.1297
  220MPD1    H2 3346   1.547   2.418   9.723  2.7474  0.1569 -1.1314
  220MPD1    H3 3347   1.418   2.212   9.722  0.4989 -2.2403 -0.1299
  220MPD1     N 3348   1.646   2.028  10.080  0.3631  0.4549 -0.3034
  220MPD1    H5 3349   1.693   2.063  10.163 -1.3027 -0.7920  1.1606
  220MPD1    N1 3350   1.757   2.465   9.887  0.0113 -0.2930  0.0891
  220MPD1    H6 3351   1.790   2.487   9.981  0.6307 -0.9296  0.0191
  220MPD1    H7 3352   1.723   2.550   9.842 -2.7989 -2.1373 -1.2698
  221MPD1     C 3353   4.102   1.704  16.176  0.0084 -0.8313  0.0005
  221MPD1    C1 3354   4.218   1.741  16.241  0.7821  0.3394  0.3438
  221MPD1    C2 3355   4.327   1.651  16.244 -0.0235 -0.4545 -0.9282
  221MPD1    C3 3356   4.316   1.518  16.209 -0.6547 -0.2241 -0.0802
  221MPD1    C4 3357   4.192   1.477  16.165 -0.1133 -0.3088 -0.3914
  221MPD1    C5 3358   4.093   1.570  16.151 -0.1653 -0.2261 -0.5293
  221MPD1     H 3359   4.423   1.691  16.274 -0.7010  2.5434 -2.7561
  221MPD1    H1 3360   4.172   1.372  16.146 -0.4242 -0.4984  1.0075
  221MPD1    H2 3361   4.017   1.769  16.157  1.0196  0.8828  1.3240
  221MPD1    H3 3362   4.000   1.526  16.116 -0.3592  0.0507 -0.3601
  221MPD1     N 3363   4.412   1.416  16.214  0.4423 -0.0514  0.2954
  221MPD1    H5 3364   4.380   1.324  16.188  0.6318 -0.1124  0.2771
  221MPD1    N1 3365   4.233   1.875  16.272 -0.1842  0.0012  0.0140
  221MPD1    H6 3366   4.300   1.880  16.349 -0.2765 -1.3070  0.1788
  221MPD1    H7 3367   4.155   1.920  16.318 -1.4790 -1.6023 -0.6190
  222MPD1     C 3368   4.293   4.194   0.058  0.3079  0.0068 -0.0839
  222MPD1    C1 3369   4.307   4.311   0.127 -0.3153  0.2998 -0.0455
  222MPD1    C2 3370   4.189   4.359   0.190  0.0670  0.0960  0.2631
  222MPD1    C3 3371   4.066   4.297   0.170 -0.8123 -0.1117  0.1609
  222MPD1    C4 3372   4.057   4.180   0.097 -0.8035 -0.3981  0.2493
  222MPD1    C5 3373   4.173   4.131   0.041 -0.2755 -0.0381 -0.1058
  222MPD1     H 3374   4.196   4.434   0.268  1.1678 -0.8257  1.0602
  222MPD1    H1 3375   3.969   4.118   0.085 -1.7917  0.9995  0.1562
  222MPD1    H2 3376   4.377   4.137   0.020  2.7937  1.4998  3.1698
  222MPD1    H3 3377   4.169   4.048  17.668 -0.1109  1.6788 -2.1876
  222MPD1     N 3378   3.950   4.347   0.225 -0.3171 -0.3256  0.2110
  222MPD1    H5 3379   3.872   4.282   0.223  1.1616 -2.1176  2.2126
  222MPD1    N1 3380   4.431   4.363   0.161  0.5344  0.0285  0.1484
  222MPD1    H6 3381   4.496   4.355   0.084  0.8642 -0.5388  0.4899
  222MPD1    H7 3382   4.423   4.462   0.187 -0.0500 -0.0489  0.2753
  223MPD1     C 3383   3.489   3.805   0.692  0.3272 -0.5175 -0.3789
  223MPD1    C1 3384   3.611   3.801   0.628 -0.7065 -0.1459  0.1624
  223MPD1    C2 3385   3.651   3.928   0.601  0.3055 -0.4634  0.7252
  223MPD1    C3 3386   3.581   4.045   0.627 -0.0088 -0.4554 -0.0521
  223MPD1    C4 3387   3.453   4.039   0.681 -0.2440 -0.4980 -0.1440
  223MPD1    C5 3388   3.411   3.912   0.716  0.1935 -1.2155  0.1476
  223MPD1     H 3389   3.749   3.936   0.555 -0.8093  0.7373 -1.4578
  223MPD1    H1 3390   3.386   4.124   0.696  1.3788  0.4724  1.6097
  223MPD1    H2 3391   3.450   3.709   0.725 -0.6978  0.2779  0.7182
  223MPD1    H3 3392   3.319   3.909   0.773 -1.0833  1.7355 -1.7499
  223MPD1     N 3393   3.638   4.168   0.591  0.0723  0.0871  1.2961
  223MPD1    H5 3394   3.730   4.172   0.549 -1.4590  0.3013 -2.0305
  223MPD1    N1 3395   3.702   3.691   0.623 -0.1346  0.1507  0.8754
  223MPD1    H6 3396   3.780   3.700   0.558  0.9354 -3.4477  1.6643
  223MPD1    H7 3397   3.646   3.608   0.611 -0.2256  0.4752 -1.0240
  224MPD1     C 3398   4.500   4.363   9.191 -0.2250  0.3340 -0.6498
  224MPD1    C1 3399   4.425   4.468   9.147  0.0308  0.3921 -0.5815
  224MPD1    C2 3400   4.449   4.601   9.179 -0.2939 -0.7806 -0.0615
  224MPD1    C3 3401   4.556   4.623   9.272  0.2898  0.8787 -0.1393
  224MPD1    C4 3402   4.641   4.520   9.305 -0.2459 -0.0266 -0.3216
  224MPD1    C5 3403   4.620   4.388   9.258 -0.2122 -0.3182 -0.2884
  224MPD1     H 3404   4.370   4.674   9.166  1.0815  0.9195  1.0709
  224MPD1    H1 3405   0.005   4.541   9.366 -1.0350  0.1295  0.7345
  224MPD1    H2 3406   4.477   4.261   9.164 -2.9276  0.5173  1.0151
  224MPD1    H3 3407   4.688   4.307   9.282  0.0339  0.0138  0.1425
  224MPD1     N 3408   4.587   0.029   9.325  0.6563  0.2551  0.7915
  224MPD1    H5 3409   4.668   0.035   9.386 -0.6137  1.5449  2.3725
  224MPD1    N1 3410   4.318   4.440   9.065  0.2338 -0.0265 -0.5618
  224MPD1    H6 3411   4.231   4.492   9.076  0.8316  0.5493  1.3053
  224MPD1    H7 3412   4.296   4.342   9.047 -0.3379 -0.0580  0.2956
  225MPD1     C 3413   2.170   2.363  12.514  0.4524  1.1930 -0.5796
  225MPD1    C1 3414   2.074   2.260  12.529  0.6416 -0.0122 -0.0720
  225MPD1    C2 3415   1.941   2.292  12.506 -1.4671  0.0126 -0.6656
  225MPD1    C3 3416   1.903   2.421  12.457 -0.2280 -0.0059  0.3031
  225MPD1    C4 3417   2.002   2.520  12.450  0.3866 -0.1417 -0.2342
  225MPD1    C5 3418   2.128   2.485  12.473  0.2576 -0.1270  0.4144
  225MPD1     H 3419   1.859   2.227  12.535 -0.2048 -1.0102  0.5494
  225MPD1    H1 3420   1.991   2.624  12.423 -1.3682  0.2709  2.0798
  225MPD1    H2 3421   2.271   2.340  12.543  0.7696  0.0938 -2.5762
  225MPD1    H3 3422   2.205   2.561  12.461  0.4028 -0.7052 -2.4115
  225MPD1     N 3423   1.769   2.453  12.420 -0.4899 -0.0290 -0.0796
  225MPD1    H5 3424   1.751   2.545  12.381  1.3704  0.4446  0.1664
  225MPD1    N1 3425   2.107   2.142  12.589  0.5607 -0.0850 -0.1621
  225MPD1    H6 3426   2.054   2.066  12.546  1.3859  0.0439 -1.3886
  225MPD1    H7 3427   2.205   2.120  12.575  0.3748  1.5141 -3.7725
  226MPD1     C 3428   1.154   3.447  10.854 -0.3351  0.1753 -0.3258
  226MPD1    C1 3429   1.213   3.539  10.773 -0.1624  0.5085 -0.5132
  226MPD1    C2 3430   1.200   3.521  10.638 -0.6819 -0.2150  0.6528
  226MPD1    C3 3431   1.140   3.410  10.583  0.2370 -0.1677 -0.3853
  226MPD1    C4 3432   1.081   3.322  10.665  0.3916 -0.4371 -0.2760
  226MPD1    C5 3433   1.098   3.336  10.795 -0.3166  0.0026  0.4980
  226MPD1     H 3434   1.244   3.594  10.570 -0.8789  0.5016  1.3027
  226MPD1    H1 3435   1.025   3.236  10.632 -0.5111 -0.5785  1.6818
  226MPD1    H2 3436   1.147   3.460  10.961 -1.2597 -1.2475 -0.1952
  226MPD1    H3 3437   1.048   3.257  10.849 -1.4644  0.6464  0.3771
  226MPD1     N 3438   1.119   3.404  10.444 -0.2769 -0.6944  0.3709
  226MPD1    H5 3439   1.151   3.487  10.394  0.7981 -0.5430  1.2922
  226MPD1    N1 3440   1.251   3.665  10.817  0.0350  1.1319 -0.3402
  226MPD1    H6 3441   1.287   3.656  10.912 -2.0373  0.7321  0.4135
  226MPD1    H7 3442   1.320   3.705  10.755  1.5092  0.8774  1.1310
  227MPD1     C 3443   1.205   4.043   9.777  0.7057  0.0275  1.0994
  227MPD1    C1 3444   1.297   3.976   9.854 -0.1301  0.0763 -0.0035
  227MPD1    C2 3445   1.266   3.850   9.889  0.5181  0.6020  0.2544
  227MPD1    C3 3446   1.149   3.786   9.861  0.1867 -0.0828  0.4511
  227MPD1    C4 3447   1.063   3.850   9.774  0.4985  0.4452  0.7430
  227MPD1    C5 3448   1.089   3.977   9.735 -0.0177  0.0924 -0.2244
  227MPD1     H 3449   1.345   3.810   9.952  0.8722  1.4555  0.3431
  227MPD1    H1 3450   0.967   3.812   9.740  1.5257 -3.5967  2.3267
  227MPD1    H2 3451   1.219   4.146   9.749 -0.4607  0.3196  1.6060
  227MPD1    H3 3452   1.017   4.031   9.675  0.9528  0.6483 -0.8829
  227MPD1     N 3453   1.117   3.651   9.909  0.0541 -0.3314 -0.4820
  227MPD1    H5 3454   1.025   3.615   9.882 -0.1585  1.0958 -1.6168
  227MPD1    N1 3455   1.420   4.045   9.878  0.4277  0.2707 -0.3118
  227MPD1    H6 3456   1.405   4.145   9.875 -1.0156  0.0749  0.4121
  227MPD1    H7 3457   1.474   4.018   9.960  0.7788  1.8902 -0.0224
  228MPD1     C 3458   3.646   4.252  12.724  0.5838 -0.1937 -0.2707
  228MPD1    C1 3459   3.565   4.359  12.687  0.4473  0.4054 -0.1757
  228MPD1    C2 3460   3.431   4.334  12.661  0.4590  0.3841  0.3155
  228MPD1    C3 3461   3.378   4.208  12.676  0.4648  0.7636 -0.1140
  228MPD1    C4 3462   3.462   4.102  12.712 -0.1544  0.2584 -0.2166
  228MPD1    C5 3463   3.597   4.124  12.726 -0.8535 -0.1375  0.3956
  228MPD1     H 3464   3.369   4.417  12.628 -0.9656 -0.4317  0.9158
  228MPD1    H1 3465   3.427   4.003  12.739  0.3510 -0.2754 -1.5287
  228MPD1    H2 3466   3.746   4.258  12.765  0.1380 -2.0409  1.0972
  228MPD1    H3 3467   3.658   4.045  12.768 -0.9878 -2.2722 -3.4633
  228MPD1     N 3468   3.245   4.192  12.646 -0.0304  0.1853 -0.0740
  228MPD1    H5 3469   3.199   4.270  12.601 -1.8566 -1.4209 -0.9706
  228MPD1    N1 3470   3.621   4.489  12.665  0.0737 -0.2884 -0.4154
  228MPD1    H6 3471   3.685   4.516  12.739  0.0758  0.5840 -0.7350
  228MPD1    H7 3472   3.555   4.562  12.639  0.8813  0.6016  0.0257
  229MPD1     C 3473   3.015   3.386  14.678 -0.7439 -0.5083 -0.5518
  229MPD1    C1 3474   3.076   3.434  14.793  0.2413  0.1443 -0.0514
  229MPD1    C2 3475   3.125   3.346  14.890  0.3876 -0.3264 -0.2148
  229MPD1    C3 3476   3.124   3.211  14.868  0.1180  0.6041  0.0029
  229MPD1    C4 3477   3.081   3.166  14.744 -0.1454 -0.0832 -0.0206
  229MPD1    C5 3478   3.031   3.252  14.655 -0.1217  0.2105 -0.1327
  229MPD1     H 3479   3.174   3.385  14.978 -0.7832  1.1251 -0.2087
  229MPD1    H1 3480   3.083   3.063  14.713 -2.8813  0.5318 -2.1864
  229MPD1    H2 3481   2.966   3.450  14.606 -0.9027  0.7418  0.6588
  229MPD1    H3 3482   2.985   3.211  14.566  0.7198  0.4900 -0.7009
  229MPD1     N 3483   3.134   3.111  14.967 -0.6487 -0.9050 -0.3045
  229MPD1    H5 3484   3.114   3.019  14.931 -0.9371 -0.9116 -0.1233
  229MPD1    N1 3485   3.092   3.569  14.825  0.2124 -0.7365 -0.4319
  229MPD1    H6 3486   3.092   3.631  14.744  0.1574  0.9018  0.8161
  229MPD1    H7 3487   3.181   3.581  14.874 -0.8426  1.4411  0.9654
  230MPD1     C 3488   3.549   2.779  15.915 -0.5112  1.2261 -0.2655
  230MPD1    C1 3489   3.612   2.707  15.813  0.3374  0.0677 -0.1935
  230MPD1    C2 3490   3.576   2.742  15.680 -0.0880 -0.4232  0.3961
  230MPD1    C3 3491   3.464   2.824  15.659  0.4882  0.4519 -0.0643
  230MPD1    C4 3492   3.398   2.886  15.757  0.3463  0.1926  0.1017
  230MPD1    C5 3493   3.443   2.860  15.883 -0.4496 -0.3675 -0.1359
  230MPD1     H 3494   3.631   2.700  15.596 -0.8691 -0.1706 -0.2476
  230MPD1    H1 3495   3.303   2.936  15.744  1.2880  1.9219 -0.1421
  230MPD1    H2 3496   3.584   2.774  16.018  0.2232 -1.0259 -0.6427
  230MPD1    H3 3497   3.394   2.917  15.962 -0.6585  2.1212 -2.0618
  230MPD1     N 3498   3.404   2.830  15.532 -0.2687  0.9707 -0.6438
  230MPD1    H5 3499   3.418   2.749  15.472  2.2246  0.0151  1.2003
  230MPD1    N1 3500   3.724   2.630  15.842  0.2802 -0.0385  0.5360
  230MPD1    H6 3501   3.724   2.586  15.934  0.9636 -0.6637  0.2352
  230MPD1    H7 3502   3.737   2.557  15.773 -0.8819  1.5307 -1.3454
  231MPD1     C 3503   1.681   0.555  15.609  0.4118 -0.6201 -0.2472
  231MPD1    C1 3504   1.599   0.528  15.508 -0.5820 -0.0729 -0.5331
  231MPD1    C2 3505   1.660   0.546  15.375 -0.0316 -0.4447 -0.5977
  231MPD1    C3 3506   1.771   0.623  15.351  0.1199  0.1762  0.4040
  231MPD1    C4 3507   1.836   0.676  15.464  0.1548 -0.1238 -0.3524
  231MPD1    C5 3508   1.792   0.636  15.591 -0.6579  0.4382 -0.1996
  231MPD1     H 3509   1.606   0.513  15.287 -0.9171  0.3103 -0.3475
  231MPD1    H1 3510   1.925   0.737  15.453 -0.1606  0.3152 -0.4878
  231MPD1    H2 3511   1.655   0.514  15.706 -0.4493 -0.4770 -0.4215
  231MPD1    H3 3512   1.850   0.661  15.679 -0.6608 -1.6850  0.4127
  231MPD1     N 3513   1.808   0.643  15.218 -0.0543 -0.7852 -0.2168
  231MPD1    H5 3514   1.761   0.581  15.153 -1.0722 -0.2404 -0.0135
  231MPD1    N1 3515   1.483   0.450  15.530 -0.1066  0.5260 -0.9676
  231MPD1    H6 3516   1.419   0.461  15.609  0.9914 -2.7910  0.3984
  231MPD1    H7 3517   1.420   0.460  15.450 -0.8381 -0.0507 -0.4692
  232MPD1     C 3518   3.230   3.579  17.615 -0.4962 -0.5536  0.4078
  232MPD1    C1 3519   3.155   3.588   0.034  0.0951 -0.5686 -0.7733
  232MPD1    C2 3520   3.097   3.474   0.089  0.4860 -0.3840  0.6259
  232MPD1    C3 3521   3.098   3.361   0.012  0.4495  0.1014 -0.3492
  232MPD1    C4 3522   3.161   3.354  17.591 -1.1198  0.3251  0.2765
  232MPD1    C5 3523   3.223   3.461  17.539  0.3355 -0.7645 -0.3740
  232MPD1     H 3524   3.046   3.475   0.185 -3.4135 -0.2958 -1.4729
  232MPD1    H1 3525   3.158   3.269  17.523 -0.4420  1.3592 -1.0500
  232MPD1    H2 3526   3.285   3.665  17.579  2.7587 -1.6755  2.6641
  232MPD1    H3 3527   3.274   3.465  17.443 -0.7690  0.8578 -0.8874
  232MPD1     N 3528   3.023   3.251   0.060 -0.4305 -0.4146  0.6701
  232MPD1    H5 3529   2.981   3.247   0.153 -1.2692  1.7371  0.3732
  232MPD1    N1 3530   3.162   3.701   0.117  0.0720  0.5835  0.5261
  232MPD1    H6 3531   3.080   3.715   0.176 -0.4802 -0.4924 -0.0008
  232MPD1    H7 3532   3.182   3.784   0.062 -1.8430 -0.3474 -1.5666
  233MPD1     C 3533   3.445   4.500   1.939 -0.4191  0.1520  0.3846
  233MPD1    C1 3534   3.495   4.629   1.941 -0.4170  0.3813 -0.6923
  233MPD1    C2 3535   3.620   4.658   1.879  0.1626 -0.2513 -0.4171
  233MPD1    C3 3536   3.681   4.554   1.806  0.2338 -0.2882 -0.6481
  233MPD1    C4 3537   3.613   4.434   1.787 -0.9828 -0.3860  0.0118
  233MPD1    C5 3538   3.500   4.407   1.859  0.0482  0.6230  0.3322
  233MPD1     H 3539   3.662   0.033   1.890 -1.3003  0.4592 -1.1816
  233MPD1    H1 3540   3.663   4.348   1.743  2.1740  2.5568 -2.1399
  233MPD1    H2 3541   3.360   4.484   2.004  0.0156 -2.3310  0.3454
  233MPD1    H3 3542   3.465   4.304   1.854  0.1856  0.6906 -2.0391
  233MPD1     N 3543   3.803   4.573   1.738  0.3258 -0.2620  0.2039
  233MPD1    H5 3544   3.837   4.503   1.674 -0.2853  0.2649 -0.6938
  233MPD1    N1 3545   3.434   0.002   2.026  0.2521  0.7168  0.3226
  233MPD1    H6 3546   3.457   0.094   1.989 -1.1818  1.1335  0.4458
  233MPD1    H7 3547   3.333   4.716   2.039  0.2772 -2.8227 -2.1090
  234MPD1     C 3548   0.888   4.230  10.582 -0.1054  0.5232  0.4044
  234MPD1    C1 3549   0.840   4.355  10.606  0.2507  0.4383  0.5573
  234MPD1    C2 3550   0.745   4.407  10.523 -0.4155 -0.1269  0.2862
  234MPD1    C3 3551   0.700   4.332  10.417 -0.7839  0.0401 -0.4634
  234MPD1    C4 3552   0.747   4.203  10.407  0.0193  0.5960  0.1820
  234MPD1    C5 3553   0.846   4.147  10.480  0.7386 -0.7494 -0.0327
  234MPD1     H 3554   0.711   4.509  10.535 -0.0710 -0.1041  1.0277
  234MPD1    H1 3555   0.692   4.141  10.336  0.5771 -0.5777  0.7875
  234MPD1    H2 3556   0.964   4.184  10.644  0.1220 -0.4899 -0.6345
  234MPD1    H3 3557   0.878   4.044  10.464  1.2548 -0.6686  0.5059
  234MPD1     N 3558   0.601   4.383  10.334  0.5799 -0.5432  0.0003
  234MPD1    H5 3559   0.552   4.467  10.363 -0.8990 -1.4794  0.1564
  234MPD1    N1 3560   0.887   4.435  10.716 -0.4635  0.2947  0.1177
  234MPD1    H6 3561   0.937   4.517  10.682  0.0036  0.6931  1.7819
  234MPD1    H7 3562   0.968   4.385  10.752  0.7877  0.4100 -2.5310
  235MPD1     C 3563   3.978   3.257   9.915 -0.2634  0.2390  0.0101
  235MPD1    C1 3564   3.906   3.146   9.873 -0.0080  0.1967 -0.0484
  235MPD1    C2 3565   3.774   3.166   9.841  0.0268 -0.1018  0.4109
  235MPD1    C3 3566   3.719   3.290   9.841 -0.5530  0.3995  0.5504
  235MPD1    C4 3567   3.798   3.404   9.863  0.0090 -0.7743  0.4473
  235MPD1    C5 3568   3.924   3.386   9.908 -0.7585  0.3750 -0.2931
  235MPD1     H 3569   3.715   3.079   9.818 -1.7183  1.7516 -2.1186
  235MPD1    H1 3570   3.762   3.506   9.871 -1.2898 -1.1262 -0.8677
  235MPD1    H2 3571   4.081   3.245   9.945 -0.7262 -0.9983  1.0797
  235MPD1    H3 3572   3.984   3.475   9.922 -1.2163  0.8062 -1.0728
  235MPD1     N 3573   3.584   3.305   9.789  0.2531  0.2449 -0.0259
  235MPD1    H5 3574   3.547   3.219   9.750  1.3319 -1.2401  2.1984
  235MPD1    N1 3575   3.966   3.016   9.880 -0.0737  0.2199  0.5165
  235MPD1    H6 3576   4.054   3.019   9.828 -0.6372  2.1418 -0.3622
  235MPD1    H7 3577   3.904   2.947   9.839 -0.1629 -0.8610  2.5030
  236MPD1     C 3578   2.326   3.522   9.291 -0.1222 -0.3378  0.0272
  236MPD1    C1 3579   2.354   3.441   9.400  0.1304 -0.2078 -0.0040
  236MPD1    C2 3580   2.254   3.433   9.493 -0.0173  0.5882  0.7390
  236MPD1    C3 3581   2.128   3.494   9.480  0.0307  0.8359  0.3710
  236MPD1    C4 3582   2.107   3.570   9.369 -0.2938  0.2422 -0.0726
  236MPD1    C5 3583   2.205   3.582   9.273  0.6319 -0.0702 -0.0971
  236MPD1     H 3584   2.280   3.381   9.584  0.7838 -0.2296  0.0421
  236MPD1    H1 3585   2.016   3.627   9.354  0.1667  0.9057 -0.3612
  236MPD1    H2 3586   2.397   3.527   9.209 -1.0215 -2.6921 -0.8925
  236MPD1    H3 3587   2.188   3.645   9.186 -1.3121 -1.3895 -0.6623
  236MPD1     N 3588   2.031   3.502   9.587 -0.3944 -0.2107  0.8187
  236MPD1    H5 3589   1.958   3.572   9.589 -1.6601 -1.5837  2.5972
  236MPD1    N1 3590   2.482   3.387   9.435 -0.4663  0.5839  0.4018
  236MPD1    H6 3591   2.478   3.320   9.511  1.7949 -0.1662 -0.1204
  236MPD1    H7 3592   2.535   3.349   9.356 -0.3183  0.3833  0.5967
  237MPD1     C 3593   1.109   1.185  14.487  0.1004  0.4262  0.0074
  237MPD1    C1 3594   0.979   1.146  14.466 -0.6271  0.0811  0.0331
  237MPD1    C2 3595   0.902   1.107  14.578  0.7861  0.2653  0.3199
  237MPD1    C3 3596   0.961   1.115  14.705 -0.1959  0.2502  1.5135
  237MPD1    C4 3597   1.087   1.162  14.722 -0.9843 -0.5255  0.4670
  237MPD1    C5 3598   1.168   1.186  14.608  0.3732 -0.0717 -0.0331
  237MPD1     H 3599   0.798   1.079  14.569  1.1029  0.0251 -2.5823
  237MPD1    H1 3600   1.142   1.159  14.815 -0.9896  1.2718  0.5136
  237MPD1    H2 3601   1.160   1.209  14.394  1.4395  0.5217  0.7751
  237MPD1    H3 3602   1.270   1.218  14.627  0.8269 -0.1897 -2.3176
  237MPD1     N 3603   0.890   1.093  14.827  0.0252 -0.1553 -0.2219
  237MPD1    H5 3604   0.940   1.106  14.914 -0.0623 -0.7134 -0.0921
  237MPD1    N1 3605   0.930   1.115  14.340 -0.1260 -0.0639 -0.1903
  237MPD1    H6 3606   0.829   1.117  14.324 -0.0602 -2.0327 -0.8355
  237MPD1    H7 3607   0.983   1.153  14.262 -1.0722 -2.5876 -2.0658
  238MPD1     C 3608   3.808   0.240  14.465  0.3012 -0.6459 -0.5519
  238MPD1    C1 3609   3.788   0.159  14.579  0.1585 -0.1784 -0.4923
  238MPD1    C2 3610   3.665   0.092  14.592 -0.6520 -0.3943  0.2713
  238MPD1    C3 3611   3.579   0.096  14.482 -0.2053 -0.6357 -0.6331
  238MPD1    C4 3612   3.610   0.160  14.369 -0.4869 -0.1761 -0.4358
  238MPD1    C5 3613   3.716   0.247  14.360 -0.2476 -0.4436  0.3777
  238MPD1     H 3614   3.641   0.031  14.678 -0.4021 -2.0108 -0.8024
  238MPD1    H1 3615   3.544   0.168  14.283  0.4606 -0.9733 -1.2432
  238MPD1    H2 3616   3.900   0.294  14.450 -0.9130  0.2496 -4.5868
  238MPD1    H3 3617   3.736   0.311  14.275  0.7123  0.5191  1.3417
  238MPD1     N 3618   3.442   0.053  14.489 -0.5823 -0.6359 -0.3544
  238MPD1    H5 3619   3.380   0.074  14.411 -0.9808  1.8727  0.6111
  238MPD1    N1 3620   3.892   0.140  14.673 -0.6395 -0.1078  0.0825
  238MPD1    H6 3621   3.971   0.203  14.662  0.2808 -0.8484  2.4143
  238MPD1    H7 3622   3.869   0.119  14.770  1.4654 -1.6672  0.2541
  239MPD1     C 3623   3.534   0.499  14.609  0.2934  0.0863 -0.1233
  239MPD1    C1 3624   3.462   0.573  14.701 -0.3463  0.5592 -0.5029
  239MPD1    C2 3625   3.364   0.655  14.643  0.1498 -0.3560 -0.6989
  239MPD1    C3 3626   3.366   0.685  14.508 -0.0134  0.9002  0.0707
  239MPD1    C4 3627   3.446   0.618  14.423 -0.2996 -0.3883  0.5939
  239MPD1    C5 3628   3.530   0.528  14.475 -0.3611  0.2755 -0.8001
  239MPD1     H 3629   3.295   0.708  14.708  0.0482 -0.0996 -1.0170
  239MPD1    H1 3630   3.439   0.648  14.319 -1.2350 -0.7836  0.5382
  239MPD1    H2 3631   3.601   0.422  14.645 -1.6185 -1.3517  0.4007
  239MPD1    H3 3632   3.591   0.470  14.407  0.1996  0.9790 -0.9054
  239MPD1     N 3633   3.277   0.775  14.447  0.4696  0.3055  0.3058
  239MPD1    H5 3634   3.267   0.770  14.346 -1.5957  0.5260  0.4935
  239MPD1    N1 3635   3.449   0.539  14.838 -0.3582  0.1520 -0.8064
  239MPD1    H6 3636   3.528   0.501  14.889 -0.4874  1.5798  0.4388
  239MPD1    H7 3637   3.405   0.612  14.892 -0.4070  0.6710 -1.5432
  240MPD1     C 3638   2.568   1.085  14.239 -0.2048 -0.6997 -0.0611
  240MPD1    C1 3639   2.665   1.034  14.158 -0.2458 -0.2943 -0.1603
  240MPD1    C2 3640   2.736   0.922  14.200 -0.1749 -0.1264  0.0010
  240MPD1    C3 3641   2.730   0.885  14.334 -0.3391 -0.8774  0.3480
  240MPD1    C4 3642   2.640   0.944  14.415  0.7754  0.0130 -0.1104
  240MPD1    C5 3643   2.571   1.054  14.368 -0.7361 -0.1644 -0.0212
  240MPD1     H 3644   2.801   0.866  14.134 -1.2087 -0.7653 -0.4641
  240MPD1    H1 3645   2.640   0.926  14.521 -0.6266  2.4826  0.3094
  240MPD1    H2 3646   2.504   1.166  14.205 -0.1208 -1.3612 -1.7714
  240MPD1    H3 3647   2.510   1.117  14.431 -1.5838 -1.7478  0.7573
  240MPD1     N 3648   2.806   0.780  14.384  0.1682 -0.1088 -0.6395
  240MPD1    H5 3649   2.862   0.736  14.311 -1.4089 -1.7695 -0.8562
  240MPD1    N1 3650   2.656   1.066  14.026 -0.2208 -0.0446 -0.5335
  240MPD1    H6 3651   2.744   1.039  13.983 -1.1274 -1.0923 -1.7412
  240MPD1    H7 3652   2.637   1.165  14.009  1.8805  0.4584  0.0691
  241MPD1     C 3653   3.076   0.199  15.263 -0.0132  0.0887 -0.5795
  241MPD1    C1 3654   3.149   0.287  15.195  0.0899 -0.1166  0.2729
  241MPD1    C2 3655   3.112   0.322  15.063 -0.8864 -1.1723  0.7224
  241MPD1    C3 3656   2.986   0.286  15.014 -0.2654 -0.0252 -0.0634
  241MPD1    C4 3657   2.907   0.204  15.098 -0.1857  0.0413  0.7025
  241MPD1    C5 3658   2.960   0.158  15.212  0.5403 -0.2672 -0.5342
  241MPD1     H 3659   3.183   0.375  15.001 -0.6449 -2.5192 -0.1412
  241MPD1    H1 3660   2.804   0.180  15.075 -0.3952  0.3764  1.2815
  241MPD1    H2 3661   3.107   0.152  15.356 -0.5616  0.9293  0.0233
  241MPD1    H3 3662   2.894   0.095  15.271 -0.4952 -0.0777 -1.4837
  241MPD1     N 3663   2.929   0.329  14.893  0.2432 -0.3677  0.6231
  241MPD1    H5 3664   2.836   0.295  14.871  0.4748 -0.0988 -0.7579
  241MPD1    N1 3665   3.278   0.322  15.232 -0.3127 -0.2858  0.9653
  241MPD1    H6 3666   3.279   0.419  15.199  2.1192 -0.8557 -0.6248
  241MPD1    H7 3667   3.299   0.337  15.331  2.0838 -0.7005  0.5136
  242MPD1     C 3668   2.634   4.285  15.990 -0.3044 -0.4381 -0.2769
  242MPD1    C1 3669   2.767   4.251  16.020  0.2542  0.1474 -0.2496
  242MPD1    C2 3670   2.854   4.218  15.916  0.1180 -0.3400  0.2405
  242MPD1    C3 3671   2.807   4.203  15.788  0.2199 -0.0125  0.6112
  242MPD1    C4 3672   2.676   4.235  15.760  0.2541 -0.3807 -1.0078
  242MPD1    C5 3673   2.593   4.281  15.860  0.0630  0.3669 -1.0693
  242MPD1     H 3674   2.948   4.174  15.945 -0.2207 -1.3139 -0.1345
  242MPD1    H1 3675   2.643   4.224  15.657 -0.9841 -2.3599 -0.3834
  242MPD1    H2 3676   2.571   4.316  16.073  0.6361  1.2798 -0.2172
  242MPD1    H3 3677   2.490   4.307  15.836 -0.7628 -1.0644  0.8832
  242MPD1     N 3678   2.890   4.160  15.682 -0.3318 -0.3313  0.0560
  242MPD1    H5 3679   2.842   4.159  15.592  1.2142  1.6238 -0.7726
  242MPD1    N1 3680   2.801   4.219  16.151 -0.2231 -0.3774  0.4908
  242MPD1    H6 3681   2.734   4.260  16.216 -1.3525 -1.8451  0.2619
  242MPD1    H7 3682   2.893   4.256  16.170 -0.9804  1.2413  0.9845
  243MPD1     C 3683   4.475   2.631  17.683  0.4456  0.2291 -0.1071
  243MPD1    C1 3684   4.474   2.575  17.559 -0.7376 -0.1979 -0.6715
  243MPD1    C2 3685   4.502   2.654  17.450 -0.4504 -0.1752  0.4247
  243MPD1    C3 3686   4.558   2.778  17.470 -0.1140 -0.8474 -0.1636
  243MPD1    C4 3687   4.570   2.835  17.594 -0.1624  0.8277 -0.2307
  243MPD1    C5 3688   4.529   2.754   0.004  0.5185  0.3506  0.1096
  243MPD1     H 3689   4.481   2.618  17.350 -0.6913  0.2665  0.3155
  243MPD1    H1 3690   4.601   2.937  17.612  2.6083 -0.2083  0.8794
  243MPD1    H2 3691   4.448   2.576   0.077  1.9516  0.0361  0.2341
  243MPD1    H3 3692   4.522   2.803   0.101  0.0202  1.3176 -0.4152
  243MPD1     N 3693   4.611   2.843  17.354  0.3426  0.1799 -0.1336
  243MPD1    H5 3694   4.577   2.816  17.262  2.5665 -0.3608 -0.7861
  243MPD1    N1 3695   4.422   2.446  17.546 -0.6921  0.3180  0.3120
  243MPD1    H6 3696   4.436   2.409  17.452  0.1360 -0.2236  0.6416
  243MPD1    H7 3697   4.455   2.380  17.616 -1.8930 -0.1508  0.4289
  244MPD1     C 3698   0.077   3.834  17.309 -0.6013  0.2642 -0.3945
  244MPD1    C1 3699   0.019   3.750  17.403 -0.6611 -0.2811 -0.0192
  244MPD1    C2 3700   0.016   3.617  17.381 -0.2571  0.2157 -0.4536
  244MPD1    C3 3701   0.052   3.559  17.262  0.4108  0.8329  0.4085
  244MPD1    C4 3702   0.102   3.642  17.166  0.2264  0.6560 -0.2211
  244MPD1    C5 3703   0.114   3.773  17.195 -0.2599  0.1203 -0.8513
  244MPD1     H 3704   4.699   3.553  17.458  0.2082 -1.6767 -1.7813
  244MPD1    H1 3705   0.136   3.605  17.070  2.1913  1.5703  0.1296
  244MPD1    H2 3706   0.118   3.933  17.326  2.2849 -0.8689 -0.7728
  244MPD1    H3 3707   0.163   3.835  17.120  0.4074 -1.2647 -1.5553
  244MPD1     N 3708   0.027   3.424  17.236  0.1594 -0.6838 -0.3164
  244MPD1    H5 3709   4.708   3.375  17.315  2.8741 -1.0320  0.9320
  244MPD1    N1 3710   4.718   3.798  17.536 -0.4640  0.3116 -0.0845
  244MPD1    H6 3711   4.650   3.750  17.595 -0.0421 -0.0008  0.1526
  244MPD1    H7 3712   4.695   3.897  17.536  2.1473  0.9237 -0.0285
  245MPD1     C 3713   0.874   2.541  13.849 -0.5104  0.0108  0.5779
  245MPD1    C1 3714   1.008   2.557  13.865  0.0004 -0.3375  0.0372
  245MPD1    C2 3715   1.059   2.685  13.904 -0.0374  0.8244  0.3104
  245MPD1    C3 3716   0.972   2.789  13.934 -0.1356  0.5386 -0.2180
  245MPD1    C4 3717   0.843   2.766  13.912  0.4675  0.1484 -0.7159
  245MPD1    C5 3718   0.791   2.647  13.866 -0.4174  0.5739  0.3458
  245MPD1     H 3719   1.166   2.703  13.898 -0.2353  2.6666  2.2564
  245MPD1    H1 3720   0.759   2.831  13.934  0.8319 -0.3246  2.1276
  245MPD1    H2 3721   0.840   2.451  13.800  2.8971 -0.5167 -0.8373
  245MPD1    H3 3722   0.684   2.630  13.865 -0.1911 -1.0147  3.1288
  245MPD1     N 3723   1.019   2.917  13.953 -0.1940  0.5820  0.2338
  245MPD1    H5 3724   1.119   2.926  13.968 -0.1109  1.4099 -0.7663
  245MPD1    N1 3725   1.096   2.452  13.831 -0.3263  0.1958 -0.5808
  245MPD1    H6 3726   1.180   2.461  13.888 -1.1856 -1.0425  0.8814
  245MPD1    H7 3727   1.043   2.369  13.857  2.9141 -2.0130 -1.1394
  246MPD1     C 3728   2.499   1.074  10.300 -0.5341  1.0958  0.2801
  246MPD1    C1 3729   2.479   0.939  10.310 -0.1627  0.6838 -0.1312
  246MPD1    C2 3730   2.391   0.880  10.219  0.4353 -0.6199  0.1398
  246MPD1    C3 3731   2.356   0.945  10.101 -0.3854 -0.5801 -0.3356
  246MPD1    C4 3732   2.386   1.078  10.092 -0.0007  0.1469  0.0359
  246MPD1    C5 3733   2.438   1.146  10.197  0.8292  0.8312  0.2510
  246MPD1     H 3734   2.362   0.777  10.231 -0.5796 -0.3073  0.2967
  246MPD1    H1 3735   2.342   1.141  10.016 -2.6049 -1.3575  0.3101
  246MPD1    H2 3736   2.563   1.129  10.368  0.6021 -1.2280  1.1169
  246MPD1    H3 3737   2.461   1.252  10.191 -1.3329  1.3009  0.1110
  246MPD1     N 3738   2.283   0.871  10.006  0.0489  0.7127  0.1511
  246MPD1    H5 3739   2.264   0.774  10.029  0.4105  0.6731  0.2829
  246MPD1    N1 3740   2.520   0.862  10.419  0.2715 -0.0264  0.6966
  246MPD1    H6 3741   2.603   0.900  10.463 -0.6877  1.0245  1.6261
  246MPD1    H7 3742   2.537   0.765  10.395 -2.3396 -0.6092  1.1962
  247MPD1     C 3743   0.858   3.104  16.575 -0.1236 -0.4422  0.4912
  247MPD1    C1 3744   0.866   2.997  16.661 -0.0288  0.3728 -0.0550
  247MPD1    C2 3745   0.931   2.884  16.635  0.1588 -0.0023  0.1424
  247MPD1    C3 3746   0.992   2.874  16.510  0.0500 -0.1985  0.0043
  247MPD1    C4 3747   0.979   2.964  16.416 -0.3108 -0.0096  0.3065
  247MPD1    C5 3748   0.927   3.084  16.457  0.0585 -0.5388 -0.2408
  247MPD1     H 3749   0.936   2.811  16.716 -0.1748 -0.6559 -0.4207
  247MPD1    H1 3750   1.014   2.955  16.314  3.1316  1.3965  1.3870
  247MPD1    H2 3751   0.814   3.199  16.606 -0.1560  0.2632 -1.7460
  247MPD1    H3 3752   0.945   3.172  16.396 -2.8360  0.3764  0.2364
  247MPD1     N 3753   1.060   2.756  16.464  0.3482 -0.5163  0.3634
  247MPD1    H5 3754   1.087   2.753  16.366  0.8910 -2.3837  0.5666
  247MPD1    N1 3755   0.801   3.008  16.785 -0.8397  0.8116  0.3491
  247MPD1    H6 3756   0.716   3.064  16.784 -2.3310 -1.4516 -0.6327
  247MPD1    H7 3757   0.771   2.915  16.811 -1.5337  1.3727  1.5780
  248MPD1     C 3758   0.817   2.023   0.141  0.0648 -0.3341 -0.7635
  248MPD1    C1 3759   0.934   2.063   0.193  0.1171  0.0539  0.0289
  248MPD1    C2 3760   0.937   2.195   0.236 -0.5804  0.1949 -0.2475
  248MPD1    C3 3761   0.833   2.286   0.231  0.3362 -0.3729  0.1347
  248MPD1    C4 3762   0.720   2.238   0.163 -0.0128 -0.6347 -0.3184
  248MPD1    C5 3763   0.708   2.106   0.127  0.2652 -0.1097 -0.3141
  248MPD1     H 3764   1.033   2.227   0.275 -1.5694  0.7765  1.7166
  248MPD1    H1 3765   0.630   2.296   0.149  0.0441 -0.3215  0.6639
  248MPD1    H2 3766   0.802   1.921   0.109  1.3082 -0.2719 -1.5631
  248MPD1    H3 3767   0.616   2.083   0.074 -0.2176  1.7116 -0.2568
  248MPD1     N 3768   0.852   2.417   0.283 -0.2079  0.3491  0.3663
  248MPD1    H5 3769   0.940   2.447   0.324 -0.7472 -1.1091  2.5928
  248MPD1    N1 3770   1.046   1.987   0.179  0.1240 -0.6068  0.3132
  248MPD1    H6 3771   1.124   2.006   0.242 -0.3365 -0.4147  0.8171
  248MPD1    H7 3772   1.035   1.886   0.165 -2.0769  0.1180 -3.2799
  249MPD1     C 3773   3.242   2.693   9.120 -0.4331  0.1383 -0.8186
  249MPD1    C1 3774   3.173   2.581   9.169 -0.2102 -0.3161 -0.0174
  249MPD1    C2 3775   3.158   2.567   9.306 -0.2135  0.3189 -0.2144
  249MPD1    C3 3776   3.212   2.657   9.395  0.3514 -0.2816 -0.8258
  249MPD1    C4 3777   3.284   2.766   9.345  0.2142 -0.0403 -0.9660
  249MPD1    C5 3778   3.289   2.783   9.211  0.4461  0.3399  0.1658
  249MPD1     H 3779   3.112   2.476   9.342 -0.3646  0.1281 -0.8798
  249MPD1    H1 3780   3.331   2.839   9.410 -2.5514 -0.1743  1.1822
  249MPD1    H2 3781   3.250   2.715   9.014 -0.0693  0.5658 -0.7027
  249MPD1    H3 3782   3.341   2.870   9.172 -0.2760  0.2625 -0.9865
  249MPD1     N 3783   3.186   2.642   9.533 -0.4679 -0.4836 -0.3970
  249MPD1    H5 3784   3.143   2.554   9.556  1.3706 -1.5877 -1.1834
  249MPD1    N1 3785   3.129   2.481   9.082  0.0920  0.3124  0.1685
  249MPD1    H6 3786   3.109   2.524   8.992  2.4939 -1.4408 -1.1843
  249MPD1    H7 3787   3.049   2.423   9.106 -2.0554  2.8749 -0.8084
  250MPD2     C 3788   3.864   1.891  13.605 -0.3311  0.3087 -0.3197
  250MPD2    C1 3789   3.914   1.930  13.479 -0.8538  0.7879 -0.7283
  250MPD2    C2 3790   3.924   1.826  13.393  1.0752 -0.5056  0.6544
  250MPD2    C3 3791   3.892   1.693  13.426 -0.0413  0.0011  0.1764
  250MPD2    C4 3792   3.839   1.664  13.544  0.7082 -0.2954  0.6279
  250MPD2    C5 3793   3.834   1.765  13.643 -0.1335 -0.6293  0.1627
  250MPD2     H 3794   3.952   1.838  13.289  0.5951 -1.7035  0.3829
  250MPD2    H1 3795   3.814   1.566  13.582 -0.6287 -0.5758 -0.9518
  250MPD2    H2 3796   3.844   1.967  13.680 -0.5329  0.4527 -0.5201
  250MPD2    H3 3797   3.810   1.724  13.741 -0.2206 -0.6978  0.1129
  250MPD2     N 3798   3.916   1.581  13.341 -0.3586 -0.2127 -0.4994
  250MPD2    H5 3799   3.864   1.495  13.356 -2.3185  0.9671 -0.5093
  250MPD2    N1 3800   3.945   2.063  13.446  0.4329 -0.9841 -0.2714
  250MPD2    H7 3801   3.919   2.137  13.511  0.9030  1.1252 -2.4933
  251TMC3    C1 3802   3.987   2.253  13.305  1.4939  0.0754 -0.7837
  251TMC3    C2 3803   4.027   2.324  13.409 -0.2209 -0.4062  0.0874
  251TMC3    C3 3804   4.067   2.455  13.378 -0.6815 -0.4164  0.3409
  251TMC3    C4 3805   3.990   2.295  13.175 -0.2274  0.3071 -0.2609
  251TMC3    C5 3806   4.044   2.414  13.145  0.5213 -0.6361 -0.0150
  251TMC3    C6 3807   4.081   2.501  13.244  0.0810  0.4202  0.3826
  251TMC3     C 3808   3.987   2.111  13.320  0.1833 -0.3930  0.9213
  251TMC3     O 3809   4.025   2.047  13.223  0.4631 -0.1689  0.2354
  251TMC3     H 3810   4.035   2.299  13.514  1.3901  1.4632  0.4244
  251TMC3    H1 3811   3.962   2.222  13.101 -0.7786 -0.7846  1.0181
  251TMC3    H2 3812   4.142   2.589  13.227  0.5851  0.2074  1.0916
  251TMC3    C7 3813   4.132   2.409  13.018  0.8052  0.3967 -0.9386
  251TMC3    C8 3814   4.130   2.527  13.486  0.0844  0.0354  1.3384
  251TMC3    O1 3815   4.150   2.295  12.981  0.0859 -0.2937 -0.5543
  251TMC3    O2 3816   4.114   2.647  13.480  0.1039 -0.1989 -0.5336
  252TMC3    C1 3817   4.093   3.251   9.174 -0.3626 -0.6895  0.7524
  252TMC3    C2 3818   4.194   3.336   9.208  0.4757 -0.0094  0.2503
  252TMC3    C3 3819   4.304   3.276   9.272 -0.2753  0.3754  0.1708
  252TMC3    C4 3820   4.094   3.116   9.202  0.2945  0.1895  0.0001
  252TMC3    C5 3821   4.206   3.065   9.264 -0.8620  0.2439  0.5267
  252TMC3    C6 3822   4.316   3.142   9.290 -0.5078  0.3645  0.0507
  252TMC3     C 3823   3.991   3.310   9.091  0.1281 -0.1445 -0.1082
  252TMC3     O 3824   4.001   3.429   9.064 -0.4239  0.0326 -0.8327
  252TMC3     H 3825   4.190   3.444   9.192 -1.9309  0.0277  1.0988
  252TMC3    H1 3826   4.005   3.058   9.180  0.1526  0.5014 -0.2554
  252TMC3    H2 3827   4.409   3.099   9.324 -1.1241 -0.7028  0.3781
  252TMC3    C7 3828   4.207   2.927   9.288 -0.1001 -0.5259 -0.3155
  252TMC3    C8 3829   4.427   3.353   9.287  0.9630  0.2128 -0.2980
  252TMC3    O1 3830   4.097   2.877   9.278 -0.4182  0.6893 -0.4299
  252TMC3    O2 3831   4.431   3.451   9.216 -0.6613 -0.1879 -0.6801
  253MPD2     C 3832   0.875   1.510  16.014 -0.5868  0.0812  0.4894
  253MPD2    C1 3833   0.754   1.489  15.955 -0.0449  0.0032 -0.1816
  253MPD2    C2 3834   0.637   1.472  16.030  0.1530  0.3871 -0.1376
  253MPD2    C3 3835   0.647   1.477  16.167  0.3187  0.1697  0.2961
  253MPD2    C4 3836   0.768   1.478  16.228 -0.0404 -0.4685 -0.1167
  253MPD2    C5 3837   0.877   1.496  16.150 -0.3589 -1.0735  0.8529
  253MPD2     H 3838   0.539   1.484  15.985  0.1771 -1.3947 -0.6635
  253MPD2    H1 3839   0.783   1.474  16.335 -2.8316 -2.5467  0.1891
  253MPD2    H2 3840   0.969   1.523  15.961 -0.9037 -0.0988 -0.1251
  253MPD2    H3 3841   0.971   1.514  16.201  0.4384  1.2865 -1.4386
  253MPD2     N 3842   0.538   1.457  16.250 -0.4426  0.3559  0.2017
  253MPD2    H5 3843   0.550   1.458  16.351 -0.3481 -0.6895  0.1994
  253MPD2    N1 3844   0.734   1.499  15.815 -0.0782 -0.1886  0.3814
  253MPD2    H7 3845   0.638   1.486  15.784  0.3219  0.0518 -0.9434
  254TMC3    C1 3846   0.317   1.470  16.299  0.1717  0.0639  0.5937
  254TMC3    C2 3847   0.233   1.582  16.278  0.1289  0.1604  0.5954
  254TMC3    C3 3848   0.207   1.662  16.386  1.1253 -0.6809  0.0828
  254TMC3    C4 3849   0.360   1.434  16.423  0.2921 -0.3069 -0.4588
  254TMC3    C5 3850   0.341   1.523  16.526 -0.5132 -0.0999 -0.2039
  254TMC3    C6 3851   0.273   1.635  16.506 -0.2332  0.6541  0.3314
  254TMC3     C 3852   0.412   1.437  16.198  0.1467  0.3766 -0.1279
  254TMC3     O 3853   0.374   1.412  16.083  0.5367  0.2611  0.6277
  254TMC3     H 3854   0.197   1.604  16.178 -0.1048  1.2865  0.9223
  254TMC3    H1 3855   0.414   1.340  16.432  1.9173  0.6724 -0.1491
  254TMC3    H2 3856   0.269   1.700  16.592 -0.6723  1.6689 -0.4538
  254TMC3    C7 3857   0.382   1.489  16.659  0.0977  0.1881 -0.5098
  254TMC3    C8 3858   0.150   1.788  16.383  0.5728  0.1240  0.1178
  254TMC3    O1 3859   0.410   1.580  16.735 -0.2386 -0.5614 -0.6008
  254TMC3    O2 3860   0.201   1.876  16.451 -0.5878 -0.7615  0.3618
  255MPD2     C 3861   3.440   0.499  10.844  0.2451  0.2815  0.3629
  255MPD2    C1 3862   3.502   0.574  10.749 -0.1982 -0.5317  0.0716
  255MPD2    C2 3863   3.615   0.524  10.680 -0.5082 -0.7283 -0.0707
  255MPD2    C3 3864   3.656   0.399  10.708 -0.5473 -0.2816 -0.4616
  255MPD2    C4 3865   3.583   0.316  10.792 -0.1925 -0.4640 -0.6263
  255MPD2    C5 3866   3.477   0.368  10.862 -0.4505 -0.1695  0.0545
  255MPD2     H 3867   3.674   0.580  10.609  0.6468 -1.2158  0.4919
  255MPD2    H1 3868   3.610   0.215  10.824 -1.4334 -0.2169  1.2278
  255MPD2    H2 3869   3.353   0.542  10.893  2.2155  2.1360  2.2352
  255MPD2    H3 3870   3.425   0.304  10.932  0.2762 -1.8851 -0.9957
  255MPD2     N 3871   3.766   0.346  10.638 -0.0361 -0.0541  0.4638
  255MPD2    H5 3872   3.798   0.411  10.567 -1.3886  0.0912 -0.0089
  255MPD2    N1 3873   3.446   0.698  10.716  0.4216 -0.2660 -1.0788
  255MPD2    H7 3874   3.353   0.705  10.756  1.2275  2.9832  0.2729
  256TMC3    C1 3875   3.389   0.902  10.602  0.2962  0.2551 -0.1128
  256TMC3    C2 3876   3.352   0.927  10.472  0.5143  0.0579  0.8654
  256TMC3    C3 3877   3.244   1.006  10.450 -0.2512  0.3655  0.2245
  256TMC3    C4 3878   3.308   0.944  10.705 -0.2909 -0.1579 -0.7299
  256TMC3    C5 3879   3.200   1.027  10.682  0.1163 -0.4702  0.7996
  256TMC3    C6 3880   3.169   1.060  10.553 -0.8980 -0.2899 -0.5905
  256TMC3     C 3881   3.473   0.785  10.612  0.1296 -0.1001  0.5437
  256TMC3     O 3882   3.555   0.780  10.516 -0.7943 -0.2014 -0.2075
  256TMC3     H 3883   3.408   0.884  10.389  0.9440  3.3915 -0.5640
  256TMC3    H1 3884   3.340   0.922  10.806  3.4481  2.3783 -1.3569
  256TMC3    H2 3885   3.079   1.119  10.538 -1.8251 -1.4224  0.4212
  256TMC3    C7 3886   3.184   1.133  10.780  0.7161 -0.4274 -0.1476
  256TMC3    C8 3887   3.200   1.022  10.316  0.0900  0.8428 -0.6478
  256TMC3    O1 3888   3.172   1.244  10.738 -0.2438 -0.3445  0.7730
  256TMC3    O2 3889   3.140   1.124  10.286 -0.3939  0.7101 -0.0881
  257MPD2     C 3890   3.212   2.029  13.242 -0.8001  0.0430  0.3427
  257MPD2    C1 3891   3.208   1.936  13.143 -0.4688  0.2539 -0.4277
  257MPD2    C2 3892   3.212   1.800  13.179  0.6622 -1.0395  0.0557
  257MPD2    C3 3893   3.220   1.760  13.311 -0.7622  0.2137 -0.2276
  257MPD2    C4 3894   3.210   1.861  13.411 -0.8350 -0.2390 -0.2508
  257MPD2    C5 3895   3.203   1.996  13.374  0.5519  0.7945  0.4635
  257MPD2     H 3896   3.210   1.721  13.105  0.6463  0.6142 -1.7155
  257MPD2    H1 3897   3.205   1.842  13.518  1.5047 -1.1622 -0.3159
  257MPD2    H2 3898   3.212   2.134  13.213  0.0715 -0.1519 -0.3643
  257MPD2    H3 3899   3.189   2.081  13.441  0.7219  0.2983  1.1259
  257MPD2     N 3900   3.234   1.622  13.344  0.1505  0.5947 -0.0632
  257MPD2    H5 3901   3.257   1.559  13.268  0.7381 -1.3491  1.7416
  257MPD2    N1 3902   3.216   1.992  13.008  0.5537  0.1444 -0.0311
  257MPD2    H7 3903   3.219   2.093  13.000 -2.4470  0.1354 -1.3721
  258TMC3    C1 3904   3.206   1.420  13.456 -0.0648 -0.4039  0.2211
  258TMC3    C2 3905   3.134   1.343  13.541  0.5259  1.0100  0.2231
  258TMC3    C3 3906   3.169   1.202  13.545  0.2398  0.1125 -0.4021
  258TMC3    C4 3907   3.317   1.371  13.387  0.0294  0.0877  0.2275
  258TMC3    C5 3908   3.348   1.241  13.400 -0.7500  1.6640 -0.4295
  258TMC3    C6 3909   3.271   1.146  13.469  0.1564  0.0953  0.2710
  258TMC3     C 3910   3.207   1.562  13.464 -0.1184  0.1838 -0.1509
  258TMC3     O 3911   3.147   1.608  13.560 -0.1347 -0.6020  0.0372
  258TMC3     H 3912   3.063   1.388  13.609 -1.0952 -0.2495 -0.6269
  258TMC3    H1 3913   3.381   1.437  13.330 -0.4964 -1.0789 -1.7176
  258TMC3    H2 3914   3.304   1.043  13.478 -0.3081 -0.1777 -1.1338
  258TMC3    C7 3915   3.475   1.205  13.343 -0.4335 -0.2845 -0.3005
  258TMC3    C8 3916   3.062   1.119  13.586  0.0770 -0.5293 -0.1380
  258TMC3    O1 3917   3.513   1.276  13.246 -0.1707  0.0985 -0.0391
  258TMC3    O2 3918   2.976   1.162  13.659  0.0843  0.2804  0.0103
  259MPD2     C 3919   1.508   3.174   1.334  0.5116 -0.5374  0.8674
  259MPD2    C1 3920   1.644   3.194   1.360 -0.1295  0.0333  0.1212
  259MPD2    C2 3921   1.736   3.166   1.263 -0.6099  0.3330 -0.0396
  259MPD2    C3 3922   1.702   3.110   1.146  0.2532  0.1100 -0.0668
  259MPD2    C4 3923   1.566   3.087   1.115 -0.1220  0.0468  0.1014
  259MPD2    C5 3924   1.473   3.125   1.209  0.3357 -0.1277  0.0852
  259MPD2     H 3925   1.839   3.177   1.293 -0.9597  1.8630  0.5663
  259MPD2    H1 3926   1.536   3.039   1.022  0.0685 -0.5939  0.3720
  259MPD2    H2 3927   1.425   3.200   1.399 -1.5403 -0.7595 -1.6565
  259MPD2    H3 3928   1.368   3.103   1.192  0.3541  0.6512 -1.0152
  259MPD2     N 3929   1.811   3.068   1.070 -0.1479  0.0536 -0.4521
  259MPD2    H5 3930   1.903   3.065   1.113 -1.0651  3.2946  1.6744
  259MPD2    N1 3931   1.682   3.228   1.490  0.0500 -0.1438 -0.1595
  259MPD2    H7 3932   1.609   3.213   1.558 -0.7618 -0.3166 -1.0698
  260TMC3    C1 3933   1.937   3.032   0.881  0.1221 -0.2839  0.5302
  260TMC3    C2 3934   1.942   3.045   0.741  0.3814  0.0177  0.2189
  260TMC3    C3 3935   2.055   3.101   0.686  0.2461 -0.6910  0.7288
  260TMC3    C4 3936   2.046   3.055   0.956 -0.2969  0.2169 -0.5797
  260TMC3    C5 3937   2.156   3.111   0.895 -0.0110 -0.5337 -0.6288
  260TMC3    C6 3938   2.157   3.139   0.769  0.5048  0.0711 -0.5796
  260TMC3     C 3939   1.800   3.027   0.938  0.0162 -0.1962  0.3609
  260TMC3     O 3940   1.705   3.012   0.863  0.2624  0.1962 -0.1143
  260TMC3     H 3941   1.867   2.999   0.677  1.7358 -1.0922 -0.5482
  260TMC3    H1 3942   2.056   3.029   1.061  3.7582  0.1406 -0.9877
  260TMC3    H2 3943   2.236   3.203   0.731 -0.2260  0.0189 -2.2247
  260TMC3    C7 3944   2.250   3.174   0.983  0.9296 -0.6730  0.1879
  260TMC3    C8 3945   2.079   3.070   0.541  0.0571 -0.4743  0.1423
  260TMC3    O1 3946   2.241   3.294   1.002 -0.0011  0.8598  0.3925
  260TMC3    O2 3947   1.984   3.027   0.479 -0.0077  0.4698 -0.4655
  261MPD2     C 3948   3.634   1.280  12.659 -0.2687  0.9203 -0.4103
  261MPD2    C1 3949   3.692   1.394  12.713 -0.0673  0.2483 -0.3285
  261MPD2    C2 3950   3.705   1.501  12.625  0.7331  0.0608  0.4346
  261MPD2    C3 3951   3.679   1.497  12.489 -0.0010 -0.3824 -0.5304
  261MPD2    C4 3952   3.634   1.383  12.436  0.8266 -0.3361  0.7004
  261MPD2    C5 3953   3.609   1.279  12.522 -0.4798  0.2868 -0.6211
  261MPD2     H 3954   3.759   1.588  12.662  1.8189  0.1456 -1.3472
  261MPD2    H1 3955   3.606   1.371  12.332  1.7532  1.2202  0.2626
  261MPD2    H2 3956   3.622   1.181  12.701 -0.0681  1.1192  0.1156
  261MPD2    H3 3957   3.570   1.191  12.472  2.8654 -0.9666 -1.0862
  261MPD2     N 3958   3.700   1.608  12.405 -0.3300 -0.3686  0.6763
  261MPD2    H5 3959   3.711   1.584  12.307 -1.0879 -2.0905  1.0059
  261MPD2    N1 3960   3.744   1.405  12.844 -0.3215  0.7771  0.2485
  261MPD2    H7 3961   3.814   1.476  12.862  0.5661 -0.0235 -0.0674
  262TMC3    C1 3962   3.787   1.804  12.353 -0.8685 -0.4884  0.3617
  262TMC3    C2 3963   3.794   1.940  12.371 -0.4538 -0.4006 -0.8553
  262TMC3    C3 3964   3.900   2.004  12.309  0.1581 -0.0278 -0.3602
  262TMC3    C4 3965   3.890   1.731  12.292 -0.5901  0.4121  0.0706
  262TMC3    C5 3966   3.983   1.801  12.223  0.4848  0.3604 -0.4052
  262TMC3    C6 3967   3.995   1.934  12.244  0.0911 -0.4285 -0.3101
  262TMC3     C 3968   3.707   1.737  12.448 -0.3077 -0.4944  0.3343
  262TMC3     O 3969   3.652   1.790  12.545 -0.2647  0.0082  0.1009
  262TMC3     H 3970   3.741   1.993  12.449  2.5517 -2.5109  2.6654
  262TMC3    H1 3971   3.892   1.623  12.284  1.4402  0.5604 -1.2877
  262TMC3    H2 3972   4.090   1.972  12.207  1.1955 -1.2099  1.6727
  262TMC3    C7 3973   3.972   1.771  12.081 -0.6341 -0.4514  0.3786
  262TMC3    C8 3974   3.880   2.144  12.264  0.0568  0.5221  0.1356
  262TMC3    O1 3975   3.943   1.656  12.055  0.0900  0.4158  0.1906
  262TMC3    O2 3976   3.958   2.173  12.168  0.4280  0.2201  0.1014
  263MPD2     C 3977   4.642   1.675  11.768  0.2659  0.0260  0.7096
  263MPD2    C1 3978   4.723   1.572  11.728 -0.0063  0.3341 -0.2200
  263MPD2    C2 3979   0.014   1.534  11.597 -1.0096 -0.3920  0.0056
  263MPD2    C3 3980   4.658   1.591  11.499 -0.0244 -0.6292 -0.3899
  263MPD2    C4 3981   4.571   1.692  11.537  0.5182 -0.7350  0.7580
  263MPD2    C5 3982   4.556   1.730  11.672  0.2054 -0.7875 -0.5232
  263MPD2     H 3983   0.073   1.448  11.569 -1.2959 -0.5940  0.0194
  263MPD2    H1 3984   4.508   1.741  11.463 -1.4173  1.4242  3.8113
  263MPD2    H2 3985   4.630   1.703  11.872 -1.0534 -0.1131  0.5840
  263MPD2    H3 3986   4.477   1.801  11.693  2.0741  0.5592  1.8886
  263MPD2     N 3987   4.674   1.551  11.366 -0.3656  0.0236 -0.1145
  263MPD2    H5 3988   0.047   1.526  11.348 -0.1653  0.3169  0.5741
  263MPD2    N1 3989   0.068   1.514  11.832 -0.3350 -0.3464  0.0312
  263MPD2    H7 3990   0.071   1.558  11.923  0.6947 -0.4279  0.0343
  264TMC3    C1 3991   4.634   1.605  11.144  0.3147 -0.2790 -0.0215
  264TMC3    C2 3992   4.560   1.695  11.076  0.9385 -0.0717  0.3901
  264TMC3    C3 3993   4.598   1.720  10.948  0.1291  0.2943 -0.0186
  264TMC3    C4 3994   0.019   1.536  11.102  0.2126 -0.4667  0.5220
  264TMC3    C5 3995   0.045   1.568  10.971  0.0059 -0.5399 -0.6959
  264TMC3    C6 3996   4.692   1.643  10.890 -0.1339 -0.6450 -0.2166
  264TMC3     C 3997   4.581   1.582  11.273 -0.2127 -0.5668 -0.3755
  264TMC3     O 3998   4.463   1.583  11.285  0.8155 -0.6560  0.1531
  264TMC3     H 3999   4.488   1.755  11.130  1.2803  0.9184 -0.2514
  264TMC3    H1 4000   0.085   1.483  11.169  0.3534  3.0777  3.2012
  264TMC3    H2 4001   4.720   1.664  10.787  0.1061  0.4933  0.0825
  264TMC3    C7 4002   0.176   1.531  10.920  0.2939 -0.2995 -0.1472
  264TMC3    C8 4003   4.625   1.859  10.917 -0.1413 -0.2186  0.2154
  264TMC3    O1 4004   0.245   1.446  10.981  0.1430 -0.4248 -0.8184
  264TMC3    O2 4005   4.712   1.881  10.832  0.2701 -0.0941 -0.3896
  265MPD2     C 4006   1.812   1.170  15.656 -0.1566  0.5399 -0.0390
  265MPD2    C1 4007   1.932   1.235  15.638 -0.1210  0.0774 -0.2217
  265MPD2    C2 4008   2.022   1.186  15.546  0.2738 -0.0338  0.0305
  265MPD2    C3 4009   1.984   1.078  15.462 -0.1400  0.4465 -0.3103
  265MPD2    C4 4010   1.855   1.031  15.469  0.0789  0.2457  0.1920
  265MPD2    C5 4011   1.770   1.070  15.571 -0.4275 -0.1777  0.3848
  265MPD2     H 4012   2.117   1.237  15.532  0.0695  0.6971  1.2655
  265MPD2    H1 4013   1.816   0.958  15.399 -1.4958  1.0821  0.2031
  265MPD2    H2 4014   1.745   1.213  15.730 -0.3592 -0.4734  0.3699
  265MPD2    H3 4015   1.673   1.023  15.585  2.4571 -6.7687 -1.6897
  265MPD2     N 4016   2.071   1.031  15.363  0.0356 -0.4099  0.3364
  265MPD2    H5 4017   2.041   0.943  15.321  1.6408  0.1262 -1.9463
  265MPD2    N1 4018   1.941   1.351  15.714  0.9079 -0.1794  0.5383
  265MPD2    H7 4019   1.862   1.372  15.774 -2.2581 -2.6066 -2.7325
  266TMC3    C1 4020   1.999   1.565  15.794  0.3614 -0.1691  0.2138
  266TMC3    C2 4021   2.084   1.613  15.886 -0.1942  0.1813 -0.5236
  266TMC3    C3 4022   2.037   1.686  15.990  0.7825 -0.1033 -0.3399
  266TMC3    C4 4023   1.865   1.591  15.803  0.2285  0.1671  0.3237
  266TMC3    C5 4024   1.819   1.662  15.907  0.0519 -0.0550  0.4438
  266TMC3    C6 4025   1.899   1.710  16.003 -0.5692  0.2124 -0.9850
  266TMC3     C 4026   2.038   1.449  15.708 -0.0635 -0.0433  0.4613
  266TMC3     O 4027   2.151   1.445  15.661 -0.5611  0.2895 -0.6964
  266TMC3     H 4028   2.188   1.582  15.892 -0.9716 -1.8476  2.7088
  266TMC3    H1 4029   1.800   1.561  15.722  1.8823 -1.8542 -0.2441
  266TMC3    H2 4030   1.869   1.768  16.090 -1.6377  1.6478 -2.3250
  266TMC3    C7 4031   1.677   1.684  15.929  0.9423 -1.0586  0.3528
  266TMC3    C8 4032   2.122   1.693  16.108 -0.5155 -0.7034 -0.4908
  266TMC3    O1 4033   1.601   1.611  15.870 -0.1735  0.6294  0.2814
  266TMC3    O2 4034   2.233   1.642  16.099 -0.2679 -0.1894 -0.0546
  267MPD2     C 4035   4.188   3.432   0.097 -0.4198  0.4039 -0.7183
  267MPD2    C1 4036   4.299   3.499   0.058 -0.6897 -0.2246 -0.0754
  267MPD2    C2 4037   4.332   3.510  17.619  0.0288 -0.2141  0.0823
  267MPD2    C3 4038   4.258   3.433  17.530 -0.0916  0.4855  0.0894
  267MPD2    C4 4039   4.151   3.351  17.565 -0.1522 -0.1555 -0.8740
  267MPD2    C5 4040   4.114   3.362   0.004 -0.5074  0.0207 -0.8698
  267MPD2     H 4041   4.421   3.567  17.596  0.6027 -0.8094  0.8263
  267MPD2    H1 4042   4.086   3.296  17.498 -1.6342  0.2547  0.2105
  267MPD2    H2 4043   4.159   3.444   0.201  1.2660 -0.2625 -0.1827
  267MPD2    H3 4044   4.022   3.314   0.035  0.4094 -0.1458  1.6324
  267MPD2     N 4045   4.282   3.441  17.392  0.4829  0.0429  0.0954
  267MPD2    H5 4046   4.230   3.376  17.334 -1.5209 -0.4773  2.4641
  267MPD2    N1 4047   4.372   3.575   0.158 -0.4307  0.2656  0.1893
  267MPD2    H7 4048   4.342   3.572   0.255  0.4129 -1.6490  0.3883
  268TMC3    C1 4049   4.533   3.717   0.250  0.2202 -0.2749 -0.2853
  268TMC3    C2 4050   4.583   3.841   0.233  0.3049  0.1505  0.1099
  268TMC3    C3 4051   4.639   3.893   0.347 -0.7232 -0.8069 -0.5555
  268TMC3    C4 4052   4.534   3.648   0.370 -0.0437 -0.0189  0.3069
  268TMC3    C5 4053   4.575   3.716   0.484  0.7539  0.1496  0.4901
  268TMC3    C6 4054   4.632   3.838   0.473  0.2616  0.1963  0.0387
  268TMC3     C 4055   4.479   3.657   0.133  0.0464  0.4694  0.3899
  268TMC3     O 4056   4.505   3.720   0.032  0.1696 -0.4457 -0.3258
  268TMC3     H 4057   4.604   3.889   0.138  2.0412 -1.9531 -0.5754
  268TMC3    H1 4058   4.488   3.550   0.379 -1.9287  1.0882  2.5811
  268TMC3    H2 4059   4.681   3.894   0.552  1.2371 -2.9266  1.6555
  268TMC3    C7 4060   4.580   3.643   0.607  0.1900 -0.4176  0.1986
  268TMC3    C8 4061   4.666   4.036   0.349 -0.1315 -0.3934  0.4517
  268TMC3    O1 4062   4.582   3.522   0.603  0.7943  0.0514  0.0269
  268TMC3    O2 4063   4.625   4.111   0.435  0.2201  0.1759 -0.5364
  269MPD2     C 4064   0.067   2.055  15.548 -0.1782 -0.3801  0.0867
  269MPD2    C1 4065   4.674   2.080  15.617  0.5767  0.5646  0.5525
  269MPD2    C2 4066   4.634   2.216  15.621 -0.1776  0.0117  0.1997
  269MPD2    C3 4067   4.690   2.320  15.543 -0.3917  0.6677 -0.7900
  269MPD2    C4 4068   0.064   2.277  15.458 -0.0333  0.2372 -0.2179
  269MPD2    C5 4069   0.123   2.156  15.469 -0.6107 -0.1950 -0.1166
  269MPD2     H 4070   4.551   2.247  15.682  0.5031 -0.8781  1.5850
  269MPD2    H1 4071   0.117   2.345  15.392 -3.2720  2.4038 -0.6311
  269MPD2    H2 4072   0.100   1.953  15.533  0.9749 -0.1413  1.0351
  269MPD2    H3 4073   0.210   2.140  15.406 -0.1135  1.2776  0.1965
  269MPD2     N 4074   4.664   2.460  15.561 -0.1477  0.9075 -0.0605
  269MPD2    H5 4075   4.599   2.475  15.638  0.8660 -1.3028  1.2183
  269MPD2    N1 4076   4.607   1.978  15.691  0.2568 -0.2386  0.2601
  269MPD2    H7 4077   4.659   1.891  15.694  0.8424  0.1054  0.1878
  270TMC3    C1 4078   4.448   1.869  15.820 -0.1248  0.1336  0.4707
  270TMC3    C2 4079   4.315   1.830  15.800 -0.1597 -0.6364 -0.4427
  270TMC3    C3 4080   4.294   1.712  15.845  0.0151  0.2184  0.6717
  270TMC3    C4 4081   4.547   1.791  15.872 -0.5519  0.4559 -0.1783
  270TMC3    C5 4082   4.505   1.668  15.912 -0.2144 -0.7122  0.3671
  270TMC3    C6 4083   4.381   1.625  15.905  0.0889  0.2409  0.5174
  270TMC3     C 4084   4.482   1.985  15.748  0.0313 -0.1973  0.8759
  270TMC3     O 4085   4.388   2.064  15.731 -0.6548  0.1589  0.2603
  270TMC3     H 4086   4.242   1.884  15.740  1.0845  0.9386 -0.5504
  270TMC3    H1 4087   4.655   1.807  15.868 -0.5753  0.0583 -2.9199
  270TMC3    H2 4088   4.340   1.530  15.938  0.4858  0.1628  0.7806
  270TMC3    C7 4089   4.610   1.578  15.946  0.6242  0.3942 -0.0135
  270TMC3    C8 4090   4.184   1.648  15.774  0.2001 -0.3931  0.3575
  270TMC3    O1 4091   4.704   1.634  16.003  0.8650  0.3939 -0.1649
  270TMC3    O2 4092   4.070   1.690  15.788  0.1606  0.1042  0.0456
  271MPD2     C 4093   3.717   1.469  14.084  0.8636 -0.3528 -0.8346
  271MPD2    C1 4094   3.661   1.426  14.201  0.1567 -0.6952 -0.0213
  271MPD2    C2 4095   3.537   1.465  14.239  0.4298 -0.2421 -1.0887
  271MPD2    C3 4096   3.459   1.549  14.161  0.1574 -0.0254  0.8418
  271MPD2    C4 4097   3.523   1.596  14.048 -0.1529  0.2334 -0.0367
  271MPD2    C5 4098   3.645   1.547  14.001 -0.2446  0.0445  0.8657
  271MPD2     H 4099   3.498   1.429  14.334 -0.9791  1.5871 -0.9747
  271MPD2    H1 4100   3.465   1.657  13.979  0.2881  1.1396  0.3936
  271MPD2    H2 4101   3.821   1.445  14.064  0.9771 -1.5508  1.1136
  271MPD2    H3 4102   3.691   1.571  13.906  0.6230 -0.7573  1.0806
  271MPD2     N 4103   3.323   1.584  14.184 -0.3184  0.3790  0.2376
  271MPD2    H5 4104   3.279   1.654  14.126  0.2612 -1.0116 -1.8698
  271MPD2    N1 4105   3.741   1.365  14.306  0.1181 -0.1913  0.3640
  271MPD2    H7 4106   3.692   1.348  14.393  1.4527  0.0407  1.1517
  272TMC3    C1 4107   3.905   1.229  14.404  0.1056 -0.3619  0.4599
  272TMC3    C2 4108   3.987   1.119  14.381  0.6437 -0.5063 -0.4897
  272TMC3    C3 4109   4.012   1.036  14.489  0.5531  0.2792  0.2979
  272TMC3    C4 4110   3.869   1.267  14.531  0.0395  0.3281 -0.5782
  272TMC3    C5 4111   3.908   1.183  14.636  0.3413  0.8692  0.3963
  272TMC3    C6 4112   3.975   1.062  14.616 -1.1557 -0.2905  0.7269
  272TMC3     C 4113   3.863   1.304  14.286 -0.2334  0.3416 -0.2565
  272TMC3     O 4114   3.913   1.280  14.178  0.3576 -0.2268 -0.2714
  272TMC3     H 4115   4.003   1.094  14.277 -0.8584 -2.8453 -0.1660
  272TMC3    H1 4116   3.807   1.350  14.562 -0.9377  0.1365 -2.0333
  272TMC3    H2 4117   3.999   0.991  14.695  1.8311  1.2020  1.1489
  272TMC3    C7 4118   3.862   1.205  14.772  0.3233 -0.2250  0.3720
  272TMC3    C8 4119   4.112   0.931  14.450  0.3644 -0.0511  0.6238
  272TMC3    O1 4120   3.742   1.194  14.793 -0.2902 -0.0751 -0.2721
  272TMC3    O2 4121   4.133   0.921  14.325  0.1564  0.0319 -0.1136
  273MPD2     C 4122   0.035   4.655  12.014 -0.6505 -0.5272  0.2084
  273MPD2    C1 4123   0.159   4.672  12.082 -0.7786 -0.4221  0.8295
  273MPD2    C2 4124   0.249   0.047  12.042  0.9384  0.2163 -0.0281
  273MPD2    C3 4125   0.227   0.123  11.927 -0.2325 -0.1103  0.2724
  273MPD2    C4 4126   0.098   0.110  11.872 -0.5708 -0.0593  0.5168
  273MPD2    C5 4127   0.002   0.025  11.913  0.4543  0.1439  0.1826
  273MPD2     H 4128   0.342   0.058  12.097  0.6184 -1.4912  0.8491
  273MPD2    H1 4129   0.081   0.173  11.785 -2.4895  2.5869  2.8423
  273MPD2    H2 4130   4.689   4.584  12.057 -3.8191  0.7950 -2.7800
  273MPD2    H3 4131   4.631   0.012  11.862  0.1638  1.2000  0.4629
  273MPD2     N 4132   0.330   0.195  11.875 -0.7339  0.1133  0.8844
  273MPD2    H5 4133   0.310   0.239  11.786  1.2484  1.1262  0.9593
  273MPD2    N1 4134   0.188   4.593  12.199  0.1371 -0.4238  0.7805
  273MPD2    H7 4135   0.119   4.538  12.248 -1.7789  1.3677  0.0832
  274TMC3    C1 4136   0.529   0.304  11.847 -0.5776  0.0057  0.1406
  274TMC3    C2 4137   0.503   0.291  11.708  0.0294  0.4924  0.1325
  274TMC3    C3 4138   0.543   0.398  11.632  0.3148  0.4105 -0.0795
  274TMC3    C4 4139   0.589   0.411  11.905  0.3078  0.1303  0.0539
  274TMC3    C5 4140   0.624   0.511  11.823 -0.6352 -0.7878 -0.4534
  274TMC3    C6 4141   0.609   0.509  11.687 -0.1853 -0.2574 -0.1427
  274TMC3     C 4142   0.456   0.210  11.923  0.0792  0.2323 -0.0520
  274TMC3     O 4143   0.483   0.222  12.039 -0.4314  0.4213  0.2805
  274TMC3     H 4144   0.462   0.197  11.673 -0.4892  0.0357  1.9758
  274TMC3    H1 4145   0.623   0.407  12.008  0.1644  3.1402  0.2223
  274TMC3    H2 4146   0.623   0.600  11.631  2.7989 -0.8058 -0.3067
  274TMC3    C7 4147   0.667   0.639  11.881 -0.2314  0.1813  0.1912
  274TMC3    C8 4148   0.478   0.418  11.504 -0.0399 -0.0927 -0.2479
  274TMC3    O1 4149   0.673   0.739  11.813  0.6124  0.5642  0.5655
  274TMC3    O2 4150   0.371   0.366  11.497 -0.4082 -0.2154  0.0663
  275MPD2     C 4151   0.847   2.285  14.542 -0.0179 -0.2612  0.4965
  275MPD2    C1 4152   0.776   2.296  14.665 -1.0085  0.0453  0.1296
  275MPD2    C2 4153   0.654   2.234  14.680  0.1759  0.7285 -0.3132
  275MPD2    C3 4154   0.584   2.188  14.568 -0.1670  0.7586 -0.0273
  275MPD2    C4 4155   0.656   2.179  14.450  0.1056 -0.5422 -0.4306
  275MPD2    C5 4156   0.786   2.224  14.436  0.2155  0.5953  0.2563
  275MPD2     H 4157   0.597   2.223  14.771  0.6158 -1.2960 -0.2943
  275MPD2    H1 4158   0.603   2.129  14.369 -2.9642 -2.2117  2.6064
  275MPD2    H2 4159   0.949   2.321  14.536 -0.9392  1.8273 -2.3088
  275MPD2    H3 4160   0.845   2.206  14.347 -1.9807 -0.6791 -0.9313
  275MPD2     N 4161   0.449   2.132  14.570 -0.0956  0.4691  0.4059
  275MPD2    H5 4162   0.424   2.084  14.484 -0.3944  1.9757 -0.3589
  275MPD2    N1 4163   0.826   2.356  14.788 -0.3741 -0.0381 -0.1643
  275MPD2    H7 4164   0.766   2.326  14.864 -1.3257  1.6305 -0.2593
  276TMC3    C1 4165   0.973   2.471  14.937  0.2273  0.4138  0.3740
  276TMC3    C2 4166   0.867   2.474  15.030 -0.1423 -0.2756 -0.6296
  276TMC3    C3 4167   0.885   2.534  15.150 -0.9304 -1.0309  0.2555
  276TMC3    C4 4168   1.085   2.542  14.958 -0.1507  0.5335  0.3599
  276TMC3    C5 4169   1.104   2.596  15.084 -0.4171 -0.0356 -0.0042
  276TMC3    C6 4170   1.001   2.598  15.179 -0.0259  1.0126 -0.2796
  276TMC3     C 4171   0.937   2.430  14.805 -0.1951  0.4873  0.4144
  276TMC3     O 4172   1.013   2.463  14.712  0.2568  0.2399  0.0869
  276TMC3     H 4173   0.773   2.425  15.006 -0.5387 -0.2396  0.8539
  276TMC3    H1 4174   1.164   2.545  14.885 -1.8590  1.4122 -1.4565
  276TMC3    H2 4175   1.015   2.650  15.273  0.7267  1.6101 -0.7194
  276TMC3    C7 4176   1.231   2.649  15.131 -0.8662  0.2255 -0.5095
  276TMC3    C8 4177   0.810   2.492  15.265 -0.1952 -0.0710 -0.2570
  276TMC3    O1 4178   1.236   2.699  15.246  0.4885 -0.8403  0.0433
  276TMC3    O2 4179   0.805   2.572  15.358 -0.3585 -0.5996 -0.3134
  277MPD2     C 4180   2.771   1.775  13.357  0.1547 -0.0279  0.5222
  277MPD2    C1 4181   2.635   1.758  13.358  0.1682 -0.9116 -0.5949
  277MPD2    C2 4182   2.588   1.669  13.454  0.0724  0.7692 -0.1590
  277MPD2    C3 4183   2.668   1.605  13.550  0.0330 -0.0127 -0.6089
  277MPD2    C4 4184   2.806   1.618  13.544 -0.0319  0.5216  0.7162
  277MPD2    C5 4185   2.856   1.707  13.449 -0.4265 -0.1894 -0.4956
  277MPD2     H 4186   2.482   1.661  13.471  0.3426 -2.1255  0.1646
  277MPD2    H1 4187   2.876   1.570  13.612  1.9909  1.2701 -0.8606
  277MPD2    H2 4188   2.819   1.828  13.276  0.2511 -1.8666 -0.6332
  277MPD2    H3 4189   2.964   1.707  13.438 -0.6577  0.6901 -2.8994
  277MPD2     N 4190   2.606   1.525  13.654  0.6123  0.2923  0.0608
  277MPD2    H5 4191   2.505   1.531  13.655  0.6073  0.0631  0.6299
  277MPD2    N1 4192   2.552   1.815  13.260 -0.2943 -0.1112 -0.2545
  277MPD2    H7 4193   2.598   1.881  13.198  0.2595 -0.6238 -0.3856
  278TMC3    C1 4194   2.587   1.386  13.833  0.4294  0.3779  0.4481
  278TMC3    C2 4195   2.572   1.252  13.796 -0.5309  0.0087 -0.6635
  278TMC3    C3 4196   2.446   1.205  13.775 -0.7458  0.1481 -0.3209
  278TMC3    C4 4197   2.473   1.465  13.832  0.3685 -0.1231 -0.2130
  278TMC3    C5 4198   2.346   1.412  13.823  0.0781  0.5429 -0.5558
  278TMC3    C6 4199   2.332   1.283  13.793 -0.2090  0.3803  0.3661
  278TMC3     C 4200   2.674   1.451  13.745 -0.3086 -0.3050  0.8302
  278TMC3     O 4201   2.788   1.412  13.745  0.0642 -0.1010  0.0700
  278TMC3     H 4202   2.662   1.202  13.763 -1.2649 -1.2577 -0.7634
  278TMC3    H1 4203   2.470   1.562  13.881  0.9210 -0.0281 -0.3661
  278TMC3    H2 4204   2.229   1.253  13.780 -0.0547  0.8843 -2.1671
  278TMC3    C7 4205   2.234   1.501  13.812  0.6833  0.0819  0.1841
  278TMC3    C8 4206   2.435   1.086  13.701 -0.1222 -0.4384  1.0057
  278TMC3    O1 4207   2.240   1.612  13.754  0.1573  0.3721  1.1485
  278TMC3    O2 4208   2.520   1.004  13.732 -0.2187 -0.6761 -0.0415
  279MPD2     C 4209   1.452   1.648   0.388  0.2489  1.0120 -0.1015
  279MPD2    C1 4210   1.385   1.764   0.363  0.0018 -0.6145  0.4762
  279MPD2    C2 4211   1.454   1.857   0.284 -0.8821  0.4372  0.0239
  279MPD2    C3 4212   1.571   1.824   0.228 -0.2121  0.5952 -0.1165
  279MPD2    C4 4213   1.628   1.699   0.244  0.4213  0.4799  0.9096
  279MPD2    C5 4214   1.569   1.610   0.330  1.0041  0.4408 -0.6101
  279MPD2     H 4215   1.403   1.951   0.266  0.0681  0.9776  0.1449
  279MPD2    H1 4216   1.725   1.670   0.203 -0.7528  1.2269 -2.4410
  279MPD2    H2 4217   1.402   1.570   0.445  0.3271  0.1262 -1.2571
  279MPD2    H3 4218   1.608   1.510   0.343 -0.7387 -0.1772 -0.1361
  279MPD2     N 4219   1.644   1.918   0.149 -0.0215  0.8058 -0.1620
  279MPD2    H5 4220   1.710   1.882   0.080 -0.5745 -1.3438  0.4492
  279MPD2    N1 4221   1.265   1.791   0.427  0.2980 -0.4134  0.4777
  279MPD2    H7 4222   1.214   1.711   0.464  1.1988 -0.8922  0.6864
  280TMC3    C1 4223   1.079   1.908   0.501 -0.2330  0.7329 -0.3853
  280TMC3    C2 4224   0.995   1.812   0.455  0.3513  0.2292 -0.6689
  280TMC3    C3 4225   0.865   1.856   0.456 -0.4193 -0.2606 -0.2603
  280TMC3    C4 4226   1.041   2.031   0.547  0.3651  0.4709  0.6037
  280TMC3    C5 4227   0.911   2.071   0.534  0.6963  0.0542 -0.2589
  280TMC3    C6 4228   0.823   1.981   0.482 -0.9142  0.4796  0.0558
  280TMC3     C 4229   1.214   1.914   0.451 -0.8727  0.0745 -0.9210
  280TMC3     O 4230   1.268   2.021   0.421 -1.1839  1.1557  0.0836
  280TMC3     H 4231   1.028   1.728   0.394 -1.5359 -0.9953 -0.0056
  280TMC3    H1 4232   1.112   2.092   0.600  0.7134  0.3990  0.2189
  280TMC3    H2 4233   0.719   2.012   0.477 -0.7140  1.2364  0.4811
  280TMC3    C7 4234   0.872   2.200   0.593  0.5520 -0.5595 -0.6094
  280TMC3    C8 4235   0.765   1.759   0.415 -0.5132 -0.1081 -0.3799
  280TMC3    O1 4236   0.944   2.228   0.688  0.4506  0.2516  0.0170
  280TMC3    O2 4237   0.658   1.798   0.372 -0.7368  0.1857  0.0183
  281TMC3    C1 4238   0.155   2.216  13.283  0.0235  0.4552  0.3024
  281TMC3    C2 4239   0.101   2.273  13.164 -0.5085 -0.3235 -0.2055
  281TMC3    C3 4240   0.038   2.191  13.079  0.0953  0.6260 -0.1212
  281TMC3    C4 4241   0.146   2.082  13.313  1.0348  0.3538  0.1471
  281TMC3    C5 4242   0.082   2.002  13.219 -0.0615 -0.1155  0.2250
  281TMC3    C6 4243   0.031   2.058  13.107 -0.2291  0.8865 -0.4732
  281TMC3     C 4244   0.180   2.309  13.393  0.5314  0.4010 -0.3999
  281TMC3     O 4245   0.274   2.297  13.471 -0.6430 -0.2163  0.0494
  281TMC3     H 4246   0.132   2.373  13.135 -0.6732 -0.9999 -2.7722
  281TMC3    H1 4247   0.187   2.053  13.409  1.4226  0.5077  0.0303
  281TMC3    H2 4248   4.709   1.992  13.034  0.7588 -0.2775 -0.0232
  281TMC3    C7 4249   0.035   1.871  13.248  0.0537 -0.4097  0.0316
  281TMC3    C8 4250   4.647   2.252  13.012 -0.6596 -0.2491 -0.3817
  281TMC3    O1 4251   4.672   1.822  13.178  0.4772  0.1492 -0.0180
  281TMC3    O2 4252   4.560   2.173  12.973 -0.0151 -0.4285  0.2439
  282MPD2     C 4253   2.144   3.158  15.291  0.7290  0.6664 -0.2959
  282MPD2    C1 4254   2.112   3.273  15.362 -0.2243 -0.2219  0.6805
  282MPD2    C2 4255   2.064   3.382  15.292  0.0864 -0.4140 -0.1141
  282MPD2    C3 4256   2.028   3.370  15.156 -0.4598 -0.2838 -0.6751
  282MPD2    C4 4257   2.056   3.258  15.088 -0.1721  0.4564  0.0951
  282MPD2    C5 4258   2.112   3.153  15.158  0.0050  0.6474 -0.7041
  282MPD2     H 4259   2.043   3.475  15.344 -0.4676 -1.4582  1.5461
  282MPD2    H1 4260   2.037   3.239  14.983 -0.6682 -0.0663  0.2789
  282MPD2    H2 4261   2.200   3.078  15.339  0.9629  0.3439 -1.1188
  282MPD2    H3 4262   2.136   3.064  15.101 -0.2979  1.6121 -2.3161
  282MPD2     N 4263   1.976   3.489  15.099  0.3332 -0.2162 -0.1624
  282MPD2    H5 4264   1.954   3.570  15.156  4.8250  1.6700 -1.0554
  282MPD2    N1 4265   2.144   3.296  15.502  0.9248  0.3591  0.4917
  282MPD2    H7 4266   2.130   3.383  15.552  2.0759  1.6009 -1.3761
  283TMC3    C1 4267   2.171   3.246  15.722 -0.4416  0.5826  0.0608
  283TMC3    C2 4268   2.203   3.378  15.750  0.3728  0.1254  0.2627
  283TMC3    C3 4269   2.210   3.411  15.879 -0.3639 -0.2703  0.2562
  283TMC3    C4 4270   2.152   3.156  15.824 -0.3003 -0.3353 -0.0057
  283TMC3    C5 4271   2.153   3.193  15.956  0.6226  0.0493  0.8250
  283TMC3    C6 4272   2.172   3.334  15.984  0.2878 -0.2120  0.4667
  283TMC3     C 4273   2.169   3.197  15.582 -0.2822 -0.0121 -0.0159
  283TMC3     O 4274   2.178   3.074  15.565  0.3743  0.1443  0.1882
  283TMC3     H 4275   2.257   3.431  15.673  1.0436 -0.4092  0.3608
  283TMC3    H1 4276   2.134   3.055  15.789 -2.7589 -0.3985  1.4863
  283TMC3    H2 4277   2.171   3.368  16.087  1.2334 -0.6514  0.6270
  283TMC3    C7 4278   2.102   3.114  16.067  0.6613 -0.7408  0.0515
  283TMC3    C8 4279   2.260   3.549  15.911 -0.1793 -0.2465  0.5371
  283TMC3    O1 4280   2.097   3.169  16.178  0.1922  0.2561 -0.4887
  283TMC3    O2 4281   2.324   3.557  16.014 -0.5713 -0.0797  0.4195
  284MPD2     C 4282   0.303   3.200  12.142 -0.1078  0.4768 -0.0202
  284MPD2    C1 4283   0.370   3.120  12.054  0.6079  0.4944  0.4614
  284MPD2    C2 4284   0.454   3.020  12.100 -0.3395 -0.1520 -0.1283
  284MPD2    C3 4285   0.475   3.012  12.234 -0.2090 -1.0559  0.6138
  284MPD2    C4 4286   0.397   3.088  12.321  0.4116  0.0024 -0.1447
  284MPD2    C5 4287   0.305   3.179  12.278  0.0377  0.5940 -0.1229
  284MPD2     H 4288   0.522   2.965  12.036  0.0456  0.6377 -0.3930
  284MPD2    H1 4289   0.411   3.090  12.428 -1.3187 -1.6630  0.1220
  284MPD2    H2 4290   0.235   3.281  12.118 -0.5292  0.5163  1.3405
  284MPD2    H3 4291   0.236   3.232  12.343  0.2561  0.1312  0.4847
  284MPD2     N 4292   0.582   2.929  12.273 -0.4339 -0.2160 -0.4803
  284MPD2    H5 4293   0.624   2.886  12.190  0.2129 -1.5342  0.5219
  284MPD2    N1 4294   0.353   3.136  11.912 -0.0912 -0.0565 -0.0134
  284MPD2    H7 4295   0.396   3.062  11.859 -0.8831  0.4091 -1.3065
  285TMC3    C1 4296   0.297   3.239  11.718  0.1829 -0.6144 -0.5564
  285TMC3    C2 4297   0.342   3.121  11.665 -0.6966  0.0517 -0.0156
  285TMC3    C3 4298   0.436   3.121  11.566  0.0797  0.8218  0.0129
  285TMC3    C4 4299   0.323   3.365  11.657  0.3137  0.4308  1.3727
  285TMC3    C5 4300   0.394   3.350  11.543  0.2263  0.3439 -0.2634
  285TMC3    C6 4301   0.464   3.244  11.502  0.4483 -0.2289 -0.3358
  285TMC3     C 4302   0.299   3.249  11.860  0.1935  0.4242  1.0881
  285TMC3     O 4303   0.283   3.360  11.911 -0.7390 -0.3662 -0.2378
  285TMC3     H 4304   0.328   3.026  11.715 -2.2985  0.9995  1.3470
  285TMC3    H1 4305   0.282   3.455  11.701 -1.9779  0.1025 -0.1341
  285TMC3    H2 4306   0.536   3.244  11.422 -0.8932 -0.2290 -1.5412
  285TMC3    C7 4307   0.424   3.475  11.475  0.0032  0.0126 -0.5228
  285TMC3    C8 4308   0.475   3.001  11.502  0.0180  0.0817  0.0358
  285TMC3    O1 4309   0.410   3.574  11.544 -0.1341 -0.0216  0.0083
  285TMC3    O2 4310   0.413   2.896  11.521  0.8656  1.1035 -0.6963
  286MPD2     C 4311   0.707   1.680   1.554 -0.3230  0.6139  0.0871
  286MPD2    C1 4312   0.603   1.624   1.479 -0.1896 -0.0346  0.0810
  286MPD2    C2 4313   0.613   1.493   1.445 -0.5557  0.4842  0.7532
  286MPD2    C3 4314   0.715   1.414   1.496 -0.0258  0.0583  0.2917
  286MPD2    C4 4315   0.807   1.472   1.580  0.0728 -0.2727 -0.0269
  286MPD2    C5 4316   0.799   1.604   1.613 -0.0334 -0.0954 -0.3584
  286MPD2     H 4317   0.538   1.453   1.378 -0.4485 -2.3522  2.3202
  286MPD2    H1 4318   0.892   1.413   1.612  0.4348 -0.6112 -1.5990
  286MPD2    H2 4319   0.707   1.786   1.577  0.7750  0.7290 -0.4866
  286MPD2    H3 4320   0.883   1.649   1.664  0.3258  0.2653 -1.2634
  286MPD2     N 4321   0.732   1.285   1.447 -0.5395 -0.2136 -0.1947
  286MPD2    H5 4322   0.803   1.233   1.498 -0.5351 -1.0100 -1.0228
  286MPD2    N1 4323   0.499   1.693   1.418  0.2318 -0.2081 -0.0767
  286MPD2    H7 4324   0.442   1.637   1.355 -0.2128  3.3209 -2.7704
  287TMC3    C1 4325   0.725   1.103   1.291 -0.4064  0.3818  0.0094
  287TMC3    C2 4326   0.652   1.032   1.200  0.7129  0.0223 -0.7099
  287TMC3    C3 4327   0.697   0.909   1.165 -0.1168  0.4663  0.5200
  287TMC3    C4 4328   0.845   1.057   1.339 -0.4431  0.0617 -0.3507
  287TMC3    C5 4329   0.882   0.929   1.303 -0.1294 -0.1363 -0.1322
  287TMC3    C6 4330   0.803   0.854   1.226  0.6143 -0.5821  0.0047
  287TMC3     C 4331   0.679   1.235   1.328  0.2701 -0.5369  0.0114
  287TMC3     O 4332   0.596   1.284   1.253  0.0931  0.0325  0.4882
  287TMC3     H 4333   0.551   1.065   1.179  0.9926  0.5249 -1.2902
  287TMC3    H1 4334   0.909   1.118   1.403  0.3410 -1.7919  0.6467
  287TMC3    H2 4335   0.828   0.751   1.203 -2.0574 -0.9131 -1.5028
  287TMC3    C7 4336   0.987   0.867   1.385 -0.5783 -0.1367 -0.1595
  287TMC3    C8 4337   0.615   0.834   1.067 -0.2569  0.4407 -0.2111
  287TMC3    O1 4338   1.011   0.929   1.489 -0.1650  0.1310  0.2485
  287TMC3    O2 4339   0.630   0.715   1.065 -0.0855 -0.4545 -0.0619
  288TMC3    C1 4340   2.174   0.819  13.833 -0.2915 -0.0717  0.0883
  288TMC3    C2 4341   2.211   0.892  13.944 -0.4274  0.3517 -0.1876
  288TMC3    C3 4342   2.161   1.019  13.959  0.4376  0.0818 -0.0209
  288TMC3    C4 4343   2.079   0.869  13.749 -0.4085  0.0857  0.0734
  288TMC3    C5 4344   2.028   0.996  13.764 -0.1937 -0.1689  0.0492
  288TMC3    C6 4345   2.067   1.066  13.873  0.2145 -0.4808  0.4954
  288TMC3     C 4346   2.209   0.679  13.813  0.4221  0.1299 -0.0387
  288TMC3     O 4347   2.116   0.614  13.761  0.4863 -0.3672 -0.2463
  288TMC3     H 4348   2.284   0.858  14.017 -0.2624  0.9250 -0.0792
  288TMC3    H1 4349   2.069   0.800  13.665 -0.0923 -0.5225  0.5348
  288TMC3    H2 4350   2.024   1.165  13.883  0.1236 -0.3299 -1.3195
  288TMC3    C7 4351   1.925   1.044  13.678 -0.1493 -0.0635 -0.4899
  288TMC3    C8 4352   2.197   1.098  14.081 -0.5041  0.0080  0.3369
  288TMC3    O1 4353   1.885   1.160  13.684  0.4271 -0.3169 -0.2509
  288TMC3    O2 4354   2.174   1.217  14.074 -0.8499 -0.3753  0.2276
  289MPD2     C 4355   2.396   0.119  14.636 -0.1711 -0.2816 -0.0550
  289MPD2    C1 4356   2.465   0.190  14.537 -0.8418 -0.1537 -0.4718
  289MPD2    C2 4357   2.387   0.211  14.426 -0.1556  0.1762  0.1798
  289MPD2    C3 4358   2.260   0.169  14.411  0.3445 -0.3081  0.2303
  289MPD2    C4 4359   2.196   0.090  14.506 -0.2155 -0.1194  0.2211
  289MPD2    C5 4360   2.270   0.066  14.615 -0.3495  0.1526 -0.2151
  289MPD2     H 4361   2.424   0.267  14.341  1.6446 -1.0263  0.1755
  289MPD2    H1 4362   2.093   0.055  14.498 -0.0587 -1.1190  2.5368
  289MPD2    H2 4363   2.439   0.103  14.734 -0.9078 -0.4261  0.2449
  289MPD2    H3 4364   2.220   0.007  14.691  0.3529  2.6277  2.1571
  289MPD2     N 4365   2.185   0.192  14.294 -0.3346 -0.3415  0.2782
  289MPD2    H5 4366   2.098   0.141  14.282  1.6684 -3.5983 -0.5221
  289MPD2    N1 4367   2.591   0.246  14.547 -0.2157 -0.1621  0.3873
  289MPD2    H7 4368   2.623   0.245  14.643  1.3650 -1.4021 -0.1310
  290TMC3    C1 4369   2.123   0.281  14.088  0.6710 -0.4467  0.0483
  290TMC3    C2 4370   2.072   0.402  14.058  1.0570 -0.3072  0.5859
  290TMC3    C3 4371   1.944   0.410  14.008  0.1921 -0.3001 -0.0814
  290TMC3    C4 4372   2.060   0.163  14.055 -0.1132  0.6797  1.0397
  290TMC3    C5 4373   1.945   0.173  13.983 -0.0426 -0.1154 -0.4742
  290TMC3    C6 4374   1.885   0.296  13.968 -0.2863  0.5914 -0.2099
  290TMC3     C 4375   2.218   0.283  14.198  0.6194  0.2045  0.1107
  290TMC3     O 4376   2.299   0.372  14.192  0.0128  0.1329  0.0271
  290TMC3     H 4377   2.131   0.490  14.083 -1.8096  1.6967  0.3062
  290TMC3    H1 4378   2.109   0.071  14.085  1.9865  1.5500  0.3322
  290TMC3    H2 4379   1.790   0.290  13.915  1.2110 -0.6711 -2.7746
  290TMC3    C7 4380   1.864   0.055  13.951  0.3335 -0.0515 -0.1514
  290TMC3    C8 4381   1.883   0.532  13.973 -0.0096 -0.2897 -0.5917
  290TMC3    O1 4382   1.775   0.072  13.872  0.4074 -0.0952 -0.1825
  290TMC3    O2 4383   1.816   0.514  13.875 -0.5622 -0.0923 -0.2038
  291MPD2     C 4384   0.981   0.669   0.400  0.4506  0.7824 -0.4740
  291MPD2    C1 4385   1.085   0.608   0.467  0.0076  0.2301 -0.0015
  291MPD2    C2 4386   1.159   0.675   0.571  0.7942  0.0538  0.5607
  291MPD2    C3 4387   1.130   0.806   0.604 -0.3032 -0.3448 -0.0174
  291MPD2    C4 4388   1.023   0.865   0.531  0.2916 -0.4415  0.0289
  291MPD2    C5 4389   0.960   0.803   0.425 -0.3317  0.1791  0.5372
  291MPD2     H 4390   1.245   0.622   0.611  0.7904  0.3865  1.0184
  291MPD2    H1 4391   0.997   0.968   0.555  0.2193 -0.2838 -0.7496
  291MPD2    H2 4392   0.914   0.614   0.334  0.7695 -0.8891  0.5874
  291MPD2    H3 4393   0.874   0.855   0.385  0.4347  0.5428 -0.6446
  291MPD2     N 4394   1.192   0.876   0.705 -0.3702  0.1793  0.0209
  291MPD2    H5 4395   1.184   0.977   0.709 -1.0219  0.2745 -3.5899
  291MPD2    N1 4396   1.113   0.470   0.443  0.3611 -0.0629  0.0459
  291MPD2    H7 4397   1.186   0.435   0.504  0.3518 -1.2511 -0.6231
  292TMC3    C1 4398   1.106   0.241   0.362  0.2597  0.4824  0.6058
  292TMC3    C2 4399   1.195   0.210   0.461 -0.0705 -0.0151 -1.0423
  292TMC3    C3 4400   1.241   0.082   0.467 -0.0875  0.1744  0.5836
  292TMC3    C4 4401   1.052   0.142   0.283 -0.2950  0.0850  0.0835
  292TMC3    C5 4402   1.099   0.008   0.295 -0.3520  0.3115  0.0302
  292TMC3    C6 4403   1.198   4.703   0.388 -0.0146  0.2346  0.1849
  292TMC3     C 4404   1.053   0.381   0.351 -0.1266  1.1013 -0.1536
  292TMC3     O 4405   0.955   0.406   0.282  0.6586 -0.6748 -0.5605
  292TMC3     H 4406   1.249   0.294   0.503 -0.7724  0.0660 -0.2949
  292TMC3    H1 4407   0.977   0.181   0.216  1.4512  0.1125 -1.8425
  292TMC3    H2 4408   1.239   4.604   0.400  2.9204  0.9404 -3.7895
  292TMC3    C7 4409   1.061   4.626   0.204 -0.0440  0.4924  0.3882
  292TMC3    C8 4410   1.327   0.038   0.570  0.5178 -0.5750  0.0116
  292TMC3    O1 4411   1.129   4.521   0.211  0.0915 -0.3560  0.1512
  292TMC3    O2 4412   1.432   0.099   0.598  0.0323  0.5108 -0.1547
  293MPD2     C 4413   3.667   1.943  12.848  0.3940  0.1052 -0.0551
  293MPD2    C1 4414   3.591   1.841  12.894  0.0132  0.5199 -0.2131
  293MPD2    C2 4415   3.560   1.835  13.032  0.2237 -0.5576 -0.3015
  293MPD2    C3 4416   3.592   1.936  13.119 -0.3043 -0.2111  0.3278
  293MPD2    C4 4417   3.674   2.033  13.065  0.2645 -0.7409  0.1611
  293MPD2    C5 4418   3.708   2.036  12.932  0.2288 -0.1076  0.0549
  293MPD2     H 4419   3.502   1.755  13.076 -0.5419  0.2286  0.1360
  293MPD2    H1 4420   3.705   2.113  13.131 -0.2200 -1.2385  0.9907
  293MPD2    H2 4421   3.693   1.943  12.743  2.8832 -0.4902  0.5517
  293MPD2    H3 4422   3.776   2.110  12.892  1.4436 -1.9188 -1.1804
  293MPD2     N 4423   3.557   1.923  13.255 -0.5154  0.1556  0.2368
  293MPD2    H5 4424   3.508   1.835  13.273  1.7589 -0.8972  1.2167
  293MPD2    N1 4425   3.536   1.747  12.804  0.2166 -0.0748 -0.0384
  293MPD2    H7 4426   3.559   1.752  12.705 -1.0451  0.4781 -0.3055
  294TMC3    C1 4427   3.414   1.573  12.715  0.0248 -0.7105 -0.3079
  294TMC3    C2 4428   3.369   1.445  12.732 -0.2201 -0.7898 -0.7169
  294TMC3    C3 4429   3.306   1.389  12.622  0.2112 -0.1163 -0.8041
  294TMC3    C4 4430   3.386   1.652  12.606 -0.2181 -0.1496  0.6089
  294TMC3    C5 4431   3.328   1.592  12.495 -0.6259  0.1579 -0.1864
  294TMC3    C6 4432   3.304   1.456  12.502 -0.5277  0.4071 -0.2320
  294TMC3     C 4433   3.461   1.637  12.833  0.7562 -0.3374  0.2492
  294TMC3     O 4434   3.429   1.588  12.941  0.3066 -0.6973 -0.4120
  294TMC3     H 4435   3.394   1.394  12.823  0.9678  0.7810 -0.1649
  294TMC3    H1 4436   3.412   1.756  12.599 -0.5952 -0.1752 -1.2788
  294TMC3    H2 4437   3.247   1.409  12.423  0.1895 -1.5460  0.4170
  294TMC3    C7 4438   3.301   1.656  12.367 -0.2521 -1.1217 -0.0669
  294TMC3    C8 4439   3.274   1.252  12.630 -0.9023 -0.0248  0.1268
  294TMC3    O1 4440   3.215   1.611  12.296 -0.3471  0.0062  0.0779
  294TMC3    O2 4441   3.260   1.201  12.741  0.1719 -0.3530  0.3188
  295MPD2     C 4442   4.042   1.192   0.739  0.3075 -0.4958 -0.1900
  295MPD2    C1 4443   4.000   1.067   0.783 -0.2987 -0.0791  0.8400
  295MPD2    C2 4444   4.077   1.006   0.876  0.1714 -0.0072  0.8292
  295MPD2    C3 4445   4.198   1.058   0.922  0.4563  0.6322  0.0700
  295MPD2    C4 4446   4.237   1.189   0.889  0.0371  0.7937 -0.4593
  295MPD2    C5 4447   4.151   1.258   0.799  0.1208  0.0677 -0.3377
  295MPD2     H 4448   4.054   0.901   0.888  1.0435 -0.2562  0.2894
  295MPD2    H1 4449   4.329   1.229   0.929  0.4946  1.8971 -2.5805
  295MPD2    H2 4450   3.978   1.245   0.669  1.5386  0.0180 -0.9296
  295MPD2    H3 4451   4.176   1.359   0.770  4.0127 -0.7272  0.3046
  295MPD2     N 4452   4.282   0.972   1.001 -0.3012 -0.6056 -0.6859
  295MPD2    H5 4453   4.346   1.013   1.069 -2.0038  0.1342  0.4847
  295MPD2    N1 4454   3.882   0.999   0.740 -0.4894 -0.4225  0.1442
  295MPD2    H7 4455   3.869   0.907   0.781 -0.5956  1.4503  4.3119
  296TMC3    C1 4456   4.350   0.761   1.093 -0.0629 -0.1114 -0.5522
  296TMC3    C2 4457   4.326   0.812   1.217  0.3750 -0.1288  0.1518
  296TMC3    C3 4458   4.240   0.746   1.305  0.6199 -0.1613  0.2937
  296TMC3    C4 4459   4.317   0.624   1.072  0.2252 -0.0944 -0.0306
  296TMC3    C5 4460   4.245   0.563   1.174  0.9801  0.2780  0.3828
  296TMC3    C6 4461   4.194   0.620   1.291  0.1714 -0.0315 -0.4986
  296TMC3     C 4462   4.286   0.833   0.995 -0.0540  0.6700  0.5908
  296TMC3     O 4463   4.249   0.772   0.896 -0.0127 -0.3139 -0.0457
  296TMC3     H 4464   4.341   0.918   1.231 -1.0728  0.2336 -0.9571
  296TMC3    H1 4465   4.348   0.572   0.982  2.0754 -0.2033  0.6643
  296TMC3    H2 4466   4.153   0.573   1.379  2.5170 -0.3986  0.4006
  296TMC3    C7 4467   4.211   0.423   1.149  0.2965  0.4922  0.5065
  296TMC3    C8 4468   4.187   0.833   1.409 -0.2123 -0.6433  0.7038
  296TMC3    O1 4469   4.294   0.366   1.074 -0.0667  0.3282 -1.2451
  296TMC3    O2 4470   4.262   0.889   1.483  0.7664 -0.7352  0.1931
  297MPD2     C 4471   1.280   2.212  16.852 -0.4199 -0.1069  0.8998
  297MPD2    C1 4472   1.232   2.331  16.791  0.5121  0.4862  0.6067
  297MPD2    C2 4473   1.320   2.433  16.754 -0.1294  0.1937 -0.5567
  297MPD2    C3 4474   1.458   2.409  16.759 -0.1467 -0.2448 -0.3361
  297MPD2    C4 4475   1.498   2.292  16.821 -0.1652 -0.1006  0.0930
  297MPD2    C5 4476   1.411   2.202  16.874 -0.1532 -0.0722  0.4915
  297MPD2     H 4477   1.283   2.524  16.710  0.1296  0.9502  0.7986
  297MPD2    H1 4478   1.601   2.275  16.849 -0.4972  1.0478  1.9824
  297MPD2    H2 4479   1.221   2.129  16.888 -0.7972 -0.8242 -1.3731
  297MPD2    H3 4480   1.441   2.109  16.920 -0.1760 -0.0477  0.5565
  297MPD2     N 4481   1.560   2.507  16.715  0.4320 -0.3583 -0.7013
  297MPD2    H5 4482   1.526   2.601  16.693 -1.6760 -0.6091  1.5381
  297MPD2    N1 4483   1.093   2.352  16.776 -0.5386 -0.0451 -0.9938
  297MPD2    H7 4484   1.062   2.443  16.742 -1.1537  0.3558  0.6066
  298TMC3    C1 4485   0.859   2.304  16.762 -0.6009  0.2466  0.7903
  298TMC3    C2 4486   0.792   2.224  16.674 -0.3046 -0.2255  0.3187
  298TMC3    C3 4487   0.707   2.283  16.584  0.1953 -0.2646  0.0131
  298TMC3    C4 4488   0.839   2.438  16.774 -0.7249  0.3714 -0.6195
  298TMC3    C5 4489   0.734   2.486  16.698 -0.8654  0.2069  0.6604
  298TMC3    C6 4490   0.674   2.411  16.596  0.1678 -0.5010  0.0897
  298TMC3     C 4491   0.990   2.255  16.785 -0.0139 -0.8891  0.0004
  298TMC3     O 4492   1.008   2.132  16.795 -0.1445 -0.5994 -0.3739
  298TMC3     H 4493   0.809   2.117  16.676  3.1259  0.2753 -3.6283
  298TMC3    H1 4494   0.892   2.510  16.835  0.3648 -1.6920  0.8544
  298TMC3    H2 4495   0.605   2.454  16.525  0.1324 -1.2328 -0.3133
  298TMC3    C7 4496   0.691   2.621  16.735 -0.1709  0.0489 -0.0082
  298TMC3    C8 4497   0.656   2.216  16.462  0.4756 -0.2865  0.0520
  298TMC3    O1 4498   0.747   2.673  16.831 -0.1360  0.4215 -0.5122
  298TMC3    O2 4499   0.589   2.284  16.385  0.6372  0.3273 -0.4911
  299MPD2     C 4500   1.975   1.957  11.269  0.2712  0.1035 -0.0253
  299MPD2    C1 4501   1.957   2.062  11.185 -0.0849  0.0152  0.4674
  299MPD2    C2 4502   1.889   2.051  11.063 -0.9399 -0.5407 -0.4788
  299MPD2    C3 4503   1.834   1.930  11.025 -0.7172  0.1542  0.4769
  299MPD2    C4 4504   1.870   1.821  11.098 -0.1809 -0.0691  0.0872
  299MPD2    C5 4505   1.933   1.838  11.215 -1.0854  0.0048  0.0448
  299MPD2     H 4506   1.857   2.138  11.006  0.4275 -0.1644 -0.6873
  299MPD2    H1 4507   1.844   1.719  11.073 -2.0153  0.4038  0.0674
  299MPD2    H2 4508   2.034   1.955  11.359  0.7096 -2.5931 -0.3665
  299MPD2    H3 4509   1.964   1.749  11.269  0.5396  1.7896  2.0358
  299MPD2     N 4510   1.744   1.907  10.923  0.1324 -0.2260 -0.5037
  299MPD2    H5 4511   1.701   1.816  10.911 -1.5361  0.4206  0.6033
  299MPD2    N1 4512   1.994   2.189  11.236 -0.6403 -0.1935 -0.2797
  299MPD2    H7 4513   2.021   2.186  11.334  1.7950 -0.4317 -0.9682
  300TMC3    C1 4514   1.590   1.957  10.746 -0.4589  0.1021 -0.1239
  300TMC3    C2 4515   1.584   2.008  10.617  0.2432 -0.6289 -0.8297
  300TMC3    C3 4516   1.470   1.991  10.543  1.0274  0.0529  0.4178
  300TMC3    C4 4517   1.483   1.890  10.795  0.7196  0.1200 -0.8771
  300TMC3    C5 4518   1.368   1.883  10.721 -0.1540  0.5116  0.2515
  300TMC3    C6 4519   1.353   1.935  10.592  0.2994 -0.0566 -0.9616
  300TMC3     C 4520   1.711   1.994  10.823 -0.7690  0.7322  0.1469
  300TMC3     O 4521   1.773   2.098  10.784  0.4088 -0.0757  0.1606
  300TMC3     H 4522   1.675   2.054  10.579  1.5235 -3.4959 -1.2091
  300TMC3    H1 4523   1.506   1.842  10.889  1.7945 -1.0596 -1.7200
  300TMC3    H2 4524   1.258   1.930  10.539  0.2821 -3.3489 -0.6028
  300TMC3    C7 4525   1.251   1.829  10.783  0.5119 -0.3284 -0.9553
  300TMC3    C8 4526   1.455   2.082  10.436 -0.1479 -0.2117  0.3072
  300TMC3    O1 4527   1.273   1.744  10.867 -0.3533  0.4666  0.3049
  300TMC3    O2 4528   1.523   2.182  10.442 -0.0852 -0.2009  0.3108
  301MPD2     C 4529   3.450   3.517   1.716  1.1668 -0.2033 -0.3650
  301MPD2    C1 4530   3.403   3.465   1.598 -0.1384 -0.0647  0.2186
  301MPD2    C2 4531   3.485   3.383   1.521 -0.6727  0.1229  0.0643
  301MPD2    C3 4532   3.611   3.334   1.566 -0.9263  1.1245  0.2506
  301MPD2    C4 4533   3.662   3.389   1.683  0.3856 -0.2343 -0.2130
  301MPD2    C5 4534   3.576   3.475   1.754 -0.4643 -0.4487  0.3424
  301MPD2     H 4535   3.449   3.339   1.428 -0.7491  1.2606 -0.4385
  301MPD2    H1 4536   3.765   3.368   1.711  0.3610 -1.7102 -1.2229
  301MPD2    H2 4537   3.395   3.591   1.773  1.2263  0.2604 -0.9081
  301MPD2    H3 4538   3.613   3.514   1.848  0.3626  0.1799 -0.2588
  301MPD2     N 4539   3.700   3.257   1.490  0.1066 -0.0899  0.2068
  301MPD2    H5 4540   3.793   3.240   1.526  0.1798 -0.5119 -0.1820
  301MPD2    N1 4541   3.273   3.500   1.540  0.6138  0.6002 -0.1139
  301MPD2    H7 4542   3.246   3.448   1.458 -1.8241  0.1195  1.0055
  302TMC3    C1 4543   3.783   3.135   1.299 -0.0629 -0.7221 -0.0435
  302TMC3    C2 4544   3.846   3.041   1.375  0.0880 -0.5794  0.0141
  302TMC3    C3 4545   3.904   2.939   1.311  0.4112  0.3343 -0.2360
  302TMC3    C4 4546   3.786   3.130   1.162 -0.2511  0.0918 -0.1393
  302TMC3    C5 4547   3.859   3.031   1.105 -0.3283  0.1428 -0.9665
  302TMC3    C6 4548   3.915   2.930   1.174  0.1612  0.1458  0.8608
  302TMC3     C 4549   3.682   3.221   1.356 -0.1489  0.1156 -0.0590
  302TMC3     O 4550   3.595   3.258   1.283  0.0247 -0.3522  0.2521
  302TMC3     H 4551   3.850   3.049   1.483  2.8691 -0.0489 -0.1328
  302TMC3    H1 4552   3.738   3.205   1.100 -1.7210 -0.8166 -0.1021
  302TMC3    H2 4553   3.962   2.840   1.135 -0.8397 -1.1901  2.7044
  302TMC3    C7 4554   3.848   3.009   0.962  0.0922  0.2966 -0.2839
  302TMC3    C8 4555   3.967   2.835   1.394 -0.3448  1.0003  0.0613
  302TMC3    O1 4556   3.931   2.935   0.911 -0.3953 -0.7924  0.5954
  302TMC3    O2 4557   4.067   2.778   1.350  0.1421 -0.0707  0.4761
  303MPD2     C 4558   3.817   2.172   9.597 -0.0355 -0.5149 -0.1263
  303MPD2    C1 4559   3.854   2.047   9.647  0.1537  0.0140  1.0007
  303MPD2    C2 4560   3.950   1.965   9.581  0.5587 -0.5924 -0.6952
  303MPD2    C3 4561   3.993   2.000   9.454 -0.0918 -0.1392 -0.1949
  303MPD2    C4 4562   3.964   2.132   9.416  0.2563  0.6161  0.3111
  303MPD2    C5 4563   3.878   2.212   9.482  0.4046 -0.6377 -0.2105
  303MPD2     H 4564   3.971   1.868   9.625  1.6467  1.0657  2.4774
  303MPD2    H1 4565   4.006   2.170   9.324  2.2023 -0.3639  0.8018
  303MPD2    H2 4566   3.746   2.238   9.644 -0.1968 -0.9656  0.2690
  303MPD2    H3 4567   3.859   2.312   9.445 -0.9288 -0.4243  1.0096
  303MPD2     N 4568   4.054   1.905   9.370 -0.2709  0.5093  0.3932
  303MPD2    H5 4569   4.065   1.809   9.403 -0.4720  0.4452  0.2774
  303MPD2    N1 4570   3.790   2.017   9.765 -0.3839 -0.1872  0.1584
  303MPD2    H7 4571   3.719   2.080   9.802  1.2984  1.9940 -0.3279
  304TMC3    C1 4572   3.699   1.874   9.911  0.2865  0.1515  0.4500
  304TMC3    C2 4573   3.568   1.909   9.871 -0.0897 -0.1519  0.5972
  304TMC3    C3 4574   3.461   1.860   9.943 -0.7672  0.5116 -0.2700
  304TMC3    C4 4575   3.721   1.798  10.015 -0.4913  0.0332  0.4875
  304TMC3    C5 4576   3.614   1.763  10.094 -0.5121 -0.3995  0.3547
  304TMC3    C6 4577   3.487   1.798  10.062  0.7794  0.6994 -0.1546
  304TMC3     C 4578   3.816   1.897   9.832  0.1140  0.6046  0.4112
  304TMC3     O 4579   3.916   1.831   9.846 -0.2871 -0.0417 -0.3508
  304TMC3     H 4580   3.552   1.962   9.778 -1.1079 -1.9666 -0.2613
  304TMC3    H1 4581   3.820   1.757  10.028 -1.0906 -1.5110  0.2298
  304TMC3    H2 4582   3.403   1.786  10.131  0.7839  0.1851 -0.2383
  304TMC3    C7 4583   3.624   1.634  10.147 -0.0523 -0.4518 -0.5256
  304TMC3    C8 4584   3.373   1.781   9.865  0.4303  0.5909  0.5447
  304TMC3    O1 4585   3.725   1.606  10.211  0.5048  0.4157 -0.5880
  304TMC3    O2 4586   3.331   1.680   9.921 -0.2384 -0.2131  0.2572
  305MPD2     C 4587   2.793   3.151  14.288  0.0952 -0.9564 -0.2833
  305MPD2    C1 4588   2.677   3.224  14.309  0.3219  0.1569  0.2872
  305MPD2    C2 4589   2.582   3.226  14.205 -0.0230  0.5111 -0.5776
  305MPD2    C3 4590   2.595   3.155  14.083 -0.4133 -0.7449  0.0321
  305MPD2    C4 4591   2.723   3.094  14.064 -0.3761 -0.3957 -0.2883
  305MPD2    C5 4592   2.812   3.093  14.165 -0.6599 -0.0807 -0.1055
  305MPD2     H 4593   2.492   3.281  14.233  0.6022  0.2583  1.9286
  305MPD2    H1 4594   2.744   3.030  13.980 -0.9298 -0.8582 -0.0746
  305MPD2    H2 4595   2.868   3.147  14.367 -1.9125 -1.7367  1.5878
  305MPD2    H3 4596   2.904   3.039  14.146  0.3285  1.5845 -0.0789
  305MPD2     N 4597   2.494   3.124  13.985 -0.1253  0.0105  0.0068
  305MPD2    H5 4598   2.513   3.066  13.904  1.1436  0.9890 -0.3914
  305MPD2    N1 4599   2.654   3.269  14.441  0.0525  0.6205 -0.2140
  305MPD2    H7 4600   2.705   3.225  14.516  0.0422 -0.5383 -0.8828
  306TMC3    C1 4601   2.563   3.402  14.615  0.1441  0.3856 -0.3354
  306TMC3    C2 4602   2.606   3.313  14.702 -0.0467 -0.2884 -0.0671
  306TMC3    C3 4603   2.643   3.359  14.822  0.0373 -0.0058 -0.3494
  306TMC3    C4 4604   2.546   3.536  14.644 -0.1822  0.0434 -0.0114
  306TMC3    C5 4605   2.598   3.570  14.764  0.3315  0.7189  0.0541
  306TMC3    C6 4606   2.634   3.486  14.858 -0.3427 -0.0988  0.2172
  306TMC3     C 4607   2.563   3.365  14.474 -0.5866 -0.1295 -0.0320
  306TMC3     O 4608   2.493   3.435  14.407 -0.0406 -0.0338 -0.2483
  306TMC3     H 4609   2.602   3.207  14.680 -2.4807 -0.2396  0.1281
  306TMC3    H1 4610   2.511   3.610  14.573 -1.8107  1.3836  2.1743
  306TMC3    H2 4611   2.636   3.522  14.961 -2.3249  1.9210 -0.4625
  306TMC3    C7 4612   2.542   3.692  14.815  0.4283 -0.1534  0.0402
  306TMC3    C8 4613   2.678   3.252  14.920  0.4261 -1.2270 -0.2875
  306TMC3    O1 4614   2.427   3.721  14.774 -0.2089 -0.2067 -0.1590
  306TMC3    O2 4615   2.624   3.147  14.905  0.3598 -0.3791  0.5323
  307MPD2     C 4616   4.649   1.605   0.710  0.0111  0.1733  0.0921
  307MPD2    C1 4617   4.544   1.674   0.641 -0.9144  0.0443 -0.2359
  307MPD2    C2 4618   4.521   1.805   0.693  0.3230 -0.0334 -0.3937
  307MPD2    C3 4619   4.569   1.854   0.812  0.3382  0.2591  0.4352
  307MPD2    C4 4620   4.663   1.775   0.877 -0.2487  0.0395  0.7341
  307MPD2    C5 4621   4.706   1.661   0.820  0.5525  0.1100 -0.0537
  307MPD2     H 4622   4.445   1.867   0.647  0.1166 -1.5774 -2.0875
  307MPD2    H1 4623   4.714   1.806   0.967 -0.8457 -0.1729  1.1437
  307MPD2    H2 4624   4.681   1.503   0.690  0.6195  0.2047  0.9111
  307MPD2    H3 4625   0.061   1.604   0.868  0.7413 -0.3337 -0.8956
  307MPD2     N 4626   4.513   1.972   0.857 -0.1729  0.1339 -0.1281
  307MPD2    H5 4627   4.454   2.034   0.801 -0.1682  0.4695  0.2346
  307MPD2    N1 4628   4.479   1.638   0.520  0.2214  0.8168 -0.2432
  307MPD2    H7 4629   4.398   1.694   0.495  1.6054  1.9889 -2.0732
  308TMC3    C1 4630   4.328   2.292   1.062  0.0420  0.3344 -0.2537
  308TMC3    C2 4631   4.348   2.382   0.954 -0.2290 -0.1563  0.1029
  308TMC3    C3 4632   4.443   2.345   0.865 -0.0976  0.0667 -0.5702
  308TMC3    C4 4633   4.415   2.183   1.083 -0.0195 -0.3108 -0.5923
  308TMC3    C5 4634   4.500   2.154   0.979  0.1472  0.5565 -1.1912
  308TMC3    C6 4635   4.511   2.225   0.867  0.2029 -0.4174  0.6011
  308TMC3     C 4636   4.221   2.313   1.149 -0.3229 -0.9396 -0.2681
  308TMC3     O 4637   4.208   2.243   1.245 -0.2581  0.3697  0.6694
  308TMC3     H 4638   4.294   2.476   0.941 -0.1805 -0.3473 -1.4439
  308TMC3    H1 4639   4.403   2.108   1.160 -1.8498  1.5672  0.9333
  308TMC3    H2 4640   4.586   2.189   0.797 -2.2978 -1.5118 -1.5191
  308TMC3    C7 4641   4.541   2.017   0.979  0.3569 -0.1319 -0.0690
  308TMC3    C8 4642   4.460   2.423   0.741  0.1857 -0.0244  0.1220
  308TMC3    O1 4643   4.574   1.973   1.085  0.2939  0.1475 -0.1797
  308TMC3    O2 4644   4.578   2.449   0.706 -0.4150 -0.2385  0.3983
  309MPD2     C 4645   3.458   2.046  17.341  0.0169  0.3958  0.2440
  309MPD2    C1 4646   3.451   2.157  17.260 -0.7785 -0.0651 -0.4774
  309MPD2    C2 4647   3.399   2.276  17.310 -0.4958  0.4269  0.7520
  309MPD2    C3 4648   3.355   2.284  17.450  1.0157 -0.5054 -0.1727
  309MPD2    C4 4649   3.375   2.165  17.527  0.6271 -0.0947 -0.1265
  309MPD2    C5 4650   3.429   2.049  17.471 -0.2113 -0.7842  0.7964
  309MPD2     H 4651   3.405   2.359  17.240 -0.9061 -0.1200  0.0669
  309MPD2    H1 4652   3.359   2.164  17.634 -0.3581 -0.9539 -0.2886
  309MPD2    H2 4653   3.467   1.945  17.302 -1.3340  0.7674 -1.0240
  309MPD2    H3 4654   3.451   1.962  17.532 -0.2643 -1.2010  0.2175
  309MPD2     N 4655   3.306   2.404  17.512 -0.2465  0.3703 -0.4107
  309MPD2    H5 4656   3.289   2.397  17.612 -2.1521 -2.5428 -0.9602
  309MPD2    N1 4657   3.504   2.163  17.129  1.0746 -0.1960 -0.6781
  309MPD2    H7 4658   3.503   2.251  17.079 -0.7560 -0.5328 -1.2205
  310TMC3    C1 4659   3.613   2.090  16.928  0.2181  0.3874 -0.9698
  310TMC3    C2 4660   3.552   2.187  16.854  0.7230  0.4950 -0.9923
  310TMC3    C3 4661   3.616   2.233  16.747  0.8200  0.5449  0.5294
  310TMC3    C4 4662   3.731   2.025  16.881 -0.6695  0.3795 -0.0622
  310TMC3    C5 4663   3.801   2.082  16.777 -0.0744  0.4592 -0.7402
  310TMC3    C6 4664   3.745   2.193  16.717 -0.1584 -0.0222  0.6280
  310TMC3     C 4665   3.551   2.059  17.058 -0.4282 -0.2304  0.3687
  310TMC3     O 4666   3.567   1.943  17.091 -0.1511  0.2012 -0.0397
  310TMC3     H 4667   3.448   2.207  16.878  0.7822  0.7514 -0.9478
  310TMC3    H1 4668   3.773   1.940  16.935  0.7651  0.6382 -0.7704
  310TMC3    H2 4669   3.794   2.238  16.631 -1.1196 -2.4338 -1.1984
  310TMC3    C7 4670   3.911   2.003  16.723  0.2401 -0.6741  0.3719
  310TMC3    C8 4671   3.556   2.336  16.663  0.2840  0.4871  0.5932
  310TMC3    O1 4672   3.913   1.882  16.735 -0.4429  0.3493 -0.1011
  310TMC3    O2 4673   3.599   2.339  16.545  0.3902 -0.5605  0.3212
  311MPD2     C 4674   1.215   3.188  13.559 -0.2971 -0.6985 -0.1716
  311MPD2    C1 4675   1.169   3.307  13.516  0.3269 -0.3396 -0.4618
  311MPD2    C2 4676   1.027   3.326  13.524  0.0382  0.1624 -0.6860
  311MPD2    C3 4677   0.940   3.229  13.576  0.4692 -0.0977 -0.0509
  311MPD2    C4 4678   0.990   3.113  13.617  0.6960 -0.0572  0.6559
  311MPD2    C5 4679   1.125   3.094  13.607 -0.3982  0.2044  0.3472
  311MPD2     H 4680   0.980   3.420  13.499  1.8674  1.5336  1.1140
  311MPD2    H1 4681   0.924   3.039  13.661  0.0555  0.7038  0.9765
  311MPD2    H2 4682   1.316   3.153  13.542 -0.5164 -1.4918  0.1665
  311MPD2    H3 4683   1.157   2.994  13.635  0.1947  0.2747 -0.0783
  311MPD2     N 4684   0.810   3.238  13.610  0.2944  0.0379 -0.4556
  311MPD2    H5 4685   0.772   3.166  13.670 -1.5821  1.2951 -0.1292
  311MPD2    N1 4686   1.250   3.406  13.460 -0.1091 -0.8030  0.3403
  311MPD2    H7 4687   1.201   3.481  13.412 -0.9387 -1.6243 -0.1060
  312TMC3    C1 4688   0.593   3.336  13.639  0.2425  0.1670  0.3685
  312TMC3    C2 4689   0.500   3.395  13.568 -0.2056 -0.3915 -0.2359
  312TMC3    C3 4690   0.375   3.390  13.612  0.3259  0.1399  0.1186
  312TMC3    C4 4691   0.569   3.276  13.756  1.3066  0.0133 -0.6778
  312TMC3    C5 4692   0.440   3.265  13.798  0.0296  0.9125  0.9697
  312TMC3    C6 4693   0.338   3.317  13.721 -0.0271  0.0096  0.1742
  312TMC3     C 4694   0.724   3.342  13.575  1.0114 -0.2809 -0.1085
  312TMC3     O 4695   0.745   3.422  13.483  0.3177 -0.1583 -0.1571
  312TMC3     H 4696   0.528   3.449  13.479  2.6756 -0.4060  0.6714
  312TMC3    H1 4697   0.652   3.240  13.815 -1.0177 -0.9341  1.9904
  312TMC3    H2 4698   0.239   3.297  13.760 -0.0280 -0.2468  0.0402
  312TMC3    C7 4699   0.402   3.189  13.920 -0.1403  0.1000  0.1174
  312TMC3    C8 4700   0.277   3.383  13.512  0.3046  1.0421 -0.0009
  312TMC3    O1 4701   0.296   3.125  13.928 -0.2645  0.1994 -0.3069
  312TMC3    O2 4702   0.316   3.378  13.396 -0.5478  0.8287 -0.0781
  313MPD2     C 4703   0.672   2.330  10.662 -0.5608 -0.5073 -0.5456
  313MPD2    C1 4704   0.567   2.404  10.626  0.1233  0.5486 -0.4208
  313MPD2    C2 4705   0.466   2.357  10.541 -0.6703 -0.5442 -1.0888
  313MPD2    C3 4706   0.477   2.223  10.487  0.3310  1.0583  0.5688
  313MPD2    C4 4707   0.587   2.149  10.532  0.3749  0.1289  0.4226
  313MPD2    C5 4708   0.686   2.202  10.611  0.3965 -0.2053  0.5061
  313MPD2     H 4709   0.379   2.418  10.519 -0.8131 -1.1179 -2.1686
  313MPD2    H1 4710   0.587   2.045  10.503 -0.2211  0.2169  0.1029
  313MPD2    H2 4711   0.738   2.367  10.740 -0.0584 -0.9097 -0.7754
  313MPD2    H3 4712   0.766   2.137  10.644  0.2928 -0.0506  1.0648
  313MPD2     N 4713   0.377   2.172  10.400 -0.1250 -0.0512 -0.8892
  313MPD2    H5 4714   0.307   2.238  10.366 -0.9727 -0.6382 -0.2910
  313MPD2    N1 4715   0.545   2.525  10.695  0.1151  0.8468 -0.5180
  313MPD2    H7 4716   0.459   2.570  10.665 -0.9003 -0.8909 -0.1936
  314TMC3    C1 4717   0.531   2.693  10.843  0.4283  0.2204 -0.0986
  314TMC3    C2 4718   0.600   2.792  10.899 -0.3941  0.2132  0.0787
  314TMC3    C3 4719   0.533   2.920  10.909  0.1309  0.5395  0.1229
  314TMC3    C4 4720   0.404   2.719  10.798  0.0333  0.2354 -0.1890
  314TMC3    C5 4721   0.348   2.837  10.814 -0.5219 -0.9441 -0.3930
  314TMC3    C6 4722   0.406   2.947  10.870 -0.9932 -0.3962 -0.3121
  314TMC3     C 4723   0.613   2.584  10.797  0.3142 -0.3117 -0.6938
  314TMC3     O 4724   0.724   2.557  10.844  0.2336 -0.4037  0.3473
  314TMC3     H 4725   0.704   2.774  10.923  0.3181  0.3237 -2.9083
  314TMC3    H1 4726   0.345   2.647  10.744 -0.1232  0.2257 -0.0039
  314TMC3    H2 4727   0.362   3.046  10.877  0.1529  0.0430  0.5495
  314TMC3    C7 4728   0.217   2.858  10.747 -0.4183 -0.5437  0.4127
  314TMC3    C8 4729   0.600   3.039  10.962  0.6006 -0.4872  0.5350
  314TMC3    O1 4730   0.125   2.783  10.778  0.4892 -0.0582 -0.6923
  314TMC3    O2 4731   0.543   3.142  10.965  0.4140  0.0521  0.9916
  315MPD2     C 4732   4.655   2.028  17.673 -0.3286 -0.0107 -0.7197
  315MPD2    C1 4733   4.678   2.028   0.115  0.6115 -0.5034  0.0257
  315MPD2    C2 4734   4.710   2.151   0.178 -0.1409  0.7096  0.7297
  315MPD2    C3 4735   4.721   2.269   0.108  0.5851  0.1006  0.8260
  315MPD2    C4 4736   4.709   2.265  17.666  0.1125  0.1862 -0.1541
  315MPD2    C5 4737   4.670   2.144  17.604 -1.0664  0.7839 -0.4956
  315MPD2     H 4738   4.718   2.136   0.285 -2.3084  0.1455  0.8031
  315MPD2    H1 4739   0.004   2.350  17.601  0.0883  2.3143  2.6349
  315MPD2    H2 4740   4.615   1.948  17.611  0.0506 -0.1448 -0.7908
  315MPD2    H3 4741   4.647   2.142  17.498 -1.4372 -1.8102 -0.3627
  315MPD2     N 4742   0.030   2.391   0.164  0.3526  0.4737 -0.0545
  315MPD2    H5 4743   0.037   2.390   0.266 -0.4500 -1.4189 -0.0265
  315MPD2    N1 4744   4.673   1.912   0.190 -0.2780 -0.1433 -0.0275
  315MPD2    H7 4745   4.680   1.920   0.291  0.9748  1.5540 -0.2440
  316TMC3    C1 4746   0.121   2.606   0.209 -0.2131  0.2517  0.0958
  316TMC3    C2 4747   0.156   2.563   0.331  0.4223 -1.0275 -0.3043
  316TMC3    C3 4748   0.183   2.657   0.425  0.1161 -0.0797 -0.8921
  316TMC3    C4 4749   0.126   2.738   0.175  0.3007 -0.5835 -0.0128
  316TMC3    C5 4750   0.142   2.833   0.277 -0.4192  0.7480  1.3340
  316TMC3    C6 4751   0.164   2.790   0.404 -0.4177  0.4183 -0.0842
  316TMC3     C 4752   0.077   2.510   0.108  0.4433 -0.4317  0.2613
  316TMC3     O 4753   0.085   2.540  17.688 -0.3701  0.2865  0.1379
  316TMC3     H 4754   0.163   2.460   0.362  2.2383 -1.1246 -1.0506
  316TMC3    H1 4755   0.124   2.753   0.068 -3.5380 -1.9682 -0.1318
  316TMC3    H2 4756   0.191   2.863   0.479 -0.3484  1.4108 -1.0597
  316TMC3    C7 4757   0.119   2.974   0.255 -0.7639 -0.1411 -0.4532
  316TMC3    C8 4758   0.278   2.625   0.529  0.1441  0.2622 -0.4825
  316TMC3    O1 4759   0.082   3.040   0.349  0.2771 -0.1988  0.1397
  316TMC3    O2 4760   0.251   2.673   0.644 -0.0548  0.3537  0.3607
  317MPD2     C 4761   2.156   0.131  12.059  0.2623 -0.3485 -0.1605
  317MPD2    C1 4762   2.267   0.045  12.078 -0.0001  0.0729  0.3554
  317MPD2    C2 4763   2.294   0.010  12.206 -0.3047  0.5069  0.1009
  317MPD2    C3 4764   2.225   0.064  12.315  0.2238  0.4078  0.2883
  317MPD2    C4 4765   2.121   0.147  12.295  0.6509 -0.0211 -0.0051
  317MPD2    C5 4766   2.091   0.179  12.170  0.3902  0.4315 -0.5692
  317MPD2     H 4767   2.373   4.660  12.217 -0.7345  0.1690  0.9373
  317MPD2    H1 4768   2.063   0.187  12.377 -1.9577  0.3280 -2.0132
  317MPD2    H2 4769   2.131   0.185  11.969 -0.8078  0.2573  0.5073
  317MPD2    H3 4770   2.009   0.250  12.170 -0.1065 -0.1382  0.8846
  317MPD2     N 4771   2.268   0.037  12.452 -0.5241 -0.0269 -0.4606
  317MPD2    H5 4772   2.340   4.689  12.453  0.9123  1.4562  1.0410
  317MPD2    N1 4773   2.357   0.018  11.975  0.5748  0.4954 -0.2590
  317MPD2    H7 4774   2.444   4.715  12.020  0.5054  2.1564  0.8402
  318TMC3    C1 4775   2.279   0.016  12.689  0.3036 -0.1392 -0.3149
  318TMC3    C2 4776   2.221   0.047  12.810  0.0306 -0.1404  0.0054
  318TMC3    C3 4777   2.305   0.065  12.921  0.8776 -0.5892  0.0751
  318TMC3    C4 4778   2.418   0.004  12.676 -0.1269  0.3232  0.1651
  318TMC3    C5 4779   2.497   0.015  12.791 -0.5510 -0.3696 -0.4939
  318TMC3    C6 4780   2.439   0.040  12.912 -0.0965  0.5211 -0.7538
  318TMC3     C 4781   2.204   0.061  12.570  0.3194 -0.1119 -0.4366
  318TMC3     O 4782   2.089   0.096  12.586 -0.7603 -0.2076 -0.5547
  318TMC3     H 4783   2.115   0.062  12.823  0.4096  1.7127  0.8959
  318TMC3    H1 4784   2.472   4.723  12.582  0.3105 -1.4261  0.5179
  318TMC3    H2 4785   2.503   0.028  12.998 -0.5230  1.8231 -0.2457
  318TMC3    C7 4786   2.641   0.014  12.776 -0.1636  0.1646 -0.9565
  318TMC3    C8 4787   2.256   0.055  13.058  0.8128  0.9959 -0.1847
  318TMC3    O1 4788   2.690   0.052  12.667  0.1294  0.3071  0.3903
  318TMC3    O2 4789   2.338   0.037  13.149 -0.7445 -0.0731 -0.2589
  319MPD2     C 4790   3.428   1.623  16.374  0.1835 -0.2879 -0.0774
  319MPD2    C1 4791   3.314   1.602  16.435 -0.1901  0.2875  0.2356
  319MPD2    C2 4792   3.219   1.524  16.373 -0.5803 -0.0011  0.6197
  319MPD2    C3 4793   3.246   1.468  16.244 -0.1515 -0.1685 -0.4706
  319MPD2    C4 4794   3.359   1.504  16.184 -0.1648  0.9309 -0.3825
  319MPD2    C5 4795   3.448   1.586  16.248 -0.3071 -0.2120  0.7645
  319MPD2     H 4796   3.129   1.501  16.430  1.5034 -1.5346  3.2661
  319MPD2    H1 4797   3.377   1.481  16.080 -0.9204 -0.0996 -0.2836
  319MPD2    H2 4798   3.508   1.681  16.419  0.5063  0.2793 -1.3898
  319MPD2    H3 4799   3.534   1.616  16.190 -1.2790 -0.6421 -0.9159
  319MPD2     N 4800   3.158   1.394  16.163 -0.0594 -0.9954 -0.3938
  319MPD2    H5 4801   3.186   1.366  16.069  0.0521  0.0533 -0.6717
  319MPD2    N1 4802   3.288   1.661  16.559  0.0850 -0.1779  0.6472
  319MPD2    H7 4803   3.190   1.644  16.580 -0.2893  0.6186 -0.4499
  320TMC3    C1 4804   2.958   1.286  16.105  0.1278  0.4611  0.2275
  320TMC3    C2 4805   2.929   1.366  15.998  0.0250 -0.5442 -0.4558
  320TMC3    C3 4806   2.801   1.371  15.954 -0.1488 -0.0092  0.4779
  320TMC3    C4 4807   2.867   1.202  16.161 -0.8864 -0.5465  0.1281
  320TMC3    C5 4808   2.747   1.201  16.105 -0.0021  0.4612 -0.9518
  320TMC3    C6 4809   2.708   1.279  15.994  0.5416  0.0736  0.5764
  320TMC3     C 4810   3.043   1.340  16.210 -0.0293 -0.4314 -0.5256
  320TMC3     O 4811   3.008   1.326  16.328  0.1384  0.1545  0.3213
  320TMC3     H 4812   3.006   1.437  15.970 -0.6810  2.5244  5.5314
  320TMC3    H1 4813   2.901   1.152  16.251 -1.6421 -1.0142  0.1450
  320TMC3    H2 4814   2.604   1.279  15.961  0.8720 -0.9990 -0.4478
  320TMC3    C7 4815   2.681   1.067  16.117 -0.5579  0.0111 -0.0827
  320TMC3    C8 4816   2.759   1.496  15.902  0.0873 -0.0046 -0.2966
  320TMC3    O1 4817   2.613   1.017  16.027 -0.5482 -0.1089  0.6378
  320TMC3    O2 4818   2.835   1.590  15.926 -0.1704  0.0679  0.2198
  321TMC3    C1 4819   3.299   1.803  16.737 -0.0262  0.1930 -0.6010
  321TMC3    C2 4820   3.158   1.818  16.728 -0.4634  0.1779  0.8970
  321TMC3    C3 4821   3.100   1.859  16.846  0.2066 -0.2117  0.7305
  321TMC3    C4 4822   3.366   1.823  16.852  0.4352  0.8788  0.0781
  321TMC3    C5 4823   3.298   1.862  16.964 -0.6808  0.2090 -0.3986
  321TMC3    C6 4824   3.167   1.895  16.960  0.0511  0.7744  0.1625
  321TMC3     C 4825   3.372   1.736  16.635 -0.1754 -0.4918  0.5194
  321TMC3     O 4826   3.494   1.725  16.644  0.1373 -0.7078  0.7119
  321TMC3     H 4827   3.095   1.787  16.647  0.7641 -1.4951  0.5801
  321TMC3    H1 4828   3.471   1.797  16.857  0.2411  0.2760  0.9729
  321TMC3    H2 4829   3.119   1.942  17.046  0.1731  0.1920  0.5487
  321TMC3    C7 4830   3.325   1.770  17.075  0.5616 -0.5385 -0.5518
  321TMC3    C8 4831   2.970   1.809  16.871 -0.0290  0.5741  0.2756
  321TMC3    O1 4832   3.234   1.772  17.151 -0.2076  0.0622  0.5618
  321TMC3    O2 4833   2.902   1.784  16.773 -0.4777 -0.0421 -0.0159
  322MPD2     C 4834   2.048   2.970  14.179 -0.6103 -0.3241 -0.3342
  322MPD2    C1 4835   2.045   2.876  14.279  0.1663 -0.7321  0.2485
  322MPD2    C2 4836   2.029   2.738  14.253  0.2088  0.3962 -0.4930
  322MPD2    C3 4837   2.013   2.689  14.124  0.1135 -0.0621 -0.3258
  322MPD2    C4 4838   1.994   2.783  14.026  0.1203  0.7502  0.0204
  322MPD2    C5 4839   2.012   2.919  14.056  0.3141  0.3292 -0.2445
  322MPD2     H 4840   2.029   2.668  14.336 -0.6444 -0.5882 -1.3243
  322MPD2    H1 4841   1.975   2.765  13.921 -0.8854  0.7546  0.2008
  322MPD2    H2 4842   2.050   3.077  14.199 -3.0439 -0.2967 -0.2237
  322MPD2    H3 4843   1.989   2.981  13.970 -2.4241 -0.8524 -0.3404
  322MPD2     N 4844   2.013   2.549  14.102  0.4910  0.1194  0.3733
  322MPD2    H5 4845   2.047   2.488  14.176  1.2602  0.0838 -0.0059
  322MPD2    N1 4846   2.052   2.924  14.414  0.4069  0.0613  0.6207
  322MPD2    H7 4847   2.060   3.024  14.429  1.3435  0.0130  0.4533
  323TMC3    C1 4848   2.124   2.933  14.632 -0.0179  0.6789 -0.0252
  323TMC3    C2 4849   2.253   2.967  14.591  0.4228  0.4782  1.1233
  323TMC3    C3 4850   2.358   2.953  14.676 -0.4185  0.7036  0.3385
  323TMC3    C4 4851   2.111   2.877  14.753 -0.1217  0.6241 -0.7450
  323TMC3    C5 4852   2.216   2.863  14.835  0.7255  0.1092 -0.4203
  323TMC3    C6 4853   2.342   2.905  14.799  0.0128 -0.0447 -0.1517
  323TMC3     C 4854   2.061   2.851  14.530 -0.1566  0.0006  0.6750
  323TMC3     O 4855   2.058   2.732  14.561 -0.4156  0.4035 -0.1501
  323TMC3     H 4856   2.258   3.027  14.501  2.1936 -0.7811  0.3876
  323TMC3    H1 4857   2.014   2.832  14.770  1.0467 -0.5710  2.7472
  323TMC3    H2 4858   2.425   2.858  14.851 -0.8448 -1.1042  0.2454
  323TMC3    C7 4859   2.217   2.779  14.952 -0.3364 -1.0423  0.4557
  323TMC3    C8 4860   2.479   2.903  14.619  0.4583  0.0130 -0.2009
  323TMC3    O1 4861   2.125   2.699  14.963  0.3028 -0.3173  0.1192
  323TMC3    O2 4862   2.575   2.888  14.687 -0.1732 -0.6107 -0.5672
  324MPD2     C 4863   3.998   4.119  14.937  0.0188 -0.0062  0.9926
  324MPD2    C1 4864   3.980   4.182  14.811 -0.1612 -0.6148  0.5450
  324MPD2    C2 4865   3.861   4.176  14.746 -0.1296  0.5856  0.0038
  324MPD2    C3 4866   3.748   4.106  14.800 -0.2322 -0.0574  0.0195
  324MPD2    C4 4867   3.765   4.044  14.924 -0.3726 -0.4118  0.0536
  324MPD2    C5 4868   3.886   4.053  14.992 -0.2548 -0.4044  0.2456
  324MPD2     H 4869   3.857   4.218  14.646  1.6922 -1.6467 -1.0265
  324MPD2    H1 4870   3.682   3.987  14.965 -1.5753  1.1423 -0.2181
  324MPD2    H2 4871   4.091   4.122  14.993  0.4785 -0.0930  0.2212
  324MPD2    H3 4872   3.897   4.009  15.090 -0.2689 -1.4442 -0.2121
  324MPD2     N 4873   3.631   4.078  14.729 -0.8302  0.2252  0.0018
  324MPD2    H5 4874   3.570   4.016  14.782 -0.5259 -0.7814 -0.8236
  324MPD2    N1 4875   4.080   4.256  14.747 -0.2014  0.1922  0.4906
  324MPD2    H7 4876   4.053   4.311  14.666  3.4325 -2.8266 -2.7509
  325TMC3    C1 4877   3.489   4.059  14.559 -0.0407  0.0113  0.5855
  325TMC3    C2 4878   3.462   3.931  14.599 -0.5194 -0.0108  0.2743
  325TMC3    C3 4879   3.356   3.873  14.536  0.8152 -0.2240 -0.1140
  325TMC3    C4 4880   3.420   4.125  14.447 -0.6872  0.0132 -0.2456
  325TMC3    C5 4881   3.322   4.049  14.390  0.1488 -0.5855 -0.1121
  325TMC3    C6 4882   3.289   3.931  14.436  0.5344 -0.0135 -0.2543
  325TMC3     C 4883   3.604   4.125  14.603  0.2923 -0.6320 -0.1376
  325TMC3     O 4884   3.639   4.224  14.540  0.4327  0.0634  0.2579
  325TMC3     H 4885   3.479   3.888  14.697 -0.4602 -0.8519 -0.1021
  325TMC3    H1 4886   3.454   4.213  14.394  1.9408 -0.8366  0.0613
  325TMC3    H2 4887   3.214   3.877  14.379  0.3328  1.1713 -1.0938
  325TMC3    C7 4888   3.246   4.106  14.283 -0.0738 -0.6137  0.6302
  325TMC3    C8 4889   3.269   3.777  14.605  0.5452 -0.4578 -0.6114
  325TMC3    O1 4890   3.307   4.163  14.194 -0.1526  0.5572  0.5118
  325TMC3    O2 4891   3.233   3.675  14.551 -0.7020  0.5002 -0.3413
  326MPD2     C 4892   4.590   1.102  11.242 -0.8165 -0.0145  0.0848
  326MPD2    C1 4893   4.646   0.970  11.270  0.3961  0.7478 -0.1233
  326MPD2    C2 4894   0.012   0.960  11.378 -0.7139 -0.0885  0.3534
  326MPD2    C3 4895   0.047   1.065  11.457  0.0073 -0.2285  0.0776
  326MPD2    C4 4896   4.712   1.183  11.428 -0.6825  0.4980  0.1643
  326MPD2    C5 4897   4.629   1.203  11.325 -0.4636  0.5830  0.1445
  326MPD2     H 4898   0.063   0.865  11.388 -0.3852  0.2798  2.1372
  326MPD2    H1 4899   0.007   1.265  11.496 -0.1818 -1.1063  1.9635
  326MPD2    H2 4900   4.530   1.115  11.153 -1.4939 -0.6926  0.4430
  326MPD2    H3 4901   4.591   1.303  11.307 -2.2983 -0.0538  0.3803
  326MPD2     N 4902   0.157   1.072  11.545  0.1001 -0.0943  0.3483
  326MPD2    H5 4903   0.155   1.149  11.611 -0.5113  0.2073 -0.0269
  326MPD2    N1 4904   4.626   0.860  11.190  0.1287  0.6605 -0.3502
  326MPD2    H7 4905   4.647   0.768  11.229 -1.0447 -0.2164 -1.7991
  327TMC3    C1 4906   4.605   0.742  10.995 -0.3796  0.1856 -0.8280
  327TMC3    C2 4907   4.551   0.740  10.867 -0.3153  0.0052  0.1676
  327TMC3    C3 4908   4.600   0.655  10.773 -0.0740 -0.0539 -0.5092
  327TMC3    C4 4909   4.720   0.669  11.023 -0.2317 -0.6761  0.9763
  327TMC3    C5 4910   0.048   0.591  10.927  0.5525 -0.5398 -0.0923
  327TMC3    C6 4911   4.705   0.577  10.807 -0.4943 -0.2272  0.2248
  327TMC3     C 4912   4.580   0.867  11.059 -0.1183 -0.5557 -0.5855
  327TMC3     O 4913   4.534   0.958  10.994  0.4512 -0.2900  0.1691
  327TMC3     H 4914   4.476   0.813  10.839 -1.0048 -1.4578 -1.7630
  327TMC3    H1 4915   0.038   0.670  11.123 -1.6506 -0.5286  1.5640
  327TMC3    H2 4916   0.025   0.509  10.735 -0.1407  1.4550 -1.1542
  327TMC3    C7 4917   0.181   0.527  10.935  0.6747  0.4121  0.4488
  327TMC3    C8 4918   4.616   0.724  10.646  0.3104  0.3399 -0.7511
  327TMC3    O1 4919   0.237   0.513  10.826 -0.8745 -0.7059  0.0990
  327TMC3    O2 4920   0.008   0.739  10.604  0.1188  0.2296  0.2068
  328MPD2     C 4921   2.598   0.544   0.332  0.4346 -0.0308 -0.2403
  328MPD2    C1 4922   2.473   0.492   0.313 -0.0372  0.0213 -0.4912
  328MPD2    C2 4923   2.397   0.535   0.198  0.3774 -0.0181  0.2297
  328MPD2    C3 4924   2.454   0.621   0.108 -0.5336 -0.9177  0.1505
  328MPD2    C4 4925   2.575   0.684   0.142 -0.0182  0.4747 -0.2681
  328MPD2    C5 4926   2.650   0.635   0.243 -0.0541 -0.2061 -1.2772
  328MPD2     H 4927   2.302   0.485   0.181 -0.9500  2.4115  0.3614
  328MPD2    H1 4928   2.616   0.754   0.071  1.7271  0.4243  0.6983
  328MPD2    H2 4929   2.666   0.512   0.410 -1.1873 -3.2706 -0.1993
  328MPD2    H3 4930   2.746   0.680   0.264 -0.6430  0.2620  0.4996
  328MPD2     N 4931   2.387   0.663  17.681 -0.1469 -0.1243  0.0039
  328MPD2    H5 4932   2.432   0.739  17.630 -0.4784  0.5211  0.6801
  328MPD2    N1 4933   2.430   0.395   0.403 -0.2041 -0.3147  0.3525
  328MPD2    H7 4934   2.497   0.342   0.458 -0.2753 -0.3971  0.3606
  329TMC3    C1 4935   2.283   0.259   0.529 -0.0432 -0.0193 -0.0132
  329TMC3    C2 4936   2.189   0.274   0.625 -0.0436  0.4273 -0.0207
  329TMC3    C3 4937   2.166   0.180   0.721  0.2061 -0.4500 -0.2765
  329TMC3    C4 4938   2.350   0.139   0.518  0.9067 -0.1563 -0.0588
  329TMC3    C5 4939   2.310   0.041   0.612  0.8327  0.0839 -0.0433
  329TMC3    C6 4940   2.225   0.058   0.717 -0.1985 -0.2061 -0.0270
  329TMC3     C 4941   2.301   0.358   0.429 -0.0597 -0.1521 -0.1204
  329TMC3     O 4942   2.193   0.412   0.395 -0.3585  0.2984  0.1327
  329TMC3     H 4943   2.141   0.371   0.631  0.5979  0.5155  3.6543
  329TMC3    H1 4944   2.433   0.113   0.454  2.8374 -0.5356  2.6101
  329TMC3    H2 4945   2.213   4.713   0.800 -1.5306 -1.6312 -1.4063
  329TMC3    C7 4946   2.333   4.630   0.577 -0.6895 -0.9798 -0.6428
  329TMC3    C8 4947   2.101   0.223   0.848  0.5940 -0.6295 -0.6534
  329TMC3    O1 4948   2.439   4.614   0.522  0.2560 -0.2736 -0.0472
  329TMC3    O2 4949   2.108   0.148   0.945 -0.4192 -0.2629 -0.6719
  330TMC3    C1 4950   0.022   4.478  10.053  0.2722  0.3152  0.2939
  330TMC3    C2 4951   4.662   4.410   9.971  0.5519  0.4903 -0.1947
  330TMC3    C3 4952   4.625   4.277  10.001  0.0455  0.6094  0.1542
  330TMC3    C4 4953   0.084   4.416  10.162  0.5900  0.2011 -1.3079
  330TMC3    C5 4954   0.029   4.297  10.202  0.0524 -0.1183  0.0273
  330TMC3    C6 4955   4.666   4.226  10.118 -0.2496  0.1919  0.2397
  330TMC3     C 4956   4.710   4.619  10.066  0.1902 -0.0486  0.8738
  330TMC3     O 4957   0.045   4.676  10.157 -0.0805  0.0417  0.4687
  330TMC3     H 4958   4.634   4.448   9.873  2.6692 -2.1132 -1.8407
  330TMC3    H1 4959   0.139   4.471  10.238  1.9062 -1.8935 -0.7668
  330TMC3    H2 4960   4.604   4.145  10.155  0.1944 -0.7430 -1.0736
  330TMC3    C7 4961   0.119   4.209  10.280 -0.3293  0.3259  0.4229
  330TMC3    C8 4962   4.491   4.266   9.952 -0.5828  0.7962 -0.6761
  330TMC3    O1 4963   0.212   4.261  10.341 -0.0382 -0.0165 -0.6281
  330TMC3    O2 4964   4.432   4.370   9.932  0.1567 -0.2150  0.0053
  331MPD2     C 4965   3.147   2.985  12.517  0.3538  0.0678  0.1103
  331MPD2    C1 4966   3.189   3.014  12.388  0.5197 -0.1261 -0.0733
  331MPD2    C2 4967   3.294   2.937  12.343  0.1479  0.2940 -0.1173
  331MPD2    C3 4968   3.350   2.837  12.418 -0.1722 -0.1450 -0.2035
  331MPD2    C4 4969   3.305   2.818  12.543  0.2363  0.3539  0.3038
  331MPD2    C5 4970   3.205   2.890  12.596  0.3631 -0.6162  0.5809
  331MPD2     H 4971   3.343   2.955  12.248  1.5264 -1.1160  0.3259
  331MPD2    H1 4972   3.343   2.735  12.602 -1.4355  0.3691  1.3917
  331MPD2    H2 4973   3.061   3.041  12.552  0.0672 -0.4468  0.2275
  331MPD2    H3 4974   3.171   2.871  12.697  3.3932  0.0111  1.7184
  331MPD2     N 4975   3.463   2.774  12.360  0.0683  0.0685 -0.2752
  331MPD2    H5 4976   3.488   2.810  12.269 -1.5821  1.2614 -0.2619
  331MPD2    N1 4977   3.115   3.100  12.310  0.1614 -0.0373 -1.0585
  331MPD2    H7 4978   3.046   3.158  12.356  0.0910 -0.0351 -1.1675
  332TMC3    C1 4979   3.685   2.713  12.343 -0.0809  0.0108 -0.4839
  332TMC3    C2 4980   3.698   2.823  12.257 -0.3317 -0.0050 -0.3335
  332TMC3    C3 4981   3.820   2.849  12.217  0.1061  1.0569 -0.2875
  332TMC3    C4 4982   3.785   2.630  12.375 -0.6908  0.3516 -0.3167
  332TMC3    C5 4983   3.912   2.678  12.344  0.1143  0.1309  0.2853
  332TMC3    C6 4984   3.932   2.790  12.268 -0.6378  0.4582  0.8088
  332TMC3     C 4985   3.569   2.719  12.434  0.7317 -0.1044  0.0638
  332TMC3     O 4986   3.561   2.663  12.542  0.8673 -0.5741 -0.9866
  332TMC3     H 4987   3.615   2.884  12.223 -1.0632 -0.8149  0.0199
  332TMC3    H1 4988   3.772   2.540  12.435  2.7317  1.2020  1.7411
  332TMC3    H2 4989   4.031   2.822  12.239 -0.0516 -1.5161  0.6203
  332TMC3    C7 4990   4.026   2.611  12.394 -0.0693 -0.9941 -0.0599
  332TMC3    C8 4991   3.839   2.956  12.111 -0.3054 -0.1459 -0.2996
  332TMC3    O1 4992   4.027   2.489  12.395 -0.0684 -0.0954 -0.6114
  332TMC3    O2 4993   3.946   3.010  12.102  0.3752 -0.6124 -0.2300
  333MPD2     C 4994   3.187   3.253  11.088 -0.4166 -0.4908 -0.0021
  333MPD2    C1 4995   3.302   3.180  11.121 -0.0813  0.3414 -0.3257
  333MPD2    C2 4996   3.296   3.080  11.220  0.0361 -0.3303  0.0154
  333MPD2    C3 4997   3.178   3.063  11.288  0.2815  0.0963 -0.2972
  333MPD2    C4 4998   3.063   3.141  11.261  0.3010  0.8103  0.5156
  333MPD2    C5 4999   3.073   3.234  11.160  0.1946  0.9724 -0.6755
  333MPD2     H 5000   3.371   3.001  11.223 -0.0718 -0.4504 -0.4721
  333MPD2    H1 5001   2.966   3.126  11.308  1.1792 -0.1759  2.0204
  333MPD2    H2 5002   3.195   3.333  11.015 -0.6767  0.3576  0.8967
  333MPD2    H3 5003   2.985   3.294  11.141  0.5373  1.1004 -1.8232
  333MPD2     N 5004   3.171   2.960  11.385  0.2482  0.1689 -0.1941
  333MPD2    H5 5005   3.251   2.898  11.394 -1.4910 -2.1059 -0.4646
  333MPD2    N1 5006   3.411   3.210  11.043  0.5276 -0.8734  0.2291
  333MPD2    H7 5007   3.397   3.287  10.978  0.7079 -1.8189 -0.9201
  334TMC3    C1 5008   3.641   3.243  10.995 -0.3846  0.3263 -0.3363
  334TMC3    C2 5009   3.763   3.185  10.962  0.3392 -0.2749 -0.8258
  334TMC3    C3 5010   3.853   3.255  10.885 -0.3408 -0.5321  0.3864
  334TMC3    C4 5011   3.613   3.373  10.963  0.2325  0.5530 -0.3606
  334TMC3    C5 5012   3.701   3.435  10.875  0.4462  1.0225  0.1618
  334TMC3    C6 5013   3.820   3.381  10.841  0.2546 -0.2580  0.1423
  334TMC3     C 5014   3.540   3.160  11.062  0.0368  0.3042  0.2210
  334TMC3     O 5015   3.579   3.067  11.133 -0.1384 -0.1801  0.8888
  334TMC3     H 5016   3.781   3.085  10.999  0.7803 -0.2235 -0.8957
  334TMC3    H1 5017   3.533   3.431  11.008 -1.1541 -1.6629  0.0229
  334TMC3    H2 5018   3.894   3.442  10.791 -0.2508  1.4155  1.4435
  334TMC3    C7 5019   3.688   3.574  10.865 -0.6686  0.7863 -0.5144
  334TMC3    C8 5020   3.979   3.189  10.836 -0.0558 -0.2801 -0.0052
  334TMC3    O1 5021   3.790   3.642  10.853  1.3150 -0.0535 -0.1841
  334TMC3    O2 5022   3.978   3.069  10.817  0.1268  0.2641 -0.1714
  335TMC3    C1 5023   3.160   0.614  17.012  0.3766  1.0106 -0.0707
  335TMC3    C2 5024   3.148   0.493  16.948  0.3124  0.6028 -0.3753
  335TMC3    C3 5025   3.260   0.456  16.873 -0.0627 -0.0686  0.2792
  335TMC3    C4 5026   3.277   0.689  17.010 -0.4047  0.1473  0.6219
  335TMC3    C5 5027   3.382   0.640  16.942  0.0661 -0.1839 -0.6802
  335TMC3    C6 5028   3.380   0.519  16.875  0.1544  0.3739 -0.4252
  335TMC3     C 5029   3.039   0.654  17.086 -0.2032  0.1374 -0.7251
  335TMC3     O 5030   2.955   0.568  17.101  0.3250 -0.1939  0.2792
  335TMC3     H 5031   3.058   0.433  16.945  0.2707  0.6924 -0.8918
  335TMC3    H1 5032   3.289   0.784  17.060 -0.1255 -0.1098  1.0460
  335TMC3    H2 5033   3.466   0.478  16.823 -1.5601 -1.6760 -1.6216
  335TMC3    C7 5034   3.517   0.691  16.959  0.0221  0.4194  0.4706
  335TMC3    C8 5035   3.258   0.316  16.828  0.3326 -0.1005  0.4882
  335TMC3    O1 5036   3.601   0.639  16.885  0.6866 -0.0232 -0.1721
  335TMC3    O2 5037   3.331   0.279  16.738  0.1933 -0.2279 -0.1161
  336MPD2     C 5038   2.874   3.089  16.269 -0.2225 -0.1301  0.1887
  336MPD2    C1 5039   2.861   2.981  16.187  0.2150 -0.7316  0.0857
  336MPD2    C2 5040   2.868   2.861  16.248 -0.2803 -1.1402  0.2430
  336MPD2    C3 5041   2.890   2.846  16.385 -0.1405  0.3870  0.2349
  336MPD2    C4 5042   2.898   2.960  16.463 -0.5265  0.0080  0.1710
  336MPD2    C5 5043   2.893   3.078  16.403  0.0531 -0.6520 -0.0844
  336MPD2     H 5044   2.848   2.774  16.186 -1.3317 -0.4664 -0.3500
  336MPD2    H1 5045   2.925   2.963  16.568 -0.9641 -0.2403  0.2905
  336MPD2    H2 5046   2.870   3.188  16.225  3.0219  0.4478  1.2085
  336MPD2    H3 5047   2.911   3.172  16.454  0.9907 -0.0137 -1.5862
  336MPD2     N 5048   2.885   2.726  16.456  0.5232 -0.5123 -0.2456
  336MPD2    H5 5049   2.889   2.727  16.558  1.7335 -0.8462 -0.2908
  336MPD2    N1 5050   2.832   2.981  16.054  0.5374  0.0160 -0.1248
  336MPD2    H7 5051   2.822   2.895  16.001  2.7593 -0.4701  0.2393
  337TMC3    C1 5052   2.730   3.054  15.851 -0.0221  0.2314  0.3427
  337TMC3    C2 5053   2.641   2.950  15.858  0.8088  0.0809  0.3911
  337TMC3    C3 5054   2.547   2.935  15.759 -0.1448  0.5150 -0.4131
  337TMC3    C4 5055   2.714   3.151  15.758  0.0816 -0.9244 -0.3844
  337TMC3    C5 5056   2.618   3.131  15.655  0.0651  0.6245  0.2064
  337TMC3    C6 5057   2.535   3.017  15.650 -0.4211  0.3255 -0.1231
  337TMC3     C 5058   2.803   3.094  15.976 -0.1418 -0.0415 -0.2772
  337TMC3     O 5059   2.794   3.211  16.004 -0.2358  1.1508  0.3351
  337TMC3     H 5060   2.630   2.887  15.946  2.0629 -0.6475  0.0324
  337TMC3    H1 5061   2.781   3.236  15.748 -0.9260 -0.1911 -0.7902
  337TMC3    H2 5062   2.462   3.003  15.570  1.2182 -1.6334 -1.2780
  337TMC3    C7 5063   2.561   3.243  15.580  0.5116 -0.2492 -0.1692
  337TMC3    C8 5064   2.426   2.861  15.797  0.0923  0.3278 -0.1310
  337TMC3    O1 5065   2.494   3.212  15.484  0.1393 -0.0090  0.5156
  337TMC3    O2 5066   2.420   2.826  15.914  0.1395  0.8103 -0.7851
  338MPD2     C 5067   2.917   2.642   1.213  0.0830 -0.1506  0.6900
  338MPD2    C1 5068   2.951   2.608   1.087 -0.5788 -0.2043 -0.4505
  338MPD2    C2 5069   2.894   2.510   1.013 -0.0604 -0.5817  0.0348
  338MPD2    C3 5070   2.804   2.426   1.078 -0.6654  0.4312  0.3487
  338MPD2    C4 5071   2.762   2.458   1.202 -0.0774  0.6514  1.0863
  338MPD2    C5 5072   2.814   2.567   1.263  0.2097  0.0569 -0.0199
  338MPD2     H 5073   2.930   2.487   0.913 -0.2773  2.0461 -0.6305
  338MPD2    H1 5074   2.691   2.398   1.258 -0.3802 -0.1974 -0.2199
  338MPD2    H2 5075   2.974   2.713   1.271 -2.7368  2.1584  0.6293
  338MPD2    H3 5076   2.800   2.588   1.368 -0.9041  0.2475 -0.2009
  338MPD2     N 5077   2.744   2.322   1.002  0.7706  0.6156  0.1481
  338MPD2    H5 5078   2.769   2.323   0.904  0.7984 -3.1681  0.1017
  338MPD2    N1 5079   3.067   2.658   1.028 -0.6713 -0.3104 -0.2977
  338MPD2    H7 5080   3.098   2.603   0.948 -1.7134 -3.1985  1.3164
  339TMC3    C1 5081   2.644   2.129   0.929 -0.1896 -0.1566  0.5534
  339TMC3    C2 5082   2.675   2.000   0.938  0.6551  0.2154 -0.4126
  339TMC3    C3 5083   2.739   1.946   0.829  0.0277  0.2636 -0.0555
  339TMC3    C4 5084   2.661   2.200   0.815  0.3495  0.1009  0.7353
  339TMC3    C5 5085   2.746   2.148   0.721  0.0020  0.2483 -0.3552
  339TMC3    C6 5086   2.793   2.022   0.731  0.1778 -0.4522  0.4611
  339TMC3     C 5087   2.664   2.221   1.042 -0.0907 -0.0831 -0.0352
  339TMC3     O 5088   2.634   2.179   1.154 -0.2212 -0.3730 -0.8407
  339TMC3     H 5089   2.652   1.943   1.027  0.3044  1.2053  0.1286
  339TMC3    H1 5090   2.604   2.291   0.800  2.3426  0.8549 -2.2780
  339TMC3    H2 5091   2.835   1.977   0.642 -0.7794 -3.3798  1.4860
  339TMC3    C7 5092   2.807   2.255   0.634 -0.2031 -0.5314 -0.0896
  339TMC3    C8 5093   2.768   1.806   0.821 -0.1806  0.2128  0.5178
  339TMC3    O1 5094   2.733   2.348   0.610 -0.4467  0.3080 -0.4036
  339TMC3    O2 5095   2.838   1.773   0.730 -0.2147 -0.1702 -0.2030
  340MPD2     C 5096   3.148   0.722  11.098 -0.1521  0.0427  0.0994
  340MPD2    C1 5097   3.112   0.731  10.967  0.1010 -0.2031  0.1701
  340MPD2    C2 5098   3.113   0.856  10.907 -0.0341 -0.1241 -0.2168
  340MPD2    C3 5099   3.161   0.969  10.967  0.5182 -0.4790 -0.7241
  340MPD2    C4 5100   3.209   0.952  11.096 -0.2788 -0.0017 -0.0379
  340MPD2    C5 5101   3.203   0.828  11.155  0.5405  0.7991  0.5169
  340MPD2     H 5102   3.071   0.859  10.807 -0.8726 -2.2956  0.0634
  340MPD2    H1 5103   3.264   1.026  11.153  2.1149 -0.7042 -1.4383
  340MPD2    H2 5104   3.140   0.628  11.152  0.8129 -0.8373 -1.2804
  340MPD2    H3 5105   3.244   0.809  11.254  2.1861 -1.4669 -0.5884
  340MPD2     N 5106   3.176   1.097  10.907 -0.1357 -0.0438 -0.5276
  340MPD2    H5 5107   3.203   1.172  10.969  0.6818 -0.5282 -0.2921
  340MPD2    N1 5108   3.070   0.612  10.897 -0.1331 -0.4804  0.1499
  340MPD2    H7 5109   3.063   0.533  10.961  2.8677  0.5002  1.6733
  341TMC3    C1 5110   3.024   0.466  10.720 -0.4476  0.4583 -0.7017
  341TMC3    C2 5111   3.119   0.377  10.742 -0.3256  0.4653  0.1589
  341TMC3    C3 5112   3.175   0.318  10.631 -0.1423 -0.1445  0.0206
  341TMC3    C4 5113   2.976   0.484  10.596 -0.3637  0.5321 -0.0158
  341TMC3    C5 5114   3.023   0.411  10.488 -0.0904  0.2314 -0.4104
  341TMC3    C6 5115   3.127   0.327  10.503 -0.0331  0.2570 -0.2230
  341TMC3     C 5116   3.062   0.601  10.756  0.0214  0.2673  0.7506
  341TMC3     O 5117   3.099   0.680  10.666  0.2213 -0.3563 -0.0639
  341TMC3     H 5118   3.160   0.359  10.840 -1.3317  2.1867  0.8860
  341TMC3    H1 5119   2.905   0.564  10.578 -1.5848 -0.4892  0.2677
  341TMC3    H2 5120   3.177   0.269  10.426  1.4695  1.0170  0.1800
  341TMC3    C7 5121   2.926   0.397  10.383  0.2059  0.2415 -0.2799
  341TMC3    C8 5122   3.261   0.205  10.664 -0.1691 -0.4979 -0.0509
  341TMC3    O1 5123   2.821   0.450  10.392  0.7529 -0.0605  0.4413
  341TMC3    O2 5124   3.248   0.151  10.774  0.4241 -0.2986 -0.2606
  342MPD2     C 5125   0.668   3.320   0.025 -0.4416 -0.2678 -0.4687
  342MPD2    C1 5126   0.806   3.334   0.012  0.3154  0.0495 -0.1684
  342MPD2    C2 5127   0.876   3.448  17.657  0.4397 -0.7475 -0.3509
  342MPD2    C3 5128   0.793   3.551  17.609 -0.5492  0.1792  0.1235
  342MPD2    C4 5129   0.656   3.537  17.626  2.0183 -0.9973 -0.3155
  342MPD2    C5 5130   0.597   3.429  17.685  0.9352 -0.0745 -0.4147
  342MPD2     H 5131   0.983   3.446  17.639  1.0157 -1.0789  3.1974
  342MPD2    H1 5132   0.587   3.614  17.593  3.0273 -0.0393 -0.1942
  342MPD2    H2 5133   0.611   3.237   0.064 -0.3344 -0.5080 -0.8200
  342MPD2    H3 5134   0.490   3.432   0.009  1.1045  2.3924  0.1137
  342MPD2     N 5135   0.847   3.664  17.540 -0.0672  0.1109  0.3333
  342MPD2    H5 5136   0.778   3.729  17.503 -0.6802  0.1183  1.5124
  342MPD2    N1 5137   0.898   3.238   0.061  0.8937 -0.6500 -0.1286
  342MPD2    H7 5138   0.997   3.248   0.040  0.6154 -2.0622 -2.1465
  343TMC3    C1 5139   0.980   3.054   0.179  0.3857 -0.2860 -0.3367
  343TMC3    C2 5140   1.099   3.121   0.160  0.2700 -0.3820  0.3345
  343TMC3    C3 5141   1.202   3.048   0.111  0.0814 -0.3056  0.4943
  343TMC3    C4 5142   0.972   2.920   0.170 -0.4591  0.2589  0.5673
  343TMC3    C5 5143   1.082   2.853   0.118 -0.4046 -0.1607  0.3532
  343TMC3    C6 5144   1.201   2.911   0.088  0.0914 -0.3841 -0.1866
  343TMC3     C 5145   0.863   3.128   0.136  0.7057  0.7272 -0.9930
  343TMC3     O 5146   0.754   3.076   0.145  0.1090  0.0440  0.2208
  343TMC3     H 5147   1.091   3.228   0.179 -0.4896 -0.2899 -0.5039
  343TMC3    H1 5148   0.878   2.867   0.185 -0.2889 -0.0627  0.5077
  343TMC3    H2 5149   1.276   2.844   0.049 -0.0915 -0.3627 -0.5775
  343TMC3    C7 5150   1.048   2.725   0.064  0.3779 -0.7873 -0.0601
  343TMC3    C8 5151   1.334   3.126   0.108  0.4362 -0.2752  0.0692
  343TMC3    O1 5152   0.942   2.709   0.002 -0.2261  0.0544 -0.7319
  343TMC3    O2 5153   1.323   3.234   0.160 -0.3903 -0.3311 -0.1850
  344MPD2     C 5154   1.998   3.006  11.069 -0.4646 -0.8859 -0.2686
  344MPD2    C1 5155   2.066   2.894  11.021  0.4506 -0.4582 -0.7588
  344MPD2    C2 5156   2.132   2.902  10.901 -0.3662 -0.0851  0.1053
  344MPD2    C3 5157   2.123   3.017  10.819  0.6355  1.1128 -0.0207
  344MPD2    C4 5158   2.065   3.129  10.877 -0.5418  0.0502  0.6041
  344MPD2    C5 5159   2.000   3.127  11.000  0.0276  0.1125 -0.1629
  344MPD2     H 5160   2.194   2.819  10.870 -1.2413  0.1782 -2.3777
  344MPD2    H1 5161   2.069   3.227  10.830 -0.2418  0.0010  0.5300
  344MPD2    H2 5162   1.952   2.994  11.166 -2.5086 -1.2841 -1.2934
  344MPD2    H3 5163   1.969   3.221  11.045  2.1048  1.4768 -1.6085
  344MPD2     N 5164   2.195   3.040  10.696 -0.5964 -0.3735  0.2048
  344MPD2    H5 5165   2.198   3.139  10.676 -1.0073  0.0928  2.4887
  344MPD2    N1 5166   2.090   2.772  11.094  0.1332 -0.3646  0.1674
  344MPD2    H7 5167   2.121   2.694  11.038  0.0485 -0.7483  0.6508
  345TMC3    C1 5168   2.336   3.005  10.533  1.0402  0.2858  0.0473
  345TMC3    C2 5169   2.459   2.958  10.505  0.3119 -0.7442  0.2441
  345TMC3    C3 5170   2.536   3.032  10.419 -0.7055 -0.1120 -0.1608
  345TMC3    C4 5171   2.301   3.129  10.486 -0.2067  0.3711 -0.0447
  345TMC3    C5 5172   2.384   3.198  10.403  0.6648  0.7190  0.0020
  345TMC3    C6 5173   2.496   3.140  10.352 -0.0465  0.2683 -0.4267
  345TMC3     C 5174   2.270   2.944  10.643  0.2813  0.3245 -0.5648
  345TMC3     O 5175   2.264   2.822  10.651  0.0999 -0.7062 -0.5071
  345TMC3     H 5176   2.500   2.869  10.553  1.6510 -0.2997 -0.0748
  345TMC3    H1 5177   2.203   3.174  10.494 -0.8472 -0.8566 -1.0686
  345TMC3    H2 5178   2.566   3.192  10.288  0.8224 -0.2787  0.0793
  345TMC3    C7 5179   2.341   3.320  10.343  0.0154 -0.1693  0.0124
  345TMC3    C8 5180   2.664   2.963  10.396 -0.0461  0.2384 -0.0197
  345TMC3    O1 5181   2.277   3.397  10.417 -0.3119  0.8214 -0.1012
  345TMC3    O2 5182   2.658   2.843  10.395  0.2087 -0.4313 -0.2293
  346MPD2     C 5183   1.938   3.967  13.860  0.3611  0.2476  0.0960
  346MPD2    C1 5184   2.037   4.045  13.800  1.1511 -0.3469  0.0567
  346MPD2    C2 5185   2.107   4.128  13.881 -0.0915  0.0937  0.4846
  346MPD2    C3 5186   2.072   4.146  14.019  0.1887  0.8395 -0.2136
  346MPD2    C4 5187   1.958   4.079  14.065  0.0443  0.2526  0.5140
  346MPD2    C5 5188   1.895   3.988  13.988 -0.0444 -0.0431  0.3136
  346MPD2     H 5189   2.192   4.178  13.836 -0.8605  0.7519 -0.2231
  346MPD2    H1 5190   1.923   4.086  14.167  0.9182 -0.9114  0.8935
  346MPD2    H2 5191   1.884   3.899  13.795  2.3954  0.0548 -1.4099
  346MPD2    H3 5192   1.807   3.937  14.025  0.5529  2.0249  4.5647
  346MPD2     N 5193   2.155   4.228  14.105 -0.3525  0.3784  0.9736
  346MPD2    H5 5194   2.244   4.255  14.064 -1.9154 -0.0496 -2.6771
  346MPD2    N1 5195   2.071   4.019  13.663  0.1543  0.8705 -0.8408
  346MPD2    H7 5196   2.156   4.068  13.639 -0.6271  2.5934 -0.1465
  347TMC3    C1 5197   2.235   4.300  14.318  0.4998 -0.0302  0.2295
  347TMC3    C2 5198   2.351   4.234  14.306 -0.5943  0.1076  0.3358
  347TMC3    C3 5199   2.448   4.249  14.404  0.2851  0.0503 -0.3736
  347TMC3    C4 5200   2.204   4.374  14.427  0.2830  0.2066  0.0286
  347TMC3    C5 5201   2.303   4.392  14.517 -0.2395  0.3692 -0.0644
  347TMC3    C6 5202   2.425   4.328  14.511 -0.5834 -0.8875  0.2013
  347TMC3     C 5203   2.122   4.255  14.235  0.0216  0.9314  0.0445
  347TMC3     O 5204   2.009   4.261  14.284  0.0265 -0.4397 -0.1067
  347TMC3     H 5205   2.373   4.174  14.219 -0.4858 -0.1799  0.5620
  347TMC3    H1 5206   2.101   4.399  14.448  0.2433  0.5976 -0.6338
  347TMC3    H2 5207   2.504   4.338  14.584 -0.3055  1.4231 -0.4135
  347TMC3    C7 5208   2.259   4.442  14.650 -0.4789 -0.6097  0.2375
  347TMC3    C8 5209   2.585   4.196  14.380 -0.1414 -0.0096 -0.3600
  347TMC3    O1 5210   2.135   4.458  14.670 -0.5325 -0.0264  0.5785
  347TMC3    O2 5211   2.650   4.191  14.480 -0.7070  0.1708  0.0165
  348MPD2     C 5212   0.314   4.031  12.456 -0.5130  0.0904 -0.1647
  348MPD2    C1 5213   0.418   4.011  12.370 -0.3929  0.6527  0.2880
  348MPD2    C2 5214   0.429   4.093  12.257 -0.0707 -0.5463 -0.5369
  348MPD2    C3 5215   0.324   4.172  12.231 -0.2726 -0.1613 -0.2776
  348MPD2    C4 5216   0.215   4.186  12.307  0.2212 -0.3572  0.0029
  348MPD2    C5 5217   0.214   4.117  12.422 -0.4504 -0.0078  0.3453
  348MPD2     H 5218   0.513   4.084  12.188  0.8308  0.4662  0.4409
  348MPD2    H1 5219   0.138   4.259  12.286  1.9045  1.2875 -0.5122
  348MPD2    H2 5220   0.306   3.973  12.547  0.4939 -1.5679 -1.1256
  348MPD2    H3 5221   0.133   4.125  12.494 -0.4121 -0.7945  0.4750
  348MPD2     N 5222   0.320   4.256  12.123 -0.1587  0.1144  0.3876
  348MPD2    H5 5223   0.235   4.301  12.090  1.0369  2.5813  0.7140
  348MPD2    N1 5224   0.512   3.912  12.385  0.8779  0.4501  0.3835
  348MPD2    H7 5225   0.571   3.883  12.308  1.2436 -0.2356  0.9264
  349TMC3    C1 5226   0.631   3.738  12.470 -0.6241 -0.0554 -0.2371
  349TMC3    C2 5227   0.728   3.710  12.564  1.2611  0.0194  0.0485
  349TMC3    C3 5228   0.854   3.665  12.528  0.0552 -0.8061  0.3387
  349TMC3    C4 5229   0.661   3.703  12.338  0.1122 -0.6538 -0.1933
  349TMC3    C5 5230   0.792   3.678  12.297  0.0824  0.7666  0.3396
  349TMC3    C6 5231   0.890   3.672  12.396 -1.2247 -0.2886 -0.1920
  349TMC3     C 5232   0.525   3.834  12.497  0.0270  0.2941 -0.8745
  349TMC3     O 5233   0.500   3.848  12.612  0.0353 -0.1209  0.1283
  349TMC3     H 5234   0.697   3.710  12.668 -0.1910  0.0053 -0.3759
  349TMC3    H1 5235   0.591   3.723  12.259 -0.6568  0.2782  0.7315
  349TMC3    H2 5236   0.987   3.631  12.370 -0.5650  1.1046  0.0743
  349TMC3    C7 5237   0.817   3.755  12.177  0.4672  0.5419  0.5374
  349TMC3    C8 5238   0.935   3.598  12.632  0.4223  0.0400 -0.4607
  349TMC3    O1 5239   0.738   3.737  12.082  0.1184 -0.1151  0.5599
  349TMC3    O2 5240   0.873   3.550  12.729 -0.0953 -0.2356 -0.0831
  350MPD2     C 5241   0.033   1.717   9.463 -0.4676 -0.0027  0.8203
  350MPD2    C1 5242   4.662   1.681   9.553  0.3855 -0.3208 -0.8015
  350MPD2    C2 5243   4.674   1.716   9.687  0.4048  0.1960 -0.5833
  350MPD2    C3 5244   0.056   1.798   9.730  0.1449 -0.2373  0.0486
  350MPD2    C4 5245   0.153   1.832   9.637  0.5044 -0.6450 -0.4416
  350MPD2    C5 5246   0.139   1.795   9.505 -0.0474  0.2256 -0.5989
  350MPD2     H 5247   4.602   1.673   9.756  1.5744  0.0393  0.5595
  350MPD2    H1 5248   0.239   1.891   9.668 -0.9995  1.9914 -1.3054
  350MPD2    H2 5249   0.018   1.690   9.359 -0.6421  0.9621  0.5893
  350MPD2    H3 5250   0.221   1.828   9.443  0.5636  1.5866  0.9491
  350MPD2     N 5251   0.061   1.835   9.866 -0.3929 -0.4225  0.4671
  350MPD2    H5 5252   4.703   1.814   9.923 -1.5487 -0.4258 -1.1670
  350MPD2    N1 5253   4.554   1.598   9.529 -0.0592 -0.3497 -0.0835
  350MPD2    H7 5254   4.492   1.577   9.606  0.9956 -4.8981 -0.4743
  351TMC3    C1 5255   4.400   1.465   9.408  0.0728  1.1152 -0.4413
  351TMC3    C2 5256   4.403   1.331   9.371  0.1814 -0.8442  0.3193
  351TMC3    C3 5257   4.288   1.256   9.403 -0.2903  1.2192 -0.8817
  351TMC3    C4 5258   4.301   1.517   9.483  0.3443 -0.2952 -0.0738
  351TMC3    C5 5259   4.196   1.439   9.510 -0.2729 -0.4422  0.5041
  351TMC3    C6 5260   4.179   1.317   9.465  0.1923  0.0007 -0.3153
  351TMC3     C 5261   4.538   1.528   9.412  0.8271  0.3823  0.1833
  351TMC3     O 5262   4.619   1.494   9.327 -0.0544 -0.2368 -0.1158
  351TMC3     H 5263   4.486   1.295   9.311  1.2317  1.2662  0.5120
  351TMC3    H1 5264   4.302   1.622   9.512  0.8382 -0.1471 -0.6223
  351TMC3    H2 5265   4.089   1.262   9.489 -0.1796  0.8982  0.3558
  351TMC3    C7 5266   4.069   1.518   9.533 -0.4469 -0.0132  0.5495
  351TMC3    C8 5267   4.302   1.114   9.412 -1.0030  0.5416 -0.2155
  351TMC3    O1 5268   4.041   1.609   9.449 -0.3094 -0.0308  0.2779
  351TMC3    O2 5269   4.415   1.066   9.397 -0.0051  0.0797  0.3075
  352MPD2     C 5270   2.412   4.166   1.324 -0.3482  0.3200  0.8375
  352MPD2    C1 5271   2.541   4.196   1.310  0.6332 -0.6716  0.4539
  352MPD2    C2 5272   2.636   4.097   1.343 -0.2244 -0.1055  0.5112
  352MPD2    C3 5273   2.602   3.982   1.405 -1.0570  0.0766  0.1536
  352MPD2    C4 5274   2.471   3.961   1.441 -0.1960 -0.3244 -0.0178
  352MPD2    C5 5275   2.381   4.051   1.399  0.4660  0.6910  0.5247
  352MPD2     H 5276   2.742   4.116   1.334 -0.0909 -1.5043 -0.8790
  352MPD2    H1 5277   2.430   3.877   1.495 -1.9648  0.4011 -0.2165
  352MPD2    H2 5278   2.335   4.231   1.287 -0.7367 -0.9481 -0.5886
  352MPD2    H3 5279   2.277   4.030   1.422  0.3412 -1.2155 -1.7624
  352MPD2     N 5280   2.695   3.883   1.450 -0.6145  0.2865  0.1936
  352MPD2    H5 5281   2.651   3.796   1.479  1.0443 -0.4940  0.3619
  352MPD2    N1 5282   2.574   4.317   1.252  0.3900  0.3302  0.2234
  352MPD2    H7 5283   2.502   4.385   1.229 -0.3418 -0.8561 -1.0277
  353TMC3    C1 5284   2.883   3.752   1.461  0.1537  0.3122 -0.2491
  353TMC3    C2 5285   2.988   3.721   1.549 -0.3888 -0.2575 -0.2558
  353TMC3    C3 5286   3.060   3.607   1.525 -0.0112  0.1798 -0.4055
  353TMC3    C4 5287   2.845   3.665   1.359 -0.5905  0.1209  0.0105
  353TMC3    C5 5288   2.919   3.549   1.351  0.4389  0.1232 -0.7208
  353TMC3    C6 5289   3.022   3.520   1.437 -0.3907 -0.1692 -0.4127
  353TMC3     C 5290   2.837   3.882   1.445  0.0653  0.5240  0.2434
  353TMC3     O 5291   2.911   3.972   1.419 -0.4789  0.0853 -0.5912
  353TMC3     H 5292   3.009   3.797   1.624  0.1141  0.8197 -1.4889
  353TMC3    H1 5293   2.767   3.688   1.287 -0.1065 -0.2221 -0.6333
  353TMC3    H2 5294   3.082   3.431   1.420  0.5721  0.1794  1.2092
  353TMC3    C7 5295   2.886   3.463   1.240 -0.1274  0.1870  0.3123
  353TMC3    C8 5296   3.187   3.594   1.593  0.1377  0.6484  0.0823
  353TMC3    O1 5297   2.836   3.520   1.143  0.5111 -0.4785 -0.3184
  353TMC3    O2 5298   3.189   3.648   1.701  0.8216 -0.1811  0.0671
  354TMC3    C1 5299   4.648   0.429  13.749  0.8536 -0.4193 -0.6626
  354TMC3    C2 5300   0.038   0.506  13.764 -0.8201 -0.7104  1.0623
  354TMC3    C3 5301   0.076   0.588  13.651  0.1065 -0.1386  0.1398
  354TMC3    C4 5302   4.578   0.431  13.630  1.0900  0.2193  0.4759
  354TMC3    C5 5303   4.631   0.493  13.525 -0.4201  0.7030  0.1989
  354TMC3    C6 5304   0.021   0.575  13.527 -0.6781 -0.0212 -0.0572
  354TMC3     C 5305   4.600   0.339  13.854 -0.0911  0.2050  0.4679
  354TMC3     O 5306   4.485   0.302  13.831 -0.1051  0.0177  0.3405
  354TMC3     H 5307   0.087   0.527  13.858  0.6936  2.0110 -0.3250
  354TMC3    H1 5308   4.494   0.363  13.618  0.5241  1.1909 -0.9929
  354TMC3    H2 5309   0.076   0.620  13.445 -2.6653  1.5949 -0.5217
  354TMC3    C7 5310   4.597   0.449  13.396 -0.0248 -0.0101  0.5597
  354TMC3    C8 5311   0.186   0.680  13.670  0.1917  0.0380  0.0651
  354TMC3    O1 5312   4.551   0.336  13.384 -0.1214 -0.1768 -0.3928
  354TMC3    O2 5313   0.257   0.667  13.770 -0.1085 -0.0179 -0.5009
  355MPD2     C 5314   4.621   2.048  11.725 -0.3259  0.5986 -0.7424
  355MPD2    C1 5315   4.697   2.014  11.616 -0.0806 -0.1079 -0.2660
  355MPD2    C2 5316   0.110   1.994  11.634 -0.6558  0.4224  0.4433
  355MPD2    C3 5317   0.166   2.001  11.763 -0.2681  0.1698  0.5415
  355MPD2    C4 5318   0.082   2.016  11.871  0.4961 -0.5374 -0.3776
  355MPD2    C5 5319   4.670   2.039  11.851  0.1206  0.2412  0.3035
  355MPD2     H 5320   0.167   1.978  11.543 -0.6245  2.8019  0.0525
  355MPD2    H1 5321   0.121   2.018  11.972  1.5493 -0.9863 -0.7746
  355MPD2    H2 5322   4.514   2.066  11.720 -0.8303 -2.0078  0.5261
  355MPD2    H3 5323   4.614   2.058  11.942  0.4754  0.2991  0.5083
  355MPD2     N 5324   0.309   1.998  11.795 -0.1403  0.7360  0.1268
  355MPD2    H5 5325   0.330   2.012  11.893  2.4130 -0.2991 -0.2884
  355MPD2    N1 5326   4.641   2.026  11.487 -0.5357 -0.4485 -0.6576
  355MPD2    H7 5327   4.542   2.045  11.482 -0.2464  0.4222 -3.2729
  356TMC3    C1 5328   0.530   2.041  11.749 -1.0825  0.1489  0.3994
  356TMC3    C2 5329   0.630   2.072  11.660  0.4754  0.9322  0.0399
  356TMC3    C3 5330   0.759   2.088  11.708 -0.4299 -0.1435 -0.0516
  356TMC3    C4 5331   0.557   2.007  11.883  0.2477  0.2893  0.7434
  356TMC3    C5 5332   0.688   2.032  11.926 -0.6687  0.0175  0.0038
  356TMC3    C6 5333   0.791   2.077  11.844  0.5929  0.0382  0.8018
  356TMC3     C 5334   0.406   2.008  11.693 -0.5049 -0.3224  0.4251
  356TMC3     O 5335   0.393   2.017  11.575  0.0623 -0.8629  0.1066
  356TMC3     H 5336   0.600   2.115  11.565  2.6038 -0.2319 -1.1753
  356TMC3    H1 5337   0.480   1.981  11.954 -0.1111 -0.3859  0.1104
  356TMC3    H2 5338   0.891   2.066  11.883 -0.6691 -1.8875  3.5504
  356TMC3    C7 5339   0.717   2.020  12.065 -0.1840 -0.1050 -0.1972
  356TMC3    C8 5340   0.866   2.108  11.609 -0.3790 -0.3243  0.0938
  356TMC3    O1 5341   0.663   1.925  12.123  0.1302  0.5081 -0.0763
  356TMC3    O2 5342   0.830   2.091  11.494  0.1720 -0.3142  0.4293
  357MPD2     C 5343   4.437   0.628   1.547 -0.3233  0.1397 -0.4937
  357MPD2    C1 5344   4.476   0.523   1.460 -0.1759 -0.6489  0.6460
  357MPD2    C2 5345   4.422   0.391   1.478 -0.1539 -0.0358 -0.5516
  357MPD2    C3 5346   4.328   0.371   1.571 -0.2782 -0.1591 -0.6361
  357MPD2    C4 5347   4.281   0.478   1.647 -0.7726 -0.1859  0.0380
  357MPD2    C5 5348   4.332   0.603   1.637 -0.8795 -0.3990 -0.1104
  357MPD2     H 5349   4.455   0.302   1.427  1.4232  0.4725 -0.4022
  357MPD2    H1 5350   4.200   0.451   1.713 -0.3372 -2.6838 -0.4534
  357MPD2    H2 5351   4.476   0.729   1.542 -1.0921  0.4768  0.4163
  357MPD2    H3 5352   4.299   0.681   1.704 -1.9207 -0.9400 -0.0025
  357MPD2     N 5353   4.250   0.251   1.580 -0.2440 -0.1533 -0.0293
  357MPD2    H5 5354   4.167   0.256   1.637 -0.3009  0.5258 -0.1674
  357MPD2    N1 5355   4.575   0.545   1.357  0.0499  0.0859 -0.4433
  357MPD2    H7 5356   4.596   0.644   1.348  0.7248 -0.0801 -0.6657
  358TMC3    C1 5357   0.029   0.497   1.208  0.1910 -0.4754  0.1942
  358TMC3    C2 5358   4.700   0.597   1.130 -0.5558 -0.4624  1.1050
  358TMC3    C3 5359   0.061   0.695   1.093  0.4309 -0.0296  0.0091
  358TMC3    C4 5360   0.155   0.500   1.256 -0.1858 -0.2912  0.2302
  358TMC3    C5 5361   0.238   0.605   1.209 -0.2774 -0.2439  0.0025
  358TMC3    C6 5362   0.192   0.707   1.136 -0.3438 -0.6083  0.2440
  358TMC3     C 5363   4.651   0.449   1.297 -0.0727  0.7492 -0.2800
  358TMC3     O 5364   4.660   0.334   1.331 -0.2222 -0.1716  0.4585
  358TMC3     H 5365   4.597   0.592   1.096  0.0496 -0.5250 -0.7407
  358TMC3    H1 5366   0.201   0.418   1.310  0.0810 -1.4492 -1.7160
  358TMC3    H2 5367   0.250   0.774   1.073 -0.1651 -0.8829  0.1191
  358TMC3    C7 5368   0.369   0.621   1.272  0.8219  0.2372 -0.2475
  358TMC3    C8 5369   4.723   0.792   1.007  0.1124  0.1454 -0.2208
  358TMC3    O1 5370   0.428   0.520   1.310  0.6876  0.0416 -0.4333
  358TMC3    O2 5371   4.620   0.762   0.947 -0.3326  0.5166  0.0018
  359MPD2     C 5372   4.703   4.521  12.927  0.1475 -0.2104 -0.2496
  359MPD2    C1 5373   0.059   4.409  12.914  0.1646 -0.5311 -0.5822
  359MPD2    C2 5374   0.057   4.316  13.010 -1.2097  0.0050  0.3423
  359MPD2    C3 5375   4.713   4.340  13.127 -0.1259 -0.3665  0.0079
  359MPD2    C4 5376   4.647   4.454  13.145 -0.5953 -1.0155  0.1030
  359MPD2    C5 5377   4.634   4.548  13.046 -0.0741  0.6791 -0.2066
  359MPD2     H 5378   0.107   4.222  12.995 -0.2465  0.8432 -1.6485
  359MPD2    H1 5379   4.603   4.479  13.241  0.6580 -1.5343  0.8143
  359MPD2    H2 5380   4.693   4.601  12.855 -2.4362  0.6478  1.0639
  359MPD2    H3 5381   4.578   4.640  13.060 -2.3449 -0.6233 -0.8099
  359MPD2     N 5382   4.698   4.246  13.231  0.0114  0.0592  0.2167
  359MPD2    H5 5383   4.649   4.283  13.311 -0.6632 -0.1308 -0.1107
  359MPD2    N1 5384   0.137   4.395  12.792 -0.0155 -0.4641 -0.1366
  359MPD2    H7 5385   0.178   4.304  12.774  1.0832  0.1160 -0.4998
  360TMC3    C1 5386   0.236   4.444  12.587 -0.0254 -0.2223 -0.2503
  360TMC3    C2 5387   0.353   4.382  12.622 -0.1927  0.0993 -0.5000
  360TMC3    C3 5388   0.453   4.393  12.532  0.0298  0.2965  0.0296
  360TMC3    C4 5389   0.225   4.502  12.463 -0.4527  0.2615  0.3593
  360TMC3    C5 5390   0.326   4.504  12.373 -0.9944  0.3035  0.1046
  360TMC3    C6 5391   0.443   4.453  12.406  0.3422  0.5158 -0.0519
  360TMC3     C 5392   0.148   4.489  12.695 -0.1415 -0.1037  0.2721
  360TMC3     O 5393   0.103   4.600  12.678 -0.5928 -0.1964  0.1319
  360TMC3     H 5394   0.379   4.370  12.727  1.4228  1.0410 -0.7882
  360TMC3    H1 5395   0.131   4.551  12.443 -0.6400  0.0161  0.6467
  360TMC3    H2 5396   0.519   4.441  12.330  0.3143  0.3353 -0.0520
  360TMC3    C7 5397   0.315   4.582  12.257  0.3985 -0.2464  0.1069
  360TMC3    C8 5398   0.571   4.334  12.585 -0.2275  0.3275 -0.6662
  360TMC3    O1 5399   0.427   4.615  12.211  0.0490  0.3238 -0.1508
  360TMC3    O2 5400   0.569   4.255  12.676  0.1789 -0.3989 -0.1166
  361MPD2     C 5401   1.915   3.533  16.882 -0.3984  0.5260 -0.1374
  361MPD2    C1 5402   1.950   3.651  16.950  0.6146 -0.0983 -0.1468
  361MPD2    C2 5403   2.067   3.653  17.028  0.8117  0.3608 -0.1539
  361MPD2    C3 5404   2.149   3.541  17.026 -0.1869 -0.4016 -0.3933
  361MPD2    C4 5405   2.112   3.429  16.956 -0.0730  0.4744  0.5704
  361MPD2    C5 5406   1.992   3.418  16.885 -0.2896  0.2054  0.6164
  361MPD2     H 5407   2.105   3.742  17.076  0.5719  0.2286  0.2856
  361MPD2    H1 5408   2.170   3.337  16.957 -1.2066 -0.2468 -1.9960
  361MPD2    H2 5409   1.826   3.528  16.821 -0.3452 -3.4865  0.1023
  361MPD2    H3 5410   1.963   3.329  16.831  0.2700 -0.2837  1.1220
  361MPD2     N 5411   2.273   3.539  17.095  0.3844  0.3918  0.1231
  361MPD2    H5 5412   2.337   3.465  17.069  0.8373  1.2249 -1.1158
  361MPD2    N1 5413   1.858   3.759  16.943 -0.1412 -0.3296  0.3018
  361MPD2    H7 5414   1.886   3.848  16.983  2.6616 -1.6416  1.2607
  362TMC3    C1 5415   1.653   3.882  16.918  0.0334 -0.0543 -0.0004
  362TMC3    C2 5416   1.526   3.871  16.963  0.0097 -0.0845  0.3366
  362TMC3    C3 5417   1.448   3.985  16.942  0.4527 -0.7171  0.0338
  362TMC3    C4 5418   1.715   4.000  16.886 -0.0173 -0.1875 -0.2045
  362TMC3    C5 5419   1.636   4.108  16.889  0.4493  0.0244 -0.0853
  362TMC3    C6 5420   1.501   4.106  16.914  0.1274 -0.0140  0.2555
  362TMC3     C 5421   1.723   3.754  16.909  0.2940 -0.0985 -0.6383
  362TMC3     O 5422   1.650   3.662  16.878  0.0524 -0.4805  0.1366
  362TMC3     H 5423   1.492   3.776  17.004  1.6510 -0.5429  0.6185
  362TMC3    H1 5424   1.813   4.003  16.841  0.0827  1.2573  0.0993
  362TMC3    H2 5425   1.444   4.197  16.901 -1.0032 -0.7560 -0.0412
  362TMC3    C7 5426   1.687   4.219  16.809  0.3829 -0.4714 -0.1821
  362TMC3    C8 5427   1.309   3.982  16.986  0.3715 -0.3489 -0.0840
  362TMC3    O1 5428   1.679   4.332  16.857 -0.2450 -0.2086 -0.1645
  362TMC3    O2 5429   1.251   3.875  16.992 -0.1674  0.0685  0.4336
  363TMC3    C1 5430   0.403   2.400  10.054  0.7462 -0.3564 -0.0203
  363TMC3    C2 5431   0.510   2.332  10.106 -0.7069  0.2455 -0.5359
  363TMC3    C3 5432   0.582   2.399  10.207 -0.3434  0.6349 -0.3121
  363TMC3    C4 5433   0.373   2.531  10.089 -0.0331 -0.0225 -0.6434
  363TMC3    C5 5434   0.453   2.593  10.180 -0.2977 -0.3648 -0.0943
  363TMC3    C6 5435   0.551   2.523  10.250 -0.2270  0.2158 -0.1185
  363TMC3     C 5436   0.305   2.326   9.988 -0.0670 -0.2191 -0.1399
  363TMC3     O 5437   0.334   2.244   9.901  0.1432 -0.1633 -0.3309
  363TMC3     H 5438   0.530   2.233  10.066  2.2846  0.5416  0.2546
  363TMC3    H1 5439   0.296   2.592  10.045  0.5100 -0.4889 -2.2482
  363TMC3    H2 5440   0.614   2.580  10.317  1.6004  0.0768 -1.7150
  363TMC3    C7 5441   0.493   2.731  10.156 -0.5319 -0.2305 -0.1112
  363TMC3    C8 5442   0.714   2.346  10.250 -0.4818  0.0358  0.3471
  363TMC3    O1 5443   0.566   2.788  10.241 -0.3137 -0.9078  0.1576
  363TMC3    O2 5444   0.777   2.417  10.326  0.5123  0.1148  0.0040
  364MPD2     C 5445   4.452   1.092  10.338 -0.1465  0.9825  0.1942
  364MPD2    C1 5446   4.577   1.042  10.353 -0.6603  0.8520  0.2420
  364MPD2    C2 5447   4.599   0.935  10.436 -0.2858 -0.2975 -0.1285
  364MPD2    C3 5448   4.491   0.876  10.502  0.0285  0.2093  0.3697
  364MPD2    C4 5449   4.366   0.921  10.476 -0.2875 -0.5959  0.0880
  364MPD2    C5 5450   4.339   1.022  10.391  0.7406 -0.8257 -0.1681
  364MPD2     H 5451   4.700   0.897  10.450 -0.0080 -0.0292 -1.4597
  364MPD2    H1 5452   4.281   0.884  10.533  0.0326 -0.1382  0.8742
  364MPD2    H2 5453   4.444   1.174  10.268  2.7925  0.2122 -1.0542
  364MPD2    H3 5454   4.237   1.058  10.400  2.0032  2.5894  0.7405
  364MPD2     N 5455   4.497   0.772  10.596 -0.1524  0.1723  0.1463
  364MPD2    H5 5456   4.411   0.750  10.646  0.9392 -2.5672  0.8338
  364MPD2    N1 5457   4.688   1.102  10.294 -0.6429  0.1134  0.1197
  364MPD2    H7 5458   4.657   1.178  10.234  1.3887  0.8784  0.0668
  365TMC3    C1 5459   0.196   1.170  10.267 -0.2286 -0.1595  0.8373
  365TMC3    C2 5460   0.331   1.129  10.265  0.8714  0.2918  0.0189
  365TMC3    C3 5461   0.428   1.209  10.318 -0.0576 -0.2018 -0.4808
  365TMC3    C4 5462   0.160   1.290  10.327 -0.1553  0.7769 -0.5558
  365TMC3    C5 5463   0.266   1.369  10.368  0.1490  0.7401  0.1718
  365TMC3    C6 5464   0.399   1.340  10.361 -0.0411  0.1387 -0.1963
  365TMC3     C 5465   0.095   1.070  10.298 -0.0435 -0.3577 -0.0288
  365TMC3     O 5466   0.145   0.967  10.339  0.2097  0.0288  0.3790
  365TMC3     H 5467   0.344   1.035  10.213 -5.2079 -1.8110  2.3485
  365TMC3    H1 5468   0.059   1.329  10.329 -1.0288 -1.4363 -1.5333
  365TMC3    H2 5469   0.468   1.390  10.427  1.2455  0.8774 -2.1097
  365TMC3    C7 5470   0.224   1.483  10.450 -0.0871 -0.2915  0.1873
  365TMC3    C8 5471   0.542   1.136  10.361  0.3752 -0.1697  0.4598
  365TMC3    O1 5472   0.291   1.588  10.447 -0.6407 -0.0772  0.1947
  365TMC3    O2 5473   0.643   1.201  10.392 -0.6163  0.8873  0.1147
  366MPD2     C 5474   2.968   1.427  15.529  0.1719 -0.1943  0.4538
  366MPD2    C1 5475   2.943   1.542  15.598 -0.2535  0.3103 -0.2263
  366MPD2    C2 5476   3.024   1.559  15.708 -0.6770 -0.7179  0.5337
  366MPD2    C3 5477   3.130   1.478  15.739 -0.2942 -0.3970 -0.3083
  366MPD2    C4 5478   3.149   1.359  15.670 -0.5656  0.2823  0.1944
  366MPD2    C5 5479   3.060   1.337  15.568  0.8269  0.2154 -0.0885
  366MPD2     H 5480   3.004   1.649  15.763 -1.1226 -1.3302  1.3702
  366MPD2    H1 5481   3.211   1.277  15.702 -0.7307 -1.1156 -3.0453
  366MPD2    H2 5482   2.909   1.400  15.443  1.1756 -0.7388 -0.0706
  366MPD2    H3 5483   3.046   1.242  15.518  0.8093  0.6831 -0.9768
  366MPD2     N 5484   3.229   1.529  15.827  0.5887  0.5299 -1.3002
  366MPD2    H5 5485   3.198   1.610  15.880 -0.9292  2.9176 -5.8104
  366MPD2    N1 5486   2.849   1.640  15.562  0.0767 -0.1352 -0.4008
  366MPD2    H7 5487   2.853   1.720  15.624 -0.4515 -0.9034  0.6261
  367TMC3    C1 5488   2.696   1.764  15.443 -1.0735  0.2602 -0.1372
  367TMC3    C2 5489   2.757   1.864  15.525 -0.0037 -0.0891 -0.0561
  367TMC3    C3 5490   2.679   1.977  15.546 -0.4730 -0.4213 -0.3450
  367TMC3    C4 5491   2.569   1.770  15.395  0.9380 -0.2124 -0.0900
  367TMC3    C5 5492   2.488   1.876  15.435 -0.2557 -0.2875  0.2756
  367TMC3    C6 5493   2.543   1.978  15.506  0.1593 -0.2103 -0.1703
  367TMC3     C 5494   2.765   1.636  15.451  0.5557  0.1972 -0.5447
  367TMC3     O 5495   2.733   1.542  15.381  0.0989 -0.0228  0.2312
  367TMC3     H 5496   2.864   1.865  15.542 -0.1077  0.6768  0.6108
  367TMC3    H1 5497   2.522   1.685  15.347  0.3618 -0.7762  1.4733
  367TMC3    H2 5498   2.474   2.057  15.533 -2.6059 -2.8100  0.4030
  367TMC3    C7 5499   2.349   1.898  15.389  0.1736  0.4382  0.0169
  367TMC3    C8 5500   2.748   2.095  15.591 -0.0799 -0.6474 -0.6258
  367TMC3    O1 5501   2.287   1.994  15.437 -0.2309  0.3914 -0.2417
  367TMC3    O2 5502   2.861   2.078  15.635 -0.1593 -0.5556 -0.2836
  368MPD2     C 5503   3.080   3.491  13.190 -0.2921  0.0698  0.2388
  368MPD2    C1 5504   3.148   3.596  13.139  0.5125 -0.3445  0.4319
  368MPD2    C2 5505   3.291   3.596  13.144 -0.3592 -0.0308 -0.5736
  368MPD2    C3 5506   3.353   3.495  13.202 -0.4007  0.4156 -0.4825
  368MPD2    C4 5507   3.287   3.395  13.263  0.0856 -0.7825  1.0274
  368MPD2    C5 5508   3.148   3.390  13.252 -0.6163 -0.1297  0.3760
  368MPD2     H 5509   3.352   3.682  13.120 -0.0596 -0.2054 -0.4350
  368MPD2    H1 5510   3.336   3.316  13.319  3.2093 -0.0350 -0.6153
  368MPD2    H2 5511   2.972   3.496  13.182 -0.2139 -0.5096 -1.0525
  368MPD2    H3 5512   3.085   3.314  13.296 -2.5753  0.7670 -0.8602
  368MPD2     N 5513   3.493   3.501  13.235  0.8541 -0.1067  0.4125
  368MPD2    H5 5514   3.523   3.440  13.310  3.2292  0.4257 -0.1156
  368MPD2    N1 5515   3.070   3.710  13.123 -0.0197 -0.2190 -0.1381
  368MPD2    H7 5516   2.969   3.700  13.132 -0.4216  1.1039 -2.9721
  369TMC3    C1 5517   3.011   3.946  13.095 -0.3167 -0.1724 -0.3781
  369TMC3    C2 5518   3.052   4.080  13.090  0.1336  0.2683 -0.4335
  369TMC3    C3 5519   2.962   4.180  13.115  0.2664  0.0350 -0.2758
  369TMC3    C4 5520   2.893   3.923  13.175  0.1687 -0.6567  0.2935
  369TMC3    C5 5521   2.820   4.029  13.230  0.9277 -0.3401 -0.6162
  369TMC3    C6 5522   2.850   4.159  13.194 -0.7189  0.4746  0.0840
  369TMC3     C 5523   3.114   3.836  13.082 -0.4552 -0.1455 -0.5932
  369TMC3     O 5524   3.231   3.867  13.060 -0.2884  0.3713 -0.0472
  369TMC3     H 5525   3.142   4.114  13.040  0.4089  3.0293  1.9804
  369TMC3    H1 5526   2.864   3.827  13.215 -0.6377 -0.4821  0.1365
  369TMC3    H2 5527   2.787   4.238  13.234 -0.5775 -0.6112  2.4583
  369TMC3    C7 5528   2.727   4.005  13.343 -0.2234  0.1464  0.2759
  369TMC3    C8 5529   2.948   4.268  12.996 -0.6156 -0.4207  0.2947
  369TMC3    O1 5530   2.769   3.907  13.405 -0.0769 -0.0154 -0.1455
  369TMC3    O2 5531   3.043   4.282  12.922 -0.7258 -1.0902  0.0904
  370TMC3    C1 5532   3.590   4.578  16.237 -0.0273 -0.4453  0.1765
  370TMC3    C2 5533   3.508   4.546  16.348 -0.4596  0.1603 -0.6797
  370TMC3    C3 5534   3.478   4.419  16.375 -0.6097  0.6919  0.3229
  370TMC3    C4 5535   3.627   4.483  16.151 -0.1270  0.4249 -0.0754
  370TMC3    C5 5536   3.593   4.360  16.187  0.9483 -0.1345 -0.1573
  370TMC3    C6 5537   3.506   4.320  16.287  0.0961  0.1316  0.4714
  370TMC3     C 5538   3.685   4.687  16.246  0.7002  0.0721  0.0876
  370TMC3     O 5539   3.697   0.014  16.359 -0.0639 -0.7388  0.2871
  370TMC3     H 5540   3.495   4.626  16.421 -0.8506  1.6942 -2.4231
  370TMC3    H1 5541   3.706   4.494  16.078  0.8289  0.5717  0.9760
  370TMC3    H2 5542   3.484   4.215  16.303 -0.3063  0.3334  1.2465
  370TMC3    C7 5543   3.679   4.262  16.126 -0.5711  0.5507  0.4928
  370TMC3    C8 5544   3.420   4.378  16.504  0.3661 -0.1684  0.6071
  370TMC3    O1 5545   3.792   4.290  16.087  0.3421  0.3036  0.2692
  370TMC3    O2 5546   3.381   4.264  16.525 -0.1135  0.3328 -0.2242
  371TMC3    C1 5547   4.652   2.692  15.516  0.0115 -0.0502  0.4691
  371TMC3    C2 5548   4.664   2.718  15.649  0.4020  0.5748 -0.5840
  371TMC3    C3 5549   4.613   2.842  15.686 -0.4955 -0.3633  0.0548
  371TMC3    C4 5550   4.620   2.785  15.422 -0.9068  0.1213  0.1151
  371TMC3    C5 5551   4.617   2.912  15.470  0.4456 -0.2082 -0.2908
  371TMC3    C6 5552   4.619   2.949  15.601  0.5511 -0.1854  0.3503
  371TMC3     C 5553   4.699   2.562  15.474  0.6883  0.4758 -0.0314
  371TMC3     O 5554   0.043   2.563  15.376 -0.3713 -0.3216  0.4846
  371TMC3     H 5555   4.686   2.641  15.722  0.2206 -0.9619 -2.1712
  371TMC3    H1 5556   4.619   2.759  15.317  0.5195  2.6696 -0.5188
  371TMC3    H2 5557   4.619   3.053  15.631 -0.5611 -0.0096 -0.2495
  371TMC3    C7 5558   4.642   3.032  15.382 -0.2885  0.6753  0.6056
  371TMC3    C8 5559   4.616   2.868  15.824  0.3999 -0.2959 -0.1198
  371TMC3    O1 5560   4.711   3.125  15.420  0.5842 -0.0792 -0.3737
  371TMC3    O2 5561   4.697   2.802  15.883 -0.0668  0.5728  0.0795
  372MPD2     C 5562   3.330   3.818  13.496 -0.6472 -0.3182 -0.6598
  372MPD2    C1 5563   3.443   3.840  13.576 -0.4958  0.1819  0.4558
  372MPD2    C2 5564   3.461   3.752  13.683  0.6861  0.0399 -0.3230
  372MPD2    C3 5565   3.372   3.653  13.711  0.1863  0.7230 -0.3484
  372MPD2    C4 5566   3.263   3.634  13.627 -0.1187  0.1210 -0.8229
  372MPD2    C5 5567   3.241   3.719  13.524  0.1454 -0.0168  0.7874
  372MPD2     H 5568   3.553   3.768  13.739  0.7238  0.3639 -0.4766
  372MPD2    H1 5569   3.192   3.552  13.628 -0.7950  0.7193 -0.0691
  372MPD2    H2 5570   3.314   3.876  13.405 -1.0994  2.2715  1.0788
  372MPD2    H3 5571   3.164   3.710  13.448 -0.7403  1.1956  1.5405
  372MPD2     N 5572   3.401   3.578  13.830  0.2857  0.8024 -0.0366
  372MPD2    H5 5573   3.477   3.607  13.891  0.1965 -1.4054  1.1009
  372MPD2    N1 5574   3.548   3.927  13.536 -0.6626  0.7217  0.3878
  372MPD2    H7 5575   3.629   3.928  13.596 -0.1156 -1.9762 -0.3063
  373TMC3    C1 5576   3.375   3.417  13.993  1.1160  0.0343  0.0083
  373TMC3    C2 5577   3.380   3.503  14.101 -0.4865  1.0019 -0.3088
  373TMC3    C3 5578   3.455   3.463  14.210  1.1113  0.3410  1.2018
  373TMC3    C4 5579   3.435   3.290  13.992  0.0098 -0.7949  0.4446
  373TMC3    C5 5580   3.521   3.258  14.093 -0.6896 -0.4018 -0.5572
  373TMC3    C6 5581   3.524   3.342  14.206 -0.4490  1.0006 -0.3017
  373TMC3     C 5582   3.330   3.470  13.865 -0.4542  0.1496  0.1615
  373TMC3     O 5583   3.251   3.410  13.794  0.6911  0.4141  0.3562
  373TMC3     H 5584   3.353   3.607  14.085  1.5367  1.2489 -2.0611
  373TMC3    H1 5585   3.423   3.233  13.901  1.6950 -1.2985  0.5324
  373TMC3    H2 5586   3.609   3.334  14.274  0.0900  1.7101 -0.8903
  373TMC3    C7 5587   3.649   3.212  14.038  0.2659 -0.6632  0.7193
  373TMC3    C8 5588   3.493   3.563  14.310 -0.8605  0.0880 -0.2082
  373TMC3    O1 5589   3.651   3.132  13.943 -0.9416  0.0984 -0.1118
  373TMC3    O2 5590   3.487   3.678  14.275  0.6827 -0.0481 -0.3253
  374TMC3    C1 5591   4.167   3.868  10.200 -0.1003 -0.1404  0.0835
  374TMC3    C2 5592   4.232   3.987  10.234 -0.9437  0.7854  0.4202
  374TMC3    C3 5593   4.157   4.105  10.225  0.2481  0.0405 -0.6725
  374TMC3    C4 5594   4.042   3.863  10.166 -0.5790  0.7923 -0.3037
  374TMC3    C5 5595   3.975   3.984  10.160  0.2342 -0.1047 -0.4868
  374TMC3    C6 5596   4.033   4.097  10.181 -1.0389 -0.4406  0.5275
  374TMC3     C 5597   4.253   3.760  10.159 -0.5044 -0.3556  0.3034
  374TMC3     O 5598   4.361   3.793  10.120 -0.4406 -0.1101 -0.0960
  374TMC3     H 5599   4.338   3.987  10.255 -0.3124 -2.5383 -2.7191
  374TMC3    H1 5600   4.002   3.772  10.122 -0.6587  0.6558  0.0483
  374TMC3    H2 5601   3.976   4.186  10.160 -1.2515 -0.4315  1.1327
  374TMC3    C7 5602   3.843   3.980  10.107 -0.5609 -0.1348  0.5021
  374TMC3    C8 5603   4.215   4.231  10.229  0.0438 -0.8047  0.9666
  374TMC3    O1 5604   3.820   3.887  10.031 -0.5228 -0.0315  0.4679
  374TMC3    O2 5605   4.153   4.323  10.174 -0.1022 -0.0042  0.2447
  375MPD2     C 5606   0.167   0.750  16.962  0.0580  0.1886  0.2279
  375MPD2    C1 5607   0.082   0.654  16.908 -0.0360  0.5434  0.5821
  375MPD2    C2 5608   0.138   0.538  16.869  0.4716  0.3371  0.8455
  375MPD2    C3 5609   0.266   0.500  16.887 -0.5064  0.2741  0.8699
  375MPD2    C4 5610   0.353   0.600  16.935 -0.3242  0.5332 -0.0359
  375MPD2    C5 5611   0.303   0.720  16.973  0.5858 -0.1652 -0.2724
  375MPD2     H 5612   0.074   0.461  16.828 -0.8953  0.7027  2.2651
  375MPD2    H1 5613   0.458   0.574  16.942 -0.5003  0.4084  2.1802
  375MPD2    H2 5614   0.138   0.850  16.991 -0.1186  0.1991  0.0210
  375MPD2    H3 5615   0.376   0.788  17.017  0.9612 -0.3096 -0.6762
  375MPD2     N 5616   0.321   0.369  16.868 -0.0792  0.6962  0.4849
  375MPD2    H5 5617   0.420   0.351  16.875  0.0258  0.6547 -1.1645
  375MPD2    N1 5618   4.666   0.662  16.895  0.2899 -0.0998  0.1098
  375MPD2    H7 5619   4.611   0.591  16.848  1.6761 -1.5839  0.7369
  376TMC3    C1 5620   0.335   0.135  16.867 -0.2537 -0.4173 -0.4353
  376TMC3    C2 5621   0.458   0.127  16.814 -0.7449  0.2296  0.3789
  376TMC3    C3 5622   0.517   0.009  16.830 -0.1693 -0.6621 -0.0873
  376TMC3    C4 5623   0.265   0.026  16.912  0.0098  0.3772  0.0153
  376TMC3    C5 5624   0.329   4.628  16.917 -0.7212 -0.2199  0.1019
  376TMC3    C6 5625   0.462   4.621  16.877  0.1594  0.3178 -0.1693
  376TMC3     C 5626   0.254   0.256  16.835 -0.0863 -0.2763  0.2331
  376TMC3     O 5627   0.134   0.240  16.820 -0.1586  0.1336  0.2078
  376TMC3     H 5628   0.506   0.210  16.762 -0.4302 -0.2665 -0.1225
  376TMC3    H1 5629   0.163   0.044  16.943  0.2837 -0.8293  1.6087
  376TMC3    H2 5630   0.506   4.522  16.881 -0.6125 -0.0190  0.0393
  376TMC3    C7 5631   0.263   4.501  16.950 -0.1920  0.5123  0.0109
  376TMC3    C8 5632   0.651   4.713  16.779 -0.0467  0.6455  0.3514
  376TMC3    O1 5633   0.330   4.430  17.024 -0.1096 -0.0443 -0.2621
  376TMC3    O2 5634   0.687   0.081  16.708 -0.4328  0.0368  0.2705
  377MPD2     C 5635   2.531   4.011  12.242 -1.5817  0.4395 -0.3104
  377MPD2    C1 5636   2.609   3.920  12.306  0.5385  0.3284 -0.0843
  377MPD2    C2 5637   2.559   3.866  12.424  0.0688  0.6370 -0.1268
  377MPD2    C3 5638   2.428   3.892  12.466  0.1519 -0.1915  0.1476
  377MPD2    C4 5639   2.351   3.978  12.386 -0.5607  0.1127  0.0260
  377MPD2    C5 5640   2.406   4.039  12.278 -0.4310 -0.0445 -1.6429
  377MPD2     H 5641   2.614   3.797  12.486 -2.9839  0.6906  2.6406
  377MPD2    H1 5642   2.248   4.000  12.408 -0.2506 -1.5643  3.2033
  377MPD2    H2 5643   2.572   4.060  12.155 -1.6550  0.6465 -0.2277
  377MPD2    H3 5644   2.348   4.112  12.221  0.9678  0.9738 -1.7521
  377MPD2     N 5645   2.368   3.835  12.580 -0.7054  0.4423 -0.4401
  377MPD2    H5 5646   2.273   3.866  12.596 -0.6902  1.0543 -1.5132
  377MPD2    N1 5647   2.731   3.865  12.256  0.0570 -0.0381  0.3685
  377MPD2    H7 5648   2.786   3.812  12.323  1.2827  0.1990 -0.4461
  378TMC3    C1 5649   3.017   3.902  11.917  0.1375 -0.4406  0.3862
  378TMC3    C2 5650   2.912   3.841  11.970 -0.1091  0.0551  0.2280
  378TMC3    C3 5651   2.902   3.829  12.104 -0.4582  0.1861  0.8744
  378TMC3    C4 5652   3.122   3.932  11.992 -0.0115  1.1362 -0.3546
  378TMC3    C5 5653   3.108   3.929  12.128 -0.3055  0.6271  0.1132
  378TMC3    C6 5654   3.004   3.871  12.187  0.4711 -0.3948 -0.2979
  378TMC3     C 5655   2.992   3.997  11.815  0.1444 -0.3980 -0.4723
  378TMC3     O 5656   3.087   4.035  11.749 -0.3210  0.9087  0.0403
  378TMC3     H 5657   2.834   3.816  11.899  1.4970  1.0459 -1.8728
  378TMC3    H1 5658   3.207   3.980  11.945  0.6198 -0.6085 -1.0089
  378TMC3    H2 5659   2.998   3.882  12.294  1.7543 -0.8999 -0.1824
  378TMC3    C7 5660   3.202   4.007  12.201 -0.3413 -1.0391  0.2394
  378TMC3    C8 5661   2.773   3.877  12.132  0.9678  0.5667  0.8109
  378TMC3    O1 5662   3.160   4.062  12.299  0.1495 -0.3659 -0.1853
  378TMC3    O2 5663   2.706   3.926  12.040  0.7472  0.1811  0.4447
  379MPD2     C 5664   3.202   2.700  16.591 -0.7080  0.4489 -0.3412
  379MPD2    C1 5665   3.258   2.616  16.498 -0.0939  0.0817 -0.3000
  379MPD2    C2 5666   3.358   2.528  16.540  1.0223  0.1225  0.2469
  379MPD2    C3 5667   3.378   2.502  16.673 -0.4418 -0.5246 -0.3286
  379MPD2    C4 5668   3.297   2.573  16.764  0.3441  0.0228  0.0972
  379MPD2    C5 5669   3.210   2.671  16.722  0.0906  0.0844  0.3082
  379MPD2     H 5670   3.403   2.458  16.470 -0.9603 -1.0847  0.1821
  379MPD2    H1 5671   3.298   2.541  16.867 -0.7021  1.2929  0.4987
  379MPD2    H2 5672   3.139   2.785  16.565 -1.6138  0.1702  0.8864
  379MPD2    H3 5673   3.167   2.738  16.796  0.3915  0.2245  0.3560
  379MPD2     N 5674   3.455   2.398  16.721  0.5101  0.1918 -0.0381
  379MPD2    H5 5675   3.441   2.375  16.819  0.0198 -2.4306 -0.7012
  379MPD2    N1 5676   3.231   2.639  16.360  0.0476  0.2532  0.0940
  379MPD2    H7 5677   3.216   2.736  16.331  1.2735 -0.1606 -2.0036
  380TMC3    C1 5678   3.274   2.623  16.128 -0.4419 -0.1949 -0.7242
  380TMC3    C2 5679   3.364   2.557  16.044 -0.0555  0.2302 -0.6727
  380TMC3    C3 5680   3.332   2.526  15.919  1.0715  0.0591  0.5881
  380TMC3    C4 5681   3.152   2.649  16.082 -0.6462 -0.2207 -0.1745
  380TMC3    C5 5682   3.122   2.623  15.953  0.0868  0.0957 -0.4385
  380TMC3    C6 5683   3.210   2.563  15.866  0.2111  1.2363 -0.3458
  380TMC3     C 5684   3.286   2.564  16.257  0.2708 -0.1123 -0.1965
  380TMC3     O 5685   3.341   2.451  16.260 -0.4957  0.6910 -0.1511
  380TMC3     H 5686   3.465   2.548  16.083  0.3231 -0.0968 -1.7255
  380TMC3    H1 5687   3.080   2.681  16.157  0.0610  1.5224 -0.2423
  380TMC3    H2 5688   3.182   2.546  15.763 -1.3868 -1.9033  0.5924
  380TMC3    C7 5689   2.986   2.634  15.921 -0.2783  0.6243 -0.5687
  380TMC3    C8 5690   3.394   2.419  15.852  0.1235  0.2204 -0.3069
  380TMC3    O1 5691   2.918   2.724  15.964  0.1127  0.2946 -0.1726
  380TMC3    O2 5692   3.385   2.404  15.731 -0.7663  0.0099  1.0874
  381TMC3    C1 5693   3.503   3.606  16.347 -0.1969 -0.0121  0.2718
  381TMC3    C2 5694   3.591   3.708  16.329  0.3758 -0.3944  0.6114
  381TMC3    C3 5695   3.584   3.803  16.432  0.2454 -0.0317 -0.3114
  381TMC3    C4 5696   3.419   3.594  16.455 -1.0380  1.0577 -0.7301
  381TMC3    C5 5697   3.409   3.696  16.543 -0.3822 -0.1245  0.0999
  381TMC3    C6 5698   3.491   3.801  16.535  0.5434 -0.6164  0.2320
  381TMC3     C 5699   3.486   3.513  16.234 -0.0813 -0.7397 -0.7537
  381TMC3     O 5700   3.585   3.472  16.177  0.7924 -0.7278  0.5850
  381TMC3     H 5701   3.660   3.713  16.246 -2.0734  1.9937 -1.2546
  381TMC3    H1 5702   3.368   3.499  16.469 -1.1103  1.6494  2.8553
  381TMC3    H2 5703   3.494   3.884  16.605  3.1011  0.7310 -1.4765
  381TMC3    C7 5704   3.344   3.669  16.665  0.0093  0.0602  0.0693
  381TMC3    C8 5705   3.691   3.899  16.433 -0.2513 -0.2037  0.4992
  381TMC3    O1 5706   3.325   3.554  16.690 -0.1093 -0.3024 -0.0517
  381TMC3    O2 5707   3.796   3.869  16.379  0.2883 -0.1165  0.0047
  382MPD2     C 5708   2.614   1.674  17.571 -0.0561 -0.2867 -0.0169
  382MPD2    C1 5709   2.673   1.643  17.692  0.2426  0.0780 -0.1436
  382MPD2    C2 5710   2.633   1.536   0.075 -0.0396  0.0348  0.5156
  382MPD2    C3 5711   2.521   1.468   0.036  0.1536  0.1828 -0.4162
  382MPD2    C4 5712   2.460   1.502  17.611 -0.1022  0.0899 -0.0530
  382MPD2    C5 5713   2.510   1.596  17.531 -0.5043 -0.2001  0.2690
  382MPD2     H 5714   2.686   1.513   0.167  0.1961 -0.1422  0.3365
  382MPD2    H1 5715   2.367   1.458  17.577  0.1594  0.6029 -1.4284
  382MPD2    H2 5716   2.655   1.744  17.500 -0.0831  0.1153  0.3654
  382MPD2    H3 5717   2.468   1.614  17.433  1.0116 -1.5517 -0.6261
  382MPD2     N 5718   2.480   1.350   0.102 -0.0174 -0.7392 -0.3168
  382MPD2    H5 5719   2.394   1.318   0.059 -0.1840 -0.1092 -0.4512
  382MPD2    N1 5720   2.779   1.723   0.044  0.1114 -0.0053 -0.4750
  382MPD2    H7 5721   2.832   1.689   0.123  1.3802  1.7685 -0.5767
  383TMC3    C1 5722   2.472   1.164   0.237  0.2590  0.1308  0.0820
  383TMC3    C2 5723   2.400   1.094   0.141 -0.7162 -0.4223  0.2591
  383TMC3    C3 5724   2.346   0.977   0.174 -0.2231 -0.3887  0.3296
  383TMC3    C4 5725   2.512   1.093   0.347  0.6833 -0.4629  0.4800
  383TMC3    C5 5726   2.466   0.968   0.371 -0.4128 -0.1368 -0.6078
  383TMC3    C6 5727   2.375   0.906   0.288  0.1472  0.2274  0.4452
  383TMC3     C 5728   2.539   1.284   0.204  0.7391 -0.0160  0.1992
  383TMC3     O 5729   2.634   1.316   0.274 -0.4701 -0.3253  0.0284
  383TMC3     H 5730   2.364   1.152   0.057  1.8236  1.3950  0.4115
  383TMC3    H1 5731   2.587   1.141   0.409 -1.4768  3.3185  0.1557
  383TMC3    H2 5732   2.357   0.799   0.296 -0.1358  0.2091 -0.4654
  383TMC3    C7 5733   2.510   0.906   0.495 -0.1878  0.4249  0.2987
  383TMC3    C8 5734   2.237   0.931   0.090  0.5536  0.0443 -0.1926
  383TMC3    O1 5735   2.608   0.951   0.553 -0.0046 -0.3939  0.0252
  383TMC3    O2 5736   2.217   0.985  17.681 -0.0826 -0.2708  0.6334
  384MPD2     C 5737   4.324   2.146  12.007 -0.1521 -0.2733 -0.0449
  384MPD2    C1 5738   4.333   2.031  12.078  0.5030 -0.1037  0.2297
  384MPD2    C2 5739   4.311   1.909  12.022  0.0181 -0.0056  0.4781
  384MPD2    C3 5740   4.258   1.900  11.895 -0.0003 -0.0898 -0.0449
  384MPD2    C4 5741   4.246   2.022  11.826  0.2673 -0.0653 -0.0291
  384MPD2    C5 5742   4.283   2.137  11.878 -0.1236 -0.5441  0.0028
  384MPD2     H 5743   4.346   1.827  12.084 -0.3726 -0.8671 -0.4361
  384MPD2    H1 5744   4.207   2.023  11.725 -1.4391 -0.5746  0.6267
  384MPD2    H2 5745   4.357   2.243  12.042  0.1233 -0.1781 -0.5710
  384MPD2    H3 5746   4.276   2.227  11.818  0.7659 -1.3006 -1.2138
  384MPD2     N 5747   4.233   1.777  11.834  0.0849 -0.7096  0.6323
  384MPD2    H5 5748   4.190   1.779  11.741  0.9819 -2.4673  0.1886
  384MPD2    N1 5749   4.353   2.028  12.217  0.1005  0.0028  0.0949
  384MPD2    H7 5750   4.357   1.938  12.265 -0.0368 -1.2952 -2.3013
  385TMC3    C1 5751   4.201   1.537  11.827  0.3664  0.5201 -0.0969
  385TMC3    C2 5752   4.109   1.560  11.734 -0.4206 -0.1401  0.3581
  385TMC3    C3 5753   3.988   1.498  11.742 -0.2262 -0.5887  0.2202
  385TMC3    C4 5754   4.184   1.436  11.917 -0.5220  0.4470  0.6952
  385TMC3    C5 5755   4.070   1.362  11.922 -0.1126  0.0204  0.1933
  385TMC3    C6 5756   3.967   1.399  11.838 -0.2922  0.1301 -0.1632
  385TMC3     C 5757   4.266   1.651  11.888  0.9980 -0.2068 -0.2791
  385TMC3     O 5758   4.309   1.621  12.002  1.0503  0.0346  0.8172
  385TMC3     H 5759   4.117   1.622  11.646  0.3851  0.5668  0.9291
  385TMC3    H1 5760   4.265   1.407  11.983  0.0417  2.0539  0.7110
  385TMC3    H2 5761   3.867   1.364  11.864  0.4072 -0.8380  1.1887
  385TMC3    C7 5762   4.037   1.329  12.052  0.2211 -0.1031 -1.1948
  385TMC3    C8 5763   3.884   1.496  11.645 -0.3609  0.4753  0.0329
  385TMC3    O1 5764   3.977   1.224  12.077 -0.0194 -0.0271 -0.1155
  385TMC3    O2 5765   3.786   1.427  11.667 -0.4068  0.2669  0.6937
  386TMC3    C1 5766   4.233   4.566  12.219 -0.2852 -0.5362 -0.3941
  386TMC3    C2 5767   4.218   4.506  12.095  0.1948 -0.8252 -0.5825
  386TMC3    C3 5768   4.135   4.562  12.001 -0.1814 -0.1775 -0.7666
  386TMC3    C4 5769   4.155   4.674  12.252 -0.4727 -0.3233 -1.0599
  386TMC3    C5 5770   4.060   4.721  12.162 -0.3673 -0.4359  0.7180
  386TMC3    C6 5771   4.046   4.661  12.039  0.0223  0.1196  0.2254
  386TMC3     C 5772   4.318   4.521  12.328  1.0290 -0.5528 -0.0597
  386TMC3     O 5773   4.348   4.602  12.412  0.1920  0.5252 -0.5924
  386TMC3     H 5774   4.275   4.417  12.072 -1.5675 -2.5802  1.7625
  386TMC3    H1 5775   4.171   4.723  12.348 -2.3058 -2.2633  0.2175
  386TMC3    H2 5776   3.967   4.691  11.971 -0.5131  0.3307  0.9473
  386TMC3    C7 5777   3.931   0.044  12.216  0.2357  0.1347 -0.4392
  386TMC3    C8 5778   4.097   4.486  11.883 -0.9678  1.0634 -0.3509
  386TMC3    O1 5779   3.837   4.716  12.154 -0.5174 -0.1939  0.0123
  386TMC3    O2 5780   3.983   4.494  11.839  0.0745 -0.1628  0.4552
  387MPD2     C 5781   1.628   4.664  10.374 -0.4557 -0.1677  0.7185
  387MPD2    C1 5782   1.762   4.672  10.387  0.4562 -0.9677 -0.7415
  387MPD2    C2 5783   1.831   4.553  10.391 -0.3648  0.4534 -0.2149
  387MPD2    C3 5784   1.773   4.430  10.401  0.7586  0.4520  0.2816
  387MPD2    C4 5785   1.638   4.424  10.374 -0.3822 -0.5853  0.8039
  387MPD2    C5 5786   1.564   4.542  10.354  0.4985  0.2705 -0.3810
  387MPD2     H 5787   1.939   4.551  10.393 -0.3516  2.4678  1.6318
  387MPD2    H1 5788   1.588   4.328  10.365 -0.4744 -0.5183  0.5946
  387MPD2    H2 5789   1.571   0.032  10.364 -1.0289 -0.5486  0.5134
  387MPD2    H3 5790   1.457   4.533  10.340  0.6683  0.3019 -1.7424
  387MPD2     N 5791   1.854   4.317  10.407 -0.3537  0.0550 -0.1827
  387MPD2    H5 5792   1.951   4.339  10.426 -0.5616  1.2210 -0.4453
  387MPD2    N1 5793   1.839   0.063  10.373 -0.5686  0.3968  0.0624
  387MPD2    H7 5794   1.938   0.054  10.392 -0.5000  2.9795  0.9661
  388TMC3    C1 5795   1.926   0.248  10.267 -0.9044  0.6187  0.2484
  388TMC3    C2 5796   1.925   0.385  10.258  0.4267  0.2871 -0.3844
  388TMC3    C3 5797   2.045   0.440  10.216 -0.1498  0.1773  0.2364
  388TMC3    C4 5798   2.032   0.170  10.233  0.0892 -0.3429 -0.4254
  388TMC3    C5 5799   2.147   0.234  10.193  0.0728  0.0063  0.6509
  388TMC3    C6 5800   2.155   0.367  10.185  0.8820  0.1052  1.0116
  388TMC3     C 5801   1.807   0.187  10.319 -0.1113 -0.6082 -0.0179
  388TMC3     O 5802   1.701   0.217  10.268  0.4466 -0.3576 -0.0066
  388TMC3     H 5803   1.837   0.436  10.294 -0.5187  0.2376 -2.6663
  388TMC3    H1 5804   2.026   0.062  10.232 -2.1747 -0.2165 -0.6718
  388TMC3    H2 5805   2.244   0.412  10.144  0.6865 -1.3935 -1.0803
  388TMC3    C7 5806   2.275   0.159  10.188  0.7369  0.3518 -0.0819
  388TMC3    C8 5807   2.056   0.584  10.204  0.1423  0.6729  0.3148
  388TMC3    O1 5808   2.377   0.211  10.149  0.0048  0.9470  0.7375
  388TMC3    O2 5809   2.169   0.634  10.203 -0.0574 -0.2397 -0.3378
  389MPD2     C 5810   1.355   3.064  10.766  0.1079 -0.3771  0.0168
  389MPD2    C1 5811   1.315   2.939  10.732  0.7357 -0.0936  0.5157
  389MPD2    C2 5812   1.304   2.852  10.836  0.5088 -0.0398  0.9576
  389MPD2    C3 5813   1.315   2.887  10.975  0.3721 -0.4432 -0.0156
  389MPD2    C4 5814   1.348   3.016  11.003  0.1661  0.3323  0.8367
  389MPD2    C5 5815   1.368   3.098  10.897  0.2312  1.1917  0.3595
  389MPD2     H 5816   1.290   2.746  10.818  1.3546  0.4515 -2.4771
  389MPD2    H1 5817   1.349   3.044  11.107  2.8259 -3.7803  1.9219
  389MPD2    H2 5818   1.363   3.154  10.706 -0.3369 -1.3792 -1.5440
  389MPD2    H3 5819   1.393   3.202  10.917 -0.2217  1.2787  0.4807
  389MPD2     N 5820   1.293   2.794  11.082 -0.4457 -0.1887  0.1709
  389MPD2    H5 5821   1.300   2.849  11.167 -1.1894  0.9164 -0.4842
  389MPD2    N1 5822   1.266   2.918  10.597  0.6635  0.2618  0.1747
  389MPD2    H7 5823   1.277   2.992  10.528  0.0083 -2.3338 -2.7138
  390TMC3    C1 5824   1.236   2.614  11.210  0.2166 -0.2557  0.2782
  390TMC3    C2 5825   1.140   2.523  11.222  0.0556  1.4939 -0.3651
  390TMC3    C3 5826   1.088   2.499  11.347 -0.0676 -0.0941  0.0115
  390TMC3    C4 5827   1.293   2.671  11.319 -0.4110 -0.0697 -0.3590
  390TMC3    C5 5828   1.243   2.644  11.446 -0.7331  0.3480 -0.5923
  390TMC3    C6 5829   1.139   2.560  11.460  0.5640  0.2989  0.1068
  390TMC3     C 5830   1.255   2.664  11.076 -0.3167 -0.7168  0.3786
  390TMC3     O 5831   1.243   2.598  10.973 -0.1272  0.6322  0.4443
  390TMC3     H 5832   1.086   2.492  11.133 -0.7437  0.3370  0.5324
  390TMC3    H1 5833   1.379   2.736  11.308 -0.0915 -0.3833  0.2692
  390TMC3    H2 5834   1.118   2.532  11.563  0.1198  2.0924  0.4925
  390TMC3    C7 5835   1.268   2.748  11.546  0.4602  0.3278 -1.2372
  390TMC3    C8 5836   0.952   2.445  11.349  0.1088  0.3952 -0.1754
  390TMC3    O1 5837   1.373   2.807  11.537 -0.3777  0.6148 -0.0618
  390TMC3    O2 5838   0.894   2.410  11.248 -0.5676  0.2732  0.3317
  391MPD2     C 5839   0.069   4.091  11.551 -0.0502 -0.2310  0.0130
  391MPD2    C1 5840   0.122   4.223  11.542  0.2822  0.3622 -0.3159
  391MPD2    C2 5841   0.173   4.265  11.420 -0.1860  0.0931 -0.5041
  391MPD2    C3 5842   0.156   4.188  11.306 -0.6008 -0.2832  0.0856
  391MPD2    C4 5843   0.104   4.058  11.318 -0.7268 -0.4296  0.7067
  391MPD2    C5 5844   0.061   4.013  11.436  0.2455  0.1241  0.1538
  391MPD2     H 5845   0.229   4.357  11.405 -0.3198  0.2058 -0.3077
  391MPD2    H1 5846   0.106   3.983  11.240  0.1550  1.8984 -1.5490
  391MPD2    H2 5847   0.025   4.052  11.641 -0.9899  0.1972 -0.2643
  391MPD2    H3 5848   0.012   3.917  11.434 -0.2530  0.3981 -0.6427
  391MPD2     N 5849   0.201   4.238  11.177  1.2310  0.0975 -0.6511
  391MPD2    H5 5850   0.244   4.330  11.186  0.1226  0.7097 -1.5174
  391MPD2    N1 5851   0.132   4.292  11.662 -0.3651 -0.6985 -0.6727
  391MPD2    H7 5852   0.096   4.247  11.746  0.4787 -0.0151  0.0563
  392TMC3    C1 5853   0.182   4.270  10.938  0.9078 -0.5775 -0.5737
  392TMC3    C2 5854   0.105   4.246  10.831 -0.0059 -0.9486  0.1657
  392TMC3    C3 5855   0.080   4.353  10.751  0.5017 -0.4015 -0.7266
  392TMC3    C4 5856   0.249   4.390  10.949  0.4495 -0.4566 -0.4483
  392TMC3    C5 5857   0.256   4.468  10.843 -1.1414  0.1264  0.4947
  392TMC3    C6 5858   0.175   4.457  10.731 -0.2235  0.2560  0.3754
  392TMC3     C 5859   0.168   4.180  11.057  0.2737 -0.4049  0.1734
  392TMC3     O 5860   0.118   4.067  11.035 -0.1479  0.1078 -0.0514
  392TMC3     H 5861   0.061   4.150  10.807 -0.2395 -0.8389  0.1490
  392TMC3    H1 5862   0.308   4.406  11.038  1.0130  2.1678 -1.3139
  392TMC3    H2 5863   0.185   4.534  10.656  0.1626 -0.8530 -0.7001
  392TMC3    C7 5864   0.382   4.548  10.839 -0.2517 -0.5455  0.6901
  392TMC3    C8 5865   4.716   4.332  10.640  0.6699 -0.2428  0.2234
  392TMC3    O1 5866   0.444   4.571  10.943  0.8942 -0.7919 -0.2028
  392TMC3    O2 5867   4.687   4.218  10.607 -0.8086  0.1951  0.9200
  393TMC3    C1 5868   3.714   2.077  10.398 -0.1377  1.4455 -0.0623
  393TMC3    C2 5869   3.631   2.018  10.498 -0.1133 -0.2856  0.5839
  393TMC3    C3 5870   3.696   1.945  10.594 -0.7641  0.8202  0.0906
  393TMC3    C4 5871   3.854   2.075  10.399 -0.7337 -0.4814 -0.3510
  393TMC3    C5 5872   3.905   1.993  10.504  0.4908  0.0866 -0.1453
  393TMC3    C6 5873   3.825   1.927  10.592  0.6611  0.5489 -0.2763
  393TMC3     C 5874   3.653   2.108  10.272  0.8287  0.6115  0.6611
  393TMC3     O 5875   3.724   2.117  10.173 -0.3032  0.2727  0.1076
  393TMC3     H 5876   3.528   2.047  10.518 -0.0167  0.4928 -0.0565
  393TMC3    H1 5877   3.916   2.125  10.326  2.4707 -0.4672  2.4302
  393TMC3    H2 5878   3.879   1.868  10.665 -0.6120 -1.7192 -1.1328
  393TMC3    C7 5879   4.022   2.044  10.569  0.1802  0.3834  0.6554
  393TMC3    C8 5880   3.659   1.968  10.727 -0.1845 -0.0889  0.3417
  393TMC3    O1 5881   4.017   2.048  10.694  0.6202 -0.4309 -0.2918
  393TMC3    O2 5882   3.539   1.984  10.743 -0.2737 -0.0574  0.2670
  394TMC3    C1 5883   1.179   2.812  10.407  0.8828  0.6242  0.5214
  394TMC3    C2 5884   1.165   2.696  10.339  0.7786 -0.5100 -0.4088
  394TMC3    C3 5885   1.160   2.699  10.205 -0.1615 -0.0417  0.1257
  394TMC3    C4 5886   1.187   2.936  10.338 -0.4997 -0.6188 -0.4244
  394TMC3    C5 5887   1.180   2.934  10.205 -0.1446 -0.0768  0.4074
  394TMC3    C6 5888   1.173   2.817  10.132 -0.0295  0.3688  0.2472
  394TMC3     C 5889   1.203   2.804  10.551  0.2912 -0.1524 -0.3541
  394TMC3     O 5890   1.150   2.710  10.617 -0.0447  0.0004 -0.5769
  394TMC3     H 5891   1.177   2.603  10.394 -1.0685 -0.8502 -0.5706
  394TMC3    H1 5892   1.198   3.031  10.390 -0.2570  0.1600 -1.9208
  394TMC3    H2 5893   1.155   2.823  10.026  0.5018  0.5653  0.1658
  394TMC3    C7 5894   1.241   3.041  10.134  0.6773  0.1091 -0.1971
  394TMC3    C8 5895   1.181   2.582  10.128  0.1547 -0.4104  0.2584
  394TMC3    O1 5896   1.327   3.096  10.199 -0.7513  0.3652 -0.1842
  394TMC3    O2 5897   1.173   2.596  10.005 -0.4579 -0.0694 -0.1590
  395TMC3    C1 5898   1.145   4.516  14.811 -0.0135 -0.6731 -0.0098
  395TMC3    C2 5899   1.037   4.568  14.882  0.4034  0.4135  0.3876
  395TMC3    C3 5900   1.054   4.683  14.950  0.5277  0.4687  0.3168
  395TMC3    C4 5901   1.260   4.591  14.804 -0.1929  0.8202  0.6199
  395TMC3    C5 5902   1.282   4.705  14.874 -0.6356  0.3909  0.0907
  395TMC3    C6 5903   1.179   0.031  14.949  0.1294  0.3471 -0.6609
  395TMC3     C 5904   1.176   4.382  14.871  0.6262 -0.5079 -0.4808
  395TMC3     O 5905   1.273   4.378  14.944 -0.3779 -0.0428  0.0849
  395TMC3     H 5906   0.937   4.527  14.873  0.8073 -0.0297 -2.2824
  395TMC3    H1 5907   1.340   4.563  14.737 -1.2117  0.5900 -0.5109
  395TMC3    H2 5908   1.194   0.127  14.998 -0.7140 -0.1650  0.5945
  395TMC3    C7 5909   1.394   0.069  14.861 -0.0569  0.3265  0.4986
  395TMC3    C8 5910   0.988   4.681  15.081  0.0696 -0.1882 -0.4868
  395TMC3    O1 5911   1.467   0.094  14.959 -0.9019  0.2352  0.0831
  395TMC3    O2 5912   1.005   0.065  15.137  0.4356  0.3812  0.1921
  396MPD2     C 5913   0.763   0.927   0.113 -0.0865 -0.7527  0.2699
  396MPD2    C1 5914   0.875   0.947   0.032 -0.0561 -0.2512  0.4331
  396MPD2    C2 5915   0.893   1.061  17.647 -0.5798 -0.2111  0.6053
  396MPD2    C3 5916   0.791   1.146  17.632  0.1751  0.7623  0.0818
  396MPD2    C4 5917   0.675   1.129   0.014 -0.3366 -0.9215 -0.3002
  396MPD2    C5 5918   0.667   1.025   0.105  0.0127  0.4132 -0.1422
  396MPD2     H 5919   0.986   1.073  17.592 -1.0273 -0.5428 -0.2356
  396MPD2    H1 5920   0.598   1.204   0.001  1.1426  0.5865 -0.4529
  396MPD2    H2 5921   0.747   0.840   0.175  1.3861 -1.9468 -1.0476
  396MPD2    H3 5922   0.581   1.016   0.170  0.7661  0.7590  0.9226
  396MPD2     N 5923   0.801   1.246  17.538 -0.2025 -0.4533  0.7460
  396MPD2    H5 5924   0.718   1.301  17.520 -0.6382 -1.0940  0.7808
  396MPD2    N1 5925   0.986   0.854   0.024 -0.0798 -0.5210 -0.7959
  396MPD2    H7 5926   1.068   0.891  17.673  1.0550 -0.9457  0.8378
  397TMC3    C1 5927   1.091   0.651  17.673  0.4396  0.9638 -0.0040
  397TMC3    C2 5928   1.141   0.730  17.569 -0.4897  0.1449  0.1863
  397TMC3    C3 5929   1.107   0.707  17.441  0.4276 -0.4329 -0.2349
  397TMC3    C4 5930   1.032   0.532  17.642 -0.6585 -0.3283 -0.4429
  397TMC3    C5 5931   0.993   0.515  17.510 -0.2701 -0.1872  0.1600
  397TMC3    C6 5932   1.024   0.594  17.408 -0.1183 -0.1453  0.9755
  397TMC3     C 5933   0.979   0.719   0.038  0.1869  0.0794 -0.3033
  397TMC3     O 5934   0.873   0.656   0.059  0.1728  0.0096  1.0573
  397TMC3     H 5935   1.211   0.807  17.599 -0.6856  1.4808 -2.7150
  397TMC3    H1 5936   1.008   0.469   0.031  0.5369 -0.2209 -0.0220
  397TMC3    H2 5937   0.979   0.595  17.310  1.9186 -4.5843  0.0431
  397TMC3    C7 5938   0.873   0.436  17.493 -0.4565  0.3850 -0.4115
  397TMC3    C8 5939   1.117   0.807  17.339  0.4462 -0.3334 -0.1209
  397TMC3    O1 5940   0.828   0.412  17.380  0.2169  0.1517  0.5711
  397TMC3    O2 5941   1.040   0.800  17.246 -0.7423 -0.1971  0.1847
  398MPD2     C 5942   3.455   1.905   0.526  0.8369  0.0286 -0.6573
  398MPD2    C1 5943   3.592   1.903   0.536 -0.4628 -0.7983  0.8045
  398MPD2    C2 5944   3.658   2.004   0.477  0.0253 -0.3769  0.1526
  398MPD2    C3 5945   3.596   2.091   0.391  0.4487  0.1951 -0.5117
  398MPD2    C4 5946   3.462   2.088   0.372 -0.2972  0.3518  0.6730
  398MPD2    C5 5947   3.393   1.993   0.441  0.5634 -0.0999 -0.1800
  398MPD2     H 5948   3.765   2.013   0.494  0.0953  0.3976 -0.6213
  398MPD2    H1 5949   3.413   2.147   0.295 -1.0023  0.4589  1.2028
  398MPD2    H2 5950   3.388   1.832   0.570  1.8950 -0.3917  0.2577
  398MPD2    H3 5951   3.288   1.981   0.418  0.7711 -2.8176  0.2652
  398MPD2     N 5952   3.682   2.183   0.318 -0.4058 -0.3029  0.2590
  398MPD2    H5 5953   3.780   2.158   0.312 -0.3927 -0.4407  1.0981
  398MPD2    N1 5954   3.669   1.806   0.610  0.0375  0.2374 -0.2975
  398MPD2    H7 5955   3.764   1.832   0.631 -0.2312  2.3189 -1.6805
  399TMC3    C1 5956   3.700   1.601   0.734 -0.7339 -0.3427  0.3139
  399TMC3    C2 5957   3.834   1.634   0.756  0.4518 -0.1570  1.0677
  399TMC3    C3 5958   3.899   1.557   0.850  0.7347  0.0689  0.0246
  399TMC3    C4 5959   3.642   1.494   0.798  0.6691 -0.1716  0.2963
  399TMC3    C5 5960   3.718   1.416   0.887  0.4505  0.1545  0.4289
  399TMC3    C6 5961   3.850   1.438   0.897 -0.4462 -0.4833 -0.3692
  399TMC3     C 5962   3.614   1.688   0.655 -0.4772  0.5607  0.4979
  399TMC3     O 5963   3.506   1.634   0.625  0.0939 -0.1870  0.3186
  399TMC3     H 5964   3.874   1.728   0.719 -0.5759 -0.1902 -0.1238
  399TMC3    H1 5965   3.541   1.473   0.765  0.9325 -0.1613 -0.5140
  399TMC3    H2 5966   3.909   1.366   0.952  0.6911  1.0075  0.3787
  399TMC3    C7 5967   3.669   1.277   0.911 -0.2779  0.7639 -0.4928
  399TMC3    C8 5968   4.032   1.590   0.889  0.5719  0.5216 -0.1053
  399TMC3    O1 5969   3.744   1.196   0.970  0.0235  0.0437  0.3179
  399TMC3    O2 5970   4.089   1.668   0.819 -0.4527 -0.0601  0.8021
  400TMC3    C1 5971   2.262   0.645  17.486 -0.1428  0.3752  0.3021
  400TMC3    C2 5972   2.193   0.555  17.402 -0.3975 -0.1806  0.3312
  400TMC3    C3 5973   2.143   0.596  17.281  0.3091 -0.2040  0.0231
  400TMC3    C4 5974   2.277   0.776  17.456  0.7245 -0.3832  0.0485
  400TMC3    C5 5975   2.220   0.812  17.335 -0.3374 -0.5906  0.1363
  400TMC3    C6 5976   2.156   0.726  17.254 -0.1770  0.0860  0.2800
  400TMC3     C 5977   2.280   0.599  17.619  0.3612  0.6063 -0.4413
  400TMC3     O 5978   2.231   0.489  17.653  0.5852 -0.2125  0.3182
  400TMC3     H 5979   2.179   0.453  17.434  0.6148 -0.3009  0.3798
  400TMC3    H1 5980   2.316   0.848  17.527  0.4213  0.1635 -0.3424
  400TMC3    H2 5981   2.113   0.756  17.159  0.0535  1.5465  0.6343
  400TMC3    C7 5982   2.225   0.955  17.290  0.3794 -0.6171 -0.3123
  400TMC3    C8 5983   2.020   0.530  17.247 -0.4855 -0.1263  0.7520
  400TMC3    O1 5984   2.211   0.978  17.169  0.0489 -0.3172  0.3532
  400TMC3    O2 5985   1.969   0.470  17.342 -0.0918 -0.2404  0.4443
  401MPD2     C 5986   0.480   4.289   0.847  0.1028  0.0947 -0.3466
  401MPD2    C1 5987   0.495   4.216   0.966 -0.4246  0.1846 -0.4414
  401MPD2    C2 5988   0.419   4.107   0.984 -0.1473  0.2861  0.6337
  401MPD2    C3 5989   0.335   4.058   0.887  0.0463 -0.0973 -0.2365
  401MPD2    C4 5990   0.309   4.142   0.777  0.1536 -0.2177 -0.1349
  401MPD2    C5 5991   0.383   4.259   0.759 -0.0975 -0.4170  0.3270
  401MPD2     H 5992   0.445   4.033   1.059 -0.0553 -1.2098 -0.8705
  401MPD2    H1 5993   0.237   4.107   0.704  1.9038  0.3997 -2.1618
  401MPD2    H2 5994   0.536   4.379   0.829  0.3053 -0.1815 -1.1009
  401MPD2    H3 5995   0.372   4.320   0.670 -2.4150 -1.6210 -0.2286
  401MPD2     N 5996   0.285   3.926   0.894  0.0303 -0.3812  0.6767
  401MPD2    H5 5997   0.330   3.868   0.964 -0.8635 -1.8451  0.0446
  401MPD2    N1 5998   0.612   4.239   1.048  0.3500 -0.0735 -0.1994
  401MPD2    H7 5999   0.676   4.310   1.014  0.7765 -0.7412 -0.8197
  402TMC3    C1 6000   0.178   3.738   0.832 -1.0787  0.6078 -0.6997
  402TMC3    C2 6001   0.210   3.687   0.952  0.0298 -0.2134 -0.0982
  402TMC3    C3 6002   0.277   3.566   0.964 -0.1989  0.3902  0.3367
  402TMC3    C4 6003   0.227   3.667   0.722  0.6066 -0.4176 -0.0648
  402TMC3    C5 6004   0.301   3.557   0.742  0.2224 -0.1306 -0.6318
  402TMC3    C6 6005   0.328   3.499   0.858  0.0731 -0.0322  0.1526
  402TMC3     C 6006   0.180   3.878   0.818  0.1880 -0.6043 -0.8687
  402TMC3     O 6007   0.101   3.929   0.739  0.2945  0.3932 -0.0314
  402TMC3     H 6008   0.177   3.744   1.039  3.2281  0.7064  0.5182
  402TMC3    H1 6009   0.211   3.710   0.624 -2.0267 -0.5135  0.3212
  402TMC3    H2 6010   0.389   3.411   0.870  0.5565  0.3086  0.1675
  402TMC3    C7 6011   0.349   3.495   0.619  0.3796 -0.5472 -0.2115
  402TMC3    C8 6012   0.314   3.520   1.093 -0.1649 -0.6117  0.7088
  402TMC3    O1 6013   0.351   3.571   0.522  0.1038 -0.3265 -0.3825
  402TMC3    O2 6014   0.420   3.459   1.111 -0.2703 -0.4455  0.3637
  403MPD2     C 6015   3.532   2.383  13.907 -0.0076  0.0031 -0.0226
  403MPD2    C1 6016   3.572   2.256  13.920  0.4421  0.1090 -0.4752
  403MPD2    C2 6017   3.688   2.231  13.998  0.7482  0.2952  0.1522
  403MPD2    C3 6018   3.752   2.338  14.062  0.0621  0.2320  0.4285
  403MPD2    C4 6019   3.708   2.465  14.046  0.1722 -1.0741  0.7185
  403MPD2    C5 6020   3.593   2.487  13.972  0.0484 -0.6714  0.3644
  403MPD2     H 6021   3.730   2.132  14.009 -0.3076 -0.2517 -0.7812
  403MPD2    H1 6022   3.753   2.554  14.089 -0.7327 -0.0213 -0.5355
  403MPD2    H2 6023   3.449   2.400  13.838  1.9881  2.7116 -1.7463
  403MPD2    H3 6024   3.572   2.591  13.950  0.6958 -1.1676 -2.5164
  403MPD2     N 6025   3.858   2.309  14.141 -0.0742  0.4553  0.4556
  403MPD2    H5 6026   3.875   2.209  14.154  2.2080  0.4964 -2.1479
  403MPD2    N1 6027   3.514   2.162  13.838  0.3793  0.1608  0.5457
  403MPD2    H7 6028   3.437   2.192  13.778  0.7054 -0.9196 -0.4189
  404TMC3    C1 6029   3.481   1.963  13.708  0.7366  0.0004  0.2608
  404TMC3    C2 6030   3.461   1.826  13.725  0.4142 -0.2455  0.0525
  404TMC3    C3 6031   3.489   1.750  13.618  0.3467 -0.3275 -0.3525
  404TMC3    C4 6032   3.523   2.016  13.594 -0.4045 -0.5112 -0.0436
  404TMC3    C5 6033   3.556   1.936  13.487  0.4600 -0.0143 -0.3233
  404TMC3    C6 6034   3.528   1.804  13.494 -0.2804  0.1938 -1.0736
  404TMC3     C 6035   3.544   2.028  13.822 -0.5083  0.3500 -0.3247
  404TMC3     O 6036   3.597   1.954  13.906  0.2886 -0.6797  0.2963
  404TMC3     H 6037   3.439   1.801  13.828 -0.3277  0.7680  0.1400
  404TMC3    H1 6038   3.562   2.117  13.586  3.0084 -2.1917 -3.9293
  404TMC3    H2 6039   3.562   1.737  13.416  0.7122 -1.2698  0.6260
  404TMC3    C7 6040   3.592   2.003  13.362  0.7239 -0.8896  0.3903
  404TMC3    C8 6041   3.486   1.602  13.641 -0.2584 -0.4350 -0.3789
  404TMC3    O1 6042   3.642   2.112  13.363  0.3217 -0.8812  0.0244
  404TMC3    O2 6043   3.534   1.543  13.546 -0.5699 -0.1370  0.2820
  405MPD2     C 6044   3.941   2.497  15.001  0.8080  0.7441  0.0494
  405MPD2    C1 6045   3.959   2.405  14.899 -0.1810 -0.6723 -0.2186
  405MPD2    C2 6046   3.894   2.418  14.779  0.7100  0.2479  0.1682
  405MPD2    C3 6047   3.816   2.528  14.756 -0.3507 -0.3519 -0.1520
  405MPD2    C4 6048   3.811   2.632  14.851 -0.9476 -0.2159 -0.2343
  405MPD2    C5 6049   3.876   2.611  14.974 -0.0710 -0.3017 -0.1868
  405MPD2     H 6050   3.903   2.350  14.694 -0.3430  2.4189 -1.7005
  405MPD2    H1 6051   3.755   2.722  14.831  0.1499  0.6423  0.5208
  405MPD2    H2 6052   4.004   2.483  15.088  0.0911  0.8769  0.5932
  405MPD2    H3 6053   3.860   2.680  15.057  2.3122  1.4548 -1.1906
  405MPD2     N 6054   3.743   2.542  14.635 -0.1580 -0.3112  0.5337
  405MPD2    H5 6055   3.761   2.471  14.565  0.5836 -0.3734  0.7962
  405MPD2    N1 6056   4.051   2.297  14.925 -0.3759 -0.7089  0.7399
  405MPD2    H7 6057   4.104   2.306  15.011  0.1758  2.1992  0.1055
  406TMC3    C1 6058   3.368   2.451  14.477 -1.4077 -0.8776  0.3768
  406TMC3    C2 6059   3.446   2.353  14.420  0.2167  0.2146 -0.7445
  406TMC3    C3 6060   3.580   2.371  14.397  0.9508  0.5930 -0.7022
  406TMC3    C4 6061   3.433   2.565  14.529 -0.1396 -0.4223  0.1132
  406TMC3    C5 6062   3.570   2.580  14.499  0.2152  0.3420 -0.3064
  406TMC3    C6 6063   3.640   2.492  14.423  0.1051  0.1708  0.2756
  406TMC3     C 6064   3.220   2.436  14.476 -0.4563  0.0219  0.2775
  406TMC3     O 6065   3.174   2.348  14.403  0.5006  0.1240  0.1127
  406TMC3     H 6066   3.397   2.266  14.379 -0.1130 -0.2105  0.5455
  406TMC3    H1 6067   3.370   2.644  14.568 -0.3103 -0.3861 -0.2310
  406TMC3    H2 6068   3.748   2.496  14.408  0.3878 -1.7378  1.6984
  406TMC3    C7 6069   3.652   2.637  14.598 -0.2770  0.4427 -0.0493
  406TMC3    C8 6070   3.665   2.260  14.431 -0.1339 -0.4309  0.1208
  406TMC3    O1 6071   3.606   2.735  14.657 -0.2660  0.2956 -0.2759
  406TMC3    O2 6072   3.758   2.301  14.493  0.1771 -0.4829  0.0885
  407MPD2     C 6073   1.219   4.546   9.991 -0.7728  0.5738 -0.1521
  407MPD2    C1 6074   1.326   4.590  10.061  0.6450 -0.0047 -0.1560
  407MPD2    C2 6075   1.318   4.690  10.151  0.0658  0.4389 -0.3836
  407MPD2    C3 6076   1.197   0.022  10.182 -0.1464 -0.4948  0.8236
  407MPD2    C4 6077   1.083   4.701  10.115 -0.1547  0.3977  0.2745
  407MPD2    C5 6078   1.095   4.603  10.018 -0.8671  0.5124 -0.0561
  407MPD2     H 6079   1.409   0.000  10.200  0.2788  0.5138 -0.8276
  407MPD2    H1 6080   0.988   0.029  10.118 -0.0051  0.6529  0.6538
  407MPD2    H2 6081   1.228   4.466   9.918 -3.0818  0.6961 -0.5601
  407MPD2    H3 6082   1.006   4.573   9.964 -0.2278  1.5205 -1.6740
  407MPD2     N 6083   1.191   0.126  10.277 -0.1348 -0.1695 -0.4545
  407MPD2    H5 6084   1.282   0.152  10.315 -1.2835 -0.4264  2.5247
  407MPD2    N1 6085   1.458   4.533  10.045  0.7111 -0.0138 -0.8126
  407MPD2    H7 6086   1.530   4.587  10.093  0.0208 -0.8674  1.2109
  408TMC3    C1 6087   1.636   4.426   9.939  0.9629 -0.1634 -0.0364
  408TMC3    C2 6088   1.695   4.307   9.912  0.8655  0.4835  0.0846
  408TMC3    C3 6089   1.826   4.309   9.888  0.1337 -0.6386 -0.0795
  408TMC3    C4 6090   1.698   4.542   9.931  0.1945 -0.2245 -0.2519
  408TMC3    C5 6091   1.836   4.541   9.894  0.1669 -0.3053  0.6650
  408TMC3    C6 6092   1.901   4.425   9.879  0.6610  0.4848 -0.2454
  408TMC3     C 6093   1.492   4.421   9.972 -0.0077  0.4711 -0.5599
  408TMC3     O 6094   1.422   4.332   9.932 -0.8199 -0.1207 -0.5584
  408TMC3     H 6095   1.637   4.217   9.930 -0.9867  1.5486 -0.6533
  408TMC3    H1 6096   1.647   4.636   9.947  1.5904  0.4240  0.3917
  408TMC3    H2 6097   2.008   4.427   9.866  0.7534  2.4883  0.7682
  408TMC3    C7 6098   1.904   4.673   9.887  0.2757  0.6523  0.2562
  408TMC3    C8 6099   1.876   4.183   9.834 -0.0587  0.9477  0.3371
  408TMC3    O1 6100   1.835   0.041   9.924  0.7599 -0.4257  0.1985
  408TMC3    O2 6101   1.794   4.098   9.802 -0.1183 -0.2662  0.5668
  409MPD2     C 6102   1.161   0.351  16.942  0.2093 -0.0298  0.5072
  409MPD2    C1 6103   1.169   0.382  17.076 -0.0883  0.1844  0.0358
  409MPD2    C2 6104   1.252   0.487  17.117  0.0294 -0.2025  0.2763
  409MPD2    C3 6105   1.333   0.553  17.023 -0.0885  0.4722 -0.7231
  409MPD2    C4 6106   1.304   0.528  16.887  0.4171 -0.1414 -0.8823
  409MPD2    C5 6107   1.227   0.424  16.849  0.3403 -0.0803  0.3907
  409MPD2     H 6108   1.258   0.513  17.222  0.2677 -0.6625  0.3807
  409MPD2    H1 6109   1.362   0.581  16.813  1.7924  0.6357  0.7666
  409MPD2    H2 6110   1.090   0.281  16.899 -1.3545  0.6364  2.0472
  409MPD2    H3 6111   1.217   0.395  16.745 -2.5350 -1.6586  1.0941
  409MPD2     N 6112   1.434   0.648  17.047  0.4755 -0.7065  0.6244
  409MPD2    H5 6113   1.484   0.679  16.964 -0.2392 -1.1801  0.0148
  409MPD2    N1 6114   1.107   0.306  17.178 -0.1523 -0.1554  0.3086
  409MPD2    H7 6115   1.138   0.338  17.269  0.5621  1.2532 -0.4339
  410TMC3    C1 6116   1.600   0.774  17.161  0.5020 -0.6913  0.0198
  410TMC3    C2 6117   1.663   0.786  17.280  0.3008  0.3482 -0.6721
  410TMC3    C3 6118   1.791   0.832  17.273 -0.0514 -0.2546 -0.2166
  410TMC3    C4 6119   1.663   0.783  17.040 -0.3345  0.1759 -0.2152
  410TMC3    C5 6120   1.791   0.838  17.043 -0.6950 -0.4971 -0.0452
  410TMC3    C6 6121   1.851   0.873  17.157  0.3748 -0.3978 -0.5155
  410TMC3     C 6122   1.496   0.670  17.169 -0.0546  0.4184 -0.0841
  410TMC3     O 6123   1.474   0.620  17.278 -0.3233  0.0126  0.1002
  410TMC3     H 6124   1.617   0.780  17.378  1.6477  0.1887 -0.0549
  410TMC3    H1 6125   1.619   0.787  16.941  1.8231 -0.5314 -1.2032
  410TMC3    H2 6126   1.954   0.908  17.152  0.4569 -0.4562  0.8478
  410TMC3    C7 6127   1.862   0.844  16.919 -0.0205  0.4877  0.4603
  410TMC3    C8 6128   1.866   0.847  17.390 -0.3708 -0.5102 -0.2816
  410TMC3    O1 6129   1.854   0.743  16.848 -0.2629 -0.2106  0.0518
  410TMC3    O2 6130   1.957   0.929  17.391 -0.2740  0.0135 -0.1587
  411MPD2     C 6131   1.860   0.554  14.399 -0.6844  0.1723  0.3101
  411MPD2    C1 6132   1.733   0.565  14.348 -0.6513 -0.0356 -0.0468
  411MPD2    C2 6133   1.661   0.446  14.322  0.4329  0.3942 -0.3269
  411MPD2    C3 6134   1.719   0.317  14.340 -0.1545  0.3351  0.2237
  411MPD2    C4 6135   1.847   0.304  14.398  0.1524  0.2373 -0.0603
  411MPD2    C5 6136   1.914   0.426  14.419 -0.3019  0.2621 -0.8400
  411MPD2     H 6137   1.557   0.441  14.290  0.3524  0.6744 -0.1126
  411MPD2    H1 6138   1.906   0.214  14.410  0.8389  0.6928 -0.0390
  411MPD2    H2 6139   1.923   0.637  14.426  1.2910 -0.7449 -1.4878
  411MPD2    H3 6140   2.014   0.419  14.460 -0.0938 -0.6604 -1.5073
  411MPD2     N 6141   1.648   0.201  14.291 -0.3537 -0.2692 -0.0390
  411MPD2    H5 6142   1.578   0.219  14.220  0.3926 -0.9040 -0.9330
  411MPD2    N1 6143   1.680   0.692  14.334 -0.3998  0.0976 -0.4509
  411MPD2    H7 6144   1.721   0.769  14.387 -0.6917  0.8204 -1.2731
  412TMC3    C1 6145   1.561   4.710  14.303 -0.1862  0.2540 -0.6808
  412TMC3    C2 6146   1.490   4.646  14.396  0.0970 -0.1604  0.0965
  412TMC3    C3 6147   1.379   4.571  14.360  0.1530  0.8443 -0.6266
  412TMC3    C4 6148   1.546   4.689  14.169  0.7633 -0.6111 -0.3855
  412TMC3    C5 6149   1.446   4.597  14.135  0.2642 -0.2615  0.1230
  412TMC3    C6 6150   1.367   4.532  14.230  0.5890  0.2354  0.1782
  412TMC3     C 6151   1.659   0.077  14.354 -0.1456  0.1974 -0.4892
  412TMC3     O 6152   1.740   0.031  14.429 -0.5937  0.0731 -0.2040
  412TMC3     H 6153   1.478   4.692  14.493 -0.5695 -0.2216  0.0431
  412TMC3    H1 6154   1.601   0.011  14.087  0.8274  0.2752  0.1602
  412TMC3    H2 6155   1.291   4.455  14.221  2.0177 -1.0164 -1.0042
  412TMC3    C7 6156   1.372   4.618  14.011 -0.1468 -0.4241  0.1287
  412TMC3    C8 6157   1.256   4.632  14.414 -0.4256  0.2417  0.0834
  412TMC3    O1 6158   1.250   4.604  14.023  0.3248 -0.1184 -0.2348
  412TMC3    O2 6159   1.266   4.681  14.525  0.3531  0.0101 -1.2389
  413MPD2     C 6160   3.597   3.736  15.635 -0.5526 -0.0571 -0.3162
  413MPD2    C1 6161   3.498   3.731  15.538  0.0462 -1.0264 -0.0504
  413MPD2    C2 6162   3.467   3.610  15.471 -0.1066 -0.4218 -0.4025
  413MPD2    C3 6163   3.550   3.495  15.500  0.6218  0.4809  0.0730
  413MPD2    C4 6164   3.657   3.506  15.592  0.2091  0.3562 -0.1633
  413MPD2    C5 6165   3.676   3.628  15.658 -0.5540 -0.7932 -0.5517
  413MPD2     H 6166   3.379   3.597  15.409  0.3190 -4.4017 -0.1287
  413MPD2    H1 6167   3.727   3.426  15.610 -0.2976 -0.1204 -0.2837
  413MPD2    H2 6168   3.613   3.825  15.694 -0.2078  0.1346 -0.6946
  413MPD2    H3 6169   3.759   3.622  15.726 -0.9304 -2.5691 -0.2378
  413MPD2     N 6170   3.533   3.381  15.424  0.3103 -0.4469 -0.4469
  413MPD2    H5 6171   3.464   3.389  15.350 -0.4629  0.5421  0.3904
  413MPD2    N1 6172   3.407   3.840  15.520 -0.0933  0.0663  0.2214
  413MPD2    H7 6173   3.432   3.928  15.564  1.2021 -0.6530  0.9091
  414TMC3    C1 6174   3.593   3.175  15.335 -0.3153  0.0120  0.3512
  414TMC3    C2 6175   3.619   3.045  15.356  0.0548  0.5144 -0.9316
  414TMC3    C3 6176   3.611   2.965  15.250 -0.5946 -0.0954 -0.7517
  414TMC3    C4 6177   3.568   3.226  15.210  0.2750  0.3449 -0.0422
  414TMC3    C5 6178   3.577   3.138  15.104  0.1998 -0.1172 -0.2113
  414TMC3    C6 6179   3.579   3.006  15.128  0.5207 -0.0639  0.1001
  414TMC3     C 6180   3.610   3.265  15.443 -0.1923 -0.0150 -0.5318
  414TMC3     O 6181   3.657   3.222  15.545 -0.4208  0.6263 -0.3603
  414TMC3     H 6182   3.637   3.015  15.458 -1.2944 -1.7027 -1.3471
  414TMC3    H1 6183   3.573   3.331  15.184  1.0527  0.8602  2.1568
  414TMC3    H2 6184   3.599   2.936  15.049 -2.1499 -0.0160 -0.6026
  414TMC3    C7 6185   3.707   3.170  15.037  0.0819  0.4546  0.0446
  414TMC3    C8 6186   3.690   2.844  15.258  0.1972  0.1532  0.2786
  414TMC3    O1 6187   3.762   3.271  15.077 -0.2433 -0.6156  0.4360
  414TMC3    O2 6188   3.675   2.758  15.171 -0.2834  0.0875  0.2138
  415TMC3    C1 6189   4.172   1.831   9.176  0.3260 -0.1703  0.2402
  415TMC3    C2 6190   4.305   1.843   9.146 -0.1495 -0.3545 -0.2213
  415TMC3    C3 6191   4.371   1.740   9.090 -0.0173 -0.3193  0.8808
  415TMC3    C4 6192   4.109   1.707   9.172  0.5442  0.4511 -0.5650
  415TMC3    C5 6193   4.182   1.603   9.122 -0.6563 -0.5483  0.8227
  415TMC3    C6 6194   4.311   1.617   9.077 -0.0292 -0.1869 -0.2738
  415TMC3     C 6195   4.119   1.937   9.257 -0.5167 -0.6186 -0.1527
  415TMC3     O 6196   4.158   2.048   9.236 -0.5928  0.1454 -0.0660
  415TMC3     H 6197   4.350   1.941   9.141 -0.4512 -0.2199 -0.3490
  415TMC3    H1 6198   4.004   1.710   9.195  0.9430  3.1526  0.9074
  415TMC3    H2 6199   4.356   1.525   9.043 -1.3643 -1.4584  1.4082
  415TMC3    C7 6200   4.130   1.467   9.122  0.2502  0.3981 -0.0792
  415TMC3    C8 6201   4.514   1.739   9.094  0.4552  0.2058  0.4198
  415TMC3    O1 6202   4.204   1.388   9.058 -0.6925  0.6928 -0.1067
  415TMC3    O2 6203   4.575   1.646   9.038 -0.2306 -0.2769  0.0307
  416MPD2     C 6204   0.655   0.931  12.298  1.1468  0.1972  0.0566
  416MPD2    C1 6205   0.598   0.955  12.172  0.8376  0.0519  0.2068
  416MPD2    C2 6206   0.622   0.862  12.072 -0.2952 -0.2575  0.4414
  416MPD2    C3 6207   0.685   0.739  12.098 -0.3416 -0.0791  0.0159
  416MPD2    C4 6208   0.729   0.721  12.229 -0.3239  0.2812 -0.2720
  416MPD2    C5 6209   0.727   0.817  12.327 -1.1134 -0.3563 -0.4744
  416MPD2     H 6210   0.603   0.893  11.970  0.9175  3.0528  1.2233
  416MPD2    H1 6211   0.792   0.633  12.231  0.2333  0.6017 -2.8746
  416MPD2    H2 6212   0.648   1.007  12.375  0.1305 -0.4726  0.6100
  416MPD2    H3 6213   0.767   0.805  12.428  0.4842  1.7355 -0.8618
  416MPD2     N 6214   0.705   0.636  12.008  0.8322  0.2573 -0.5207
  416MPD2    H5 6215   0.745   0.552  12.049 -0.0324  0.1515  0.0984
  416MPD2    N1 6216   0.509   1.066  12.152 -0.1003 -0.2732 -0.1042
  416MPD2    H7 6217   0.506   1.122  12.237  2.6117 -0.3388  0.0347
  417TMC3    C1 6218   0.348   1.203  12.056  0.5243  0.0361 -0.4273
  417TMC3    C2 6219   0.306   1.238  12.181 -0.0042  0.0801  0.0907
  417TMC3    C3 6220   0.208   1.333  12.180  0.0990  0.8482 -0.1879
  417TMC3    C4 6221   0.299   1.270  11.945  0.7234 -0.9181  0.6364
  417TMC3    C5 6222   0.205   1.365  11.952 -0.5059 -0.4135 -0.3594
  417TMC3    C6 6223   0.145   1.395  12.068  0.1300  0.7884 -0.3054
  417TMC3     C 6224   0.439   1.097  12.035  0.2934  0.1615 -1.0020
  417TMC3     O 6225   0.437   1.038  11.927  0.0875  0.4264 -0.2384
  417TMC3     H 6226   0.354   1.200  12.270  2.3967 -0.2785 -1.3613
  417TMC3    H1 6227   0.346   1.249  11.849  2.8506  0.3520  1.4235
  417TMC3    H2 6228   0.082   1.479  12.091 -0.0849 -0.7264  4.7177
  417TMC3    C7 6229   0.140   1.399  11.826 -0.4630 -0.1169  0.2837
  417TMC3    C8 6230   0.132   1.340  12.303 -1.0030  0.8040 -0.4976
  417TMC3    O1 6231   0.153   1.322  11.732  0.5149 -0.6672  0.1489
  417TMC3    O2 6232   0.064   1.435  12.330 -0.0327  0.7151 -0.3454
  418TMC3    C1 6233   3.957   2.381   0.084  0.0206  0.3350 -0.1216
  418TMC3    C2 6234   3.845   2.306   0.121  0.1802 -0.0907 -0.0888
  418TMC3    C3 6235   3.750   2.369   0.202  0.2436  0.1439  0.3050
  418TMC3    C4 6236   3.980   2.502   0.132  0.2785  0.1460  0.3069
  418TMC3    C5 6237   3.889   2.551   0.221  0.7203  0.4568 -0.3208
  418TMC3    C6 6238   3.771   2.494   0.248  0.0210 -0.3887  0.1881
  418TMC3     C 6239   4.051   2.329  17.687 -0.1591  0.2940  0.4157
  418TMC3     O 6240   4.126   2.411  17.625  0.4827 -0.5297  0.4536
  418TMC3     H 6241   3.846   2.200   0.098  0.6333 -0.0456 -0.2810
  418TMC3    H1 6242   4.067   2.563   0.109  0.0805  0.3059 -0.0105
  418TMC3    H2 6243   3.714   2.536   0.330  0.4992 -0.7760  0.7278
  418TMC3    C7 6244   3.953   2.587   0.352 -1.0000 -0.9616 -0.2601
  418TMC3    C8 6245   3.637   2.299   0.264 -0.4169  0.0205 -0.3795
  418TMC3    O1 6246   3.927   2.515   0.442  0.0704  0.6837 -0.2859
  418TMC3    O2 6247   3.531   2.359   0.275  0.2438 -0.3405 -0.2825
  419MPD2     C 6248   2.786   0.363  11.869  0.4489  1.1586 -0.0856
  419MPD2    C1 6249   2.781   0.489  11.931 -0.1094 -0.1629  0.1611
  419MPD2    C2 6250   2.713   0.505  12.050  0.2443  0.1051 -0.1113
  419MPD2    C3 6251   2.654   0.400  12.117  0.1889 -0.1389  0.4024
  419MPD2    C4 6252   2.651   0.278  12.053  0.3852 -0.0571  0.2600
  419MPD2    C5 6253   2.715   0.262  11.928 -0.7475  0.6879  0.6809
  419MPD2     H 6254   2.710   0.598  12.106  0.2125  0.4316 -0.6540
  419MPD2    H1 6255   2.602   0.191  12.095  0.1324 -0.5497 -1.0581
  419MPD2    H2 6256   2.831   0.341  11.773 -2.4820 -1.2821 -0.9011
  419MPD2    H3 6257   2.717   0.165  11.881 -1.7664  1.1998 -0.4159
  419MPD2     N 6258   2.585   0.417  12.236 -0.2479  0.0955 -0.2348
  419MPD2    H5 6259   2.580   0.515  12.263 -1.0141 -0.1837  0.6633
  419MPD2    N1 6260   2.856   0.599  11.884 -0.4540  0.7219 -0.3336
  419MPD2    H7 6261   2.854   0.688  11.932 -1.4432  1.0208 -0.9212
  420TMC3    C1 6262   2.525   0.393  12.452  0.0432  0.7775 -0.4642
  420TMC3    C2 6263   2.423   0.482  12.442 -0.0497  0.3708 -0.1896
  420TMC3    C3 6264   2.348   0.508  12.553  0.8346  0.3268  0.4159
  420TMC3    C4 6265   2.546   0.331  12.573  0.6587 -0.1630  0.5800
  420TMC3    C5 6266   2.479   0.368  12.691  0.0879  0.0339  0.4821
  420TMC3    C6 6267   2.375   0.454  12.679 -0.1541  0.1668  0.2272
  420TMC3     C 6268   2.576   0.331  12.334 -0.1786 -0.8895  0.9522
  420TMC3     O 6269   2.618   0.216  12.330  0.3858 -0.0037  0.0282
  420TMC3     H 6270   2.382   0.519  12.349  1.5462  2.6062  0.0015
  420TMC3    H1 6271   2.633   0.268  12.586 -0.8319 -2.9058 -2.8496
  420TMC3    H2 6272   2.330   0.492  12.771 -2.5297  2.4837 -1.9020
  420TMC3    C7 6273   2.549   0.353  12.814 -0.3487 -0.1476 -0.6306
  420TMC3    C8 6274   2.266   0.625  12.542  0.1329  0.4302  0.2399
  420TMC3    O1 6275   2.485   0.344  12.920  0.1510  0.2143  0.3090
  420TMC3    O2 6276   2.299   0.715  12.467  0.0001  0.2795 -0.5462
  421TMC3    C1 6277   4.048   2.333  14.288  0.1066 -0.8763 -0.1141
  421TMC3    C2 6278   4.112   2.407  14.384 -0.0538  0.4479 -0.4364
  421TMC3    C3 6279   4.239   2.360  14.423 -0.1949  0.0710  0.8032
  421TMC3    C4 6280   4.102   2.218  14.238  0.4217  0.3728  0.8029
  421TMC3    C5 6281   4.224   2.173  14.280 -0.2347  0.2662 -0.1598
  421TMC3    C6 6282   4.299   2.251  14.368  0.2994 -0.0287  0.2390
  421TMC3     C 6283   3.934   2.397  14.216  0.6937 -0.8317  0.6387
  421TMC3     O 6284   3.907   2.515  14.248  0.0906 -0.2718 -0.1475
  421TMC3     H 6285   4.072   2.496  14.432  1.5630  1.2204 -0.5252
  421TMC3    H1 6286   4.066   2.186  14.141  0.3958  0.0858  0.9093
  421TMC3    H2 6287   4.405   2.231  14.381  0.6521 -0.4240 -3.1229
  421TMC3    C7 6288   4.258   2.031  14.274 -0.1098  0.2728  0.0919
  421TMC3    C8 6289   4.318   2.450  14.495 -0.0830  0.7640 -0.0869
  421TMC3    O1 6290   4.373   2.004  14.297  0.3247  0.1537 -0.2695
  421TMC3    O2 6291   4.256   2.522  14.572 -0.0821 -0.1718  0.0440
  422TMC3    C1 6292   1.606   3.572  13.198  0.0007  0.7186  0.4653
  422TMC3    C2 6293   1.538   3.688  13.161  0.0387 -0.0001 -0.1316
  422TMC3    C3 6294   1.420   3.709  13.228 -0.1710  0.2198 -0.6773
  422TMC3    C4 6295   1.563   3.488  13.301 -0.0575  0.2959 -0.0394
  422TMC3    C5 6296   1.437   3.513  13.360 -0.4465  0.4270 -0.2738
  422TMC3    C6 6297   1.365   3.619  13.322  0.4578  0.1578  0.2914
  422TMC3     C 6298   1.699   3.530  13.101  0.8222 -0.2948  0.1672
  422TMC3     O 6299   1.699   3.593  12.993 -0.1241 -0.5456 -0.3067
  422TMC3     H 6300   1.576   3.763  13.092 -0.4712  0.8065  0.4573
  422TMC3    H1 6301   1.610   3.396  13.330 -0.2740  0.3696  0.5446
  422TMC3    H2 6302   1.275   3.645  13.377  0.7873 -1.5196  1.5980
  422TMC3    C7 6303   1.389   3.403  13.441  0.5281 -0.2777  0.4053
  422TMC3    C8 6304   1.374   3.845  13.222 -0.0576 -0.5932  0.4533
  422TMC3    O1 6305   1.467   3.319  13.484  0.1532 -0.3489 -0.5565
  422TMC3    O2 6306   1.463   3.931  13.213 -0.1391 -0.7002 -0.5892
  423MPD2     C 6307   3.103   0.019   0.732  0.2688 -0.5697  1.1041
  423MPD2    C1 6308   3.075   4.614   0.790  0.2656 -0.2996  0.2742
  423MPD2    C2 6309   3.101   4.507   0.710  0.4025 -0.8657 -0.3200
  423MPD2    C3 6310   3.151   4.521   0.582 -0.5411  0.0843 -0.3355
  423MPD2    C4 6311   3.194   4.646   0.535 -0.0095 -0.1618 -0.6810
  423MPD2    C5 6312   3.158   0.031   0.608 -0.4556  0.6582 -0.1012
  423MPD2     H 6313   3.072   4.408   0.745  0.1190 -0.9791 -0.8813
  423MPD2    H1 6314   3.240   4.662   0.438  2.7466 -0.5195  0.5675
  423MPD2    H2 6315   3.081   0.111   0.785  0.9571  0.2929 -0.1068
  423MPD2    H3 6316   3.177   0.131   0.570 -1.1328  1.3303  1.3086
  423MPD2     N 6317   3.181   4.415   0.488  0.1121 -0.3808  0.6982
  423MPD2    H5 6318   3.213   4.444   0.396  0.7399  0.6523  1.2399
  423MPD2    N1 6319   3.000   4.596   0.916 -0.5219  0.0230  0.0312
  423MPD2    H7 6320   2.986   4.499   0.943  0.2017 -0.4148 -1.1099
  424TMC3    C1 6321   2.859   4.661   1.091 -0.3253 -0.8033 -0.2415
  424TMC3    C2 6322   2.829   4.527   1.101 -0.5184 -0.2870 -0.0620
  424TMC3    C3 6323   2.712   4.497   1.177 -0.3040  0.9406 -0.1522
  424TMC3    C4 6324   2.786   0.035   1.154 -0.3595 -0.1839  0.1501
  424TMC3    C5 6325   2.679   0.000   1.229  0.1264  0.2430 -0.7344
  424TMC3    C6 6326   2.639   4.594   1.236  0.5713  0.2478 -0.1977
  424TMC3     C 6327   2.950   4.702   0.988  0.2939 -0.0256  0.1147
  424TMC3     O 6328   2.947   0.096   0.963 -0.2362  0.3939  0.1270
  424TMC3     H 6329   2.902   4.451   1.077  1.4446  1.7118 -0.3906
  424TMC3    H1 6330   2.808   0.138   1.132 -2.5905 -0.0665 -1.5118
  424TMC3    H2 6331   2.558   4.565   1.302  0.5931 -2.7086 -1.4424
  424TMC3    C7 6332   2.599   0.112   1.270  0.7100  0.2542 -0.5823
  424TMC3    C8 6333   2.701   4.360   1.224 -0.5122  0.1753 -0.7226
  424TMC3    O1 6334   2.634   0.222   1.235 -0.0424 -0.0426 -0.4853
  424TMC3    O2 6335   2.808   4.294   1.220 -0.2332 -0.2850  0.3428
  425MPD2     C 6336   1.846   3.787  17.299 -0.5152 -0.3950  0.3259
  425MPD2    C1 6337   1.763   3.678  17.285  0.3748 -0.0451 -0.1118
  425MPD2    C2 6338   1.627   3.696  17.286  0.3923 -0.4517 -0.4453
  425MPD2    C3 6339   1.567   3.822  17.301  1.1491  0.2514 -0.2768
  425MPD2    C4 6340   1.653   3.930  17.315 -0.1337 -0.2645  0.7020
  425MPD2    C5 6341   1.794   3.911  17.311 -0.1234 -0.2229  0.3638
  425MPD2     H 6342   1.560   3.610  17.279  0.9183 -1.1526  3.3426
  425MPD2    H1 6343   1.615   4.031  17.318  0.1616 -0.0986 -0.9366
  425MPD2    H2 6344   1.953   3.772  17.308 -0.2514 -0.1068 -2.1884
  425MPD2    H3 6345   1.850   4.003  17.325 -0.3195  0.0981 -0.9778
  425MPD2     N 6346   1.421   3.840  17.322  0.1437 -0.1104 -0.3326
  425MPD2    H5 6347   1.365   3.755  17.319  0.2937 -0.2558  0.8311
  425MPD2    N1 6348   1.827   3.551  17.281  0.6781  0.0737  0.0075
  425MPD2    H7 6349   1.925   3.553  17.307  0.3676  2.4704  0.9821
  426TMC3    C1 6350   1.887   3.330  17.258 -0.6311 -0.0815  0.5904
  426TMC3    C2 6351   1.887   3.226  17.170  0.0745  0.1731  0.4725
  426TMC3    C3 6352   2.000   3.160  17.143 -0.6280 -0.6436 -0.1919
  426TMC3    C4 6353   2.006   3.366  17.318 -0.9364  0.1042  0.1218
  426TMC3    C5 6354   2.119   3.290  17.301  0.3207 -0.5957  0.1500
  426TMC3    C6 6355   2.121   3.193  17.201 -0.8385  0.0457  0.3856
  426TMC3     C 6356   1.778   3.430  17.249  0.3018  0.6969  0.0653
  426TMC3     O 6357   1.669   3.396  17.201  0.1317 -0.4860  0.4031
  426TMC3     H 6358   1.796   3.215  17.111  0.3292 -2.8620  0.6343
  426TMC3    H1 6359   2.028   3.451  17.381 -0.0010 -0.7785  0.9712
  426TMC3    H2 6360   2.211   3.143  17.168 -2.4108 -0.9881 -2.2771
  426TMC3    C7 6361   2.243   3.316  17.370  0.9790  0.5996  0.1159
  426TMC3    C8 6362   2.003   3.030  17.081  0.3672  0.0781 -0.0854
  426TMC3    O1 6363   2.341   3.284  17.305 -0.4048 -0.2814 -0.0908
  426TMC3    O2 6364   2.114   2.975  17.086 -0.2144  0.7516 -0.3136
  427MPD2     C 6365   0.635   0.411  14.814  0.4274  0.5901 -0.0590
  427MPD2    C1 6366   0.621   0.419  14.955  0.5364  0.3677  0.9733
  427MPD2    C2 6367   0.488   0.443  15.004  0.3474  0.0248 -0.3375
  427MPD2    C3 6368   0.388   0.473  14.918 -0.2509  0.5228 -0.6747
  427MPD2    C4 6369   0.405   0.457  14.780 -0.3956  0.0632  0.0017
  427MPD2    C5 6370   0.529   0.425  14.725  0.1485  0.7550 -0.2531
  427MPD2     H 6371   0.477   0.445  15.112  1.2289  0.2849 -0.2472
  427MPD2    H1 6372   0.331   0.467  14.702  0.3156  2.0236 -0.4248
  427MPD2    H2 6373   0.730   0.391  14.764  0.6507  2.3731 -0.3681
  427MPD2    H3 6374   0.556   0.429  14.620  1.6706  0.5144  0.1247
  427MPD2     N 6375   0.259   0.514  14.957  0.1666  0.2464  0.3461
  427MPD2    H5 6376   0.192   0.537  14.883 -2.2055 -2.6125  1.5788
  427MPD2    N1 6377   0.724   0.411  15.049  0.6107 -0.3488 -0.3980
  427MPD2    H7 6378   0.701   0.430  15.146  2.7600 -0.1732  0.0818
  428TMC3    C1 6379   0.938   0.389  15.136  0.8699  0.2001  0.5543
  428TMC3    C2 6380   0.892   0.328  15.247  0.1112  0.2155  0.1321
  428TMC3    C3 6381   0.986   0.307  15.343 -0.3788  0.8660  0.4611
  428TMC3    C4 6382   1.061   0.434  15.109  0.4731 -0.1423  0.1749
  428TMC3    C5 6383   1.157   0.399  15.199  0.6301  0.6038  0.3273
  428TMC3    C6 6384   1.122   0.333  15.315 -0.2362  0.4978  0.4420
  428TMC3     C 6385   0.851   0.390  15.020  0.2400  0.4601  0.2222
  428TMC3     O 6386   0.907   0.363  14.911 -0.0114  0.0847 -0.4790
  428TMC3     H 6387   0.792   0.289  15.263  0.9916 -0.7141  3.3865
  428TMC3    H1 6388   1.079   0.477  15.012 -1.9011 -0.9876 -0.6202
  428TMC3    H2 6389   1.181   0.331  15.405 -0.9309  1.0726  0.9125
  428TMC3    C7 6390   1.283   0.470  15.202  0.5331 -1.0107  0.3348
  428TMC3    C8 6391   0.948   0.248  15.473 -0.3738 -0.2847  0.1634
  428TMC3    O1 6392   1.328   0.488  15.315 -0.4193  0.1678  0.1267
  428TMC3    O2 6393   0.836   0.279  15.521 -0.0704 -0.0916 -0.7802
  429MPD2     C 6394   1.283   1.121   0.130  0.5137 -0.0965  0.2183
  429MPD2    C1 6395   1.420   1.102   0.147 -0.2377  0.0235 -0.1169
  429MPD2    C2 6396   1.507   1.198   0.095 -0.7165  0.6665 -0.3467
  429MPD2    C3 6397   1.457   1.317   0.051  0.8474 -1.5551 -1.0079
  429MPD2    C4 6398   1.324   1.343   0.047 -0.7205  0.0481  0.6152
  429MPD2    C5 6399   1.241   1.241   0.074 -0.2613  0.7243  1.1509
  429MPD2     H 6400   1.612   1.175   0.089 -1.3943 -2.6305  0.9283
  429MPD2    H1 6401   1.271   1.431   0.011 -1.3168 -0.1926  0.9072
  429MPD2    H2 6402   1.212   1.043   0.154  0.0515 -0.0170 -0.8545
  429MPD2    H3 6403   1.134   1.251   0.060 -0.1173  1.2035  0.4300
  429MPD2     N 6404   1.551   1.420   0.011  0.6822 -0.1406 -0.0462
  429MPD2    H5 6405   1.649   1.405   0.033  0.7364  0.6214  0.2571
  429MPD2    N1 6406   1.465   0.973   0.208 -0.0258 -0.6114  0.2687
  429MPD2    H7 6407   1.390   0.912   0.241 -0.5556  0.3623  0.8461
  430TMC3    C1 6408   1.650   1.604  17.603 -0.6144 -0.0089  0.0589
  430TMC3    C2 6409   1.642   1.696  17.498 -0.1972 -0.3822  0.0204
  430TMC3    C3 6410   1.753   1.729  17.429  0.4673  0.0325  0.2356
  430TMC3    C4 6411   1.770   1.543  17.629  0.1799 -0.2331  0.0187
  430TMC3    C5 6412   1.883   1.584  17.566  0.8017 -0.1017  0.3571
  430TMC3    C6 6413   1.872   1.681  17.460  0.0212 -0.1291  0.1944
  430TMC3     C 6414   1.528   1.528  17.629  0.1550  0.2287 -0.3794
  430TMC3     O 6415   1.421   1.570  17.585  0.0639 -0.0839 -0.0724
  430TMC3     H 6416   1.546   1.741  17.474 -0.5261 -0.5481  1.0288
  430TMC3    H1 6417   1.781   1.467   0.011 -3.2902 -0.5678  0.1490
  430TMC3    H2 6418   1.956   1.722  17.404  0.6771 -1.3755  0.2603
  430TMC3    C7 6419   1.984   1.478  17.562  0.0593  0.0396 -0.1405
  430TMC3    C8 6420   1.744   1.794  17.296 -0.6786 -0.7415 -0.1233
  430TMC3    O1 6421   1.949   1.368  17.603 -0.0760 -0.3287  0.1037
  430TMC3    O2 6422   1.848   1.816  17.236 -0.0269 -0.4811 -0.4609
  431MPD2     C 6423   3.129   0.996  12.569 -0.6578 -0.1338 -0.6227
  431MPD2    C1 6424   3.200   1.068  12.476 -0.3348 -0.6261  0.9585
  431MPD2    C2 6425   3.214   1.012  12.353 -0.8362  1.0001 -0.4613
  431MPD2    C3 6426   3.153   0.893  12.317 -0.3097 -0.3904  0.0457
  431MPD2    C4 6427   3.091   0.820  12.416  0.4028 -0.7478  1.1094
  431MPD2    C5 6428   3.080   0.870  12.536 -0.4087 -0.2095  0.6194
  431MPD2     H 6429   3.264   1.069  12.276 -0.2783  0.9041 -0.1667
  431MPD2    H1 6430   3.049   0.726  12.382 -0.2956  0.0223 -0.1766
  431MPD2    H2 6431   3.111   1.032  12.670 -1.5730 -0.5232 -0.6491
  431MPD2    H3 6432   3.030   0.814  12.614 -0.1303 -0.0046  0.9467
  431MPD2     N 6433   3.154   0.839  12.185 -0.0662 -0.8956 -0.7421
  431MPD2    H5 6434   3.110   0.747  12.177  0.5192 -1.4259  2.0001
  431MPD2    N1 6435   3.274   1.189  12.501 -0.0017 -0.0005  0.1437
  431MPD2    H7 6436   3.326   1.230  12.424  0.5490 -0.8670  0.0563
  432TMC3    C1 6437   3.188   0.813  11.955 -1.0558 -0.2879  0.6529
  432TMC3    C2 6438   3.260   0.855  11.850 -0.1396 -0.7453  0.8511
  432TMC3    C3 6439   3.228   0.803  11.723 -0.6221  0.1690 -0.3831
  432TMC3    C4 6440   3.071   0.746  11.939 -0.2188 -0.0231 -0.0303
  432TMC3    C5 6441   3.039   0.707  11.809 -0.1022  0.1933 -0.4806
  432TMC3    C6 6442   3.117   0.726  11.704 -0.1840  0.0211  0.1158
  432TMC3     C 6443   3.209   0.894  12.074  0.5102 -0.4956  0.0139
  432TMC3     O 6444   3.282   0.991  12.069 -0.1717  0.2782 -0.1415
  432TMC3     H 6445   3.348   0.918  11.865  0.5376 -1.6928  0.8833
  432TMC3    H1 6446   3.015   0.714  12.026 -1.1886  3.6130  0.6723
  432TMC3    H2 6447   3.090   0.703  11.602  2.0203  0.4505 -0.5470
  432TMC3    C7 6448   2.956   0.588  11.798 -0.2343  0.3822  1.0824
  432TMC3    C8 6449   3.235   0.906  11.621  0.3893 -0.7140  0.2349
  432TMC3    O1 6450   2.983   0.514  11.703 -0.4238 -0.3160 -0.3042
  432TMC3    O2 6451   3.128   0.926  11.565 -0.1468  0.2390 -0.1842
  433MPD2     C 6452   1.264   0.232  11.397  0.5946  0.5055  0.3157
  433MPD2    C1 6453   1.209   0.104  11.390 -0.1016  0.1439 -0.2381
  433MPD2    C2 6454   1.179   0.047  11.506  0.0448  0.2792 -0.3323
  433MPD2    C3 6455   1.197   0.106  11.630  0.1324  0.1476 -0.4784
  433MPD2    C4 6456   1.259   0.231  11.633 -0.5361  0.2520  0.5604
  433MPD2    C5 6457   1.293   0.288  11.515 -0.2991 -0.1075  0.0855
  433MPD2     H 6458   1.138   4.671  11.495 -1.1465  0.9013 -1.5585
  433MPD2    H1 6459   1.275   0.286  11.725  1.3004 -0.0383  0.4244
  433MPD2    H2 6460   1.297   0.288  11.311  0.3278 -0.9876 -0.7540
  433MPD2    H3 6461   1.337   0.387  11.519  1.6622 -0.8745 -2.1361
  433MPD2     N 6462   1.175   0.032  11.746 -0.4649  0.3571 -0.2011
  433MPD2    H5 6463   1.132   4.664  11.741 -0.3500  0.3898 -1.7769
  433MPD2    N1 6464   1.199   0.044  11.257  0.0745 -0.2945  0.2086
  433MPD2    H7 6465   1.250   0.079  11.177 -0.1267 -2.0646 -0.6939
  434TMC3    C1 6466   1.158   4.601  11.088 -0.3794 -0.1776 -0.4206
  434TMC3    C2 6467   1.221   4.474  11.097 -0.0255  0.1285 -0.1811
  434TMC3    C3 6468   1.308   4.436  10.997 -0.0768 -0.3118 -0.7598
  434TMC3    C4 6469   1.193   4.693  10.987  0.3195  0.1388  0.1971
  434TMC3    C5 6470   1.275   4.645  10.886  0.4077  0.0213  0.4735
  434TMC3    C6 6471   1.334   4.522  10.895 -0.5240  0.4402 -0.0950
  434TMC3     C 6472   1.131   4.649  11.222 -0.0805 -0.4110  0.2550
  434TMC3     O 6473   1.083   4.567  11.300  0.2274  0.3226 -0.0327
  434TMC3     H 6474   1.194   4.405  11.177 -0.8180  1.2059  0.4946
  434TMC3    H1 6475   1.140   0.064  10.985  0.8702  0.4619  0.6952
  434TMC3    H2 6476   1.408   4.492  10.822 -1.5716 -2.5785  0.0884
  434TMC3    C7 6477   1.212   4.679  10.763  0.0274  0.3899 -0.0220
  434TMC3    C8 6478   1.400   4.338  11.047  0.2922  0.4339  0.3271
  434TMC3    O1 6479   1.167   0.070  10.752  0.3680  0.4983  0.0018
  434TMC3    O2 6480   1.376   4.275  11.145  0.1468 -0.3511  0.2709
  435MPD2     C 6481   3.667   4.470  15.561  0.6490  0.0375 -0.0119
  435MPD2    C1 6482   3.627   4.426  15.684 -0.7768 -0.0984 -0.5849
  435MPD2    C2 6483   3.718   4.373  15.767 -0.6732  0.4518 -0.0421
  435MPD2    C3 6484   3.849   4.351  15.736 -0.2184  0.3322  0.0971
  435MPD2    C4 6485   3.886   4.383  15.605  0.1286  0.1406  0.3164
  435MPD2    C5 6486   3.799   4.446  15.520  0.2925 -0.3005 -0.5443
  435MPD2     H 6487   3.692   4.348  15.869 -2.6118  2.0480 -0.1258
  435MPD2    H1 6488   3.987   4.367  15.567 -0.2095 -1.3923  0.0516
  435MPD2    H2 6489   3.597   4.507  15.486 -1.4361 -3.3704  0.2208
  435MPD2    H3 6490   3.832   4.461  15.418 -1.3368  1.4660 -0.7995
  435MPD2     N 6491   3.942   4.305  15.838 -0.6390 -0.1565 -0.5055
  435MPD2    H5 6492   3.909   4.307  15.934  0.2526 -2.4226 -0.1350
  435MPD2    N1 6493   3.490   4.427  15.714  0.2191  0.0954 -0.4457
  435MPD2    H7 6494   3.461   4.381  15.800 -2.8508 -2.2226 -2.6781
  436TMC3    C1 6495   3.147   4.507  15.930  0.0463  0.0672  0.0259
  436TMC3    C2 6496   3.263   4.483  15.865 -0.6023  0.2816 -0.7158
  436TMC3    C3 6497   3.266   4.500  15.727 -0.3635 -0.7277  0.3194
  436TMC3    C4 6498   3.032   4.519  15.853  0.0781  0.0604  0.2605
  436TMC3    C5 6499   3.033   4.534  15.720  0.5307  0.0512 -0.4541
  436TMC3    C6 6500   3.152   4.522  15.655 -0.5467  0.5000 -0.3015
  436TMC3     C 6501   3.137   4.480  16.074  0.2805  0.6846  1.0557
  436TMC3     O 6502   3.230   4.426  16.136 -0.3007  0.3081 -0.7345
  436TMC3     H 6503   3.354   4.464  15.920 -0.4559 -3.4596 -2.2808
  436TMC3    H1 6504   2.937   4.525  15.906 -0.5409 -1.3827 -0.7039
  436TMC3    H2 6505   3.166   4.539  15.549 -0.5236 -0.2972 -0.4224
  436TMC3    C7 6506   2.915   4.563  15.643 -0.0030  0.5489  0.8790
  436TMC3    C8 6507   3.383   4.476  15.643  0.3947  0.0138 -0.3419
  436TMC3    O1 6508   2.938   4.601  15.530  0.1067  0.2385 -0.1810
  436TMC3    O2 6509   3.386   4.516  15.525  0.1539 -0.5893  0.8001
  437TMC3    C1 6510   2.167   1.964  12.225 -0.4269  0.4921 -0.5471
  437TMC3    C2 6511   2.176   1.899  12.346 -0.4217 -0.8854  0.1751
  437TMC3    C3 6512   2.294   1.917  12.424  0.8009  0.8615  0.3026
  437TMC3    C4 6513   2.271   2.052  12.195  1.4245 -0.5240 -0.3764
  437TMC3    C5 6514   2.388   2.056  12.261  0.4207  0.1364  0.8116
  437TMC3    C6 6515   2.403   1.988  12.378  0.2082  0.3686 -0.5218
  437TMC3     C 6516   2.054   1.942  12.136 -0.4876 -0.0851 -0.9930
  437TMC3     O 6517   2.045   2.037  12.056 -0.1491  0.9472 -0.1270
  437TMC3     H 6518   2.102   1.834  12.392 -3.1185  2.4500  0.5047
  437TMC3    H1 6519   2.259   2.102  12.099 -0.7390  0.5731  0.4592
  437TMC3    H2 6520   2.482   2.004  12.451  0.1307 -1.3441 -0.0706
  437TMC3    C7 6521   2.505   2.101  12.186 -0.6702  0.0347 -0.3495
  437TMC3    C8 6522   2.295   1.862  12.560 -0.6213  0.0045 -0.1836
  437TMC3    O1 6523   2.485   2.175  12.096 -0.3772  0.5209  1.0346
  437TMC3    O2 6524   2.189   1.842  12.613  0.4194  0.2600  0.1779
  438MPD2     C 6525   4.382   2.418  16.928  0.1937  0.1838  0.5635
  438MPD2    C1 6526   4.449   2.541  16.920 -0.4849 -0.2336  0.2388
  438MPD2    C2 6527   4.409   2.641  17.007  0.4075 -0.0736 -0.6852
  438MPD2    C3 6528   4.308   2.611  17.107  1.0365 -0.1640  0.3021
  438MPD2    C4 6529   4.250   2.487  17.115 -0.2799  0.4891 -0.2122
  438MPD2    C5 6530   4.289   2.397  17.022 -0.2656  0.1190 -0.0489
  438MPD2     H 6531   4.447   2.742  17.001 -2.5405  1.0973  0.4763
  438MPD2    H1 6532   4.178   2.450  17.187 -1.9635  0.0750 -2.1121
  438MPD2    H2 6533   4.400   2.336  16.860 -3.5981  0.3506 -0.6309
  438MPD2    H3 6534   4.252   2.295  17.024 -2.6214  0.9469 -1.8089
  438MPD2     N 6535   4.266   2.704  17.205  0.0414  0.0592 -0.1884
  438MPD2    H5 6536   4.194   2.667  17.267  1.2727 -2.8937 -0.5043
  438MPD2    N1 6537   4.549   2.568  16.821 -0.3638 -0.2544  0.2301
  438MPD2    H7 6538   4.608   2.651  16.824 -2.5277  1.3509 -1.0855
  439TMC3    C1 6539   4.674   2.528  16.624 -0.5579 -0.6241 -0.7600
  439TMC3    C2 6540   4.676   2.478  16.493 -0.5877 -0.0585 -0.3413
  439TMC3    C3 6541   0.064   2.463  16.421  0.2948 -0.3147  0.2172
  439TMC3    C4 6542   0.067   2.538  16.693 -0.4840  1.5512  0.9363
  439TMC3    C5 6543   0.175   2.521  16.618  0.1272 -0.6436 -0.3511
  439TMC3    C6 6544   0.180   2.503  16.485 -0.1494 -0.8908  0.2606
  439TMC3     C 6545   4.558   2.492  16.706 -0.0721 -0.1709  0.2357
  439TMC3     O 6546   4.474   2.418  16.656  0.6629  0.0598  0.0498
  439TMC3     H 6547   4.577   2.465  16.450 -0.5310  1.4278 -0.9064
  439TMC3    H1 6548   0.073   2.560  16.799 -0.5808 -0.4814  1.3704
  439TMC3    H2 6549   0.276   2.496  16.434 -0.1244 -1.6099  0.3957
  439TMC3    C7 6550   0.267   2.440  16.701  0.0423  0.4526  0.3332
  439TMC3    C8 6551   0.074   2.336  16.362  0.0895 -0.1858  0.4500
  439TMC3    O1 6552   0.287   2.486  16.813  0.4149 -0.3613 -0.0421
  439TMC3    O2 6553   0.183   2.283  16.383  0.0427  0.2853  0.4728
  440MPD2     C 6554   3.120   2.353  15.104  0.3043 -0.0925  0.7588
  440MPD2    C1 6555   3.231   2.422  15.151  0.3129 -0.5875 -0.1652
  440MPD2    C2 6556   3.349   2.356  15.164  0.1534  0.0592 -0.2075
  440MPD2    C3 6557   3.359   2.221  15.141  0.2913  0.0386 -0.8839
  440MPD2    C4 6558   3.245   2.149  15.116  0.1924  0.1475  0.4058
  440MPD2    C5 6559   3.129   2.216  15.100  0.2422  0.4484 -0.3184
  440MPD2     H 6560   3.435   2.402  15.211 -0.1923 -0.1505  0.6297
  440MPD2    H1 6561   3.242   2.041  15.109  1.8651  0.0188  1.7389
  440MPD2    H2 6562   3.029   2.410  15.089 -0.0284 -0.3015  2.0186
  440MPD2    H3 6563   3.052   2.149  15.063 -0.4402  1.4131 -0.6407
  440MPD2     N 6564   3.475   2.147  15.160  0.6091 -0.0646  0.8786
  440MPD2    H5 6565   3.460   2.048  15.178 -3.5324  0.2786 -0.7200
  440MPD2    N1 6566   3.241   2.560  15.158  0.1190  0.3178 -0.5168
  440MPD2    H7 6567   3.327   2.594  15.199 -0.4793  0.5857  0.5001
  441TMC3    C1 6568   3.694   2.104  15.221  0.2036 -0.4343 -0.3106
  441TMC3    C2 6569   3.818   2.161  15.229  0.0425  0.6742 -0.5372
  441TMC3    C3 6570   3.898   2.144  15.342  0.7405 -0.0561  0.7697
  441TMC3    C4 6571   3.645   2.028  15.328  0.1634 -0.4392  0.2288
  441TMC3    C5 6572   3.722   2.040  15.438  0.5009  0.4673 -0.1575
  441TMC3    C6 6573   3.846   2.095  15.454 -0.0487 -0.0388  0.2278
  441TMC3     C 6574   3.600   2.193  15.159 -0.5562  0.0213  0.0743
  441TMC3     O 6575   3.648   2.298  15.123  0.2450  0.1930 -0.4807
  441TMC3     H 6576   3.870   2.206  15.146 -1.3250  1.2729 -1.0692
  441TMC3    H1 6577   3.542   1.998  15.337  0.4088 -0.4716  3.0314
  441TMC3    H2 6578   3.898   2.113  15.548  0.6452 -1.0476  0.0421
  441TMC3    C7 6579   3.640   2.044  15.555 -0.3632  0.2391  0.0480
  441TMC3    C8 6580   3.970   2.257  15.378  0.1207  0.1197 -0.7929
  441TMC3    O1 6581   3.520   2.069  15.540  0.2089 -1.0318  0.7520
  441TMC3    O2 6582   4.074   2.251  15.443  0.2572  0.0212 -0.4058
  442MPD2     C 6583   1.807   3.469  16.565 -0.5464 -0.2890 -0.0811
  442MPD2    C1 6584   1.694   3.399  16.608 -0.4646 -0.3522  0.0578
  442MPD2    C2 6585   1.703   3.264  16.646 -0.2398 -0.1044 -0.1503
  442MPD2    C3 6586   1.818   3.196  16.610 -0.9322  0.5665  0.2892
  442MPD2    C4 6587   1.919   3.260  16.544  0.0197  0.3265  0.5184
  442MPD2    C5 6588   1.921   3.397  16.542  0.4055  0.3227 -1.1036
  442MPD2     H 6589   1.612   3.218  16.680 -0.6524  0.8719  0.0614
  442MPD2    H1 6590   2.011   3.211  16.512 -0.0798  0.7788 -0.4362
  442MPD2    H2 6591   1.815   3.576  16.550 -0.9265 -0.2203  0.1934
  442MPD2    H3 6592   2.012   3.453  16.522  2.1833 -2.1559 -0.0246
  442MPD2     N 6593   1.840   3.058  16.618  0.0336 -0.3033  0.3276
  442MPD2    H5 6594   1.927   3.023  16.580 -0.0361 -0.1598  0.0393
  442MPD2    N1 6595   1.570   3.462  16.616  0.3203 -0.6321  0.2908
  442MPD2    H7 6596   1.489   3.412  16.651 -0.3767  0.2554 -0.0735
  443TMC3    C1 6597   1.422   3.638  16.643 -0.4617 -0.0561 -0.0654
  443TMC3    C2 6598   1.356   3.726  16.565 -0.0626 -0.6116 -0.1583
  443TMC3    C3 6599   1.221   3.744  16.591  0.2132  0.2116  0.1728
  443TMC3    C4 6600   1.360   3.561  16.738  0.0579 -0.1682  0.2096
  443TMC3    C5 6601   1.229   3.588  16.762 -0.6757  0.6690 -0.2661
  443TMC3    C6 6602   1.153   3.689  16.696  0.3253 -0.1916  0.0042
  443TMC3     C 6603   1.544   3.594  16.586 -0.1478  1.5861  0.8290
  443TMC3     O 6604   1.616   3.676  16.525  0.0556  0.0616  0.1942
  443TMC3     H 6605   1.401   3.755  16.470  0.6958  1.7580  0.9276
  443TMC3    H1 6606   1.419   3.484  16.787  1.2097  0.0055 -0.8874
  443TMC3    H2 6607   1.045   3.683  16.698  0.1663  1.9731 -1.8066
  443TMC3    C7 6608   1.161   3.526  16.880  0.4876  0.3367  0.2003
  443TMC3    C8 6609   1.139   3.819  16.496  0.1391  0.2527 -0.1664
  443TMC3    O1 6610   1.223   3.442  16.937  0.2197 -0.0983 -0.2747
  443TMC3    O2 6611   1.067   3.906  16.545 -0.1548  0.3465  0.0292
  444MPD2     C 6612   1.605   3.232   0.059 -0.1452 -0.1425 -0.4738
  444MPD2    C1 6613   1.561   3.107   0.025 -0.0738  0.0072 -1.0990
  444MPD2    C2 6614   1.648   3.019  17.667 -0.4474 -0.4579 -0.4703
  444MPD2    C3 6615   1.781   3.059  17.640 -0.4160 -0.0897 -0.0712
  444MPD2    C4 6616   1.828   3.177  17.681  0.2066  0.1213 -0.3688
  444MPD2    C5 6617   1.737   3.266   0.032 -0.1496  0.6760  0.0870
  444MPD2     H 6618   1.625   2.919  17.635  1.1467 -1.4535  1.4812
  444MPD2    H1 6619   1.930   3.211  17.666  0.7505 -1.3799 -0.0707
  444MPD2    H2 6620   1.537   3.305   0.101  0.0930  0.7179 -1.5788
  444MPD2    H3 6621   1.766   3.370   0.044 -1.1919  1.0498 -0.6152
  444MPD2     N 6622   1.856   2.963  17.566  0.4662 -0.0099 -1.0022
  444MPD2    H5 6623   1.809   2.881  17.528  1.1678 -0.8157 -0.1143
  444MPD2    N1 6624   1.437   3.056   0.050 -0.5721 -0.3018  0.1640
  444MPD2    H7 6625   1.421   2.959   0.025  0.8132 -0.0383 -1.7476
  445TMC3    C1 6626   2.052   2.870  17.448  0.3590  0.0885  0.0480
  445TMC3    C2 6627   1.976   2.762  17.420  0.2216 -0.0079 -1.1097
  445TMC3    C3 6628   2.026   2.672  17.331  0.2202  0.7449 -0.2839
  445TMC3    C4 6629   2.171   2.894  17.398 -0.5782 -0.2050 -0.5438
  445TMC3    C5 6630   2.212   2.812  17.298  0.4786 -0.4300 -0.5537
  445TMC3    C6 6631   2.146   2.697  17.268 -0.3233  0.1013  0.2290
  445TMC3     C 6632   1.995   2.977  17.536  0.2525 -0.0377 -0.2895
  445TMC3     O 6633   2.067   3.072  17.562 -0.0774  0.0582 -0.3583
  445TMC3     H 6634   1.886   2.736  17.476  0.8155  1.5970  0.6022
  445TMC3    H1 6635   2.231   2.978  17.430  2.0953 -1.1413 -2.9915
  445TMC3    H2 6636   2.169   2.625  17.190 -1.3372  0.2500 -0.2043
  445TMC3    C7 6637   2.358   2.824  17.268 -0.0754  0.5642  0.2086
  445TMC3    C8 6638   1.953   2.546  17.306  0.6084 -0.3030  0.0714
  445TMC3    O1 6639   2.416   2.893  17.356  0.0217  0.7410  0.4627
  445TMC3    O2 6640   2.018   2.460  17.247  0.3403 -0.5193  0.4494
  446MPD2     C 6641   1.024   4.099  11.545  0.4170 -0.2828 -0.0875
  446MPD2    C1 6642   1.067   4.099  11.415 -0.7029  0.3094 -0.0327
  446MPD2    C2 6643   1.170   4.182  11.379 -0.0971 -0.4295  0.0766
  446MPD2    C3 6644   1.231   4.278  11.464 -0.4580 -0.4949 -0.1965
  446MPD2    C4 6645   1.182   4.286  11.591 -0.3248  0.0355 -0.0932
  446MPD2    C5 6646   1.087   4.193  11.628 -0.5178  0.6453  0.3197
  446MPD2     H 6647   1.208   4.180  11.277 -2.3851  0.2727 -0.7899
  446MPD2    H1 6648   1.228   4.346  11.668 -0.8699 -2.1579  1.9555
  446MPD2    H2 6649   0.961   4.022  11.588  0.1328  0.4079  0.7364
  446MPD2    H3 6650   1.059   4.193  11.733 -2.3573  0.2358 -0.1764
  446MPD2     N 6651   1.332   4.359  11.416 -0.2830 -0.3813  0.8002
  446MPD2    H5 6652   1.351   4.358  11.316 -0.2560  0.0131  0.8005
  446MPD2    N1 6653   1.012   4.019  11.310  0.1297 -1.2826 -0.0942
  446MPD2    H7 6654   1.066   4.010  11.225 -0.0823 -0.4670 -0.3096
  447TMC3    C1 6655   1.514   4.502  11.423  0.2832 -0.0558  0.1068
  447TMC3    C2 6656   1.492   4.563  11.303 -0.1233  0.4925  0.2094
  447TMC3    C3 6657   1.600   4.613  11.240  0.1541  0.3389  0.3750
  447TMC3    C4 6658   1.640   4.475  11.470  0.1420 -0.3460 -0.7382
  447TMC3    C5 6659   1.747   4.509  11.388 -0.0944  0.7063  0.7798
  447TMC3    C6 6660   1.728   4.589  11.276 -0.2646 -0.4578  0.1063
  447TMC3     C 6661   1.413   4.438  11.499  0.0586 -0.3973 -0.1948
  447TMC3     O 6662   1.433   4.430  11.619 -0.2310 -0.8658  0.1678
  447TMC3     H 6663   1.388   4.586  11.283 -0.6010 -0.0917  2.0023
  447TMC3    H1 6664   1.655   4.438  11.570  0.6134 -1.4210 -1.2063
  447TMC3    H2 6665   1.810   4.612  11.208  1.3714 -1.3190  1.7947
  447TMC3    C7 6666   1.874   4.449  11.413  0.2110  0.2925  0.0025
  447TMC3    C8 6667   1.578   4.703  11.121  0.0409  0.0125 -0.0927
  447TMC3    O1 6668   1.968   4.490  11.346  0.0145 -0.3583 -0.5636
  447TMC3    O2 6669   1.458   0.005  11.108  0.0951 -0.9569 -0.1284
  448TMC3    C1 6670   0.494   4.498  17.271 -0.3686 -0.4915  0.9906
  448TMC3    C2 6671   0.540   4.376  17.231  0.1301  0.2215  0.4263
  448TMC3    C3 6672   0.501   4.259  17.301  0.1386 -0.0555 -0.1631
  448TMC3    C4 6673   0.427   4.513  17.390  0.0682 -0.6036  0.1771
  448TMC3    C5 6674   0.397   4.400  17.462  0.0516  0.0488 -0.4621
  448TMC3    C6 6675   0.430   4.271  17.416  0.1181  0.0008 -0.8883
  448TMC3     C 6676   0.564   4.614  17.214 -0.1097  0.3981 -0.0582
  448TMC3     O 6677   0.670   4.592  17.155 -0.8248 -0.4348  0.1172
  448TMC3     H 6678   0.589   4.363  17.135  1.6732  0.0293  1.2479
  448TMC3    H1 6679   0.405   4.611  17.430 -3.2035 -1.0216 -0.5621
  448TMC3    H2 6680   0.392   4.187  17.473  0.7261  1.8698  2.2214
  448TMC3    C7 6681   0.364   4.416  17.597 -0.1736  0.6854  0.9263
  448TMC3    C8 6682   0.511   4.125  17.251  0.1305 -0.2858  0.1685
  448TMC3    O1 6683   0.396   4.518  17.660  0.3394 -0.0750 -0.3030
  448TMC3    O2 6684   0.462   4.030  17.315 -0.2433 -0.1786 -0.4724
  449MPD2     C 6685   1.568   2.449  13.832 -0.1314  0.3416  0.0561
  449MPD2    C1 6686   1.517   2.324  13.808  0.3071 -0.7762 -0.0422
  449MPD2    C2 6687   1.535   2.223  13.909  0.3780 -1.0694 -0.6468
  449MPD2    C3 6688   1.592   2.252  14.032 -0.0502 -0.3494 -0.3815
  449MPD2    C4 6689   1.629   2.385  14.055 -0.0751 -0.2160 -0.4054
  449MPD2    C5 6690   1.625   2.479  13.953 -0.3679  0.4586 -0.5146
  449MPD2     H 6691   1.500   2.121  13.895 -2.0739 -0.3737  0.4783
  449MPD2    H1 6692   1.670   2.404  14.153  0.0881  0.5698 -0.6250
  449MPD2    H2 6693   1.571   2.529  13.759 -1.8643 -0.2341 -0.6400
  449MPD2    H3 6694   1.661   2.575  13.988 -0.4723  0.5449 -0.6454
  449MPD2     N 6695   1.582   2.143  14.126  0.5522  0.4958  0.2628
  449MPD2    H5 6696   1.540   2.060  14.084 -0.5346  1.2193 -0.0777
  449MPD2    N1 6697   1.430   2.283  13.697  0.1569 -0.2498  0.5679
  449MPD2    H7 6698   1.387   2.191  13.700  0.8510 -0.5989 -0.1373
  450TMC3    C1 6699   1.301   2.304  13.512 -0.3724  0.1506  0.0765
  450TMC3    C2 6700   1.359   2.247  13.402  0.0092  0.1002  0.2262
  450TMC3    C3 6701   1.315   2.126  13.364 -0.2332  0.5630  0.3799
  450TMC3    C4 6702   1.204   2.238  13.587 -0.4468 -0.2284 -0.3540
  450TMC3    C5 6703   1.170   2.103  13.544 -0.7467 -0.1125  0.0768
  450TMC3    C6 6704   1.216   2.058  13.425  0.2253 -0.5870  0.5147
  450TMC3     C 6705   1.400   2.374  13.598  0.0553  0.3589 -0.1420
  450TMC3     O 6706   1.475   2.462  13.551  0.3725 -0.1038 -0.1239
  450TMC3     H 6707   1.417   2.307  13.332  0.2360 -0.5749 -0.1664
  450TMC3    H1 6708   1.182   2.261  13.691  0.8147 -2.1643  0.3496
  450TMC3    H2 6709   1.198   1.959  13.385 -0.5604  1.3780 -4.0218
  450TMC3    C7 6710   1.217   2.018  13.648  0.1900 -0.2211  0.3786
  450TMC3    C8 6711   1.375   2.074  13.246  0.3856  0.2798  0.5543
  450TMC3    O1 6712   1.329   2.016  13.691  0.4147  0.3324  0.1963
  450TMC3    O2 6713   1.288   2.053  13.161 -0.3714  0.1640 -0.6098
  451MPD2     C 6714   2.100   0.420   1.770 -0.1261 -0.6794 -0.3504
  451MPD2    C1 6715   2.164   0.460   1.657  0.4467  0.1885  0.0690
  451MPD2    C2 6716   2.281   0.395   1.614 -0.2638  0.1475  0.5410
  451MPD2    C3 6717   2.334   0.291   1.695 -0.4554  0.8097  0.2245
  451MPD2    C4 6718   2.259   0.249   1.800 -0.3432  0.5067 -0.4005
  451MPD2    C5 6719   2.143   0.314   1.837  0.0225  0.5714 -0.2171
  451MPD2     H 6720   2.326   0.421   1.519  2.7531 -0.8401  1.6960
  451MPD2    H1 6721   2.275   0.162   1.864 -0.0246  0.6226 -0.3232
  451MPD2    H2 6722   2.014   0.474   1.807 -0.1337 -1.0161  0.1205
  451MPD2    H3 6723   2.081   0.295   1.924  1.6841 -1.7176  0.4699
  451MPD2     N 6724   2.460   0.229   1.677  0.1560  0.8730  0.0602
  451MPD2    H5 6725   2.486   0.157   1.744 -2.0461  0.4736  0.4790
  451MPD2    N1 6726   2.107   0.566   1.587  0.2139  0.3264 -0.4613
  451MPD2    H7 6727   2.022   0.597   1.633  1.3581  0.3353  1.6373
  452TMC3    C1 6728   2.685   0.200   1.615 -0.6228  0.1389  0.3255
  452TMC3    C2 6729   2.695   0.087   1.697 -0.0352 -0.3696  0.6017
  452TMC3    C3 6730   2.813   0.015   1.689  0.1076  0.7755 -0.3063
  452TMC3    C4 6731   2.796   0.240   1.539 -0.3152 -0.6832 -0.2121
  452TMC3    C5 6732   2.902   0.161   1.537 -0.0266 -0.4160  1.0478
  452TMC3    C6 6733   2.920   0.040   1.600 -0.1819  0.7669 -0.8054
  452TMC3     C 6734   2.557   0.271   1.590 -0.1043 -0.3375 -0.3401
  452TMC3     O 6735   2.551   0.367   1.512  0.0289 -0.2824  0.0259
  452TMC3     H 6736   2.604   0.053   1.745  0.1331 -2.6513 -0.6536
  452TMC3    H1 6737   2.788   0.329   1.476 -1.2043 -0.8961 -0.4083
  452TMC3    H2 6738   3.019   0.001   1.623 -0.6970 -1.0808 -1.6662
  452TMC3    C7 6739   2.994   0.185   1.427  0.4252  0.0831 -0.6377
  452TMC3    C8 6740   2.819   4.619   1.767  0.1137 -0.1912  0.3370
  452TMC3    O1 6741   3.002   0.298   1.388 -0.1276  0.1918 -0.3915
  452TMC3    O2 6742   2.709   4.565   1.787  0.2007  0.0089  0.5429
  453TMC3    C1 6743   4.039   2.834  11.787  0.5615  0.5266 -0.2318
  453TMC3    C2 6744   3.947   2.756  11.851  0.1732 -0.6076 -0.2439
  453TMC3    C3 6745   3.822   2.734  11.803 -0.1787 -0.5188  0.2185
  453TMC3    C4 6746   4.012   2.893  11.668 -0.2748  0.1946  0.0342
  453TMC3    C5 6747   3.884   2.875  11.626 -0.1820  0.4525 -0.5429
  453TMC3    C6 6748   3.787   2.807  11.696 -0.8245 -0.2280  0.0388
  453TMC3     C 6749   4.148   2.884  11.869  0.3867  0.1827 -0.1612
  453TMC3     O 6750   4.177   3.002  11.864 -0.0170  0.1392  0.0834
  453TMC3     H 6751   3.976   2.721  11.950 -0.1565 -1.0691 -0.3096
  453TMC3    H1 6752   4.084   2.954  11.616  0.2865  0.1997  0.8098
  453TMC3    H2 6753   3.689   2.790  11.652 -1.3241  0.1139  1.0217
  453TMC3    C7 6754   3.850   2.888  11.482  0.0162 -0.2885  0.3568
  453TMC3    C8 6755   3.721   2.656  11.871 -0.1655  0.1388  0.6331
  453TMC3    O1 6756   3.733   2.884  11.449  0.0922  0.0731 -0.0726
  453TMC3    O2 6757   3.603   2.693  11.848  0.2583 -0.4466 -0.0951
  454MPD2     C 6758   2.839   2.076  16.441  0.1158  0.0326  0.4586
  454MPD2    C1 6759   2.752   2.178  16.426 -0.2241  0.5010  0.2010
  454MPD2    C2 6760   2.690   2.229  16.539 -0.3065  0.0126 -0.0947
  454MPD2    C3 6761   2.710   2.168  16.662 -0.1287 -0.1788 -0.4833
  454MPD2    C4 6762   2.797   2.068  16.675  0.2022 -0.3090 -0.7815
  454MPD2    C5 6763   2.873   2.033  16.565 -0.2375  0.8495 -0.2924
  454MPD2     H 6764   2.612   2.303  16.538 -1.7237 -1.4859 -0.1864
  454MPD2    H1 6765   2.813   2.016  16.768  0.6407  0.6980 -0.2969
  454MPD2    H2 6766   2.909   2.054  16.362  1.7821  2.4572  1.2439
  454MPD2    H3 6767   2.945   1.952  16.573 -1.1232  0.0598 -0.4087
  454MPD2     N 6768   2.627   2.184  16.772  0.0579  0.1867  0.2071
  454MPD2    H5 6769   2.619   2.103  16.833  0.5155 -1.4801 -1.9377
  454MPD2    N1 6770   2.727   2.239  16.301  0.1306  0.9381  0.2309
  454MPD2    H7 6771   2.641   2.292  16.301 -0.3157  0.2205  2.7699
  455TMC3    C1 6772   2.416   2.262  16.830 -0.5757 -0.2205  0.3888
  455TMC3    C2 6773   2.352   2.379  16.873  0.3570  0.5419  0.1361
  455TMC3    C3 6774   2.220   2.399  16.846 -0.3596  0.9639 -0.4927
  455TMC3    C4 6775   2.345   2.161  16.769  0.9541  0.5329 -0.3036
  455TMC3    C5 6776   2.217   2.197  16.726  0.3315 -0.0201  0.1312
  455TMC3    C6 6777   2.146   2.305  16.776  0.1182  0.6931  0.0692
  455TMC3     C 6778   2.543   2.291  16.776 -0.1470 -0.0259 -0.4110
  455TMC3     O 6779   2.559   2.408  16.742  0.1194 -0.0991  0.0329
  455TMC3     H 6780   2.408   2.454  16.928 -1.6815  2.1735 -0.0355
  455TMC3    H1 6781   2.397   2.077  16.725  1.0779 -0.2874  1.3868
  455TMC3    H2 6782   2.049   2.322  16.730  0.1362 -0.8048 -0.4939
  455TMC3    C7 6783   2.168   2.117  16.618 -0.0193  0.2117 -0.6323
  455TMC3    C8 6784   2.160   2.522  16.908 -0.5545 -0.4208  0.2282
  455TMC3    O1 6785   2.113   2.152  16.514 -0.6986 -0.7302 -0.4723
  455TMC3    O2 6786   2.232   2.615  16.944 -0.0445  0.5633  0.3595
  456MPD2     C 6787   0.393   2.786  16.619 -0.6488  0.5312  0.4743
  456MPD2    C1 6788   0.492   2.761  16.712  0.3253 -0.1975  0.1273
  456MPD2    C2 6789   0.501   2.842  16.821  0.5562  0.5373  0.4722
  456MPD2    C3 6790   0.418   2.954  16.825 -0.1911 -0.2940 -0.3574
  456MPD2    C4 6791   0.319   2.972  16.737  0.3208  0.0086 -0.3200
  456MPD2    C5 6792   0.305   2.887  16.630  0.2329  0.2464 -0.3708
  456MPD2     H 6793   0.572   2.822  16.900  2.2469  0.5674 -1.0480
  456MPD2    H1 6794   0.245   3.051  16.744 -1.7421 -1.9590  0.1667
  456MPD2    H2 6795   0.386   2.732  16.526  1.7509  2.8702 -1.0591
  456MPD2    H3 6796   0.226   2.911  16.560  0.1847  1.6353  0.1594
  456MPD2     N 6797   0.439   3.048  16.933  0.2143  0.7796 -0.5051
  456MPD2    H5 6798   0.498   3.024  17.011  0.0920 -1.1826 -1.0217
  456MPD2    N1 6799   0.566   2.647  16.683 -0.5993  0.0525  1.1640
  456MPD2    H7 6800   0.533   2.595  16.603 -0.4699  2.4704 -0.4444
  457TMC3    C1 6801   0.455   3.250  17.046  0.7784  0.1301  0.4715
  457TMC3    C2 6802   0.478   3.387  17.034 -0.7718 -0.4992  0.2257
  457TMC3    C3 6803   0.488   3.455  17.151 -0.1812 -0.0118  0.5851
  457TMC3    C4 6804   0.423   3.198  17.170 -0.3878 -0.2602 -0.1915
  457TMC3    C5 6805   0.425   3.278  17.284  0.0180  0.8980  0.1044
  457TMC3    C6 6806   0.458   3.411  17.276  0.8139  0.1099  0.2416
  457TMC3     C 6807   0.400   3.178  16.929 -0.6970  0.4256  0.0992
  457TMC3     O 6808   0.342   3.239  16.844 -0.2261 -0.1288 -0.5644
  457TMC3     H 6809   0.506   3.422  16.936  0.4179  1.5222  1.2989
  457TMC3    H1 6810   0.392   3.095  17.187 -0.2888  0.1537  2.4450
  457TMC3    H2 6811   0.482   3.467  17.365  2.5361 -0.5797  0.2077
  457TMC3    C7 6812   0.363   3.217  17.405 -0.2948  0.0620  0.7397
  457TMC3    C8 6813   0.473   3.600  17.145 -0.4065 -0.2101 -0.3811
  457TMC3    O1 6814   0.344   3.104  17.403 -0.0365  0.4112 -0.6926
  457TMC3    O2 6815   0.465   3.660  17.252  1.0687 -0.0367  0.1923
  458MPD2     C 6816   3.022   2.151  12.134  0.3024  0.4241 -0.2747
  458MPD2    C1 6817   2.994   2.066  12.237 -0.0760  0.6388 -0.2690
  458MPD2    C2 6818   2.861   2.034  12.269 -0.0924  0.3866 -0.6623
  458MPD2    C3 6819   2.755   2.082  12.196  0.0472 -0.1025  0.5253
  458MPD2    C4 6820   2.787   2.165  12.094  0.2818  0.2421  0.6765
  458MPD2    C5 6821   2.914   2.199  12.064 -1.2037 -0.0028 -0.7424
  458MPD2     H 6822   2.835   1.991  12.365 -0.3027  0.9896 -0.4468
  458MPD2    H1 6823   2.713   2.223  12.041  0.4943  0.5842  0.7529
  458MPD2    H2 6824   3.121   2.186  12.108  1.6375 -1.0643  2.7919
  458MPD2    H3 6825   2.937   2.272  11.987 -0.0143  1.3676  0.9365
  458MPD2     N 6826   2.622   2.045  12.227  0.3695  0.1012 -0.2600
  458MPD2    H5 6827   2.605   1.972  12.296  0.5594  1.6283  1.4235
  458MPD2    N1 6828   3.096   2.038  12.329 -0.0427  0.6381 -0.2417
  458MPD2    H7 6829   3.177   2.100  12.333  2.0608 -2.1598  0.8174
  459TMC3    C1 6830   3.184   1.965  12.547  0.5160 -0.8177 -1.1531
  459TMC3    C2 6831   3.290   2.050  12.528 -0.0874 -0.0881  0.1710
  459TMC3    C3 6832   3.349   2.107  12.637  0.9065  0.5024  0.0861
  459TMC3    C4 6833   3.153   1.919  12.667  0.1971 -0.1992  0.1834
  459TMC3    C5 6834   3.214   1.979  12.771 -0.4575 -0.4329  0.4842
  459TMC3    C6 6835   3.307   2.080  12.761  0.7482  0.1972 -0.1186
  459TMC3     C 6836   3.090   1.945  12.436  1.3713  0.3918 -0.9362
  459TMC3     O 6837   3.012   1.856  12.449  0.8080  0.0392  0.0837
  459TMC3     H 6838   3.331   2.078  12.431 -0.0440 -0.3404  0.1163
  459TMC3    H1 6839   3.072   1.849  12.682  0.0969 -0.2032 -0.3795
  459TMC3    H2 6840   3.374   2.094  12.845  2.5292 -1.2446 -1.2958
  459TMC3    C7 6841   3.189   1.913  12.902  0.1928 -0.4608 -0.4239
  459TMC3    C8 6842   3.487   2.146  12.621  0.3470  0.3723  0.0121
  459TMC3    O1 6843   3.130   1.802  12.903  0.0063  0.5813 -0.4489
  459TMC3    O2 6844   3.546   2.095  12.530  0.3770  0.1567  0.1048
  460MPD2     C 6845   1.793   0.112  10.838 -0.1032  0.0352 -0.2256
  460MPD2    C1 6846   1.679   0.083  10.913 -0.3033  0.1929 -0.6218
  460MPD2    C2 6847   1.555   0.126  10.863  0.5549  0.4213 -0.0487
  460MPD2    C3 6848   1.553   0.199  10.745 -0.2271 -1.0414  0.4722
  460MPD2    C4 6849   1.666   0.238  10.679 -0.2690  0.6920  0.3338
  460MPD2    C5 6850   1.789   0.201  10.729 -0.4413  0.1997 -0.2426
  460MPD2     H 6851   1.460   0.091  10.902  0.9221  1.4144  1.7273
  460MPD2    H1 6852   1.665   0.309  10.597 -0.8830  0.2687 -0.0250
  460MPD2    H2 6853   1.889   0.074  10.870 -0.8093 -1.3235  0.2632
  460MPD2    H3 6854   1.875   0.237  10.673 -1.1362  0.3523 -1.1989
  460MPD2     N 6855   1.426   0.238  10.690  0.1192 -0.6926 -0.4541
  460MPD2    H5 6856   1.350   0.215  10.753 -0.0293  0.1238 -0.3330
  460MPD2    N1 6857   1.687   0.003  11.027 -0.6088  0.1103  0.0277
  460MPD2    H7 6858   1.780   4.687  11.035 -0.0816  1.6251  1.2974
  461TMC3    C1 6859   1.269   0.372  10.562  0.4241  0.6072  0.2193
  461TMC3    C2 6860   1.202   0.279  10.494 -0.4372  0.4552  0.1851
  461TMC3    C3 6861   1.122   0.310  10.390  0.1218 -0.5883 -0.8416
  461TMC3    C4 6862   1.245   0.501  10.529 -0.3205  0.2283  0.5653
  461TMC3    C5 6863   1.158   0.538  10.427 -0.3113  0.0748  0.0506
  461TMC3    C6 6864   1.088   0.440  10.358 -1.0266  0.3418 -0.3915
  461TMC3     C 6865   1.404   0.344  10.604 -0.3081 -0.4322 -0.3962
  461TMC3     O 6866   1.485   0.423  10.559  0.0169 -0.0418 -0.1351
  461TMC3     H 6867   1.225   0.176  10.519  2.4579  0.6681 -1.5284
  461TMC3    H1 6868   1.292   0.581  10.584  1.2992 -0.7901  0.6369
  461TMC3    H2 6869   1.023   0.467  10.276 -2.0218 -3.0022 -0.7125
  461TMC3    C7 6870   1.127   0.671  10.383  0.4296  0.3277 -0.2171
  461TMC3    C8 6871   1.085   0.212  10.296 -0.2306  0.8890  0.3416
  461TMC3    O1 6872   1.028   0.687  10.310  0.4279  0.4554 -0.4447
  461TMC3    O2 6873   0.974   0.220  10.243  0.2171 -0.1518 -0.1382
  462TMC3    C1 6874   1.600   1.003   0.736  0.1341 -0.0986 -0.2799
  462TMC3    C2 6875   1.670   0.962   0.852  0.3157 -0.5856  0.6604
  462TMC3    C3 6876   1.599   0.885   0.943 -0.7019  0.0550 -0.4586
  462TMC3    C4 6877   1.468   0.974   0.728 -0.8035 -0.5346 -0.4293
  462TMC3    C5 6878   1.400   0.906   0.826 -0.7811  0.2899  0.8789
  462TMC3    C6 6879   1.464   0.865   0.939 -0.0193  0.2676 -0.3513
  462TMC3     C 6880   1.667   1.045   0.613  0.2209 -0.2455 -0.8471
  462TMC3     O 6881   1.615   1.015   0.507 -0.3721 -0.1403 -0.1445
  462TMC3     H 6882   1.778   0.970   0.857  0.3417  0.7238 -1.9364
  462TMC3    H1 6883   1.418   0.990   0.633 -1.2030 -0.1637 -0.1555
  462TMC3    H2 6884   1.419   0.804   1.016 -1.8772  0.0353 -1.6318
  462TMC3    C7 6885   1.290   0.818   0.779 -0.0499  0.5096  0.3143
  462TMC3    C8 6886   1.678   0.796   1.021  0.6205  0.8528  0.3446
  462TMC3    O1 6887   1.290   0.707   0.821  0.4408 -0.0013 -0.0401
  462TMC3    O2 6888   1.644   0.788   1.142 -0.2197 -0.3530 -0.4730
  463MPD2     C 6889   3.230   3.999   1.745 -0.1274 -0.3063  0.5666
  463MPD2    C1 6890   3.135   4.102   1.735  0.3755  0.1869  0.1816
  463MPD2    C2 6891   3.176   4.223   1.682 -0.5970 -0.2055 -0.4143
  463MPD2    C3 6892   3.302   4.240   1.624  0.2401 -0.4076  0.1902
  463MPD2    C4 6893   3.381   4.130   1.616  0.7333  0.2382  0.1369
  463MPD2    C5 6894   3.347   4.017   1.679  0.2097  0.2002 -0.2455
  463MPD2     H 6895   3.109   4.307   1.694  1.0887  1.1209 -0.4541
  463MPD2    H1 6896   3.477   4.138   1.566 -0.1027  0.2154 -1.4665
  463MPD2    H2 6897   3.213   3.902   1.791 -0.6120 -1.1297 -1.3433
  463MPD2    H3 6898   3.406   3.927   1.682 -0.4288 -0.2235 -0.3539
  463MPD2     N 6899   3.351   4.357   1.567  0.0749  0.0873 -0.0983
  463MPD2    H5 6900   3.443   4.355   1.525  0.8209  1.1368  1.5120
  463MPD2    N1 6901   3.003   4.082   1.788  0.1372 -0.3341  0.7668
  463MPD2    H7 6902   2.936   4.140   1.740 -0.2828 -0.8123  0.7739
  464TMC3    C1 6903   2.830   3.950   1.869 -0.0687 -0.5695  0.4452
  464TMC3    C2 6904   2.750   4.033   1.799 -0.4060 -0.9900 -0.1466
  464TMC3    C3 6905   2.617   3.990   1.791  0.2379 -0.1148 -0.1274
  464TMC3    C4 6906   2.793   3.837   1.926 -0.4885  0.0089  0.2774
  464TMC3    C5 6907   2.658   3.806   1.916 -0.6106 -0.0768 -0.2484
  464TMC3    C6 6908   2.564   3.883   1.852  0.2344  0.1300  0.2154
  464TMC3     C 6909   2.970   3.982   1.871  0.0048  0.5922  0.7446
  464TMC3     O 6910   3.037   3.921   1.954 -0.0081 -0.3108  1.0107
  464TMC3     H 6911   2.778   4.127   1.754 -0.5816 -1.3169 -0.9392
  464TMC3    H1 6912   2.857   3.786   1.997  0.1243 -1.0301 -1.0062
  464TMC3    H2 6913   2.470   3.842   1.817  1.0804 -0.8497 -0.8896
  464TMC3    C7 6914   2.646   3.664   1.942  0.2506  0.9294  0.1648
  464TMC3    C8 6915   2.515   4.089   1.743 -0.0943  0.6596 -0.1060
  464TMC3    O1 6916   2.740   3.591   1.964  0.4529 -0.0412  0.3496
  464TMC3    O2 6917   2.568   4.187   1.691  0.4532  0.5638  0.0847
  465MPD2     C 6918   4.664   2.859  16.597  0.3392 -0.0324  0.0859
  465MPD2    C1 6919   4.592   2.957  16.656 -0.0440  0.4298  0.4362
  465MPD2    C2 6920   4.488   3.018  16.593  0.1008 -0.6525  0.6510
  465MPD2    C3 6921   4.439   2.964  16.471  0.5596  0.0075  0.1169
  465MPD2    C4 6922   4.511   2.861  16.410 -0.0886 -0.1201 -0.0666
  465MPD2    C5 6923   4.619   2.806  16.477  0.5204 -0.6968  0.1476
  465MPD2     H 6924   4.430   3.097  16.640 -1.1716 -0.8541 -0.5743
  465MPD2    H1 6925   4.493   2.838  16.305 -1.7914 -1.6485  0.5771
  465MPD2    H2 6926   0.024   2.817  16.650 -0.3401 -0.3224  0.9237
  465MPD2    H3 6927   4.682   2.733  16.428 -1.2769 -1.9487 -0.3043
  465MPD2     N 6928   4.327   3.022  16.402 -0.3314  0.7767  0.0506
  465MPD2    H5 6929   4.269   3.086  16.457 -0.5006 -0.4395  1.2811
  465MPD2    N1 6930   4.621   3.014  16.785  0.4680 -0.5877  0.7721
  465MPD2    H7 6931   4.564   3.092  16.815 -0.7840 -0.6561 -1.4355
  466TMC3    C1 6932   3.915   3.029  16.183 -0.4347  0.1664 -0.3436
  466TMC3    C2 6933   3.902   3.163  16.210 -0.3971 -0.0242  0.1566
  466TMC3    C3 6934   4.004   3.236  16.262 -0.1412 -0.0218 -0.0651
  466TMC3    C4 6935   4.038   2.966  16.200  0.5702 -0.2986 -0.3019
  466TMC3    C5 6936   4.139   3.039  16.255  0.9246 -0.7159 -0.2910
  466TMC3    C6 6937   4.123   3.176  16.294  0.2686 -0.0340 -0.4178
  466TMC3     C 6938   3.796   2.959  16.228  0.4431  1.0288 -0.5333
  466TMC3     O 6939   3.820   2.865  16.298  0.0264 -0.5730 -0.1305
  466TMC3     H 6940   3.821   3.220  16.166 -0.5725  0.1340  0.6800
  466TMC3    H1 6941   4.052   2.863  16.170 -0.2092 -1.3047  2.7314
  466TMC3    H2 6942   4.192   3.231  16.356 -1.5452 -0.2749  1.8223
  466TMC3    C7 6943   4.265   2.972  16.285  0.5197 -0.2870  0.9545
  466TMC3    C8 6944   3.959   3.345  16.350 -0.8043  0.4263 -0.9115
  466TMC3    O1 6945   4.300   2.869  16.223  0.3954 -0.6636  0.2795
  466TMC3    O2 6946   4.032   3.423  16.402 -0.1534  0.2960  0.3403
  467TMC3    C1 6947   0.517   1.371  13.969  0.2728 -0.0665  0.3618
  467TMC3    C2 6948   0.471   1.452  13.872  0.1484 -0.5755 -0.0018
  467TMC3    C3 6949   0.340   1.468  13.866 -1.0778 -0.7524  0.2498
  467TMC3    C4 6950   0.438   1.294  14.056  0.2502  0.1005 -0.6131
  467TMC3    C5 6951   0.299   1.305  14.038  0.2049  0.1380  0.1313
  467TMC3    C6 6952   0.254   1.386  13.939 -0.9171 -0.3914  0.4053
  467TMC3     C 6953   0.659   1.334  13.985 -0.6058  0.3539 -0.6824
  467TMC3     O 6954   0.691   1.313  14.102 -0.1506  0.1661  0.1137
  467TMC3     H 6955   0.536   1.511  13.810 -2.4047 -0.4575 -2.5399
  467TMC3    H1 6956   0.478   1.224  14.128 -0.5989  1.1322  0.8533
  467TMC3    H2 6957   0.151   1.417  13.929 -0.4784  1.3085  1.0676
  467TMC3    C7 6958   0.216   1.234  14.130 -0.4032 -0.6174 -0.1171
  467TMC3    C8 6959   0.294   1.543  13.752 -0.0091  0.4187 -0.1886
  467TMC3    O1 6960   0.270   1.209  14.237  0.8601 -0.3708 -0.7063
  467TMC3    O2 6961   0.357   1.644  13.710  0.2809  0.3889 -1.0589
  468MPD2     C 6962   3.438   4.007  10.863  0.3883  0.7671 -0.2451
  468MPD2    C1 6963   3.564   3.982  10.913  0.1549  0.4598  0.6438
  468MPD2    C2 6964   3.602   3.846  10.910 -0.6658 -0.2513  0.2447
  468MPD2    C3 6965   3.516   3.747  10.867  0.0945  0.4912  1.0834
  468MPD2    C4 6966   3.383   3.774  10.837 -0.4193  0.0940 -0.4530
  468MPD2    C5 6967   3.347   3.907  10.826  0.1660  0.6747  1.1089
  468MPD2     H 6968   3.700   3.818  10.946 -1.1354 -0.9723  0.9647
  468MPD2    H1 6969   3.311   3.698  10.807  0.3345 -1.6031  2.0725
  468MPD2    H2 6970   3.399   4.108  10.851  0.9153  1.0313  0.2088
  468MPD2    H3 6971   3.247   3.936  10.796  0.8890 -0.3613 -2.2912
  468MPD2     N 6972   3.556   3.613  10.871 -0.6152 -0.1345 -0.2019
  468MPD2    H5 6973   3.486   3.541  10.859 -1.0735  0.1234  0.8774
  468MPD2    N1 6974   3.650   4.091  10.949  0.1898 -0.9696 -0.4273
  468MPD2    H7 6975   3.749   4.068  10.953  0.6497  1.2173  0.7780
  469TMC3    C1 6976   3.724   4.291  11.055  0.0520 -0.1577 -0.1978
  469TMC3    C2 6977   3.822   4.222  11.124  0.5280 -0.2628  0.6185
  469TMC3    C3 6978   3.909   4.299  11.197 -0.1666  0.4201  0.2894
  469TMC3    C4 6979   3.722   4.430  11.041  0.3847  0.2950  0.3318
  469TMC3    C5 6980   3.815   4.501  11.107 -0.1798  0.4782 -0.1152
  469TMC3    C6 6981   3.908   4.437  11.190  0.4505  0.1034  0.5465
  469TMC3     C 6982   3.619   4.219  10.988  0.1607 -0.3059 -0.1459
  469TMC3     O 6983   3.519   4.285  10.969 -0.0956 -0.2849 -0.0800
  469TMC3     H 6984   3.821   4.113  11.126 -0.1584 -0.2514  0.9918
  469TMC3    H1 6985   3.661   4.479  10.967  1.8624  1.3004 -0.2164
  469TMC3    H2 6986   3.977   4.500  11.244 -0.0309 -0.2705  1.6026
  469TMC3    C7 6987   3.807   4.651  11.099 -0.5999  0.6130  0.6669
  469TMC3    C8 6988   3.994   4.222  11.281  0.3278  0.3033 -0.0675
  469TMC3    O1 6989   3.723   4.693  11.015 -0.4340 -0.2715  0.5274
  469TMC3    O2 6990   4.024   4.104  11.260 -0.0160  0.4820  0.2258
  470TMC3    C1 6991   0.814   0.191   0.668 -0.6444 -0.5846 -0.2294
  470TMC3    C2 6992   0.741   0.305   0.654 -0.0066 -0.9665  0.0792
  470TMC3    C3 6993   0.795   0.427   0.684 -0.3614 -0.8757 -1.1107
  470TMC3    C4 6994   0.937   0.197   0.727 -0.2546 -0.1960  0.9662
  470TMC3    C5 6995   0.984   0.326   0.762  0.0843 -0.1758  0.4430
  470TMC3    C6 6996   0.920   0.441   0.727 -0.0603 -0.4801 -0.4321
  470TMC3     C 6997   0.755   0.070   0.629  0.2981  0.0851  0.5550
  470TMC3     O 6998   0.776   4.694   0.698  0.0733  0.0165  0.2101
  470TMC3     H 6999   0.640   0.295   0.615  0.3273 -2.6142 -0.3809
  470TMC3    H1 7000   0.996   0.106   0.731  0.3008  0.0821 -0.9477
  470TMC3    H2 7001   0.975   0.532   0.745  0.3692 -0.9314  0.5433
  470TMC3    C7 7002   1.125   0.332   0.786 -0.1871 -0.9766 -0.2130
  470TMC3    C8 7003   0.720   0.547   0.656  0.1700  0.5251 -0.1958
  470TMC3    O1 7004   1.196   0.410   0.726 -0.6432  0.3572 -0.5404
  470TMC3    O2 7005   0.640   0.533   0.571 -0.0302  0.1329 -0.2139
  471MPD2     C 7006   1.474   1.842  16.871 -0.0297  0.6372  0.0036
  471MPD2    C1 7007   1.610   1.832  16.893 -0.2897  0.2128 -0.1074
  471MPD2    C2 7008   1.658   1.839  17.021  0.4283 -0.1495 -0.4064
  471MPD2    C3 7009   1.569   1.838  17.123  0.3633  0.0053  0.8958
  471MPD2    C4 7010   1.435   1.848  17.106 -0.7037  0.2382 -0.2488
  471MPD2    C5 7011   1.388   1.849  16.977  0.1725 -0.8706  0.6043
  471MPD2     H 7012   1.765   1.828  17.032  0.5816  0.0454 -1.7067
  471MPD2    H1 7013   1.371   1.828  17.192  0.7183  0.8419  0.9371
  471MPD2    H2 7014   1.434   1.823  16.772  1.7285  1.4034 -0.8420
  471MPD2    H3 7015   1.282   1.853  16.957  0.4057 -1.9908 -0.9313
  471MPD2     N 7016   1.616   1.803  17.251  0.2247  0.0471  0.4808
  471MPD2    H5 7017   1.540   1.781  17.315  1.3584  1.0025  2.1539
  471MPD2    N1 7018   1.702   1.798  16.785 -0.3642 -0.6679  1.0140
  471MPD2    H7 7019   1.801   1.813  16.800  0.5361 -4.3796 -1.3256
  472TMC3    C1 7020   1.773   1.738  16.565 -0.3305  0.4629  0.5394
  472TMC3    C2 7021   1.729   1.714  16.439  0.0473 -0.2265  0.2261
  472TMC3    C3 7022   1.775   1.608  16.367 -0.0014  0.0659 -0.7052
  472TMC3    C4 7023   1.865   1.648  16.616 -0.1375  0.4733 -0.2464
  472TMC3    C5 7024   1.909   1.540  16.545  0.7657  0.2640  0.0493
  472TMC3    C6 7025   1.864   1.522  16.422  0.6430 -0.1820  0.0015
  472TMC3     C 7026   1.671   1.801  16.648  0.2767 -0.1551 -0.0250
  472TMC3     O 7027   1.562   1.799  16.591  0.0573 -0.2416  0.0246
  472TMC3     H 7028   1.655   1.779  16.395 -0.4793  0.3561  1.9956
  472TMC3    H1 7029   1.903   1.661  16.717  0.0843  1.7418 -0.4833
  472TMC3    H2 7030   1.912   1.454  16.353  0.4167  0.3619 -0.6845
  472TMC3    C7 7031   1.938   1.423  16.631  0.1396  0.8948  0.5851
  472TMC3    C8 7032   1.682   1.541  16.277 -0.3882 -0.1167 -0.5349
  472TMC3    O1 7033   1.927   1.432  16.752  0.0972  0.1672 -0.2353
  472TMC3    O2 7034   1.723   1.458  16.196  0.5536 -0.7299 -0.2374
  473MPD2     C 7035   1.610   3.228  14.304  0.1154 -0.6622  0.2836
  473MPD2    C1 7036   1.529   3.329  14.252 -0.3831 -1.0806 -0.1569
  473MPD2    C2 7037   1.562   3.459  14.285  0.0123 -0.2877  0.3276
  473MPD2    C3 7038   1.668   3.489  14.373 -0.0137  0.3659 -0.3025
  473MPD2    C4 7039   1.748   3.389  14.424 -0.5845  0.0155  0.1446
  473MPD2    C5 7040   1.716   3.262  14.387 -0.5137  0.5391  0.8478
  473MPD2     H 7041   1.501   3.537  14.242 -0.1515  0.4668  1.9460
  473MPD2    H1 7042   1.828   3.404  14.496 -0.7160  0.1275  0.2653
  473MPD2    H2 7043   1.579   3.128  14.279 -0.9664 -0.3450  0.3608
  473MPD2    H3 7044   1.773   3.185  14.437 -1.4247  0.7363  2.2068
  473MPD2     N 7045   1.691   3.622  14.414 -0.2985 -0.1911  0.3605
  473MPD2    H5 7046   1.766   3.633  14.483  1.5513 -3.8001 -1.0759
  473MPD2    N1 7047   1.421   3.310  14.167 -0.5030  0.2554 -0.4712
  473MPD2    H7 7048   1.373   3.389  14.125 -0.4769  0.2286 -0.5520
  474TMC3    C1 7049   1.671   3.860  14.429  0.4114 -0.5208 -0.5831
  474TMC3    C2 7050   1.606   3.972  14.397 -0.2636 -0.6182 -0.7272
  474TMC3    C3 7051   1.678   4.090  14.406  0.0895 -0.5648  0.1824
  474TMC3    C4 7052   1.792   3.866  14.494  0.0894 -0.2375  0.1052
  474TMC3    C5 7053   1.844   3.988  14.525  0.3734 -0.2852 -0.4567
  474TMC3    C6 7054   1.798   4.101  14.469 -0.1664  0.4805  0.0717
  474TMC3     C 7055   1.631   3.734  14.365 -0.8322 -0.3360  0.8145
  474TMC3     O 7056   1.571   3.747  14.262 -1.0058 -0.3809 -0.2535
  474TMC3     H 7057   1.513   3.960  14.341 -0.8866  2.3585 -0.3181
  474TMC3    H1 7058   1.843   3.776  14.525  2.1214  0.5779 -0.8886
  474TMC3    H2 7059   1.842   4.199  14.486  1.4657  0.4327 -3.9419
  474TMC3    C7 7060   1.991   3.978  14.536  0.5655 -0.2040  0.3040
  474TMC3    C8 7061   1.644   4.169  14.285 -0.4655  0.5705  0.2761
  474TMC3    O1 7062   2.049   3.893  14.467  0.0485 -0.2725  0.5964
  474TMC3    O2 7063   1.536   4.145  14.235 -0.2942 -0.1209 -0.1496
  475MPD2     C 7064   4.518   2.163  10.635  0.0214  0.5261  0.0766
  475MPD2    C1 7065   4.496   2.123  10.500  0.2543 -0.0392  0.2231
  475MPD2    C2 7066   4.365   2.095  10.458  0.3824  0.6677  0.0312
  475MPD2    C3 7067   4.264   2.097  10.545  0.0455 -0.2227  0.4525
  475MPD2    C4 7068   4.287   2.134  10.680  0.2454 -0.1375 -0.4447
  475MPD2    C5 7069   4.411   2.166  10.723  0.4259  0.5179 -1.0243
  475MPD2     H 7070   4.335   2.070  10.357 -2.1563 -2.5956  1.6010
  475MPD2    H1 7071   4.216   2.136  10.762 -0.3826 -2.5697 -0.9355
  475MPD2    H2 7072   4.618   2.186  10.669 -0.7209  0.7589  2.1044
  475MPD2    H3 7073   4.417   2.198  10.827 -1.2552  3.0373 -1.7053
  475MPD2     N 7074   4.136   2.069  10.497  0.6497  0.5023 -0.4108
  475MPD2    H5 7075   4.132   2.044  10.399 -0.4769  0.8507 -0.4478
  475MPD2    N1 7076   4.615   2.110  10.419 -0.8799 -0.2440  0.7143
  475MPD2    H7 7077   4.703   2.129  10.466 -0.6347 -0.2812  0.2723
  476TMC3    C1 7078   0.026   2.041  10.229 -0.3044  0.2265  0.2596
  476TMC3    C2 7079   0.028   1.988  10.102 -0.6476 -0.1085 -0.5425
  476TMC3    C3 7080   0.149   1.952  10.058 -0.3732 -0.5117 -0.1600
  476TMC3    C4 7081   0.141   2.072  10.298 -0.4891  0.5049  0.7703
  476TMC3    C5 7082   0.262   2.035  10.245  0.2429  0.0803  0.4289
  476TMC3    C6 7083   0.269   1.974  10.125 -0.0778  0.4609 -0.5917
  476TMC3     C 7084   4.610   2.061  10.290  0.2834  0.0577  0.3517
  476TMC3     O 7085   4.515   2.039  10.216 -0.3583  0.2998  0.4340
  476TMC3     H 7086   4.661   1.994  10.042 -0.2990 -0.6106 -1.1099
  476TMC3    H1 7087   0.143   2.121  10.395  0.4180  1.3950  0.2891
  476TMC3    H2 7088   0.367   1.942  10.093  0.0580 -1.9425  2.1624
  476TMC3    C7 7089   0.378   2.049  10.335 -0.2970  0.3282 -0.0185
  476TMC3    C8 7090   0.171   1.895   9.924 -0.0580 -0.4505 -0.3912
  476TMC3    O1 7091   0.461   1.956  10.337 -0.2871  0.4357 -0.0934
  476TMC3    O2 7092   0.287   1.892   9.877  0.4906  0.1689  0.1649
  477MPD2     C 7093   2.433   3.630  11.582 -0.2920 -0.1936 -0.0092
  477MPD2    C1 7094   2.325   3.661  11.661 -0.7509 -0.4013 -0.6408
  477MPD2    C2 7095   2.337   3.663  11.801  0.3892 -0.8259  0.0783
  477MPD2    C3 7096   2.462   3.624  11.861 -0.8031 -0.1189 -0.2882
  477MPD2    C4 7097   2.564   3.583  11.778 -0.2446  0.6775  0.4183
  477MPD2    C5 7098   2.552   3.595  11.642  0.3677 -0.8766  0.2472
  477MPD2     H 7099   2.269   3.708  11.872  0.9057  1.7877 -1.0971
  477MPD2    H1 7100   2.656   3.540  11.814 -1.6876 -0.6847  2.4851
  477MPD2    H2 7101   2.421   3.619  11.475 -0.6335  2.7707 -0.2704
  477MPD2    H3 7102   2.634   3.559  11.581  1.0791  0.8771  0.1774
  477MPD2     N 7103   2.472   3.612  11.998 -0.6657  0.2203 -0.0995
  477MPD2    H5 7104   2.385   3.624  12.050 -0.5326  1.6302 -0.2236
  477MPD2    N1 7105   2.196   3.680  11.600 -0.4647 -0.5475  0.6558
  477MPD2    H7 7106   2.189   3.659  11.501 -1.4133  0.6327  0.4721
  478TMC3    C1 7107   1.963   3.737  11.575 -0.6686 -0.4393 -0.0475
  478TMC3    C2 7108   1.839   3.721  11.637  0.2350  0.6391  0.8935
  478TMC3    C3 7109   1.742   3.808  11.616  0.0564  0.0904 -0.2981
  478TMC3    C4 7110   1.978   3.825  11.468  0.3573 -0.2654 -0.2753
  478TMC3    C5 7111   1.864   3.901  11.446 -0.0069 -0.0342 -0.0984
  478TMC3    C6 7112   1.752   3.896  11.521 -0.1632  0.0524  0.4521
  478TMC3     C 7113   2.080   3.711  11.665 -0.5251 -0.7146 -0.0656
  478TMC3     O 7114   2.059   3.698  11.783 -0.8066  0.3485 -0.4981
  478TMC3     H 7115   1.828   3.651  11.719 -1.1551 -0.8984 -0.6053
  478TMC3    H1 7116   2.080   3.856  11.445  0.7239 -0.9243  0.4374
  478TMC3    H2 7117   1.670   3.961  11.494 -4.4792 -4.0629  3.6141
  478TMC3    C7 7118   1.876   3.994  11.337  0.2487  0.6936  0.0216
  478TMC3    C8 7119   1.616   3.797  11.686 -0.0185  0.3062  0.2059
  478TMC3    O1 7120   1.967   3.966  11.260 -0.4540  0.0831 -0.2294
  478TMC3    O2 7121   1.605   3.687  11.739  0.0082 -0.2993 -0.4393
  479MPD2     C 7122   1.452   0.661  14.925 -0.0245 -0.4231 -0.3275
  479MPD2    C1 7123   1.423   0.624  15.055  0.7658 -0.0183 -0.2860
  479MPD2    C2 7124   1.468   0.700  15.165 -0.6915  0.1091 -0.0739
  479MPD2    C3 7125   1.518   0.823  15.147 -0.3052 -0.0295 -0.0352
  479MPD2    C4 7126   1.564   0.856  15.023  0.3201  0.2783  0.1952
  479MPD2    C5 7127   1.528   0.777  14.914 -0.0507  1.1703 -0.2512
  479MPD2     H 7128   1.440   0.675  15.267 -2.4468 -1.8946 -1.0356
  479MPD2    H1 7129   1.614   0.952  15.012  1.7788 -0.5089  0.0448
  479MPD2    H2 7130   1.407   0.614  14.839  1.6983  0.1434 -1.5402
  479MPD2    H3 7131   1.554   0.820  14.817 -1.0610 -1.8435 -1.8475
  479MPD2     N 7132   1.529   0.918  15.252 -0.0210  0.5361 -0.4673
  479MPD2    H5 7133   1.605   0.981  15.230  1.3572 -0.7261  0.6449
  479MPD2    N1 7134   1.331   0.511  15.075 -0.1686  0.4735  0.2614
  479MPD2    H7 7135   1.285   0.465  14.997 -0.4371  0.1316  0.6211
  480TMC3    C1 7136   1.204   0.706  15.498  0.0328  0.0278  0.6681
  480TMC3    C2 7137   1.099   0.718  15.414  0.4804 -0.2808 -0.1387
  480TMC3    C3 7138   1.128   0.797  15.303 -0.5741 -0.1475  0.2715
  480TMC3    C4 7139   1.322   0.769  15.483 -0.0125 -0.5837 -1.0349
  480TMC3    C5 7140   1.335   0.866  15.386  0.0639 -0.1261  0.1546
  480TMC3    C6 7141   1.245   0.876  15.287 -0.5942 -0.7638  0.6717
  480TMC3     C 7142   1.194   0.621  15.614 -0.0677  0.3573  0.0007
  480TMC3     O 7143   1.296   0.586  15.671  0.0129  0.2131  0.1039
  480TMC3     H 7144   1.019   0.645  15.415  0.7277 -0.5614 -0.9704
  480TMC3    H1 7145   1.406   0.761  15.550 -2.5981  0.3824  2.2933
  480TMC3    H2 7146   1.255   0.946  15.205  0.4093 -0.0727  1.3966
  480TMC3    C7 7147   1.463   0.927  15.374  0.0237 -0.7244  0.2917
  480TMC3    C8 7148   1.045   0.782  15.186 -0.1420  0.2315 -0.9194
  480TMC3    O1 7149   1.490   1.011  15.460 -0.1225 -0.0668 -0.0412
  480TMC3    O2 7150   0.936   0.723  15.207  0.0664  0.2495  0.2933
  481MPD2     C 7151   3.116   0.348  13.895 -0.8037  0.0600  0.8607
  481MPD2    C1 7152   3.018   0.255  13.931  0.3519  0.3870 -0.3670
  481MPD2    C2 7153   3.003   0.212  14.060 -0.2798  0.4098 -0.6046
  481MPD2    C3 7154   3.077   0.270  14.159 -0.0689 -0.4163  0.8497
  481MPD2    C4 7155   3.172   0.366  14.131  0.5787  0.2063 -0.2069
  481MPD2    C5 7156   3.191   0.400  14.004 -0.4685  0.0036 -0.1363
  481MPD2     H 7157   2.937   0.129  14.082 -1.1925  1.2325 -0.2164
  481MPD2    H1 7158   3.244   0.393  14.207  0.3582 -0.0669  0.1003
  481MPD2    H2 7159   3.125   0.386  13.794  0.2591  0.5649  1.1389
  481MPD2    H3 7160   3.269   0.474  13.987  0.9505 -1.2062  1.1933
  481MPD2     N 7161   3.067   0.232  14.297 -0.2782 -0.5563  0.0474
  481MPD2    H5 7162   3.135   0.270  14.361 -3.0861  3.1480  0.8085
  481MPD2    N1 7163   2.940   0.210  13.820  0.4805  0.3723  0.4431
  481MPD2    H7 7164   2.953   0.260  13.732 -0.8025  1.1890  0.7088
  482TMC3    C1 7165   2.783   0.089  13.680 -0.0341  0.9186  0.0704
  482TMC3    C2 7166   2.676   0.010  13.663  0.3199  0.2828  0.0594
  482TMC3    C3 7167   2.642   4.703  13.535 -0.1651  0.0136 -0.2167
  482TMC3    C4 7168   2.865   0.135  13.578  0.5537  0.2955  0.3504
  482TMC3    C5 7169   2.822   0.101  13.453  0.0969  0.0774  0.3685
  482TMC3    C6 7170   2.717   0.015  13.427  0.3928  0.8605  0.3851
  482TMC3     C 7171   2.834   0.121  13.820  0.0986 -0.2006 -0.5056
  482TMC3     O 7172   2.789   0.062  13.915 -0.1621 -0.3705  0.1065
  482TMC3     H 7173   2.634   4.689  13.752 -0.3057  1.3911  0.3178
  482TMC3    H1 7174   2.954   0.197  13.586  1.5627 -1.1145 -0.1177
  482TMC3    H2 7175   2.678   4.716  13.328  1.1259 -0.4070  0.3931
  482TMC3    C7 7176   2.886   0.189  13.354 -0.6705  0.3266  0.4048
  482TMC3    C8 7177   2.512   4.641  13.501 -0.0346  0.8204  0.0574
  482TMC3    O1 7178   2.989   0.253  13.375 -0.8326 -1.0315 -0.2440
  482TMC3    O2 7179   2.509   4.588  13.392  0.7209 -0.3478  0.4697
  483TMC3    C1 7180   0.795   4.200   1.172  0.1129 -1.1608  0.1106
  483TMC3    C2 7181   0.873   4.251   1.068 -0.1361  0.2612  0.0322
  483TMC3    C3 7182   1.004   4.277   1.099 -0.3033  0.2964  0.2217
  483TMC3    C4 7183   0.850   4.153   1.289 -0.1538  0.2929  0.3385
  483TMC3    C5 7184   0.985   4.158   1.300 -0.1811  1.0270  0.2602
  483TMC3    C6 7185   1.064   4.229   1.211  0.3939 -0.5603  0.4461
  483TMC3     C 7186   0.653   4.166   1.155 -0.9176 -0.7347 -0.8325
  483TMC3     O 7187   0.593   4.094   1.233 -0.2193 -0.2936  0.4568
  483TMC3     H 7188   0.833   4.282   0.972 -1.7243  2.4818  1.4073
  483TMC3    H1 7189   0.777   4.110   1.357  1.7834 -0.6141  1.8313
  483TMC3    H2 7190   1.155   4.276   1.246  0.5479  0.4183 -1.2820
  483TMC3    C7 7191   1.069   4.070   1.377  1.0911  0.4371 -0.2000
  483TMC3    C8 7192   1.067   4.372   1.009 -0.0713  0.0921 -0.6391
  483TMC3    O1 7193   1.182   4.049   1.338  0.2600  0.0033 -0.0011
  483TMC3    O2 7194   0.990   4.449   0.951  0.1682  0.1560  0.0039
  484MPD2     C 7195   3.671   2.433  12.763  0.3741  0.2017 -0.3779
  484MPD2    C1 7196   3.656   2.304  12.708  0.3251  0.3447 -0.0214
  484MPD2    C2 7197   3.767   2.230  12.664  0.7106 -0.5944  0.5465
  484MPD2    C3 7198   3.894   2.284  12.688  0.4754 -0.3881  0.0085
  484MPD2    C4 7199   3.902   2.408  12.743 -0.0532 -0.8194 -0.6321
  484MPD2    C5 7200   3.793   2.486  12.777 -0.2045  0.1790 -0.0766
  484MPD2     H 7201   3.756   2.131  12.621  1.1505 -0.4764  0.1587
  484MPD2    H1 7202   3.999   2.455  12.747 -1.0091  1.2563 -2.3249
  484MPD2    H2 7203   3.587   2.495  12.791 -0.5172 -1.8539  1.4976
  484MPD2    H3 7204   3.807   2.586  12.815 -0.1161  0.1569 -0.0506
  484MPD2     N 7205   4.017   2.218  12.648 -0.0015  0.0961 -0.6081
  484MPD2    H5 7206   4.104   2.270  12.651 -0.3077  0.5921 -0.4231
  484MPD2    N1 7207   3.522   2.249  12.703  0.0891 -0.0742 -0.5140
  484MPD2    H7 7208   3.443   2.297  12.745  0.7061  0.1863  0.3686
  485TMC3    C1 7209   4.162   2.052  12.571  0.1829  1.0661  0.1437
  485TMC3    C2 7210   4.195   1.924  12.579  0.0611 -0.5053 -0.4097
  485TMC3    C3 7211   4.306   1.878  12.518 -0.0282 -0.1807  0.2049
  485TMC3    C4 7212   4.238   2.135  12.499  0.4602  0.6628 -0.4796
  485TMC3    C5 7213   4.353   2.096  12.438 -0.2161  0.1595 -0.6568
  485TMC3    C6 7214   4.389   1.965  12.452 -0.0286 -0.4069 -0.3955
  485TMC3     C 7215   4.029   2.089  12.607  0.4320 -0.2074  0.0451
  485TMC3     O 7216   3.954   1.995  12.626 -0.3456  0.1868  0.1698
  485TMC3     H 7217   4.127   1.855  12.628 -0.1100 -0.4597 -0.5851
  485TMC3    H1 7218   4.194   2.228  12.465  3.2534  1.4140 -2.0625
  485TMC3    H2 7219   4.477   1.926  12.404  0.7336 -0.7869  1.2994
  485TMC3    C7 7220   4.362   2.137  12.301 -1.5824 -0.0817 -0.2000
  485TMC3    C8 7221   4.296   1.762  12.447  0.2845  0.7247  0.2396
  485TMC3    O1 7222   4.376   2.255  12.282 -0.8592 -0.7811  0.2065
  485TMC3    O2 7223   4.333   1.774  12.332 -0.0290 -0.1503  0.4027
  486MPD2     C 7224   0.598   1.144  13.280 -0.2200 -0.1184  0.1525
  486MPD2    C1 7225   0.557   1.175  13.149  0.6668 -0.3482 -0.2819
  486MPD2    C2 7226   0.583   1.301  13.103 -0.9268 -0.1774 -0.2248
  486MPD2    C3 7227   0.647   1.397  13.181 -0.2800  0.4676 -0.1859
  486MPD2    C4 7228   0.691   1.358  13.307 -0.1418  0.6635 -0.4207
  486MPD2    C5 7229   0.664   1.237  13.360  0.4580 -0.0358 -0.1148
  486MPD2     H 7230   0.558   1.319  12.999 -0.3596  2.2626  0.0478
  486MPD2    H1 7231   0.736   1.428  13.376  1.0397 -1.3745  0.8679
  486MPD2    H2 7232   0.578   1.057  13.341 -2.6500 -0.2239 -0.7983
  486MPD2    H3 7233   0.689   1.210  13.462 -0.9576 -1.7589 -0.2299
  486MPD2     N 7234   0.662   1.531  13.128  0.0615 -0.0263 -0.0809
  486MPD2    H5 7235   0.632   1.545  13.032 -1.5991 -1.4527  0.2383
  486MPD2    N1 7236   0.496   1.079  13.074 -0.2422  0.3953 -0.1002
  486MPD2    H7 7237   0.492   0.985  13.113  1.3370  0.5885  0.5101
  487TMC3    C1 7238   0.392   0.960  12.908 -0.8693  0.0013  0.1885
  487TMC3    C2 7239   0.257   0.948  12.886  0.2560 -0.0579 -0.2508
  487TMC3    C3 7240   0.208   0.821  12.870 -0.5345 -0.8416  0.4468
  487TMC3    C4 7241   0.466   0.855  12.941 -0.4419  0.6783 -0.0982
  487TMC3    C5 7242   0.409   0.734  12.939  0.2665 -0.0885  1.1380
  487TMC3    C6 7243   0.283   0.712  12.888 -0.1617  0.0816 -0.0163
  487TMC3     C 7244   0.427   1.091  12.958 -0.3019  0.0282  0.3960
  487TMC3     O 7245   0.405   1.191  12.890 -0.2426 -0.6284  0.0689
  487TMC3     H 7246   0.198   1.039  12.886 -0.3071 -0.4313  0.5349
  487TMC3    H1 7247   0.574   0.865  12.947 -0.1668 -2.4249  0.4831
  487TMC3    H2 7248   0.234   0.616  12.900  0.8649 -0.5659 -1.0664
  487TMC3    C7 7249   0.462   0.651  13.046 -0.7241  0.6415 -0.3392
  487TMC3    C8 7250   0.083   0.800  12.929 -0.1118  0.0135 -0.3333
  487TMC3    O1 7251   0.548   0.702  13.116  0.2351  0.1298 -0.2052
  487TMC3    O2 7252   0.049   0.887  13.010 -0.5255  0.1236  0.2465
  488MPD2     C 7253   1.328   2.716  16.888 -0.6987 -0.2201 -0.6300
  488MPD2    C1 7254   1.285   2.847  16.877 -0.3005 -0.3993  0.3977
  488MPD2    C2 7255   1.233   2.904  16.995  0.2942 -0.3610  0.2535
  488MPD2    C3 7256   1.220   2.837  17.111  0.5722 -0.0449 -1.0885
  488MPD2    C4 7257   1.275   2.706  17.126 -0.3113  0.5381  0.5165
  488MPD2    C5 7258   1.329   2.656  17.012  0.3485  0.3131  0.0163
  488MPD2     H 7259   1.194   3.004  16.985  1.2723  0.1450  1.5414
  488MPD2    H1 7260   1.273   2.644  17.214  0.3016  0.3212  0.3753
  488MPD2    H2 7261   1.368   2.659  16.805  3.1523 -2.1692  2.5385
  488MPD2    H3 7262   1.352   2.551  17.026 -1.2590 -0.0473 -0.1159
  488MPD2     N 7263   1.150   2.891  17.215 -0.1267 -0.9643  0.2876
  488MPD2    H5 7264   1.134   2.990  17.200 -1.4794 -1.0109  1.3652
  488MPD2    N1 7265   1.291   2.922  16.757  0.0303  0.5574  0.0960
  488MPD2    H7 7266   1.272   3.021  16.767 -2.6485  0.0357  0.2413
  489TMC3    C1 7267   0.988   2.898  17.387  0.5993 -0.0651  0.1776
  489TMC3    C2 7268   0.977   3.030  17.362  0.3149  0.8723 -0.2001
  489TMC3    C3 7269   0.861   3.091  17.400 -0.1815 -0.7172 -0.6710
  489TMC3    C4 7270   0.895   2.820  17.446 -0.1629  0.8321 -0.6103
  489TMC3    C5 7271   0.778   2.890  17.474 -0.7805 -0.8683 -0.0294
  489TMC3    C6 7272   0.756   3.018  17.440  0.5093 -0.2962  0.6329
  489TMC3     C 7273   1.103   2.828  17.330  0.6993  0.1640  0.0708
  489TMC3     O 7274   1.129   2.716  17.371  0.0572 -0.3012 -0.4402
  489TMC3     H 7275   1.060   3.097  17.341  1.3286 -0.5174 -0.5871
  489TMC3    H1 7276   0.909   2.712  17.444 -1.7115  0.6304 -0.8755
  489TMC3    H2 7277   0.657   3.058  17.456 -0.6562 -2.0110 -2.2742
  489TMC3    C7 7278   0.666   2.797  17.468  0.8134  0.1082 -0.2533
  489TMC3    C8 7279   0.820   3.208  17.331 -0.4517 -0.1463 -0.2329
  489TMC3    O1 7280   0.563   2.848  17.423 -0.2257 -0.0582 -0.1402
  489TMC3    O2 7281   0.703   3.242  17.345 -0.6813  0.4856 -0.3617
  490MPD2     C 7282   1.630   2.692   0.148  0.4242  0.1394  0.0998
  490MPD2    C1 7283   1.729   2.604   0.102 -0.0356 -0.1928 -0.3836
  490MPD2    C2 7284   1.858   2.635   0.141  0.3719  0.3956 -0.5759
  490MPD2    C3 7285   1.891   2.734   0.231  0.3780  0.5315  0.7462
  490MPD2    C4 7286   1.798   2.828   0.257  0.5210  0.4867 -0.0698
  490MPD2    C5 7287   1.668   2.800   0.221 -0.0376  0.0861  0.4754
  490MPD2     H 7288   1.939   2.574   0.102  0.5846 -0.9375  1.9493
  490MPD2    H1 7289   1.818   2.914   0.319  0.5914 -0.5728  1.3816
  490MPD2    H2 7290   1.523   2.687   0.131  0.3131  0.0328  0.8249
  490MPD2    H3 7291   1.583   2.862   0.249 -0.2889  0.2811 -0.6994
  490MPD2     N 7292   2.025   2.756   0.271  0.3644 -0.4917  0.2846
  490MPD2    H5 7293   2.036   2.832   0.338  2.2085 -0.5642  0.0597
  490MPD2    N1 7294   1.705   2.500   0.009 -0.4956 -0.0084 -0.1066
  490MPD2    H7 7295   1.781   2.435  17.686  0.1591  0.1508  1.9523
  491TMC3    C1 7296   1.584   2.321  17.629 -0.5070 -0.3942  0.9099
  491TMC3    C2 7297   1.649   2.241   0.026  0.6196 -0.4644 -0.3247
  491TMC3    C3 7298   1.647   2.107   0.017  0.1440 -0.0705 -0.6596
  491TMC3    C4 7299   1.495   2.268  17.544  0.0851 -0.5986  0.1017
  491TMC3    C5 7300   1.501   2.132  17.528 -0.3115 -0.3210  0.6522
  491TMC3    C6 7301   1.582   2.047  17.606  0.5551  0.3690 -0.2295
  491TMC3     C 7302   1.585   2.463  17.656  0.6154  0.9694  0.5209
  491TMC3     O 7303   1.479   2.524  17.650  0.5731 -0.0566 -0.3228
  491TMC3     H 7304   1.696   2.283   0.113  0.5165  2.5172 -1.7003
  491TMC3    H1 7305   1.431   2.335  17.487  0.3454  0.1221  0.6621
  491TMC3    H2 7306   1.583   1.939  17.600 -1.3920  0.2144  2.1553
  491TMC3    C7 7307   1.406   2.061  17.451 -0.2176 -0.3277 -0.0085
  491TMC3    C8 7308   1.611   2.051   0.141  0.7545  0.1146  0.5000
  491TMC3    O1 7309   1.404   1.940  17.441  0.2022  0.7714 -0.1299
  491TMC3    O2 7310   1.551   2.124   0.217 -0.7585 -0.1103 -0.7049
  492MPD2     C 7311   2.180   2.529  11.910  0.2647 -0.8588 -0.0456
  492MPD2    C1 7312   2.068   2.495  11.839 -0.1464  0.3627 -0.0188
  492MPD2    C2 7313   1.958   2.445  11.901  0.0175  0.4348  0.2173
  492MPD2    C3 7314   1.973   2.406  12.033  0.1496  0.7063 -0.2959
  492MPD2    C4 7315   2.087   2.424  12.099  0.2320  0.0966 -1.1060
  492MPD2    C5 7316   2.199   2.479  12.040 -0.2719  0.1434  0.0523
  492MPD2     H 7317   1.860   2.427  11.858  0.6280 -1.7055 -0.3327
  492MPD2    H1 7318   2.105   2.385  12.198  3.6116  1.6679 -1.0941
  492MPD2    H2 7319   2.252   2.591  11.858 -1.0647  0.4989 -0.2374
  492MPD2    H3 7320   2.290   2.499  12.095 -1.0311  2.9766  0.3106
  492MPD2     N 7321   1.878   2.335  12.105  0.5864  0.1850 -0.1334
  492MPD2    H5 7322   1.896   2.321  12.204  0.2207  1.0645  0.0639
  492MPD2    N1 7323   2.074   2.522  11.700  0.1858  0.1548  0.0876
  492MPD2    H7 7324   2.165   2.530  11.655 -0.2557  0.0200 -0.8338
  493TMC3    C1 7325   2.023   2.509  11.467 -0.4826 -0.0236 -0.0849
  493TMC3    C2 7326   2.082   2.621  11.416  0.1199 -0.3778  0.1029
  493TMC3    C3 7327   2.099   2.630  11.281  0.3379  0.4016  0.7574
  493TMC3    C4 7328   1.986   2.403  11.384 -0.4450  0.1667  0.3858
  493TMC3    C5 7329   2.009   2.415  11.251  0.2140  0.2418 -0.4574
  493TMC3    C6 7330   2.058   2.525  11.199  0.1914  0.0521 -0.0787
  493TMC3     C 7331   1.977   2.499  11.608 -0.0556  0.0359  0.1815
  493TMC3     O 7332   1.856   2.468  11.631 -0.1208  0.4215  0.5673
  493TMC3     H 7333   2.091   2.704  11.485  1.1287  0.6644 -1.2863
  493TMC3    H1 7334   1.940   2.314  11.425  2.3799 -2.0626 -1.2932
  493TMC3    H2 7335   2.051   2.537  11.091 -0.5411 -2.6398 -0.3218
  493TMC3    C7 7336   1.975   2.310  11.166 -0.0769 -0.1797 -0.3726
  493TMC3    C8 7337   2.085   2.766  11.232  0.1690  1.0813 -0.0750
  493TMC3    O1 7338   1.948   2.336  11.050 -0.1869 -0.4298 -0.9622
  493TMC3    O2 7339   2.052   2.852  11.311 -0.1497 -0.2610 -0.2536
  494TMC3    C1 7340   2.792   4.371   0.698 -0.6611 -0.2247 -0.1287
  494TMC3    C2 7341   2.765   4.238   0.698 -0.0871  0.3375  0.1847
  494TMC3    C3 7342   2.774   4.172   0.582 -0.1093  0.3686 -0.3179
  494TMC3    C4 7343   2.814   4.442   0.583 -0.0663  0.6264 -0.3943
  494TMC3    C5 7344   2.821   4.370   0.474  0.4535 -0.6065 -0.3936
  494TMC3    C6 7345   2.802   4.235   0.465  0.2223 -0.3544  0.0520
  494TMC3     C 7346   2.709   4.432   0.798  0.1930  0.5434  0.9069
  494TMC3     O 7347   2.654   4.362   0.887 -0.1685 -0.7304  0.6075
  494TMC3     H 7348   2.747   4.176   0.785  0.1284  1.1919  0.8370
  494TMC3    H1 7349   2.863   4.539   0.577 -1.8700  1.5299 -0.3318
  494TMC3    H2 7350   2.794   4.190   0.366 -0.9974 -1.0883  0.4827
  494TMC3    C7 7351   2.884   4.423   0.354  0.9138  0.5067  0.5005
  494TMC3    C8 7352   2.790   4.031   0.583 -0.2345 -0.5931  0.6078
  494TMC3    O1 7353   2.950   4.339   0.291  0.9478 -0.0101 -0.4960
  494TMC3    O2 7354   2.844   3.970   0.676  0.4728  0.5311  0.3445
  495TMC3    C1 7355   1.516   0.854  14.279 -0.3066  0.4054 -0.6302
  495TMC3    C2 7356   1.433   0.890  14.177  0.0804  0.0082  0.5660
  495TMC3    C3 7357   1.305   0.925  14.206  0.3897 -0.6770  0.0319
  495TMC3    C4 7358   1.470   0.858  14.404  0.3644  0.4511 -0.0671
  495TMC3    C5 7359   1.333   0.888  14.433 -0.3389  0.2599 -0.1015
  495TMC3    C6 7360   1.252   0.924  14.330 -0.1021  0.5592 -0.2040
  495TMC3     C 7361   1.568   0.722  14.258  0.3691 -0.2122  1.1107
  495TMC3     O 7362   1.504   0.649  14.184  0.6809 -0.1479  0.5001
  495TMC3     H 7363   1.472   0.868  14.078  0.5195 -0.5169  0.8554
  495TMC3    H1 7364   1.534   0.825  14.485 -0.9772  1.1916  1.2943
  495TMC3    H2 7365   1.147   0.938  14.349  0.4185  0.6881  2.5573
  495TMC3    C7 7366   1.282   0.855  14.567  0.5885 -0.2058  0.1865
  495TMC3    C8 7367   1.227   0.943  14.091 -0.5046 -0.6006 -0.1199
  495TMC3    O1 7368   1.369   0.860  14.653 -0.2651 -0.2019 -0.0053
  495TMC3    O2 7369   1.288   0.959  13.987 -0.0524 -0.0961  0.0055
  496MPD2     C 7370   2.933   1.100  15.066 -0.0557  0.3583 -0.9051
  496MPD2    C1 7371   3.050   1.042  15.107 -0.3343  0.3974  0.2818
  496MPD2    C2 7372   3.042   0.964  15.220 -0.4332 -0.4320  0.4014
  496MPD2    C3 7373   2.930   0.956  15.300 -0.1271 -0.2960 -0.0597
  496MPD2    C4 7374   2.816   1.017  15.265 -0.3926 -0.4262 -0.4516
  496MPD2    C5 7375   2.822   1.090  15.142  0.1255  1.1745 -0.0366
  496MPD2     H 7376   3.135   0.921  15.256 -1.6264 -2.7225  0.7246
  496MPD2    H1 7377   2.725   1.015  15.323  2.0944  0.0090  3.4622
  496MPD2    H2 7378   2.930   1.162  14.977 -2.2530  1.6566  0.0605
  496MPD2    H3 7379   2.735   1.147  15.112  1.1930  1.7795 -1.9978
  496MPD2     N 7380   2.925   0.884  15.419  0.4497  0.6338 -0.6638
  496MPD2    H5 7381   2.834   0.860  15.456  0.6822  2.3165  0.9680
  496MPD2    N1 7382   3.164   1.052  15.023 -0.4676 -0.7276  0.1789
  496MPD2    H7 7383   3.143   1.082  14.929  1.8082 -0.4848 -0.2684
  497TMC3    C1 7384   3.002   0.727  15.561 -0.3561  0.2891 -0.1333
  497TMC3    C2 7385   2.936   0.625  15.500  0.1264 -0.6697  0.2395
  497TMC3    C3 7386   2.898   0.521  15.585 -0.4058  0.2032 -0.3748
  497TMC3    C4 7387   3.050   0.716  15.688  0.0071  0.1422  0.3194
  497TMC3    C5 7388   3.009   0.616  15.766  0.7814 -0.5181 -0.3942
  497TMC3    C6 7389   2.924   0.516  15.719 -0.4112  0.6619  0.2526
  497TMC3     C 7390   3.035   0.843  15.484 -0.1819 -0.5228 -0.8425
  497TMC3     O 7391   3.151   0.871  15.475  0.1090 -0.3324 -0.4631
  497TMC3     H 7392   2.912   0.639  15.395  0.5205 -1.0476  0.0994
  497TMC3    H1 7393   3.110   0.795  15.732 -0.5736  0.8473 -0.1617
  497TMC3    H2 7394   2.887   0.432  15.777 -0.2706 -1.0405 -2.1384
  497TMC3    C7 7395   2.988   0.651  15.911  0.3255 -0.7732  0.0615
  497TMC3    C8 7396   2.815   0.417  15.518 -0.0509  0.2667  0.0947
  497TMC3    O1 7397   2.896   0.592  15.969  0.0950  0.2243  1.6052
  497TMC3    O2 7398   2.799   0.320  15.589  0.3591 -0.4299  0.3777
  498MPD2     C 7399   0.229   1.997   9.187  0.5894  0.4637 -0.0683
  498MPD2    C1 7400   0.121   2.057   9.246  0.0622  0.1840 -0.1214
  498MPD2    C2 7401   4.716   2.007   9.234 -0.0221  1.2020 -1.1191
  498MPD2    C3 7402   4.694   1.888   9.162 -0.5146 -1.0740 -0.0721
  498MPD2    C4 7403   0.083   1.825   9.101  0.0343 -0.1873  0.2638
  498MPD2    C5 7404   0.208   1.880   9.118 -1.2534 -0.1568  0.0570
  498MPD2     H 7405   4.632   2.047   9.289  0.9658  2.3164 -0.4232
  498MPD2    H1 7406   0.069   1.743   9.031  1.3220  0.3571 -0.6316
  498MPD2    H2 7407   0.332   2.019   9.209  0.8238 -1.5799  0.9277
  498MPD2    H3 7408   0.295   1.827   9.081 -0.6223  0.3640  0.8220
  498MPD2     N 7409   4.560   1.845   9.160  0.4041 -0.3731  0.2559
  498MPD2    H5 7410   4.492   1.892   9.218  0.8356 -1.5787  1.7504
  498MPD2    N1 7411   0.133   2.161   9.337 -0.0998 -0.0774  0.0923
  498MPD2    H7 7412   0.048   2.190   9.386 -0.6109  0.8968 -1.3868
  499TMC3    C1 7413   0.219   2.332   9.466 -0.3953  0.0940  0.2340
  499TMC3    C2 7414   0.322   2.366   9.543 -0.2661 -0.0124 -0.0595
  499TMC3    C3 7415   0.303   2.474   9.620 -0.0193  0.2718  0.6336
  499TMC3    C4 7416   0.090   2.396   9.470  0.5355  0.3390 -0.1166
  499TMC3    C5 7417   0.082   2.504   9.549 -0.1984 -0.5135  0.0727
  499TMC3    C6 7418   0.190   2.551   9.617 -0.8508  0.1868 -0.7766
  499TMC3     C 7419   0.247   2.219   9.376 -0.5979  0.3896  0.4031
  499TMC3     O 7420   0.368   2.198   9.355  0.6872 -0.0071  0.0420
  499TMC3     H 7421   0.402   2.294   9.556 -1.1489 -1.0846 -0.5259
  499TMC3    H1 7422   0.014   2.372   9.397 -0.9816 -0.5065  1.7236
  499TMC3    H2 7423   0.183   2.649   9.663 -1.8642 -0.5056  0.5353
  499TMC3    C7 7424   4.692   2.588   9.554 -0.0861 -0.2458 -0.4223
  499TMC3    C8 7425   0.407   2.531   9.716  0.2397 -0.5791 -0.5896
  499TMC3    O1 7426   4.697   2.705   9.586  0.2853 -0.0021 -0.4340
  499TMC3    O2 7427   0.378   2.621   9.791  0.4825 -0.0777  0.0049
  500MPD2     C 7428   0.876   3.621  10.484 -1.0652  0.6701 -0.1233
  500MPD2    C1 7429   0.856   3.680  10.363  0.8953  1.2677 -0.7790
  500MPD2    C2 7430   0.754   3.631  10.284 -0.0849  0.1142 -0.0605
  500MPD2    C3 7431   0.698   3.501  10.304  0.2841 -0.6106  0.1003
  500MPD2    C4 7432   0.726   3.442  10.422 -0.0242  0.0872  0.5300
  500MPD2    C5 7433   0.813   3.497  10.514  0.3550  0.3121  0.2639
  500MPD2     H 7434   0.719   3.678  10.193 -1.6989 -1.9122 -0.4841
  500MPD2    H1 7435   0.676   3.347  10.437 -0.9924  0.8273  2.0328
  500MPD2    H2 7436   0.940   3.661  10.562 -0.9573 -0.1053  0.1781
  500MPD2    H3 7437   0.819   3.452  10.612 -0.3151  1.4064  0.7939
  500MPD2     N 7438   0.596   3.444  10.213  0.3679  0.1454 -0.6090
  500MPD2    H5 7439   0.552   3.361  10.250  0.7318 -0.1399 -0.8053
  500MPD2    N1 7440   0.953   3.774  10.320  0.2968  0.1014  0.2755
  500MPD2    H7 7441   1.014   3.813  10.391  1.3550  2.5275 -1.9804
  501TMC3    C1 7442   1.087   3.903  10.196 -0.0136 -0.1277 -0.1657
  501TMC3    C2 7443   1.091   4.042  10.198 -0.4679 -0.2289  0.2896
  501TMC3    C3 7444   1.214   4.102  10.211  0.1700 -0.1053  0.0287
  501TMC3    C4 7445   1.194   3.824  10.231 -0.2379  0.1706  0.1970
  501TMC3    C5 7446   1.306   3.892  10.252  0.1129  0.1229  0.1410
  501TMC3    C6 7447   1.322   4.027  10.247 -0.0601 -0.2710  0.2945
  501TMC3     C 7448   0.955   3.848  10.208  1.0910  0.0459 -0.3429
  501TMC3     O 7449   0.869   3.863  10.126  0.4248 -0.0318  0.6179
  501TMC3     H 7450   1.005   4.105  10.178  0.7934  1.7587  1.0747
  501TMC3    H1 7451   1.186   3.718  10.256 -1.2526  0.0176 -0.7685
  501TMC3    H2 7452   1.421   4.071  10.261  0.5656 -0.8042 -2.4778
  501TMC3    C7 7453   1.416   3.817  10.319 -0.1189 -0.4885 -0.7805
  501TMC3    C8 7454   1.218   4.212  10.300  1.4205 -1.4122 -0.1391
  501TMC3    O1 7455   1.470   3.868  10.415 -0.5607 -0.7884  0.4481
  501TMC3    O2 7456   1.302   4.201  10.388 -0.2844 -0.6229 -0.0283
  502TMC3    C1 7457   0.762   1.568  15.595  0.7744  0.4580 -0.6500
  502TMC3    C2 7458   0.777   1.690  15.529 -0.6870  0.0077 -0.9591
  502TMC3    C3 7459   0.702   1.722  15.421  0.6017 -0.3828 -0.9336
  502TMC3    C4 7460   0.678   1.474  15.548  0.0949  0.1660 -0.2434
  502TMC3    C5 7461   0.601   1.512  15.444 -0.3592  0.5703  0.9470
  502TMC3    C6 7462   0.601   1.635  15.376 -0.0840 -0.0127  0.3248
  502TMC3     C 7463   0.820   1.549  15.722  0.0693  0.1291 -0.6171
  502TMC3     O 7464   0.928   1.609  15.744  0.9119 -0.0186  0.3804
  502TMC3     H 7465   0.844   1.761  15.577 -1.4219 -0.5121  0.8398
  502TMC3    H1 7466   0.666   1.379  15.600  0.2834 -0.3502 -1.1368
  502TMC3    H2 7467   0.537   1.667  15.295  1.1251 -0.2514 -0.7189
  502TMC3    C7 7468   0.481   1.430  15.435  0.2476 -0.0799  0.4743
  502TMC3    C8 7469   0.690   1.864  15.380 -0.8975  0.2638  0.0887
  502TMC3    O1 7470   0.498   1.320  15.481  0.2788 -0.0036 -0.3241
  502TMC3    O2 7471   0.649   1.886  15.268  0.2271  0.5376 -0.2839
  503MPD2     C 7472   3.008   3.332  17.092 -0.0404  0.4914 -0.3863
  503MPD2    C1 7473   2.954   3.330  17.217 -0.4291 -0.1262 -0.4639
  503MPD2    C2 7474   3.011   3.244  17.311 -0.3363  0.3020 -0.5588
  503MPD2    C3 7475   3.097   3.146  17.270  0.0934 -0.3108 -0.0960
  503MPD2    C4 7476   3.145   3.145  17.140  0.4752 -0.7661 -0.0717
  503MPD2    C5 7477   3.101   3.246  17.057 -0.7638 -0.2670 -0.5475
  503MPD2     H 7478   2.977   3.240  17.414 -1.6272 -1.1409 -1.0370
  503MPD2    H1 7479   3.217   3.071  17.108 -0.8950 -1.7332 -0.9265
  503MPD2    H2 7480   2.964   3.407  17.027 -3.7949  0.5614  2.2552
  503MPD2    H3 7481   3.151   3.259  16.961 -2.2335 -1.4392 -1.4643
  503MPD2     N 7482   3.131   3.043  17.358 -0.1372  0.3792  0.6031
  503MPD2    H5 7483   3.124   3.067  17.456  1.0913  0.2176  0.7288
  503MPD2    N1 7484   2.843   3.408  17.248 -0.0544  0.1247 -0.2362
  503MPD2    H7 7485   2.840   3.428  17.347 -1.6733 -0.2753 -0.2156
  504TMC3    C1 7486   3.185   2.837  17.437  0.1186  0.6129 -0.0164
  504TMC3    C2 7487   3.281   2.882  17.529  0.2398 -0.0065 -0.0014
  504TMC3    C3 7488   3.335   2.796  17.617 -0.3369 -0.5170  0.3399
  504TMC3    C4 7489   3.159   2.706  17.417 -0.6854  0.0343 -0.5245
  504TMC3    C5 7490   3.220   2.620  17.511 -0.4697  0.3021  0.2966
  504TMC3    C6 7491   3.308   2.662  17.607 -0.2304  0.3366 -0.0072
  504TMC3     C 7492   3.168   2.917  17.326 -0.0187  0.1062 -0.6120
  504TMC3     O 7493   3.172   2.859  17.217 -0.0365 -0.2643 -0.0558
  504TMC3     H 7494   3.320   2.982  17.512 -3.2871  1.9452  3.3655
  504TMC3    H1 7495   3.096   2.667  17.337 -0.7345 -0.7516 -0.1074
  504TMC3    H2 7496   3.328   2.595  17.689  1.2108  1.9951  0.9903
  504TMC3    C7 7497   3.269   2.510  17.434  0.0774 -0.1603 -0.0285
  504TMC3    C8 7498   3.423   2.854   0.017 -0.0715  0.0009  0.1219
  504TMC3    O1 7499   3.247   2.516  17.312 -0.7493  0.0831  0.1614
  504TMC3    O2 7500   3.507   2.941  17.677  0.0408  0.2125  0.0235
  505MPD2     C 7501   3.228   1.620   9.410  0.4014  0.2002 -0.1986
  505MPD2    C1 7502   3.241   1.550   9.532  0.7895  0.4925 -0.7321
  505MPD2    C2 7503   3.252   1.628   9.649  0.6267  0.6919  0.6982
  505MPD2    C3 7504   3.284   1.762   9.639 -0.1661  0.2311 -0.9394
  505MPD2    C4 7505   3.268   1.827   9.517 -0.4070 -0.5155 -0.4289
  505MPD2    C5 7506   3.228   1.755   9.408  0.7410 -0.0649 -0.4615
  505MPD2     H 7507   3.249   1.573   9.742 -0.5225 -0.2058  0.1303
  505MPD2    H1 7508   3.284   1.934   9.511  1.1286 -0.6185  1.9955
  505MPD2    H2 7509   3.222   1.574   9.311  1.5679 -1.4991  0.5115
  505MPD2    H3 7510   3.193   1.791   9.312  2.3930  1.4709 -0.4986
  505MPD2     N 7511   3.342   1.835   9.741  0.2779 -0.1930  0.1086
  505MPD2    H5 7512   3.386   1.925   9.724  0.5474 -0.5535 -1.1198
  505MPD2    N1 7513   3.245   1.412   9.524  0.3133  0.1161  0.0764
  505MPD2    H7 7514   3.244   1.374   9.430  4.2232 -0.9173  0.4420
  506TMC3    C1 7515   3.299   1.193   9.599 -0.0395  0.2996 -0.6235
  506TMC3    C2 7516   3.395   1.178   9.495  0.4575  0.7157  0.2570
  506TMC3    C3 7517   3.484   1.079   9.512  0.5078  0.7570  0.5798
  506TMC3    C4 7518   3.295   1.120   9.707  0.1289  0.6262 -0.4733
  506TMC3    C5 7519   3.388   1.022   9.723 -0.3481  0.1242 -0.0048
  506TMC3    C6 7520   3.484   1.001   9.631 -0.3195 -0.0761 -0.7278
  506TMC3     C 7521   3.270   1.334   9.630  0.5192 -0.1621  0.3319
  506TMC3     O 7522   3.257   1.356   9.750 -0.1598 -0.0898 -0.1477
  506TMC3     H 7523   3.409   1.251   9.416 -0.8582 -0.1474 -0.7764
  506TMC3    H1 7524   3.214   1.137   9.777  1.0541 -0.2541  0.8006
  506TMC3    H2 7525   3.558   0.926   9.657 -0.1937  0.3183  0.0610
  506TMC3    C7 7526   3.443   1.044   9.857  0.3858 -0.1585 -0.1679
  506TMC3    C8 7527   3.598   1.063   9.425  0.0770  0.3775 -0.1247
  506TMC3    O1 7528   3.526   0.962   9.895 -0.2164 -0.7563 -0.5874
  506TMC3    O2 7529   3.656   0.957   9.437  0.4966 -0.4727  0.0120
  507TMC3    C1 7530   4.071   1.916  15.030  0.7306  0.4429 -0.2769
  507TMC3    C2 7531   4.061   1.827  14.930  0.5332 -0.4650 -0.6806
  507TMC3    C3 7532   4.107   1.867  14.806  0.0398 -0.6761 -0.0632
  507TMC3    C4 7533   4.124   2.045  15.015  0.2352  0.4157 -0.1717
  507TMC3    C5 7534   4.162   2.078  14.888  0.1199 -0.4287  0.4842
  507TMC3    C6 7535   4.155   1.990  14.786 -0.3832 -0.1327 -0.4895
  507TMC3     C 7536   4.033   1.874  15.161 -0.6065 -0.3137 -0.4941
  507TMC3     O 7537   4.082   1.925  15.254  0.4486 -1.0033  0.2826
  507TMC3     H 7538   4.024   1.726  14.940  0.2674 -0.4142 -1.1285
  507TMC3    H1 7539   4.133   2.111  15.100 -0.5128  0.8937 -0.4656
  507TMC3    H2 7540   4.191   2.023  14.689 -0.0762  4.0944  1.0433
  507TMC3    C7 7541   4.065   2.180  14.849 -0.6678  0.0882  0.1476
  507TMC3    C8 7542   4.032   1.810  14.701 -0.8461 -0.1938 -0.2171
  507TMC3    O1 7543   4.007   2.160  14.743  0.1267  0.1962 -0.1077
  507TMC3    O2 7544   4.004   1.689  14.717  0.8658 -0.9515  0.0078
  508MPD2     C 7545   4.630   4.554  16.867  0.5130  0.7766 -0.0419
  508MPD2    C1 7546   0.040   4.555  16.846 -0.7862  0.0690  0.3331
  508MPD2    C2 7547   0.093   4.567  16.724  0.0363 -0.5874 -0.3068
  508MPD2    C3 7548   0.009   4.578  16.614  0.1950 -0.2969 -0.7986
  508MPD2    C4 7549   4.597   4.581  16.633 -0.6018 -0.2751  0.2047
  508MPD2    C5 7550   4.544   4.563  16.762  0.4860  0.4420  0.4400
  508MPD2     H 7551   0.199   4.556  16.706  0.2629 -0.1418  0.7382
  508MPD2    H1 7552   4.521   4.601  16.558 -1.1696 -1.0351  0.5792
  508MPD2    H2 7553   4.595   4.551  16.969  1.6026  0.4778  0.3249
  508MPD2    H3 7554   4.436   4.561  16.772  0.4994  2.1585  0.9002
  508MPD2     N 7555   0.066   4.602  16.484  0.2907 -0.0603 -0.5694
  508MPD2    H5 7556   0.164   4.629  16.477  0.3280  0.0878  0.4328
  508MPD2    N1 7557   0.125   4.515  16.952  0.3787 -0.0413  0.0550
  508MPD2    H7 7558   0.072   4.470  17.026  1.4867 -1.5685 -0.0761
  509TMC3    C1 7559   0.002   0.057  16.061 -0.0176 -1.7188 -0.5027
  509TMC3    C2 7560   0.137   0.100  16.052 -0.4059  0.6422 -0.7198
  509TMC3    C3 7561   0.220   0.047  16.145 -0.4436 -0.2549  0.4751
  509TMC3    C4 7562   4.683   4.703  16.166 -0.7858  0.1426  0.7865
  509TMC3    C5 7563   0.051   4.651  16.249  0.1734  0.1377 -0.2733
  509TMC3    C6 7564   0.186   4.685  16.247 -0.4978 -0.0217 -0.1964
  509TMC3     C 7565   4.617   0.123  15.982  0.2526  0.7409 -0.0471
  509TMC3     O 7566   4.508   0.148  16.033 -0.0416  0.5845 -0.3780
  509TMC3     H 7567   0.164   0.183  15.987 -0.0832  0.8019 -0.3777
  509TMC3    H1 7568   4.578   4.683  16.184 -0.6535  0.8001  2.3548
  509TMC3    H2 7569   0.263   4.665  16.322 -0.4257 -0.7865 -0.4750
  509TMC3    C7 7570   4.714   4.597  16.370 -0.3368  0.0742 -0.4174
  509TMC3    C8 7571   0.349   0.111  16.148 -0.0207  0.1523 -0.9977
  509TMC3    O1 7572   4.612   4.535  16.346 -0.5164 -0.3723 -0.0968
  509TMC3    O2 7573   0.446   0.036  16.137  0.4387 -0.0035  0.5221
  510MPD2     C 7574   2.514   1.345  14.798  0.1576 -0.9419 -0.3632
  510MPD2    C1 7575   2.555   1.215  14.821 -0.3507  0.1512  0.2328
  510MPD2    C2 7576   2.662   1.163  14.751  0.0880 -0.0702 -0.6824
  510MPD2    C3 7577   2.722   1.229  14.646 -0.2121 -0.6277  0.2704
  510MPD2    C4 7578   2.666   1.347  14.612  0.1081 -0.6750 -0.1025
  510MPD2    C5 7579   2.569   1.408  14.686  0.4094 -0.0765 -0.0435
  510MPD2     H 7580   2.698   1.063  14.773  0.0389 -0.5455 -2.6791
  510MPD2    H1 7581   2.697   1.403  14.524  0.4801 -0.6469  0.0465
  510MPD2    H2 7582   2.426   1.386  14.845 -0.2847 -0.6493 -1.4524
  510MPD2    H3 7583   2.529   1.507  14.666 -1.5003 -0.8822 -0.2567
  510MPD2     N 7584   2.827   1.172  14.573  0.0837  0.2352  0.4037
  510MPD2    H5 7585   2.858   1.083  14.611 -2.4475 -0.0892  1.7059
  510MPD2    N1 7586   2.492   1.148  14.930  0.3493  0.7537  0.0368
  510MPD2    H7 7587   2.422   1.195  14.986  1.5212  1.4598  0.9015
  511TMC3    C1 7588   2.428   0.962  15.072 -0.3729  0.4076  0.1373
  511TMC3    C2 7589   2.353   1.045  15.152 -0.1337  0.1420  0.2560
  511TMC3    C3 7590   2.265   0.991  15.243  0.4374 -0.2613 -0.0253
  511TMC3    C4 7591   2.407   0.830  15.077 -0.2434 -0.1244  0.0094
  511TMC3    C5 7592   2.313   0.777  15.165  0.0573  0.1545  0.0517
  511TMC3    C6 7593   2.246   0.852  15.258 -0.1337  0.3363  0.3398
  511TMC3     C 7594   2.508   1.018  14.964  0.5000  0.0490  0.5224
  511TMC3     O 7595   2.574   0.931  14.909 -0.5616 -0.0646  0.5409
  511TMC3     H 7596   2.357   1.153  15.151 -0.7103  0.1434 -1.5049
  511TMC3    H1 7597   2.471   0.761  15.023  0.8427  2.9902 -2.6847
  511TMC3    H2 7598   2.174   0.812  15.328 -0.4418  1.2775  0.5590
  511TMC3    C7 7599   2.256   0.656  15.118  0.3406 -0.1412 -0.4041
  511TMC3    C8 7600   2.187   1.085  15.323 -0.0152 -0.3347 -0.7798
  511TMC3    O1 7601   2.268   0.624  15.000 -0.4379  0.0878 -0.3145
  511TMC3    O2 7602   2.230   1.201  15.333 -0.4933 -0.1329  0.2343
  512TMC3    C1 7603   1.736   1.147  13.078 -0.1268  0.2813 -0.3704
  512TMC3    C2 7604   1.857   1.083  13.094 -0.6605  0.3132  0.0831
  512TMC3    C3 7605   1.861   0.947  13.104  0.1024 -0.0032 -0.4497
  512TMC3    C4 7606   1.633   1.073  13.030 -0.7632  0.7498 -0.1075
  512TMC3    C5 7607   1.648   0.934  13.019 -0.4857 -0.3558  0.1701
  512TMC3    C6 7608   1.759   0.867  13.065  0.2114  0.2843  0.6290
  512TMC3     C 7609   1.727   1.291  13.091 -0.0679 -0.4954 -0.0915
  512TMC3     O 7610   1.827   1.360  13.096  0.4109  0.0435 -0.5075
  512TMC3     H 7611   1.942   1.146  13.120 -3.7231  4.1306  0.7598
  512TMC3    H1 7612   1.536   1.116  13.007 -1.5969 -0.9176  0.2419
  512TMC3    H2 7613   1.771   0.760  13.070 -1.2932  0.2302  3.4007
  512TMC3    C7 7614   1.534   0.862  12.970  0.3393  0.0033  0.0831
  512TMC3    C8 7615   1.971   0.888  13.178  0.2637  0.4244 -0.2727
  512TMC3    O1 7616   1.446   0.927  12.919  0.2981  0.6152 -0.4627
  512TMC3    O2 7617   1.965   0.768  13.186  0.4589  0.7357 -0.1540
  513MPD2     C 7618   3.227   0.372  12.410  0.2373  0.1385  0.2736
  513MPD2    C1 7619   3.328   0.452  12.365  0.4524  0.4189 -0.4115
  513MPD2    C2 7620   3.357   0.554  12.451  0.6248  0.7268 -0.2963
  513MPD2    C3 7621   3.297   0.582  12.572  0.6791  0.0131 -0.3672
  513MPD2    C4 7622   3.199   0.494  12.612  0.0884  0.2976 -0.1836
  513MPD2    C5 7623   3.165   0.392  12.527  0.3031  0.2921 -0.0017
  513MPD2     H 7624   3.449   0.605  12.424  0.9357 -0.3751 -1.2843
  513MPD2    H1 7625   3.152   0.501  12.709 -0.1612  1.5043 -0.3987
  513MPD2    H2 7626   3.195   0.287  12.350 -2.3745  0.2084  1.5527
  513MPD2    H3 7627   3.087   0.330  12.569  0.7657 -0.6707 -0.5757
  513MPD2     N 7628   3.342   0.687  12.650 -0.6129 -0.0830 -0.3662
  513MPD2    H5 7629   3.417   0.742  12.609 -0.2135 -1.1478 -1.0808
  513MPD2    N1 7630   3.417   0.424  12.260 -0.3583 -0.5062  0.3684
  513MPD2    H7 7631   3.486   0.496  12.243 -1.4928  0.4215 -0.2597
  514TMC3    C1 7632   3.524   0.317  12.094 -0.9911 -0.0569 -0.0210
  514TMC3    C2 7633   3.484   0.350  11.971  0.0760  0.3970  0.5933
  514TMC3    C3 7634   3.524   0.466  11.909  0.7810 -0.7358 -0.3400
  514TMC3    C4 7635   3.621   0.388  12.146 -0.7194  0.3104 -0.3341
  514TMC3    C5 7636   3.679   0.492  12.083  0.9084  0.5591 -0.6645
  514TMC3    C6 7637   3.621   0.541  11.969  0.4877  0.4245  0.5223
  514TMC3     C 7638   3.410   0.310  12.183  0.2777 -0.2293  0.1764
  514TMC3     O 7639   3.318   0.234  12.160  0.0346  0.2541 -0.2985
  514TMC3     H 7640   3.399   0.299  11.927  2.7465 -2.3947 -1.3141
  514TMC3    H1 7641   3.647   0.380  12.251  3.0688 -3.4030 -1.5545
  514TMC3    H2 7642   3.665   0.627  11.919  0.5556 -1.1196 -2.0841
  514TMC3    C7 7643   3.726   0.596  12.170  0.5622 -0.7222 -0.0927
  514TMC3    C8 7644   3.478   0.500  11.772  0.5239 -0.2441  0.1774
  514TMC3    O1 7645   3.663   0.700  12.180 -0.6818 -0.5413 -0.0595
  514TMC3    O2 7646   3.384   0.430  11.733 -0.5540  0.4728 -0.3453
  515MPD2     C 7647   1.094   2.219  15.235  0.4444 -0.9435 -1.1793
  515MPD2    C1 7648   1.165   2.199  15.123  0.1818  0.2191 -0.1413
  515MPD2    C2 7649   1.295   2.248  15.103 -0.3760 -0.0832 -0.0523
  515MPD2    C3 7650   1.358   2.309  15.216  0.3599  0.7855  0.0328
  515MPD2    C4 7651   1.275   2.342  15.320  0.5395  0.0792 -0.2765
  515MPD2    C5 7652   1.147   2.300  15.328  0.1073 -0.3318 -0.3942
  515MPD2     H 7653   1.352   2.216  15.017 -0.7897  2.1854 -1.1972
  515MPD2    H1 7654   1.318   2.398  15.403  3.1170 -0.7357 -1.0469
  515MPD2    H2 7655   0.995   2.177  15.244 -0.1050  0.2855 -1.4219
  515MPD2    H3 7656   1.091   2.329  15.416 -0.4421 -1.7750 -0.2670
  515MPD2     N 7657   1.490   2.345  15.223  0.6494 -0.3501  0.4995
  515MPD2    H5 7658   1.516   2.380  15.314 -0.1739 -2.8714  1.7054
  515MPD2    N1 7659   1.111   2.130  15.012 -0.5108  0.6031  0.5532
  515MPD2    H7 7660   1.175   2.102  14.939  0.0694  0.3006  1.1842
  516TMC3    C1 7661   0.937   2.025  14.885  0.8264 -0.2179  0.3125
  516TMC3    C2 7662   1.017   2.018  14.773  0.3535  0.8913  0.5341
  516TMC3    C3 7663   0.966   1.939  14.668  0.1473  0.3893  0.7240
  516TMC3    C4 7664   0.812   1.978  14.892  0.0264 -0.5566 -0.1811
  516TMC3    C5 7665   0.765   1.893  14.793 -0.2485  0.1127  0.3772
  516TMC3    C6 7666   0.849   1.864  14.692  0.1105  0.2092  0.6543
  516TMC3     C 7667   0.976   2.114  14.990  0.3532  0.0193 -0.1617
  516TMC3     O 7668   0.881   2.157  15.061  0.5621  1.1775  0.3719
  516TMC3     H 7669   1.117   2.058  14.761  0.9346 -0.8216 -0.2294
  516TMC3    H1 7670   0.747   1.998  14.976 -0.3511  0.2973 -0.6831
  516TMC3    H2 7671   0.798   1.827  14.604  1.1546 -0.4183  0.3061
  516TMC3    C7 7672   0.687   1.787  14.844 -0.5066 -0.3090 -0.0529
  516TMC3    C8 7673   1.020   1.928  14.530 -0.7174  0.1326 -0.4745
  516TMC3    O1 7674   0.710   1.674  14.793 -0.1644 -0.3663 -0.4574
  516TMC3    O2 7675   0.979   1.831  14.463  0.4939  0.4663 -0.7120
  517MPD2     C 7676   0.779   4.412  17.554  0.5115  0.0685 -0.3261
  517MPD2    C1 7677   0.909   4.381  17.587 -0.1233 -0.7623 -0.4057
  517MPD2    C2 7678   0.971   4.468  17.668  0.4790 -0.5234  0.2754
  517MPD2    C3 7679   0.907   4.585   0.019 -0.2410 -0.2554 -0.5717
  517MPD2    C4 7680   0.783   4.621  17.664 -0.2715  0.7546 -0.4189
  517MPD2    C5 7681   0.718   4.532  17.581  0.1728  0.0755 -0.0251
  517MPD2     H 7682   1.064   4.428   0.010  1.2602 -1.2049 -2.3710
  517MPD2    H1 7683   0.731   4.714  17.685 -2.0597  0.1852 -2.3078
  517MPD2    H2 7684   0.727   4.345  17.485 -0.3907  1.4993 -1.0287
  517MPD2    H3 7685   0.616   4.557  17.552  0.5979  1.6039 -0.2012
  517MPD2     N 7686   0.967   4.671   0.112 -0.0061 -0.0605 -0.5715
  517MPD2    H5 7687   0.920   0.036   0.125 -0.0201  0.0374 -1.3169
  517MPD2    N1 7688   0.979   4.262  17.554 -0.3043 -0.2734 -0.1478
  517MPD2    H7 7689   1.068   4.254  17.602  1.0323 -0.2122 -2.5878
  518TMC3    C1 7690   1.019   4.044  17.473 -0.4171  0.6472  0.1692
  518TMC3    C2 7691   0.956   3.920  17.479 -0.2236  0.3596 -0.8056
  518TMC3    C3 7692   1.029   3.808  17.457 -0.5426 -0.0534 -0.3230
  518TMC3    C4 7693   1.154   4.064  17.444 -0.1798 -0.0951  1.1589
  518TMC3    C5 7694   1.213   3.948  17.401  0.4215 -0.0031  0.5778
  518TMC3    C6 7695   1.161   3.825  17.422 -0.0031  0.4371  0.0708
  518TMC3     C 7696   0.926   4.149  17.493 -0.5086  0.4039 -0.3592
  518TMC3     O 7697   0.809   4.122  17.485 -0.1854  0.6769  0.0527
  518TMC3     H 7698   0.853   3.913  17.512  0.8116  1.4850  2.6585
  518TMC3    H1 7699   1.200   4.162  17.444  0.0969 -0.2234  1.3961
  518TMC3    H2 7700   1.218   3.733  17.413  0.6122  0.7600  0.6547
  518TMC3    C7 7701   1.359   3.954  17.373 -0.8187  0.7314  0.2794
  518TMC3    C8 7702   0.986   3.677  17.498  0.5013 -0.7235 -0.1810
  518TMC3    O1 7703   1.399   4.071  17.380  0.4242  0.1942  0.7444
  518TMC3    O2 7704   1.072   3.589  17.494 -1.0981 -0.0127  0.0053
  519MPD2     C 7705   2.890   2.136  14.763  0.2389 -0.3274  0.2160
  519MPD2    C1 7706   2.789   2.078  14.692  0.5136  0.2406  0.1457
  519MPD2    C2 7707   2.802   1.956  14.639 -0.3661 -0.2263  0.0624
  519MPD2    C3 7708   2.921   1.889  14.662 -0.4800 -0.2826 -0.3073
  519MPD2    C4 7709   3.022   1.953  14.730 -0.3049  1.2846 -0.0209
  519MPD2    C5 7710   3.007   2.075  14.788  0.0417  0.2594  1.0001
  519MPD2     H 7711   2.718   1.920  14.581 -0.4901 -1.2779  0.9040
  519MPD2    H1 7712   3.119   1.906  14.741 -0.4470  1.1595  0.6410
  519MPD2    H2 7713   2.885   2.235  14.806 -2.1619  0.0824 -1.0349
  519MPD2    H3 7714   3.089   2.124  14.840  3.1387 -3.9990  0.1585
  519MPD2     N 7715   2.950   1.774  14.591  0.7478  0.0664  0.1545
  519MPD2    H5 7716   3.046   1.743  14.581  1.3909  2.3374 -0.8325
  519MPD2    N1 7717   2.677   2.166  14.665  0.1174  0.2755 -0.2831
  519MPD2    H7 7718   2.678   2.256  14.713  0.3977 -0.0259  0.2744
  520TMC3    C1 7719   2.916   1.637  14.401 -0.1509  0.2955 -0.1339
  520TMC3    C2 7720   2.856   1.681  14.290  0.3179 -0.2977  0.0301
  520TMC3    C3 7721   2.926   1.675  14.171  0.7927 -0.4662 -0.0913
  520TMC3    C4 7722   3.046   1.585  14.405  0.9838  0.6581 -0.1784
  520TMC3    C5 7723   3.108   1.590  14.285 -0.6152  0.5896 -0.4816
  520TMC3    C6 7724   3.049   1.619  14.160  0.4719  0.5697 -0.1104
  520TMC3     C 7725   2.860   1.698  14.522  0.5944 -0.4318  0.4523
  520TMC3     O 7726   2.742   1.693  14.547  0.2498 -0.2641  0.1773
  520TMC3     H 7727   2.764   1.735  14.312  0.1456  0.1492 -1.7733
  520TMC3    H1 7728   3.101   1.561  14.495  0.7362 -0.4652 -0.3214
  520TMC3    H2 7729   3.100   1.606  14.065  1.2109  1.3468  0.1865
  520TMC3    C7 7730   3.236   1.528  14.276 -0.3078  0.9375  0.7506
  520TMC3    C8 7731   2.864   1.719  14.051  0.0441 -0.1148 -1.0119
  520TMC3    O1 7732   3.253   1.427  14.345 -0.2100 -0.4427 -0.4447
  520TMC3    O2 7733   2.927   1.714  13.947 -0.1272 -0.2465 -0.3997
  521MPD2     C 7734   3.639   0.963  17.172 -0.6199  0.7276  0.4822
  521MPD2    C1 7735   3.651   0.865  17.085 -0.2896 -0.1419  0.2108
  521MPD2    C2 7736   3.772   0.835  17.023  0.1227  0.0046  0.5549
  521MPD2    C3 7737   3.886   0.895  17.064 -0.7009  0.1626 -0.1329
  521MPD2    C4 7738   3.877   1.001  17.149 -0.3239  0.6639 -0.6305
  521MPD2    C5 7739   3.754   1.032  17.204 -0.2407 -0.4116 -0.8983
  521MPD2     H 7740   3.776   0.767  16.939  1.4398 -1.7398  2.0181
  521MPD2    H1 7741   3.963   1.052  17.193 -0.8804  0.6418  0.4726
  521MPD2    H2 7742   3.549   0.982  17.230 -1.3139 -0.9309 -0.0529
  521MPD2    H3 7743   3.739   1.115  17.272  0.8032  0.1932 -1.3965
  521MPD2     N 7744   4.007   0.847  17.005  0.1115  0.8741  0.2556
  521MPD2    H5 7745   3.998   0.777  16.932  0.8476 -0.3336  1.3115
  521MPD2    N1 7746   3.528   0.797  17.051  0.1763  0.4489  0.4330
  521MPD2    H7 7747   3.450   0.826  17.109  1.0491  0.7506  1.4569
  522TMC3    C1 7748   4.230   0.827  16.948 -0.4666  0.0458  0.5042
  522TMC3    C2 7749   4.355   0.814  16.997 -0.4443 -0.6649  0.7206
  522TMC3    C3 7750   4.451   0.763  16.914  0.2344  0.2100 -0.3442
  522TMC3    C4 7751   4.193   0.786  16.825  0.3686  0.1188 -0.2425
  522TMC3    C5 7752   4.293   0.751  16.736 -0.0588  0.5395  0.0657
  522TMC3    C6 7753   4.420   0.728  16.784 -0.3964  0.8793 -0.1473
  522TMC3     C 7754   4.128   0.884  17.037  0.5167 -0.0956 -0.4981
  522TMC3     O 7755   4.166   0.960  17.127 -0.0182  0.9371  0.3479
  522TMC3     H 7756   4.373   0.854  17.096 -0.7131 -0.5705  0.7285
  522TMC3    H1 7757   4.100   0.819  16.781  0.8106  1.3354 -0.2415
  522TMC3    H2 7758   4.499   0.699  16.715 -1.2393 -1.7782  0.0031
  522TMC3    C7 7759   4.262   0.733  16.592 -0.1210  0.6207 -0.0531
  522TMC3    C8 7760   4.590   0.753  16.960  0.5139  0.2064 -0.0008
  522TMC3    O1 7761   4.356   0.743  16.516 -0.2851  0.4474 -0.0019
  522TMC3    O2 7762   4.613   0.829  17.049  0.1763 -0.2934  0.2718
  523MPD2     C 7763   1.372   0.931  10.360  0.3780  0.4706 -0.4178
  523MPD2    C1 7764   1.239   0.894  10.373 -0.0182 -0.0630 -0.2806
  523MPD2    C2 7765   1.138   0.971  10.318  0.2883  0.3128  0.2212
  523MPD2    C3 7766   1.176   1.101  10.276  0.0678  0.2987 -0.6678
  523MPD2    C4 7767   1.305   1.142  10.273  0.3279  0.0637  0.2031
  523MPD2    C5 7768   1.399   1.049  10.308  0.1797  0.3245 -0.4493
  523MPD2     H 7769   1.035   0.938  10.323  0.1031  0.3952 -3.0462
  523MPD2    H1 7770   1.336   1.237  10.234  0.2627  0.3341  0.8070
  523MPD2    H2 7771   1.454   0.867  10.389 -0.6565 -0.1541  1.1214
  523MPD2    H3 7772   1.502   1.078  10.289  0.6125 -0.7288  0.2775
  523MPD2     N 7773   1.080   1.206  10.259 -0.2912  0.4518  0.9688
  523MPD2    H5 7774   1.117   1.300  10.244  3.2810 -1.3949 -2.0932
  523MPD2    N1 7775   1.219   0.766  10.422 -0.4291  0.1038 -0.6775
  523MPD2    H7 7776   1.295   0.721  10.472  0.0261 -0.4903 -1.8836
  524TMC3    C1 7777   0.875   1.304  10.214  0.4018  0.2448 -0.1276
  524TMC3    C2 7778   0.765   1.307  10.131 -0.0688 -0.2525 -0.7077
  524TMC3    C3 7779   0.705   1.431  10.108 -0.3481 -0.2624  1.0848
  524TMC3    C4 7780   0.912   1.415  10.281 -0.2229  0.3919 -0.2504
  524TMC3    C5 7781   0.843   1.529  10.267 -0.0229  0.3305  0.9924
  524TMC3    C6 7782   0.738   1.536  10.183  0.1067  0.1250  0.4637
  524TMC3     C 7783   0.949   1.179  10.233 -0.0424  0.1301  0.5250
  524TMC3     O 7784   0.889   1.075  10.204  0.6791 -0.2408  0.0085
  524TMC3     H 7785   0.748   1.220  10.068  1.0885  0.9712 -2.7264
  524TMC3    H1 7786   0.994   1.417  10.352  1.3143  2.3283 -2.0565
  524TMC3    H2 7787   0.682   1.628  10.168  0.5164  0.5562  1.6067
  524TMC3    C7 7788   0.901   1.646  10.331 -0.5329 -0.5221 -1.4328
  524TMC3    C8 7789   0.576   1.423  10.045 -0.1602  0.0801  0.1908
  524TMC3    O1 7790   1.009   1.641  10.386  0.1644 -0.2616  0.8057
  524TMC3    O2 7791   0.567   1.337   9.963  0.2992 -0.1941 -0.2918
  525MPD2     C 7792   4.368   1.517  14.707 -0.0379 -0.0416  0.2533
  525MPD2    C1 7793   4.490   1.512  14.760  0.0701 -0.2297  0.0837
  525MPD2    C2 7794   4.588   1.597  14.713  0.8511  0.3720 -1.0075
  525MPD2    C3 7795   4.567   1.670  14.595  0.3628 -0.2072  0.9622
  525MPD2    C4 7796   4.444   1.674  14.543  0.5651  0.5768  0.6997
  525MPD2    C5 7797   4.337   1.598  14.601 -0.1499  0.6171  0.1980
  525MPD2     H 7798   4.688   1.592  14.755  0.8244  1.5814 -0.7965
  525MPD2    H1 7799   4.419   1.737  14.458  0.7973 -0.2970 -0.0163
  525MPD2    H2 7800   4.289   1.475  14.769 -1.2943 -0.7124 -1.7955
  525MPD2    H3 7801   4.232   1.607  14.575  0.4985  2.2964 -1.8348
  525MPD2     N 7802   4.656   1.760  14.536  0.3782 -0.0308 -0.2903
  525MPD2    H5 7803   4.628   1.805  14.449 -1.5390  1.9057  1.3107
  525MPD2    N1 7804   4.516   1.428  14.870  0.6369  0.6005  0.3197
  525MPD2    H7 7805   4.608   1.434  14.913  0.7517  2.3334 -0.1875
  526TMC3    C1 7806   4.490   1.261  15.038 -0.9074  0.4106 -0.0821
  526TMC3    C2 7807   4.418   1.258  15.149 -0.5284 -0.3718  0.8154
  526TMC3    C3 7808   4.476   1.199  15.257 -0.1823  0.1953 -0.0451
  526TMC3    C4 7809   4.615   1.202  15.027  0.1911 -0.4155  0.3854
  526TMC3    C5 7810   4.665   1.135  15.131 -0.3309 -0.5262 -0.2418
  526TMC3    C6 7811   4.609   1.151  15.257 -0.6909  0.2302  0.2490
  526TMC3     C 7812   4.432   1.336  14.928 -0.2914 -0.5254  0.4450
  526TMC3     O 7813   4.326   1.290  14.886 -0.7859  0.4841 -0.5119
  526TMC3     H 7814   4.327   1.317  15.154  0.6750  1.4812  0.8454
  526TMC3    H1 7815   4.651   1.188  14.926 -2.4766 -0.2261 -0.5871
  526TMC3    H2 7816   4.659   1.109  15.343 -1.6552 -0.4376  0.4888
  526TMC3    C7 7817   0.040   1.028  15.112 -0.4944  0.9289 -0.2675
  526TMC3    C8 7818   4.407   1.204  15.387  0.2835 -0.1202 -0.0849
  526TMC3    O1 7819   0.117   1.004  15.208 -0.3684  0.3478 -0.1274
  526TMC3    O2 7820   4.475   1.205  15.491 -0.2702 -0.2333 -0.4901
  527MPD2     C 7821   2.130   0.291   1.356 -0.1372  0.3018 -0.7183
  527MPD2    C1 7822   2.151   0.178   1.431  0.0719 -0.3550 -0.1311
  527MPD2    C2 7823   2.270   0.105   1.424 -0.1554 -0.4709 -0.1527
  527MPD2    C3 7824   2.365   0.150   1.335  0.5999 -0.1831  0.4084
  527MPD2    C4 7825   2.343   0.263   1.261  0.0456  0.0100  0.2235
  527MPD2    C5 7826   2.225   0.335   1.265 -0.4176  0.3119  0.0544
  527MPD2     H 7827   2.281   0.008   1.470 -0.2833 -0.2208  0.4084
  527MPD2    H1 7828   2.416   0.287   1.184 -1.0417  0.0585 -0.7853
  527MPD2    H2 7829   2.041   0.353   1.366 -1.9717 -2.1047 -2.2663
  527MPD2    H3 7830   2.218   0.421   1.199  1.0143 -0.9655 -1.7733
  527MPD2     N 7831   2.479   0.072   1.318  0.3027  0.4180 -0.3232
  527MPD2    H5 7832   2.460   4.706   1.362 -0.9066  2.2121  2.8282
  527MPD2    N1 7833   2.057   0.124   1.519  0.6578  0.1535 -0.4951
  527MPD2    H7 7834   2.088   0.047   1.578 -0.3536 -0.0948 -0.2836
  528TMC3    C1 7835   1.863   0.107   1.641 -0.1922  0.4027  0.4453
  528TMC3    C2 7836   1.930   0.028   1.733  0.7683 -0.0415 -0.4995
  528TMC3    C3 7837   1.859   4.672   1.822  0.8843 -0.2180 -0.2728
  528TMC3    C4 7838   1.729   0.095   1.629  0.2512 -0.2361 -0.0455
  528TMC3    C5 7839   1.658   0.015   1.718 -0.7290  0.6524  0.2868
  528TMC3    C6 7840   1.720   4.659   1.811 -0.0230 -0.7368  0.2964
  528TMC3     C 7841   1.937   0.183   1.546 -0.5715  0.0894 -0.2937
  528TMC3     O 7842   1.879   0.284   1.502  0.2075 -0.3192 -0.9036
  528TMC3     H 7843   2.038   0.025   1.736  0.7815  1.3968  0.6976
  528TMC3    H1 7844   1.676   0.152   1.554  2.0351 -0.8162 -1.7298
  528TMC3    H2 7845   1.662   4.602   1.883  1.3125 -1.4903  0.7854
  528TMC3    C7 7846   1.516   0.029   1.732 -0.1749 -0.0529 -0.0076
  528TMC3    C8 7847   1.929   4.593   1.914  0.2659 -0.5931  0.3054
  528TMC3    O1 7848   1.452   4.662   1.772  0.0920 -0.0465  0.4457
  528TMC3    O2 7849   2.054   4.608   1.917  0.0264  0.5640  0.2749
  529MPD2     C 7850   4.481   3.633   1.120  0.6642 -0.1708  0.8425
  529MPD2    C1 7851   4.558   3.550   1.041  0.4076 -0.0897 -0.0251
  529MPD2    C2 7852   4.580   3.586   0.908  0.3283  0.2874 -0.0261
  529MPD2    C3 7853   4.520   3.698   0.848  0.3380 -0.9553  0.1543
  529MPD2    C4 7854   4.465   3.791   0.931  0.2088  0.2415  0.8737
  529MPD2    C5 7855   4.442   3.754   1.065  0.7783  0.1910 -0.1580
  529MPD2     H 7856   4.629   3.508   0.850  0.2141 -0.1184  0.4227
  529MPD2    H1 7857   4.445   3.890   0.894  1.1426 -0.2037 -0.8209
  529MPD2    H2 7858   4.460   3.617   1.225  0.0700 -2.4657  0.3626
  529MPD2    H3 7859   4.394   3.827   1.130 -0.5808 -0.6481 -0.2263
  529MPD2     N 7860   4.531   3.727   0.712  0.0802  0.0076  0.3410
  529MPD2    H5 7861   4.493   3.815   0.680  0.6641 -0.0482 -0.4931
  529MPD2    N1 7862   4.620   3.428   1.083  0.3069  0.7585  0.7476
  529MPD2    H7 7863   4.664   3.375   1.009 -0.6586 -0.5286  1.1097
  530TMC3    C1 7864   4.704   3.270   1.244  0.0910 -0.1293  0.0697
  530TMC3    C2 7865   0.031   3.265   1.378 -0.2733 -0.6189  0.3464
  530TMC3    C3 7866   0.108   3.148   1.399  0.2101  0.1383  0.1684
  530TMC3    C4 7867   4.693   3.165   1.158  0.8440  0.6798  0.1375
  530TMC3    C5 7868   0.031   3.050   1.200  0.5690  0.9725  0.0498
  530TMC3    C6 7869   0.099   3.042   1.319 -0.6309  0.3647 -0.6427
  530TMC3     C 7870   4.623   3.391   1.221 -0.3856 -0.2311 -0.6140
  530TMC3     O 7871   4.585   3.455   1.321  0.0598 -0.0449  0.1580
  530TMC3     H 7872   0.040   3.349   1.446 -0.6532  0.1880 -0.5862
  530TMC3    H1 7873   4.664   3.175   1.054  2.0416 -1.7700 -0.4210
  530TMC3    H2 7874   0.135   2.945   1.353 -0.6034  0.3111 -0.8237
  530TMC3    C7 7875   0.004   2.925   1.136 -0.2861  0.3313 -0.0294
  530TMC3    C8 7876   0.179   3.142   1.527 -0.3001 -0.3806 -0.4075
  530TMC3    O1 7877   0.001   2.920   1.013  0.0493 -0.2427  0.6573
  530TMC3    O2 7878   0.149   3.228   1.606 -0.3713  0.2961 -0.1568
  531MPD2     C 7879   3.923   0.649  12.638  0.3522  1.1354  0.8861
  531MPD2    C1 7880   3.809   0.704  12.583  0.0463 -0.3563 -0.2189
  531MPD2    C2 7881   3.781   0.679  12.450 -0.3643  0.6345 -0.9903
  531MPD2    C3 7882   3.854   0.587  12.377 -0.3210  0.7605  0.1577
  531MPD2    C4 7883   3.963   0.529  12.442 -0.8462 -0.1438  0.1909
  531MPD2    C5 7884   4.001   0.564  12.567 -0.1912  0.3293 -0.0941
  531MPD2     H 7885   3.697   0.726  12.401  0.3814  3.3094  0.2896
  531MPD2    H1 7886   4.034   0.457  12.404 -1.2141 -0.5983  0.3679
  531MPD2    H2 7887   3.955   0.668  12.740  2.3264 -1.4467  0.7410
  531MPD2    H3 7888   4.088   0.516  12.611 -0.7975 -0.0201  0.7278
  531MPD2     N 7889   3.817   0.542  12.252 -0.3143  0.2034  0.5596
  531MPD2    H5 7890   3.875   0.465  12.219  0.9480  1.8945 -1.2217
  531MPD2    N1 7891   3.743   0.801  12.670 -0.3332 -0.0892  0.3919
  531MPD2    H7 7892   3.770   0.805  12.768  0.4640  3.3299  0.0218
  532TMC3    C1 7893   3.558   0.933  12.735 -0.0759  0.1211  0.3332
  532TMC3    C2 7894   3.426   0.903  12.718  0.7220 -0.3105 -0.4630
  532TMC3    C3 7895   3.370   0.840  12.826 -0.7657  0.4817  0.1611
  532TMC3    C4 7896   3.622   0.928  12.858 -0.0233 -0.1725  1.2419
  532TMC3    C5 7897   3.557   0.876  12.963  0.0921 -0.4364 -0.5329
  532TMC3    C6 7898   3.429   0.831  12.949 -0.8060  0.3732 -0.6684
  532TMC3     C 7899   3.641   0.883  12.628 -0.5834  0.2133  0.3809
  532TMC3     O 7900   3.581   0.873  12.521 -0.0762  0.1395  0.1216
  532TMC3     H 7901   3.373   0.938  12.630 -0.0906  0.9257  0.5201
  532TMC3    H1 7902   3.721   0.972  12.860 -0.3046  0.4203  1.8828
  532TMC3    H2 7903   3.379   0.783  13.032 -1.1388  1.9731  0.0621
  532TMC3    C7 7904   3.649   0.818  13.061 -0.5808 -0.0073 -0.1156
  532TMC3    C8 7905   3.313   0.718  12.782  1.0831 -0.2157  0.2511
  532TMC3    O1 7906   3.769   0.816  13.028  0.4622 -0.5300  0.1786
  532TMC3    O2 7907   3.241   0.663  12.862 -0.7302 -0.2796  0.3459
  533TMC3    C1 7908   0.087   1.936  14.530 -0.3715  0.2265 -0.3132
  533TMC3    C2 7909   0.218   1.974  14.578  0.1566  0.2276  0.3989
  533TMC3    C3 7910   0.223   2.106  14.624 -0.7028  0.1190 -0.4070
  533TMC3    C4 7911   4.706   2.023  14.546 -0.4197 -0.0612 -0.4374
  533TMC3    C5 7912   4.722   2.152  14.593  0.0384 -0.5870 -0.3130
  533TMC3    C6 7913   0.121   2.194  14.634 -0.4663 -0.1109 -0.7225
  533TMC3     C 7914   0.058   1.801  14.578  0.0697  0.3381  0.3510
  533TMC3     O 7915   0.125   1.761  14.673 -0.6536 -0.9448 -0.2409
  533TMC3     H 7916   0.302   1.905  14.585 -1.1437 -1.4297 -0.4631
  533TMC3    H1 7917   4.607   1.997  14.510 -0.5997 -0.0473  0.0331
  533TMC3    H2 7918   0.149   2.294  14.666 -0.2630 -0.5241  0.3865
  533TMC3    C7 7919   4.610   2.204  14.671 -1.1493 -0.5569  1.1724
  533TMC3    C8 7920   0.349   2.164  14.659  0.1889  0.7172  0.2195
  533TMC3    O1 7921   4.512   2.130  14.686  0.1825  0.0563  0.4474
  533TMC3    O2 7922   0.343   2.243  14.752  0.3438 -1.5948  0.1791
  534MPD2     C 7923   2.532   3.388   1.913 -0.2829  0.1008 -0.5091
  534MPD2    C1 7924   2.452   3.498   1.938  0.0015  0.3750 -0.8921
  534MPD2    C2 7925   2.316   3.486   1.943 -0.3386  0.2610  0.3443
  534MPD2    C3 7926   2.261   3.360   1.923  0.4786 -0.2073 -0.5187
  534MPD2    C4 7927   2.346   3.256   1.899 -0.8993  0.8488  0.5920
  534MPD2    C5 7928   2.473   3.264   1.906 -1.0266 -0.2944 -0.8208
  534MPD2     H 7929   2.250   3.572   1.955  0.9774  1.3791 -0.4082
  534MPD2    H1 7930   2.299   3.160   1.880 -1.1188  1.0065  0.3244
  534MPD2    H2 7931   2.639   3.388   1.898 -0.2272  1.8512 -0.0808
  534MPD2    H3 7932   2.535   3.176   1.892 -0.9386  0.0023 -2.1919
  534MPD2     N 7933   2.123   3.337   1.914 -0.4487 -0.0595 -0.0460
  534MPD2    H5 7934   2.114   3.246   1.871 -0.2007  0.3436 -0.9441
  534MPD2    N1 7935   2.509   3.632   1.947  0.2464 -0.4292  0.3786
  534MPD2    H7 7936   2.440   3.706   1.943  0.6910 -0.0332  0.0445
  535TMC3    C1 7937   1.889   3.377   1.883  0.6540 -0.2039  0.1991
  535TMC3    C2 7938   1.765   3.432   1.923  0.5555 -0.7333  0.8983
  535TMC3    C3 7939   1.660   3.427   1.834  0.9597 -0.9940 -0.7299
  535TMC3    C4 7940   1.908   3.326   1.756  0.2206 -0.5634  0.1744
  535TMC3    C5 7941   1.800   3.315   1.672  0.0896  0.6698 -0.4881
  535TMC3    C6 7942   1.675   3.359   1.716  0.7883 -0.6332 -0.1524
  535TMC3     C 7943   2.011   3.419   1.944  0.7110 -0.1885  0.1281
  535TMC3     O 7944   2.013   3.522   2.008 -0.1356 -0.3305  0.1427
  535TMC3     H 7945   1.761   3.493   2.013  0.5208  0.0514  0.3725
  535TMC3    H1 7946   2.001   3.291   1.714  1.0104 -0.5836  1.9304
  535TMC3    H2 7947   1.585   3.356   1.656 -1.2480  1.9763  2.7250
  535TMC3    C7 7948   1.803   3.274   1.534 -0.0022 -0.0853 -1.1135
  535TMC3    C8 7949   1.524   3.466   1.870 -0.1762  0.4856  0.8228
  535TMC3    O1 7950   1.905   3.303   1.476 -0.2977 -0.5427  0.1052
  535TMC3    O2 7951   1.446   3.492   1.778  0.1347  0.1249 -0.1842
  536MPD2     C 7952   0.506   1.127  17.004 -0.2706 -0.0215  1.0395
  536MPD2    C1 7953   0.542   1.261  16.996  0.5460  0.0392 -0.0082
  536MPD2    C2 7954   0.495   1.347  16.898  0.5315 -0.1807 -0.6800
  536MPD2    C3 7955   0.405   1.293  16.806  0.5193 -0.0085  0.5997
  536MPD2    C4 7956   0.368   1.163  16.815  0.4071  0.1674  0.2851
  536MPD2    C5 7957   0.411   1.081  16.917  0.0369  0.4669 -0.0832
  536MPD2     H 7958   0.525   1.450  16.885  0.3197  0.0066  0.3154
  536MPD2    H1 7959   0.288   1.128  16.750 -2.2795  0.5661  3.4049
  536MPD2    H2 7960   0.558   1.056  17.066 -1.2797 -1.2549  0.4765
  536MPD2    H3 7961   0.382   0.977  16.914  0.9126  0.2065  0.6580
  536MPD2     N 7962   0.364   1.355  16.680 -0.2389 -0.5026 -0.0967
  536MPD2    H5 7963   0.312   1.300  16.612 -1.0749  0.3497 -0.1369
  536MPD2    N1 7964   0.647   1.303  17.089 -0.4334 -0.1205  0.3759
  536MPD2    H7 7965   0.647   1.245  17.172 -0.2244  0.3549  0.7100
  537TMC3    C1 7966   0.799   1.455  17.210  0.6487  0.1841  0.2186
  537TMC3    C2 7967   0.864   1.582  17.212 -0.4272  0.1051 -0.0789
  537TMC3    C3 7968   0.959   1.592  17.307 -0.1990  0.9275 -0.0059
  537TMC3    C4 7969   0.817   1.359  17.300  0.5775  0.3266 -0.4313
  537TMC3    C5 7970   0.917   1.375  17.385 -0.0580 -0.3427 -0.5108
  537TMC3    C6 7971   0.995   1.493  17.388  0.2026 -0.1214 -0.1852
  537TMC3     C 7972   0.716   1.429  17.089 -0.3824 -1.2521 -0.4752
  537TMC3     O 7973   0.729   1.506  16.994  0.0036  0.1594 -0.1835
  537TMC3     H 7974   0.826   1.655  17.141 -1.6699 -1.3547 -0.9338
  537TMC3    H1 7975   0.767   1.263  17.306 -0.9834  1.2516  1.4383
  537TMC3    H2 7976   1.072   1.498  17.463  0.6928  0.0947 -0.7039
  537TMC3    C7 7977   0.922   1.296  17.504  0.5863 -0.5149  0.4626
  537TMC3    C8 7978   1.052   1.708  17.310 -0.4472  0.0933  0.0277
  537TMC3    O1 7979   1.029   1.299  17.561 -0.2530 -0.1335  0.5027
  537TMC3    O2 7980   1.152   1.694  17.374  0.1119  0.4131 -0.1102
  538TMC3    C1 7981   1.863   0.343  11.150 -0.2410 -0.3848  0.1540
  538TMC3    C2 7982   1.964   0.270  11.104 -0.0345 -0.7876 -0.0663
  538TMC3    C3 7983   2.027   0.317  10.992  0.1640  0.2549 -0.1197
  538TMC3    C4 7984   1.818   0.459  11.094 -0.0358 -0.2204  0.4785
  538TMC3    C5 7985   1.874   0.493  10.971 -0.5399 -0.3145  0.5876
  538TMC3    C6 7986   1.978   0.422  10.916 -0.2487  0.1899 -0.4105
  538TMC3     C 7987   1.783   0.288  11.252 -0.4135 -0.1325  0.5195
  538TMC3     O 7988   1.671   0.333  11.238 -1.0457 -0.0878  0.2311
  538TMC3     H 7989   1.982   0.169  11.140  2.2364 -0.5964 -0.6746
  538TMC3    H1 7990   1.741   0.521  11.138  1.0655  0.4579  1.4615
  538TMC3    H2 7991   2.025   0.455  10.824  0.8943  1.0570  0.4853
  538TMC3    C7 7992   1.786   0.560  10.880 -0.0808 -0.7644 -0.3924
  538TMC3    C8 7993   2.133   0.244  10.935  0.4975 -0.2922  0.2361
  538TMC3    O1 7994   1.832   0.632  10.791  0.0836 -0.0290  0.0487
  538TMC3    O2 7995   2.124   0.237  10.807 -0.0322  0.6858 -0.1687
  539MPD2     C 7996   1.355   3.819  11.826 -0.3145  0.3423 -0.1874
  539MPD2    C1 7997   1.430   3.931  11.781  0.0542  0.3363 -0.1434
  539MPD2    C2 7998   1.383   4.061  11.799  0.4572  0.6669  0.3545
  539MPD2    C3 7999   1.279   4.081  11.879  0.3193 -0.3234 -0.1941
  539MPD2    C4 8000   1.201   3.974  11.924  0.4322 -0.3974 -0.2193
  539MPD2    C5 8001   1.237   3.843  11.890 -0.0553  0.6111 -0.1347
  539MPD2     H 8002   1.441   4.142  11.756 -0.8608  1.4846  0.1365
  539MPD2    H1 8003   1.123   3.993  11.997  1.8012 -1.0090  1.4047
  539MPD2    H2 8004   1.388   3.716  11.818  0.4370  0.4633  1.4274
  539MPD2    H3 8005   1.191   3.753  11.929 -1.9297  1.7022  0.1758
  539MPD2     N 8006   1.224   4.213  11.909 -0.2482  0.2881 -0.3806
  539MPD2    H5 8007   1.135   4.221  11.958  0.5836 -0.4478  1.2496
  539MPD2    N1 8008   1.547   3.914  11.704  0.0503 -0.3666 -0.1616
  539MPD2    H7 8009   1.595   3.987  11.653  1.4236 -0.2033  1.3427
  540TMC3    C1 8010   1.251   4.446  11.966  0.7888 -0.4359 -0.7549
  540TMC3    C2 8011   1.272   4.558  11.894  0.5640  0.3610  0.4212
  540TMC3    C3 8012   1.232   4.672  11.955 -0.2797 -0.4135  0.1140
  540TMC3    C4 8013   1.193   4.451  12.088  0.3375  0.0310 -0.7558
  540TMC3    C5 8014   1.164   4.571  12.149 -0.7753  0.2229 -0.1625
  540TMC3    C6 8015   1.180   4.689  12.085  0.0814 -0.1918  0.7998
  540TMC3     C 8016   1.308   4.317  11.925 -0.5169  0.1010  0.0885
  540TMC3     O 8017   1.424   4.321  11.895 -0.1290 -0.2331 -0.0230
  540TMC3     H 8018   1.319   4.559  11.796 -0.7092 -1.2001 -0.2167
  540TMC3    H1 8019   1.161   4.359  12.136 -1.9424  1.0070 -0.3997
  540TMC3    H2 8020   1.154   0.060  12.132  1.9887  1.0233 -0.5731
  540TMC3    C7 8021   1.075   4.569  12.265 -0.2628  0.0359 -0.2952
  540TMC3    C8 8022   1.219   0.067  11.870 -0.5890 -0.6200 -0.3550
  540TMC3    O1 8023   0.974   4.639  12.265 -0.5227  0.1673 -0.4517
  540TMC3    O2 8024   1.248   0.173  11.921 -0.0941 -0.2821 -0.6769
  541MPD2     C 8025   0.350   0.942  13.683  0.7762  0.3512 -0.1055
  541MPD2    C1 8026   0.252   0.915  13.586  0.1980 -0.4524  0.5567
  541MPD2    C2 8027   0.226   1.015  13.494  0.7361 -0.1087  0.3858
  541MPD2    C3 8028   0.298   1.133  13.488  0.5349 -0.1257  0.3278
  541MPD2    C4 8029   0.390   1.161  13.588 -0.7216  0.0582 -0.5318
  541MPD2    C5 8030   0.417   1.057  13.674  0.0318  0.4926  0.8595
  541MPD2     H 8031   0.151   0.994  13.419  0.0981 -0.9533  1.2582
  541MPD2    H1 8032   0.451   1.250  13.584 -0.7941  0.0763 -1.2273
  541MPD2    H2 8033   0.378   0.867  13.757 -2.6652 -0.9903 -0.1523
  541MPD2    H3 8034   0.479   1.075  13.761  1.0723  2.2558 -0.2475
  541MPD2     N 8035   0.271   1.242  13.400  0.5041  0.0713  0.3236
  541MPD2    H5 8036   0.325   1.327  13.412  1.7354 -1.0086  2.5942
  541MPD2    N1 8037   0.176   0.796  13.586 -0.6338  0.0118 -0.3743
  541MPD2    H7 8038   0.095   0.798  13.525 -0.3979 -1.0055 -0.7191
  542TMC3    C1 8039   0.183   1.346  13.200  0.0598  0.9093 -0.4161
  542TMC3    C2 8040   0.123   1.320  13.078 -0.1927 -0.5551  0.4913
  542TMC3    C3 8041   0.141   1.421  12.980  0.3997  0.6203  0.1525
  542TMC3    C4 8042   0.239   1.466  13.231 -0.6573  0.7623  0.2212
  542TMC3    C5 8043   0.258   1.557  13.132 -0.2090 -0.5618  0.5028
  542TMC3    C6 8044   0.218   1.534  13.003  0.5211  0.0144  0.2038
  542TMC3     C 8045   0.193   1.236  13.288  0.5430  0.1915 -0.4519
  542TMC3     O 8046   0.145   1.134  13.234  0.5153  0.2560 -0.6828
  542TMC3     H 8047   0.061   1.234  13.057 -1.8995  0.5272  1.0390
  542TMC3    H1 8048   0.267   1.498  13.331  0.4232 -1.7472  0.7097
  542TMC3    H2 8049   0.233   1.601  12.920 -0.1460 -1.7928 -1.3669
  542TMC3    C7 8050   0.334   1.675  13.158 -0.4673  0.2370 -0.0951
  542TMC3    C8 8051   0.094   1.394  12.845 -0.3441 -0.3364  0.8739
  542TMC3    O1 8052   0.408   1.681  13.258 -0.0055  0.6782  0.2457
  542TMC3    O2 8053   0.119   1.481  12.767 -0.6071  0.7023 -0.3752
  543TMC3    C1 8054   4.202   2.918  17.289 -0.5193  0.2254 -0.1763
  543TMC3    C2 8055   4.083   2.868  17.332 -0.2280 -0.0661 -0.5079
  543TMC3    C3 8056   4.052   2.896  17.463 -0.0097  0.1722 -0.2489
  543TMC3    C4 8057   4.274   3.014  17.359 -0.3688  0.3530  0.0322
  543TMC3    C5 8058   4.234   3.037  17.492 -0.2869  0.9459  0.8119
  543TMC3    C6 8059   4.125   2.978  17.541  0.5187  0.6834 -0.2579
  543TMC3     C 8060   4.296   2.838  17.207 -0.3944 -0.4939  0.3749
  543TMC3     O 8061   4.397   2.898  17.170  0.2198  0.0469 -0.7613
  543TMC3     H 8062   4.020   2.802  17.273 -1.8126  1.4564 -0.5415
  543TMC3    H1 8063   4.374   3.038  17.325  0.6415 -1.7175  1.5942
  543TMC3    H2 8064   4.086   3.015  17.635  0.4751  1.5271 -0.6050
  543TMC3    C7 8065   4.344   3.080  17.584 -0.1954 -0.6164 -0.2587
  543TMC3    C8 8066   3.927   2.845  17.511  0.4293 -0.0116 -0.7509
  543TMC3    O1 8067   4.423   3.160  17.535  0.0427 -0.3349  0.3064
  543TMC3    O2 8068   3.878   2.896  17.610 -0.5201  0.1559  0.1897
  544MPD2     C 8069   3.637   2.435  17.600  1.0202 -0.4077 -0.0713
  544MPD2    C1 8070   3.727   2.398  17.503 -0.5238  0.2926  0.8266
  544MPD2    C2 8071   3.817   2.495  17.459 -0.0564  0.0403  0.3886
  544MPD2    C3 8072   3.814   2.627  17.508  0.1801  0.0834  0.9291
  544MPD2    C4 8073   3.718   2.656  17.595  0.0179  0.0196  0.1388
  544MPD2    C5 8074   3.630   2.567  17.643  0.0609  0.1544  0.0319
  544MPD2     H 8075   3.902   2.476  17.394 -0.4888  0.0495 -0.1880
  544MPD2    H1 8076   3.702   2.751  17.644  1.9754  0.6639 -0.4896
  544MPD2    H2 8077   3.570   2.368  17.652  0.4166  0.0882 -0.2038
  544MPD2    H3 8078   3.565   2.604   0.025  0.4564 -0.6884  0.7750
  544MPD2     N 8079   3.911   2.722  17.460 -0.3974 -0.1263  0.5764
  544MPD2    H5 8080   3.976   2.683  17.392  0.2438  2.0564 -0.0408
  544MPD2    N1 8081   3.732   2.261  17.470  0.1860 -0.0515  0.2726
  544MPD2    H7 8082   3.679   2.193  17.525 -0.4132  1.1260  1.1545
  545TMC3    C1 8083   3.809   2.064  17.367 -0.2424  0.5799 -0.0947
  545TMC3    C2 8084   3.912   2.029  17.290  0.5015 -0.3433 -0.1193
  545TMC3    C3 8085   3.993   1.923  17.338 -0.5544 -0.5783 -0.0161
  545TMC3    C4 8086   3.774   2.006  17.487  0.0018 -0.7360 -0.1106
  545TMC3    C5 8087   3.867   1.914  17.532  0.7331  0.6200  1.1455
  545TMC3    C6 8088   3.969   1.864  17.462 -0.2501  0.1710 -0.2846
  545TMC3     C 8089   3.801   2.204  17.368 -0.0625 -0.3982  0.7533
  545TMC3     O 8090   3.853   2.259  17.269 -0.6644  0.4987  1.0201
  545TMC3     H 8091   3.918   2.055  17.185 -1.6713  0.9546  0.0783
  545TMC3    H1 8092   3.696   2.037  17.556  0.3026 -1.0382  0.3651
  545TMC3    H2 8093   4.033   1.797  17.518 -1.4449 -1.2174 -0.5969
  545TMC3    C7 8094   3.854   1.885  17.678  0.6179 -0.4083  0.1349
  545TMC3    C8 8095   4.119   1.880  17.266  0.3763 -0.5680  0.5682
  545TMC3    O1 8096   3.803   1.975   0.049  0.3421  0.5223 -0.1006
  545TMC3    O2 8097   4.175   1.776  17.297 -0.0916  0.1783 -0.7257
  546MPD2     C 8098   1.178   2.224   0.006 -0.1465 -0.6371  0.7029
  546MPD2    C1 8099   1.086   2.305  17.637 -0.2021  0.4830  0.3215
  546MPD2    C2 8100   1.067   2.436  17.674 -0.2243 -0.3958  0.0382
  546MPD2    C3 8101   1.151   2.494   0.069 -0.2628  0.6089 -0.3104
  546MPD2    C4 8102   1.248   2.415   0.132 -0.0490  0.2314  0.7077
  546MPD2    C5 8103   1.265   2.280   0.097  0.2772 -0.4710  0.1332
  546MPD2     H 8104   0.991   2.503  17.636 -0.9941 -2.2224 -1.6890
  546MPD2    H1 8105   1.298   2.445   0.223 -0.3221  0.7721  0.6797
  546MPD2    H2 8106   1.194   2.119  17.679  2.8873 -0.3107  1.2620
  546MPD2    H3 8107   1.334   2.221   0.155  1.7200  2.1845  1.1523
  546MPD2     N 8108   1.144   2.632   0.106 -0.2188  0.2061 -0.0215
  546MPD2    H5 8109   1.218   2.667   0.165  0.3359 -0.3811 -0.3688
  546MPD2    N1 8110   1.002   2.246  17.538  0.6110  0.1261 -0.4549
  546MPD2    H7 8111   1.020   2.147  17.529  0.7380  0.0795  0.2682
  547TMC3    C1 8112   0.819   2.215  17.374 -0.4982 -0.7986 -0.1239
  547TMC3    C2 8113   0.751   2.256  17.265 -0.2358  0.3792  0.1306
  547TMC3    C3 8114   0.650   2.181  17.212 -0.2329 -0.1543 -0.0814
  547TMC3    C4 8115   0.788   2.096  17.437  0.6611 -0.2676  0.3516
  547TMC3    C5 8116   0.679   2.029  17.381 -0.0487 -0.0017 -0.2374
  547TMC3    C6 8117   0.611   2.066  17.269 -0.3637  0.6217  0.0124
  547TMC3     C 8118   0.912   2.307  17.445 -0.5907 -0.2461 -0.1009
  547TMC3     O 8119   0.904   2.425  17.418  0.0330  0.2972 -0.5208
  547TMC3     H 8120   0.787   2.327  17.192  0.4324 -0.1198 -0.0274
  547TMC3    H1 8121   0.828   2.062  17.532  0.5033 -2.0796 -0.2370
  547TMC3    H2 8122   0.523   2.020  17.224  0.1135 -0.6820  0.4032
  547TMC3    C7 8123   0.635   1.912  17.446 -0.3379  0.2240  0.4655
  547TMC3    C8 8124   0.596   2.229  17.089 -0.2154 -0.1106 -0.0998
  547TMC3    O1 8125   0.517   1.882  17.441  0.2674  0.2592 -0.2406
  547TMC3    O2 8126   0.587   2.352  17.080  0.4301 -0.2770  0.2448
  548MPD2     C 8127   1.140   3.140  12.691 -0.3542  0.0337  0.0600
  548MPD2    C1 8128   1.076   3.018  12.694 -0.2496 -0.3768 -0.2435
  548MPD2    C2 8129   1.135   2.912  12.626  0.7444  0.1010  0.4007
  548MPD2    C3 8130   1.254   2.921  12.564  0.1333 -0.0651  0.7514
  548MPD2    C4 8131   1.319   3.043  12.559 -1.0013  0.4377 -0.3407
  548MPD2    C5 8132   1.256   3.153  12.610 -0.4494 -0.0057  0.1504
  548MPD2     H 8133   1.091   2.813  12.620  1.3001 -0.2563  2.0370
  548MPD2    H1 8134   1.410   3.057  12.501  1.6849 -0.8876  3.5693
  548MPD2    H2 8135   1.100   3.227  12.743 -2.3968 -0.7962 -0.1137
  548MPD2    H3 8136   1.297   3.252  12.592 -0.5491  0.3304  1.7529
  548MPD2     N 8137   1.291   2.802  12.500 -0.3401  0.2901 -0.1041
  548MPD2    H5 8138   1.224   2.727  12.486  0.7796 -1.0158  1.5129
  548MPD2    N1 8139   0.969   2.997  12.774  0.3399 -0.1196  0.0382
  548MPD2    H7 8140   0.930   3.074  12.828  0.8833 -0.9114  1.5523
  549TMC3    C1 8141   0.818   2.905  12.914 -0.2815  0.5668  0.2973
  549TMC3    C2 8142   0.720   2.992  12.886  0.1591 -0.9009  0.4093
  549TMC3    C3 8143   0.611   2.994  12.972 -0.8798  0.0580  0.8290
  549TMC3    C4 8144   0.807   2.824  13.021  0.8492 -0.5527  0.0225
  549TMC3    C5 8145   0.702   2.836  13.108 -0.7751 -0.7688 -1.1202
  549TMC3    C6 8146   0.604   2.922  13.084 -0.1737  0.4109 -0.0816
  549TMC3     C 8147   0.913   2.876  12.810  0.3547  0.5041  0.1380
  549TMC3     O 8148   0.934   2.757  12.789  0.2667  0.3657 -0.1001
  549TMC3     H 8149   0.720   3.048  12.793 -1.7560  0.1763  1.0575
  549TMC3    H1 8150   0.898   2.768  13.040  1.2146  0.0670  0.0803
  549TMC3    H2 8151   0.512   2.920  13.141 -0.4325 -1.8223 -0.5717
  549TMC3    C7 8152   0.691   2.750  13.223 -0.3551 -0.2708 -0.0708
  549TMC3    C8 8153   0.492   3.065  12.910 -0.1458  0.4518  0.0019
  549TMC3    O1 8154   0.623   2.798  13.312  0.3468 -0.1399 -0.0499
  549TMC3    O2 8155   0.456   3.020  12.801  0.1246  0.0629  0.0537
  550TMC3    C1 8156   4.463   0.907  12.191 -0.5783 -0.2325 -0.8144
  550TMC3    C2 8157   4.479   0.952  12.317 -0.0415  0.0559  0.0476
  550TMC3    C3 8158   4.468   1.087  12.332  0.1790 -0.6665 -0.3063
  550TMC3    C4 8159   4.442   0.976  12.075  0.0272 -0.5388 -0.3401
  550TMC3    C5 8160   4.451   1.111  12.101 -0.3439  0.1460 -0.4712
  550TMC3    C6 8161   4.473   1.167  12.221  0.1568 -0.4975 -0.2217
  550TMC3     C 8162   4.475   0.765  12.181 -0.2902 -0.0048  0.0735
  550TMC3     O 8163   4.537   0.707  12.268  0.5221 -0.0439  0.3224
  550TMC3     H 8164   4.471   0.891  12.405  1.9700  0.2047  0.3435
  550TMC3    H1 8165   4.435   0.937  11.974 -1.1184 -0.8856 -0.1316
  550TMC3    H2 8166   4.453   1.274  12.225 -0.0985 -0.5839  0.8544
  550TMC3    C7 8167   4.456   1.206  11.989 -0.5828 -0.4224  0.3636
  550TMC3    C8 8168   4.430   1.142  12.460 -0.4954  0.0676 -0.6916
  550TMC3    O1 8169   4.513   1.309  12.009 -0.3988 -0.2090  0.0505
  550TMC3    O2 8170   4.379   1.067  12.540 -0.1685 -0.3244 -0.1983
  551TMC3    C1 8171   2.106   3.119  13.721  0.2718 -0.4215  0.2968
  551TMC3    C2 8172   2.175   3.073  13.619  0.3815 -0.3952 -0.4415
  551TMC3    C3 8173   2.310   3.057  13.634  0.5687 -0.2515  0.2550
  551TMC3    C4 8174   2.174   3.162  13.835  0.7159 -0.0113  0.7083
  551TMC3    C5 8175   2.310   3.146  13.844  0.7336  0.5624 -0.4264
  551TMC3    C6 8176   2.388   3.099  13.740  0.3081 -0.4490  1.1228
  551TMC3     C 8177   1.961   3.103  13.716 -0.3462  0.1279  0.1551
  551TMC3     O 8178   1.887   3.194  13.738 -0.0205  0.0930  0.4856
  551TMC3     H 8179   2.124   3.032  13.533 -1.6891 -2.3254  1.6864
  551TMC3    H1 8180   2.118   3.210  13.914 -0.1092  2.8881 -1.6037
  551TMC3    H2 8181   2.496   3.093  13.732  0.5186  0.4780  3.5350
  551TMC3    C7 8182   2.376   3.196  13.963 -0.1522  0.4974 -0.3397
  551TMC3    C8 8183   2.385   3.053  13.512 -0.6245 -0.2158 -0.2706
  551TMC3    O1 8184   2.323   3.279  14.035 -0.3209 -0.0212 -0.1025
  551TMC3    O2 8185   2.498   3.012  13.522 -0.0758 -0.5590  0.2196
  552MPD2     C 8186   3.473   0.641  13.929 -0.1727  0.1270 -0.2770
  552MPD2    C1 8187   3.536   0.531  13.879 -0.3079 -0.5152  0.3859
  552MPD2    C2 8188   3.644   0.474  13.938  0.7640  0.0447  0.4017
  552MPD2    C3 8189   3.698   0.544  14.047  0.9713 -0.1060 -0.6548
  552MPD2    C4 8190   3.639   0.662  14.091  0.0466 -0.0617 -0.9401
  552MPD2    C5 8191   3.522   0.705  14.040  0.2423  0.6202  0.0960
  552MPD2     H 8192   3.688   0.388  13.890 -0.8819 -0.0466 -0.9445
  552MPD2    H1 8193   3.681   0.729  14.165 -0.0766 -1.2362  0.1933
  552MPD2    H2 8194   3.383   0.686  13.889 -1.2283 -1.3833  0.3950
  552MPD2    H3 8195   3.477   0.801  14.063 -1.4847  0.6118 -3.2512
  552MPD2     N 8196   3.828   0.507  14.105 -0.0387  0.0779 -0.1499
  552MPD2    H5 8197   3.875   0.419  14.087 -0.9334 -0.5531  0.6273
  552MPD2    N1 8198   3.489   0.467  13.770 -0.0725  0.1863  0.1138
  552MPD2    H7 8199   3.542   0.382  13.752  0.3650  0.1326  1.6244
  553TMC3    C1 8200   3.350   0.411  13.584  0.4417 -0.3833  0.6824
  553TMC3    C2 8201   3.307   0.460  13.466 -0.0989  0.0162 -0.2471
  553TMC3    C3 8202   3.291   0.370  13.363 -0.0038 -0.2622 -0.4963
  553TMC3    C4 8203   3.364   0.281  13.611  0.4917 -0.0338  0.2439
  553TMC3    C5 8204   3.339   0.193  13.508 -0.0374  0.8273 -0.0329
  553TMC3    C6 8205   3.309   0.242  13.389  0.0888  0.3844 -1.0486
  553TMC3     C 8206   3.397   0.514  13.675  0.2029 -0.4609 -0.5975
  553TMC3     O 8207   3.354   0.627  13.667  0.1708  0.1098  0.2028
  553TMC3     H 8208   3.310   0.565  13.438  1.1375  0.0142 -0.0888
  553TMC3    H1 8209   3.376   0.251  13.714 -3.0023  0.3241  0.7823
  553TMC3    H2 8210   3.310   0.167  13.311  2.1514 -0.3282 -0.3366
  553TMC3    C7 8211   3.459   0.111  13.497  0.3876  0.4263  0.3725
  553TMC3    C8 8212   3.356   0.407  13.241 -0.2383 -0.0503 -0.3342
  553TMC3    O1 8213   3.517   0.117  13.389 -0.3601  0.4835 -0.2309
  553TMC3    O2 8214   3.321   0.514  13.192 -0.2804  0.0536  0.0557
  554TMC3    C1 8215   0.390   4.383  11.940 -0.0304  0.6917 -0.3754
  554TMC3    C2 8216   0.261   4.381  11.886 -0.5114  0.0681  0.0719
  554TMC3    C3 8217   0.231   4.470  11.785 -0.0043  0.1526  0.0470
  554TMC3    C4 8218   0.483   4.477  11.897  0.3922  0.1058  0.0361
  554TMC3    C5 8219   0.448   4.554  11.793 -0.2317  0.4282  0.0295
  554TMC3    C6 8220   0.320   4.564  11.744  0.1115  0.3788 -0.1701
  554TMC3     C 8221   0.417   4.278  12.036 -0.2511 -0.2076 -0.1142
  554TMC3     O 8222   0.529   4.227  12.022  0.4663 -0.1165  0.0716
  554TMC3     H 8223   0.201   4.291  11.895  0.5591 -0.7998 -1.5010
  554TMC3    H1 8224   0.579   4.460  11.945  0.7772 -1.0687 -1.1351
  554TMC3    H2 8225   0.291   4.639  11.671  0.7464 -0.7658 -1.5989
  554TMC3    C7 8226   0.545   4.645  11.734  0.8343  0.7019  0.3645
  554TMC3    C8 8227   0.151   4.429  11.669  0.3490  0.4419  0.2746
  554TMC3    O1 8228   0.517   4.681  11.619 -0.0988 -0.1720 -0.5602
  554TMC3    O2 8229   0.145   4.510  11.572  0.6377  0.3326  0.3492
  555TMC3    C1 8230   0.275   3.712  14.899 -0.2784 -0.9259  0.7514
  555TMC3    C2 8231   0.310   3.793  15.008  0.2906 -0.5684  0.7807
  555TMC3    C3 8232   0.288   3.747  15.131  0.5121 -0.7598 -0.1020
  555TMC3    C4 8233   0.228   3.586  14.920 -0.2112  0.6803  0.5581
  555TMC3    C5 8234   0.213   3.545  15.052 -0.0425 -0.4153  0.5973
  555TMC3    C6 8235   0.239   3.624  15.155  0.2909  0.0120 -0.4572
  555TMC3     C 8236   0.267   3.760  14.762 -0.0813  0.1811 -0.3392
  555TMC3     O 8237   0.265   3.675  14.671  0.2431 -0.0059 -0.2109
  555TMC3     H 8238   0.366   3.885  14.995 -1.1595  0.5603  2.5931
  555TMC3    H1 8239   0.213   3.525  14.832  1.5505  2.3681 -0.9090
  555TMC3    H2 8240   0.227   3.579  15.253 -0.7566  0.7403 -0.2536
  555TMC3    C7 8241   0.165   3.408  15.080 -0.1534  0.4168 -0.5074
  555TMC3    C8 8242   0.298   3.850  15.237  0.4879 -0.0112  0.6197
  555TMC3    O1 8243   0.190   3.364  15.193 -0.6021 -0.0404  0.7282
  555TMC3    O2 8244   0.283   3.969  15.206  0.3462 -0.4746 -0.7933
  556MPD2     C 8245   2.699   0.709  10.886 -0.0593  0.4653 -0.3272
  556MPD2    C1 8246   2.728   0.593  10.950 -0.2701  0.5528  0.1576
  556MPD2    C2 8247   2.718   0.470  10.890 -0.3050  0.1568 -1.1991
  556MPD2    C3 8248   2.669   0.466  10.757  0.3538 -0.6577  0.3065
  556MPD2    C4 8249   2.634   0.584  10.690  0.2970 -0.0352 -0.1338
  556MPD2    C5 8250   2.655   0.699  10.758 -0.1975  0.0448  0.6096
  556MPD2     H 8251   2.737   0.373  10.935 -2.6370  0.7264  0.9908
  556MPD2    H1 8252   2.595   0.587  10.589  1.5254  0.0505 -0.6087
  556MPD2    H2 8253   2.713   0.809  10.926  0.4181  1.2387 -2.4120
  556MPD2    H3 8254   2.615   0.787  10.708  0.0954 -0.0636  0.1858
  556MPD2     N 8255   2.677   0.343  10.691  0.3052 -0.8465  0.1379
  556MPD2    H5 8256   2.731   0.264  10.727  1.4483 -0.1111  0.0137
  556MPD2    N1 8257   2.768   0.595  11.084  0.1883 -0.6498 -0.0965
  556MPD2    H7 8258   2.779   0.509  11.136  1.6131 -0.2098  0.3408
  557TMC3    C1 8259   2.623   0.188  10.521 -0.3844 -0.2820 -0.2264
  557TMC3    C2 8260   2.746   0.134  10.543  0.0766 -0.4782  0.3136
  557TMC3    C3 8261   2.751   4.722  10.533 -0.1101 -0.2068 -0.3999
  557TMC3    C4 8262   2.508   0.114  10.509 -0.0389 -0.3905 -0.7282
  557TMC3    C5 8263   2.520   4.705  10.513  0.2509 -0.2484  0.3928
  557TMC3    C6 8264   2.640   4.645  10.519 -0.9897 -0.7532  0.4317
  557TMC3     C 8265   2.602   0.318  10.579 -0.5054 -0.3918 -0.0808
  557TMC3     O 8266   2.510   0.385  10.530  0.0220 -0.3280 -0.1001
  557TMC3     H 8267   2.836   0.194  10.552 -0.4287  0.1726  1.1120
  557TMC3    H1 8268   2.411   0.163  10.506  1.3079  2.1557 -2.2365
  557TMC3    H2 8269   2.635   4.540  10.546  1.1252 -0.7143  0.9681
  557TMC3    C7 8270   2.433   4.665  10.614  0.5040 -0.6461  1.2455
  557TMC3    C8 8271   2.880   4.660  10.485 -0.7889  0.0373 -0.6535
  557TMC3    O1 8272   2.316   4.688  10.601 -0.0819 -0.3137  0.2337
  557TMC3    O2 8273   2.979   0.010  10.479 -0.2006 -0.2671  0.0756
  558TMC3    C1 8274   0.432   3.436  10.040  0.6982 -0.0925  0.3147
  558TMC3    C2 8275   0.350   3.347  10.107 -0.1554  0.8691  0.2231
  558TMC3    C3 8276   0.253   3.281  10.024 -0.9693  0.0753 -0.8149
  558TMC3    C4 8277   0.417   3.445   9.904 -0.1402  0.1218 -0.2262
  558TMC3    C5 8278   0.310   3.389   9.834 -0.7874  0.2422  1.0212
  558TMC3    C6 8279   0.222   3.306   9.891  0.7612  0.8607  0.1161
  558TMC3     C 8280   0.550   3.507  10.097 -0.4363 -0.4968 -0.4976
  558TMC3     O 8281   0.594   3.596  10.026 -0.1375 -0.2564 -0.1138
  558TMC3     H 8282   0.351   3.340  10.216  0.6446 -0.0810  0.1588
  558TMC3    H1 8283   0.481   3.513   9.849 -2.0104  2.6279  0.7480
  558TMC3    H2 8284   0.124   3.274   9.858  0.0924  1.1934  1.7929
  558TMC3    C7 8285   0.293   3.428   9.691 -0.0355  0.0287  0.1579
  558TMC3    C8 8286   0.153   3.198  10.098 -0.1246  0.1524  0.1506
  558TMC3    O1 8287   0.369   3.506   9.638  0.3506 -0.1640 -0.3378
  558TMC3    O2 8288   0.047   3.170  10.045  0.0380 -0.6990  0.1610
  559MPD2     C 8289   0.334   4.145  10.627 -0.2040  0.3449 -0.0347
  559MPD2    C1 8290   0.314   4.015  10.665 -0.4433  0.0358  0.3041
  559MPD2    C2 8291   0.397   3.955  10.750 -0.1765  0.2389 -0.4558
  559MPD2    C3 8292   0.517   4.019  10.780 -0.2430  0.5391  0.0992
  559MPD2    C4 8293   0.541   4.148  10.735  0.0614  0.0830 -0.1776
  559MPD2    C5 8294   0.449   4.217  10.662 -0.7364 -0.3372 -0.0140
  559MPD2     H 8295   0.363   3.859  10.788 -1.1363  1.6069  2.1562
  559MPD2    H1 8296   0.639   4.192  10.749  1.0687 -1.4573 -2.3741
  559MPD2    H2 8297   0.264   4.198  10.565  1.0497 -0.9292 -2.5296
  559MPD2    H3 8298   0.458   4.316  10.618 -0.6324 -0.2596  0.1792
  559MPD2     N 8299   0.609   3.958  10.864  0.3250 -0.4878  0.0222
  559MPD2    H5 8300   0.580   3.871  10.907  3.6892 -1.1497  0.9965
  559MPD2    N1 8301   0.198   3.953  10.607 -0.5336 -0.0441 -0.2895
  559MPD2    H7 8302   0.136   4.015  10.556 -3.1321 -1.0412  1.7057
  560TMC3    C1 8303   0.789   3.901  10.988  0.3072 -0.6345  0.2945
  560TMC3    C2 8304   0.731   3.778  10.989  0.3958 -0.3794  0.0670
  560TMC3    C3 8305   0.751   3.694  11.096  0.6020 -0.4286  0.0342
  560TMC3    C4 8306   0.860   3.951  11.092 -0.2352 -0.0813  0.6604
  560TMC3    C5 8307   0.870   3.865  11.200  0.6388  0.5729 -0.4441
  560TMC3    C6 8308   0.817   3.747  11.206  0.5368  0.2056 -0.6451
  560TMC3     C 8309   0.735   4.004  10.910 -0.0847 -0.6220  0.1267
  560TMC3     O 8310   0.787   4.115  10.906  0.3276  0.1385 -0.5888
  560TMC3     H 8311   0.686   3.738  10.899  1.5713 -0.7735 -0.3405
  560TMC3    H1 8312   0.888   4.055  11.097  0.1233 -0.1654  0.4335
  560TMC3    H2 8313   0.825   3.684  11.293 -1.8304 -0.1074 -0.6576
  560TMC3    C7 8314   0.916   3.928  11.326 -0.0472 -0.9073  0.1814
  560TMC3    C8 8315   0.750   3.555  11.065  0.4335 -0.3015  0.5300
  560TMC3    O1 8316   0.856   3.910  11.427  0.0213  0.4796 -0.3666
  560TMC3    O2 8317   0.664   3.526  10.977  0.0073 -0.0909 -0.3789
  561TMC3    C1 8318   3.076   2.602  11.568  0.2834 -0.0773 -0.7799
  561TMC3    C2 8319   3.008   2.603  11.684  0.3979 -0.2835 -0.6399
  561TMC3    C3 8320   2.988   2.729  11.741 -0.4946 -0.5569 -0.0938
  561TMC3    C4 8321   3.116   2.719  11.498 -0.0670  0.6924 -0.2749
  561TMC3    C5 8322   3.090   2.841  11.566  0.9029  0.4555  0.2146
  561TMC3    C6 8323   3.031   2.847  11.686 -1.0763 -0.2536 -0.2608
  561TMC3     C 8324   3.068   2.481  11.490 -0.1503 -0.7425 -0.0990
  561TMC3     O 8325   2.981   2.402  11.527  0.3890 -0.3033 -0.0024
  561TMC3     H 8326   2.987   2.506  11.727 -1.3673  0.5680  0.4076
  561TMC3    H1 8327   3.172   2.719  11.405 -0.3071 -1.4617 -0.4252
  561TMC3    H2 8328   3.009   2.944  11.728 -1.6005 -1.1266  1.4763
  561TMC3    C7 8329   3.083   2.964  11.492  0.3172 -0.7558 -0.1319
  561TMC3    C8 8330   2.944   2.715  11.881  0.3171  0.2000 -0.4531
  561TMC3    O1 8331   3.013   3.056  11.529 -0.0849  0.0354 -0.3753
  561TMC3    O2 8332   2.980   2.614  11.942 -0.2348 -0.2716  0.5736
  562TMC3    C1 8333   0.005   4.186  16.045  0.0227 -0.0495  0.1259
  562TMC3    C2 8334   4.640   4.297  16.047  0.1857  0.0797 -0.0611
  562TMC3    C3 8335   4.575   4.319  15.935 -0.0284  0.2289  0.0342
  562TMC3    C4 8336   0.032   4.111  15.926 -0.4156  0.3397 -0.4577
  562TMC3    C5 8337   4.679   4.144  15.819 -0.2379  0.2422 -1.1056
  562TMC3    C6 8338   4.594   4.250  15.818 -0.6950 -0.4020 -0.4252
  562TMC3     C 8339   0.065   4.142  16.166  0.4684  0.4275  0.7336
  562TMC3     O 8340   0.151   4.053  16.154 -0.3243 -0.1749 -0.0812
  562TMC3     H 8341   4.624   4.358  16.135  0.7376  1.0242 -0.6111
  562TMC3    H1 8342   0.113   4.039  15.916 -2.9867 -2.6277  0.1449
  562TMC3    H2 8343   4.533   4.271  15.730  0.6241 -0.3885 -1.3348
  562TMC3    C7 8344   4.666   4.052  15.715  0.1476 -0.4720 -0.2887
  562TMC3    C8 8345   4.461   4.409  15.954  0.2180  0.1181 -0.3381
  562TMC3    O1 8346   4.634   4.094  15.603 -0.5507  0.3864 -0.3880
  562TMC3    O2 8347   4.424   4.426  16.070  0.2442  0.6064  0.3590
  563MPD2     C 8348   2.130   0.735  15.639 -0.4258  1.0099  0.0606
  563MPD2    C1 8349   2.231   0.793  15.696  0.1777 -0.7187  0.3943
  563MPD2    C2 8350   2.341   0.713  15.724  0.5398 -0.4846  0.9122
  563MPD2    C3 8351   2.355   0.579  15.693 -0.4198  0.0796 -0.1310
  563MPD2    C4 8352   2.246   0.521  15.627  0.6651  0.0907 -0.1332
  563MPD2    C5 8353   2.143   0.607  15.596  0.0982  0.4229 -0.2306
  563MPD2     H 8354   2.425   0.762  15.773 -1.1705  2.5279  0.8427
  563MPD2    H1 8355   2.242   0.417  15.597 -1.7599 -0.2875  1.4727
  563MPD2    H2 8356   2.043   0.797  15.620 -2.3706 -1.3731  1.1414
  563MPD2    H3 8357   2.060   0.567  15.540 -1.1744  1.9895  0.5599
  563MPD2     N 8358   2.467   0.509  15.741 -0.4065  0.0489 -0.6240
  563MPD2    H5 8359   2.525   0.563  15.805  0.4701 -1.2138 -0.3439
  563MPD2    N1 8360   2.215   0.920  15.757 -0.0275 -0.2520  0.2691
  563MPD2    H7 8361   2.307   0.952  15.786 -1.0141  0.8008  2.2905
  564TMC3    C1 8362   2.112   1.045  15.924  0.2246 -0.2848  1.2536
  564TMC3    C2 8363   1.989   1.069  15.981  0.0442  0.2468  0.0683
  564TMC3    C3 8364   1.963   1.045  16.112 -0.4995 -0.0855 -0.5813
  564TMC3    C4 8365   2.211   0.997  16.006  0.2076 -0.1414  0.6842
  564TMC3    C5 8366   2.175   0.955  16.127 -0.4541  0.2463  0.4693
  564TMC3    C6 8367   2.056   0.975  16.186 -0.3493 -0.3489  0.4304
  564TMC3     C 8368   2.094   0.966  15.807 -0.6055 -0.5131  0.1629
  564TMC3     O 8369   1.981   0.928  15.784  0.0587  0.1678  0.1065
  564TMC3     H 8370   1.915   1.111  15.914 -1.1122 -1.6572  0.1489
  564TMC3    H1 8371   2.307   0.964  15.966  0.4893  1.9043 -0.3170
  564TMC3    H2 8372   2.039   0.953  16.291 -0.5163 -0.2426  0.4248
  564TMC3    C7 8373   2.236   0.825  16.153  0.4658  0.0031  0.3619
  564TMC3    C8 8374   1.839   0.969  16.132  0.8275  0.5248  0.3343
  564TMC3    O1 8375   2.278   0.812  16.266  0.7594 -0.4654  0.3998
  564TMC3    O2 8376   1.803   0.939  16.249 -0.6478  0.1084  0.0556
  565TMC3    C1 8377   2.463   1.927  10.597 -0.1415 -0.1786  0.2365
  565TMC3    C2 8378   2.458   1.838  10.695  0.9378 -0.0042 -0.2694
  565TMC3    C3 8379   2.429   1.706  10.658  0.1160 -0.0759 -0.3200
  565TMC3    C4 8380   2.407   1.901  10.470 -0.2114 -0.6266  0.1951
  565TMC3    C5 8381   2.349   1.774  10.450  0.5735 -0.1514  0.5699
  565TMC3    C6 8382   2.379   1.665  10.537  0.7915 -0.6082 -0.1227
  565TMC3     C 8383   2.488   2.059  10.632 -0.6017  0.1897 -0.2270
  565TMC3     O 8384   2.468   2.091  10.748  0.2954  0.0071 -0.6331
  565TMC3     H 8385   2.507   1.863  10.788 -0.2450 -0.2970  0.4325
  565TMC3    H1 8386   2.402   1.979  10.395 -1.7326  0.0161  0.9494
  565TMC3    H2 8387   2.339   1.566  10.517  3.0561 -1.2114 -1.5984
  565TMC3    C7 8388   2.222   1.763  10.375  0.2485 -0.1539 -0.2446
  565TMC3    C8 8389   2.442   1.602  10.755  0.0696 -0.1718 -0.1769
  565TMC3    O1 8390   2.151   1.663  10.388 -0.4094 -0.1427 -0.4501
  565TMC3    O2 8391   2.441   1.637  10.872  0.1738 -0.4157  0.5710
  566MPD2     C 8392   3.733   3.695  14.731  0.4556 -0.1519 -0.8027
  566MPD2    C1 8393   3.749   3.735  14.606  0.2078  0.5531 -0.1844
  566MPD2    C2 8394   3.678   3.673  14.508  0.3694  0.1352  0.0187
  566MPD2    C3 8395   3.589   3.566  14.529  0.6123  0.0350 -0.2405
  566MPD2    C4 8396   3.587   3.520  14.655 -0.1277 -0.3302  0.1037
  566MPD2    C5 8397   3.657   3.583  14.758  0.0204 -0.1751 -0.5115
  566MPD2     H 8398   3.682   3.715  14.409  0.2948  0.5327  0.1860
  566MPD2    H1 8399   3.528   3.431  14.673  1.1170 -0.9274  1.2289
  566MPD2    H2 8400   3.784   3.742  14.814  0.5881  0.0177 -0.9810
  566MPD2    H3 8401   3.650   3.541  14.858  1.0897  0.8375 -0.0173
  566MPD2     N 8402   3.516   3.502  14.429 -0.4495 -0.0271  0.1755
  566MPD2    H5 8403   3.462   3.418  14.452 -0.0194 -0.5499 -0.7096
  566MPD2    N1 8404   3.847   3.840  14.593 -0.3367 -0.6363  0.0684
  566MPD2    H7 8405   3.904   3.850  14.676 -0.9280  1.0291  0.2723
  567TMC3    C1 8406   3.978   4.003  14.471 -0.5804 -0.1565  0.1107
  567TMC3    C2 8407   3.983   4.074  14.355 -0.0957 -0.2266 -0.3449
  567TMC3    C3 8408   4.107   4.113  14.305  0.4599  0.9431 -0.7374
  567TMC3    C4 8409   4.086   3.973  14.540 -1.0006 -0.1499  0.1735
  567TMC3    C5 8410   4.207   4.004  14.482 -0.5580 -0.0543 -0.5785
  567TMC3    C6 8411   4.218   4.068  14.363  0.0912  0.2554  0.0964
  567TMC3     C 8412   3.863   3.919  14.480  0.5031  0.2317 -0.2137
  567TMC3     O 8413   3.799   3.913  14.377  0.1408 -0.5165  0.1329
  567TMC3     H 8414   3.888   4.104  14.312  0.7577 -0.4586 -2.4178
  567TMC3    H1 8415   4.084   3.930  14.639 -2.0311 -0.9112 -0.1833
  567TMC3    H2 8416   4.317   4.101  14.333 -0.6794  1.2390 -1.3384
  567TMC3    C7 8417   4.330   3.987  14.554 -0.5293  0.2619 -0.4615
  567TMC3    C8 8418   4.101   4.131  14.163  0.9900 -0.5396  0.2272
  567TMC3    O1 8419   4.427   4.056  14.527 -0.1279 -0.4215 -0.3596
  567TMC3    O2 8420   3.998   4.100  14.102 -0.0468  0.4232  0.1450
  568MPD2     C 8421   1.756   4.206  16.455 -0.7832 -0.1268  1.1084
  568MPD2    C1 8422   1.724   4.262  16.576 -0.1080  0.5160 -0.6268
  568MPD2    C2 8423   1.702   4.401  16.573 -0.3286  0.5869 -0.4234
  568MPD2    C3 8424   1.716   4.478  16.459  0.6054 -0.3361 -0.4550
  568MPD2    C4 8425   1.751   4.409  16.341  0.0274  0.8033  0.0856
  568MPD2    C5 8426   1.772   4.275  16.340  0.0683 -0.2925 -0.0198
  568MPD2     H 8427   1.668   4.462  16.656  0.1527  0.7508 -0.3435
  568MPD2    H1 8428   1.772   4.455  16.245  0.9622 -1.1597 -0.6424
  568MPD2    H2 8429   1.773   4.099  16.448  0.0519 -0.1157  3.0545
  568MPD2    H3 8430   1.795   4.221  16.249 -1.3371  1.6927 -1.5617
  568MPD2     N 8431   1.681   4.613  16.453 -0.2417  0.0651 -0.1596
  568MPD2    H5 8432   1.655   4.657  16.541 -0.0020 -1.6339  0.7697
  568MPD2    N1 8433   1.715   4.174  16.686 -0.0702  0.1854  0.2070
  568MPD2    H7 8434   1.724   4.073  16.680 -1.7943  0.0008  0.7483
  569TMC3    C1 8435   1.649   0.114  16.372 -0.4243 -0.6969 -0.6061
  569TMC3    C2 8436   1.709   0.172  16.488 -0.4243 -0.8802 -0.7345
  569TMC3    C3 8437   1.692   0.306  16.512  0.4614  0.4661  0.0421
  569TMC3    C4 8438   1.579   0.188  16.278  0.1410  0.2631 -0.3613
  569TMC3    C5 8439   1.570   0.322  16.306  0.2229  0.2792  0.6130
  569TMC3    C6 8440   1.627   0.382  16.419 -0.0392  0.4547 -0.5932
  569TMC3     C 8441   1.673   4.695  16.345  0.1857  0.1085 -0.1328
  569TMC3     O 8442   1.664   4.666  16.226  0.1218  0.0423  0.1697
  569TMC3     H 8443   1.758   0.121  16.570 -1.6164 -1.9734 -0.6983
  569TMC3    H1 8444   1.539   0.145  16.187  0.0920 -0.7831  0.1555
  569TMC3    H2 8445   1.628   0.491  16.423 -2.1976  0.3787  2.4962
  569TMC3    C7 8446   1.516   0.401  16.197  0.0994 -0.1861  0.0774
  569TMC3    C8 8447   1.678   0.347  16.645  0.0514 -0.7373 -0.5498
  569TMC3    O1 8448   1.459   0.349  16.100 -0.3399  0.6062  0.1700
  569TMC3    O2 8449   1.565   0.391  16.672  0.0610  0.7999 -0.1000
  570TMC3    C1 8450   1.360   2.971  16.532 -0.5376 -0.3232 -0.9072
  570TMC3    C2 8451   1.453   2.935  16.437  1.0157 -0.0167 -0.6724
  570TMC3    C3 8452   1.503   3.033  16.352  0.5359  0.1377  0.0505
  570TMC3    C4 8453   1.305   3.099  16.553 -0.4588 -0.0090 -0.6388
  570TMC3    C5 8454   1.348   3.182  16.455 -0.4230 -0.0711  0.2438
  570TMC3    C6 8455   1.455   3.161  16.372 -0.2074 -0.3123 -0.7274
  570TMC3     C 8456   1.351   2.876  16.642  0.4993 -0.5618 -0.3109
  570TMC3     O 8457   1.398   2.765  16.621  0.1259  0.0719 -0.3243
  570TMC3     H 8458   1.492   2.836  16.421 -0.6813 -0.8672  0.4280
  570TMC3    H1 8459   1.216   3.108  16.614 -0.3035  1.3031 -0.6112
  570TMC3    H2 8460   1.504   3.241  16.317  0.7352 -1.2649 -1.2823
  570TMC3    C7 8461   1.269   3.293  16.429 -0.1720 -0.0309 -0.2947
  570TMC3    C8 8462   1.625   3.021  16.277 -0.3819  0.1322  0.1937
  570TMC3    O1 8463   1.206   3.333  16.526 -0.2411 -0.2672  0.0610
  570TMC3    O2 8464   1.680   3.125  16.247  0.4679  0.1714  0.4453
  571MPD2     C 8465   3.446   0.149   0.805  0.0154 -0.0262 -0.1437
  571MPD2    C1 8466   3.523   0.173   0.690  0.0488  0.3539 -0.7586
  571MPD2    C2 8467   3.561   0.307   0.650 -0.0016 -0.4018  0.6858
  571MPD2    C3 8468   3.517   0.415   0.733 -0.0403 -0.0179  0.2746
  571MPD2    C4 8469   3.428   0.392   0.833  0.4397  0.0771 -0.3650
  571MPD2    C5 8470   3.390   0.259   0.854 -0.9619 -0.2485  0.3466
  571MPD2     H 8471   3.610   0.335   0.558  0.3315 -0.2872  0.8975
  571MPD2    H1 8472   3.385   0.473   0.890 -1.6992 -0.2634 -1.5176
  571MPD2    H2 8473   3.414   0.049   0.831  2.0336 -0.8969 -0.9707
  571MPD2    H3 8474   3.318   0.235   0.931  1.8673  0.7896  3.3290
  571MPD2     N 8475   3.539   0.551   0.701  0.2636  0.7235 -0.9012
  571MPD2    H5 8476   3.482   0.626   0.738 -0.7678 -0.1240 -0.7936
  571MPD2    N1 8477   3.565   0.051   0.630 -0.3690 -0.1606 -0.2595
  571MPD2    H7 8478   3.540   4.688   0.676 -0.0582 -1.7028 -2.9677
  572TMC3    C1 8479   3.629   0.725   0.590 -0.2684 -0.5539 -0.4724
  572TMC3    C2 8480   3.720   0.810   0.628 -0.2964 -0.7717 -0.2864
  572TMC3    C3 8481   3.698   0.939   0.600  0.3032 -0.4622  0.2587
  572TMC3    C4 8482   3.506   0.769   0.549 -0.6165  0.2732 -0.0698
  572TMC3    C5 8483   3.486   0.906   0.533 -0.1904  0.8084  0.2077
  572TMC3    C6 8484   3.590   0.995   0.543  0.5976  0.6754  0.5358
  572TMC3     C 8485   3.648   0.588   0.627 -0.3090 -0.4710 -0.1490
  572TMC3     O 8486   3.763   0.549   0.626 -1.2731  0.2240 -0.2119
  572TMC3     H 8487   3.820   0.770   0.642  0.0877 -0.8609 -3.2187
  572TMC3    H1 8488   3.428   0.697   0.527  0.2859 -0.6921 -0.1059
  572TMC3    H2 8489   3.583   1.099   0.511  0.3055  0.2348 -0.8557
  572TMC3    C7 8490   3.370   0.948   0.454 -0.1117  0.6557 -0.5202
  572TMC3    C8 8491   3.788   1.046   0.651 -0.2382 -0.5963  0.2390
  572TMC3    O1 8492   3.391   1.044   0.379  0.1856  0.0309 -0.3766
  572TMC3    O2 8493   3.794   1.154   0.593  0.1922 -0.3067  0.4311
  573MPD2     C 8494   0.041   1.166   0.997  0.2209  0.1295  0.1163
  573MPD2    C1 8495   4.713   1.043   0.962 -0.3393  0.2173  0.2610
  573MPD2    C2 8496   4.612   1.038   0.857 -0.3635  0.5963  0.1637
  573MPD2    C3 8497   4.569   1.148   0.791  0.3279 -0.0726  0.4348
  573MPD2    C4 8498   4.604   1.269   0.842  0.0998 -0.1376 -0.7424
  573MPD2    C5 8499   4.705   1.276   0.939 -0.1133 -0.1377 -0.1565
  573MPD2     H 8500   4.578   0.942   0.821  0.2123  0.3802  0.1931
  573MPD2    H1 8501   4.571   1.367   0.808 -1.3859 -0.1227  0.7468
  573MPD2    H2 8502   0.126   1.183   1.062 -1.7608  2.8800  2.0401
  573MPD2    H3 8503   0.030   1.370   0.962 -1.4057  0.0818  1.6310
  573MPD2     N 8504   4.480   1.152   0.679  0.2428 -0.0644 -0.3365
  573MPD2    H5 8505   4.456   1.245   0.646 -1.1252 -0.4344 -0.3831
  573MPD2    N1 8506   0.040   0.921   1.027 -0.0257  0.4763  0.2260
  573MPD2    H7 8507   0.105   0.930   1.104  0.1945  0.7481  0.0050
  574TMC3    C1 8508   4.327   1.073   0.514  0.4922  0.1255  0.3140
  574TMC3    C2 8509   4.285   1.200   0.501  0.0903  0.2947  0.2500
  574TMC3    C3 8510   4.181   1.227   0.419 -0.1980 -0.8168  0.0498
  574TMC3    C4 8511   4.268   0.974   0.447 -0.4312  0.5104  0.3692
  574TMC3    C5 8512   4.156   0.998   0.380  1.1684 -0.6044 -0.7018
  574TMC3    C6 8513   4.110   1.125   0.361 -0.4038 -0.2763  0.4850
  574TMC3     C 8514   4.429   1.041   0.615  0.0523  0.0712  0.3008
  574TMC3     O 8515   4.467   0.925   0.612  0.1967  0.3832  0.1558
  574TMC3     H 8516   4.352   1.282   0.524  0.0033 -0.0270  1.6408
  574TMC3    H1 8517   4.299   0.874   0.473 -0.2557  0.7067  0.9192
  574TMC3    H2 8518   4.016   1.140   0.310 -0.8103  1.0328  1.5972
  574TMC3    C7 8519   4.065   0.884   0.363  0.3935 -0.2381 -0.0418
  574TMC3    C8 8520   4.119   1.357   0.421  0.3251 -0.2820  0.7005
  574TMC3    O1 8521   4.102   0.783   0.418  0.5868  0.3744 -0.2353
  574TMC3    O2 8522   4.150   1.431   0.516  0.4230 -0.2056 -0.1023
  575TMC3    C1 8523   2.578   1.286  11.577  0.5898 -0.0014 -0.1569
  575TMC3    C2 8524   2.545   1.158  11.610 -0.5625 -0.0603  0.1106
  575TMC3    C3 8525   2.471   1.083  11.517  0.1836 -0.1230 -0.0384
  575TMC3    C4 8526   2.579   1.331  11.451 -0.2455  0.0251  0.0264
  575TMC3    C5 8527   2.536   1.244  11.353 -0.1666  0.6050  0.0479
  575TMC3    C6 8528   2.471   1.128  11.386 -0.0934 -0.2254  0.2857
  575TMC3     C 8529   2.634   1.367  11.687  0.4013 -0.6179 -0.1635
  575TMC3     O 8530   2.691   1.322  11.785 -0.1964  0.3059 -0.5961
  575TMC3     H 8531   2.563   1.110  11.706 -0.1884 -0.1656 -0.0141
  575TMC3    H1 8532   2.647   1.411  11.422  0.0973 -0.4396 -0.4446
  575TMC3    H2 8533   2.424   1.074  11.304 -2.2372  0.2692  1.1917
  575TMC3    C7 8534   2.509   1.296  11.219  0.6862 -0.1232 -0.0511
  575TMC3    C8 8535   2.406   0.962  11.556  0.1692  0.0966 -0.3628
  575TMC3    O1 8536   2.489   1.419  11.212  1.1590 -0.6729 -0.6056
  575TMC3    O2 8537   2.448   0.912  11.661 -1.2134 -0.0294 -0.1330
  576MPD2     C 8538   2.068   3.660  12.593  0.0057 -0.3307  0.4043
  576MPD2    C1 8539   2.092   3.676  12.458 -0.1530  0.1415  0.5220
  576MPD2    C2 8540   2.029   3.774  12.384 -0.4757 -0.2299 -0.1682
  576MPD2    C3 8541   1.937   3.854  12.450  0.9989 -0.6424 -0.2473
  576MPD2    C4 8542   1.913   3.838  12.586  0.8726 -0.2831 -0.1938
  576MPD2    C5 8543   1.969   3.735  12.653  0.1027  0.5554  0.7185
  576MPD2     H 8544   2.041   3.774  12.276  2.5968 -1.3872  0.1659
  576MPD2    H1 8545   1.841   3.894  12.644  1.8799 -1.0734  1.8309
  576MPD2    H2 8546   2.114   3.582  12.652  1.2828  0.4434  0.4079
  576MPD2    H3 8547   1.941   3.725  12.758 -0.2441 -1.3459  0.4477
  576MPD2     N 8548   1.886   3.959  12.374  0.2561  0.2104 -0.7013
  576MPD2    H5 8549   1.907   3.972  12.275  1.2275 -0.9707 -0.6561
  576MPD2    N1 8550   2.197   3.607  12.391  0.3049 -0.5931 -0.1339
  576MPD2    H7 8551   2.214   3.632  12.294 -3.7951  2.9996  0.0321
  577TMC3    C1 8552   2.388   3.466  12.362  0.4560  0.5599 -0.4231
  577TMC3    C2 8553   2.450   3.351  12.403  0.4116 -0.5737 -0.2276
  577TMC3    C3 8554   2.561   3.314  12.329 -0.1313 -0.1165  0.7873
  577TMC3    C4 8555   2.432   3.540  12.264  0.4439 -0.3373 -0.6092
  577TMC3    C5 8556   2.547   3.508  12.203 -0.6735  0.0302 -0.4955
  577TMC3    C6 8557   2.622   3.398  12.242  0.9736  0.2949  0.9400
  577TMC3     C 8558   2.278   3.509  12.444 -0.1420 -0.1607  0.6413
  577TMC3     O 8559   2.270   3.446  12.551 -0.8229 -0.2913  0.1198
  577TMC3     H 8560   2.409   3.290  12.483  0.8925 -1.2204 -0.4758
  577TMC3    H1 8561   2.388   3.636  12.237 -1.2859 -1.0896 -0.4408
  577TMC3    H2 8562   2.712   3.376  12.185 -0.5496 -0.2858 -1.2326
  577TMC3    C7 8563   2.581   3.565  12.069  0.3726 -0.1676 -0.7799
  577TMC3    C8 8564   2.597   3.177  12.330  0.2272  0.6963 -0.4588
  577TMC3    O1 8565   2.696   3.555  12.033  0.7025  0.2577  0.2157
  577TMC3    O2 8566   2.568   3.114  12.430 -0.5459  0.0232  0.0191
  578MPD2     C 8567   0.144   3.630   1.390 -0.3071 -0.6315  0.0411
  578MPD2    C1 8568   0.237   3.561   1.324 -0.5584 -0.4013  0.2904
  578MPD2    C2 8569   0.338   3.490   1.386  0.6151 -0.3648 -0.8846
  578MPD2    C3 8570   0.355   3.507   1.523  0.8933 -0.0487  0.4485
  578MPD2    C4 8571   0.270   3.590   1.593 -0.2249  0.0118  0.2715
  578MPD2    C5 8572   0.162   3.643   1.525 -0.6327 -0.3600 -0.0189
  578MPD2     H 8573   0.414   3.434   1.333  2.5077 -0.3830  1.8409
  578MPD2    H1 8574   0.296   3.637   1.688  0.1852  1.3610 -0.5147
  578MPD2    H2 8575   0.054   3.663   1.340 -0.0459  0.6875  0.4390
  578MPD2    H3 8576   0.083   3.699   1.573 -1.0355 -1.1808  0.2796
  578MPD2     N 8577   0.474   3.456   1.580 -0.3352 -0.3785  0.1869
  578MPD2    H5 8578   0.530   3.398   1.519  0.0224  0.8135 -0.6187
  578MPD2    N1 8579   0.226   3.565   1.185 -1.0792  1.0700  0.1003
  578MPD2    H7 8580   0.147   3.619   1.152 -0.2046  2.5381  0.3831
  579TMC3    C1 8581   0.622   3.382   1.759  0.7220 -0.1459  0.4962
  579TMC3    C2 8582   0.683   3.424   1.877  0.5589 -0.3710 -0.4941
  579TMC3    C3 8583   0.798   3.361   1.912 -0.4146 -0.3671 -0.6766
  579TMC3    C4 8584   0.682   3.295   1.673 -0.3604  0.2150  0.2483
  579TMC3    C5 8585   0.801   3.233   1.715 -0.6782 -0.3390  0.4831
  579TMC3    C6 8586   0.859   3.267   1.838  0.0963 -0.1700  0.1143
  579TMC3     C 8587   0.506   3.467   1.718  0.7169 -0.2996  0.8828
  579TMC3     O 8588   0.461   3.548   1.799 -0.0308 -0.0557 -0.2254
  579TMC3     H 8589   0.656   3.516   1.926  0.0689 -0.1267 -1.2187
  579TMC3    H1 8590   0.640   3.249   1.585  2.7738  0.2593 -1.2543
  579TMC3    H2 8591   0.948   3.212   1.867 -0.2927 -1.6483 -1.5013
  579TMC3    C7 8592   0.871   3.135   1.635 -0.7202  0.1688  0.2442
  579TMC3    C8 8593   0.884   3.409   2.027  0.5109 -0.2160 -0.2057
  579TMC3    O1 8594   0.944   3.058   1.697  0.0525  0.2434 -0.4347
  579TMC3    O2 8595   0.831   3.467   2.120  0.8500 -0.5236  0.9693
  580TMC3    C1 8596   0.727   2.806  12.387 -0.2787 -0.1972 -0.1560
  580TMC3    C2 8597   0.803   2.805  12.265 -0.3884 -0.0368  0.8132
  580TMC3    C3 8598   0.862   2.688  12.235  0.2511  0.2176 -0.7678
  580TMC3    C4 8599   0.719   2.694  12.467  0.3623  0.4077  0.4768
  580TMC3    C5 8600   0.780   2.582  12.425 -0.0901 -0.1368  0.2533
  580TMC3    C6 8601   0.831   2.571  12.306  0.0065  0.7747  0.3135
  580TMC3     C 8602   0.616   2.898  12.399  0.2478  0.1509  0.1144
  580TMC3     O 8603   0.550   2.908  12.504 -0.3767  0.6727 -0.0823
  580TMC3     H 8604   0.818   2.883  12.191  0.3403  1.7035  2.7969
  580TMC3    H1 8605   0.659   2.693  12.557 -2.3554  1.0544 -1.3474
  580TMC3    H2 8606   0.886   2.480  12.284 -2.5855 -0.7653  0.1848
  580TMC3    C7 8607   0.736   2.460  12.502 -0.5867  0.1006  0.3872
  580TMC3    C8 8608   0.942   2.683  12.110  0.1231  0.1498 -0.6401
  580TMC3    O1 8609   0.735   2.460  12.623  0.4663 -0.1041  0.7084
  580TMC3    O2 8610   0.888   2.624  12.014  0.0549  0.4905  0.5882
  581MPD2     C 8611   3.197   1.699  15.209 -0.2244 -0.5313  0.5224
  581MPD2    C1 8612   3.162   1.788  15.307  0.8809  0.3017 -0.1176
  581MPD2    C2 8613   3.053   1.874  15.286 -0.7639 -0.0343  0.0868
  581MPD2    C3 8614   2.967   1.853  15.183  0.3488 -0.6502 -0.3981
  581MPD2    C4 8615   3.015   1.768  15.079 -0.6918 -0.4917  0.4422
  581MPD2    C5 8616   3.128   1.691  15.090 -0.3422  0.6622  1.3039
  581MPD2     H 8617   3.019   1.950  15.355  0.0303 -0.5189  1.0236
  581MPD2    H1 8618   2.973   1.757  14.979  1.4678 -0.5575 -0.4455
  581MPD2    H2 8619   3.276   1.628  15.226  1.3493  1.5424  1.8767
  581MPD2    H3 8620   3.156   1.628  15.007 -3.2459  0.8415  0.2026
  581MPD2     N 8621   2.850   1.926  15.163  0.6139  0.3299 -0.5426
  581MPD2    H5 8622   2.847   2.014  15.214 -0.9095 -0.4576  0.7260
  581MPD2    N1 8623   3.245   1.789  15.426 -0.3880 -0.3115  0.1624
  581MPD2    H7 8624   3.334   1.740  15.425 -0.6535 -0.7649 -1.3770
  582TMC3    C1 8625   3.305   1.827  15.653 -0.0222  0.4704 -0.2111
  582TMC3    C2 8626   3.274   1.906  15.763  0.3670 -0.7328 -0.2722
  582TMC3    C3 8627   3.310   1.856  15.887 -0.6125  0.3545  0.1866
  582TMC3    C4 8628   3.373   1.707  15.659 -0.2211  0.3096  0.0660
  582TMC3    C5 8629   3.402   1.656  15.779  0.5197 -0.4286 -0.1526
  582TMC3    C6 8630   3.371   1.733  15.899 -0.0995 -0.6288 -0.5192
  582TMC3     C 8631   3.215   1.852  15.541  0.1474 -0.3336 -0.4889
  582TMC3     O 8632   3.117   1.919  15.557 -0.0004 -0.5247  0.5975
  582TMC3     H 8633   3.218   1.998  15.750  0.3310 -0.6080  0.7875
  582TMC3    H1 8634   3.393   1.643  15.573  2.4296  1.9098 -0.5245
  582TMC3    H2 8635   3.402   1.691  15.994  2.2575 -0.2084 -1.1015
  582TMC3    C7 8636   3.363   1.525  15.797  0.1637 -0.6382  0.7933
  582TMC3    C8 8637   3.293   1.945  16.003  0.2844 -0.9532  0.8708
  582TMC3    O1 8638   3.431   1.442  15.733 -0.1310  0.1562 -0.0389
  582TMC3    O2 8639   3.212   2.033  15.989  0.1261  0.4278 -0.4916
  583MPD2     C 8640   3.303   3.669  16.962  0.2831  0.7769 -0.0753
  583MPD2    C1 8641   3.295   3.778  16.883 -0.4690  0.3233 -0.4184
  583MPD2    C2 8642   3.266   3.893  16.948 -0.1611  0.2842 -0.1340
  583MPD2    C3 8643   3.247   3.901  17.085 -0.0587 -0.4577 -0.0897
  583MPD2    C4 8644   3.232   3.783  17.159 -0.7389  0.0435  0.5526
  583MPD2    C5 8645   3.260   3.668  17.096 -0.3025 -0.0471 -0.2850
  583MPD2     H 8646   3.255   3.980  16.885  0.0388 -1.9202 -3.1783
  583MPD2    H1 8647   3.204   3.783  17.263 -1.7032  1.2120  0.2934
  583MPD2    H2 8648   3.317   3.568  16.924  0.3141  0.6392  0.2997
  583MPD2    H3 8649   3.249   3.571  17.141  0.7186  1.2925  2.8396
  583MPD2     N 8650   3.203   4.020  17.151 -0.4307  0.1894 -0.5121
  583MPD2    H5 8651   3.204   4.102  17.092  0.8110  1.3223  1.0733
  583MPD2    N1 8652   3.310   3.777  16.744 -0.0815  0.5216 -0.5830
  583MPD2    H7 8653   3.309   3.868  16.698  1.6507 -0.3733 -2.3979
  584TMC3    C1 8654   3.104   4.169  17.306  0.1024 -0.2436  0.3363
  584TMC3    C2 8655   3.042   4.231  17.201 -0.0950 -0.3203 -0.0482
  584TMC3    C3 8656   2.992   4.349  17.218  0.0023  0.4020 -0.2735
  584TMC3    C4 8657   3.123   4.236  17.425 -0.0462 -0.3878  0.2877
  584TMC3    C5 8658   3.077   4.365  17.429 -1.1551  0.4499  0.6043
  584TMC3    C6 8659   3.010   4.424  17.328  0.0166  0.2356 -0.2132
  584TMC3     C 8660   3.162   4.040  17.283 -0.0063  0.1794  0.4722
  584TMC3     O 8661   3.166   3.966  17.377  0.2140  0.1094  0.1827
  584TMC3     H 8662   3.021   4.179  17.108  0.8979 -0.9425  0.0827
  584TMC3    H1 8663   3.177   4.178  17.499  1.9877  0.6147 -0.4103
  584TMC3    H2 8664   2.976   4.527  17.325 -0.7819  0.0466  2.0484
  584TMC3    C7 8665   3.086   4.435  17.557 -0.1493 -0.1105 -0.5006
  584TMC3    C8 8666   2.962   4.423  17.098  0.1231  0.5013 -0.4555
  584TMC3    O1 8667   3.127   4.367  17.653 -0.2920 -0.3842  0.0564
  584TMC3    O2 8668   2.916   4.363  17.004  0.1668  0.4201  0.2420
  585MPD2     C 8669   2.433   2.883   1.132 -0.2119  0.1655  0.0673
  585MPD2    C1 8670   2.372   2.952   1.028  0.2860 -0.3056 -0.1481
  585MPD2    C2 8671   2.381   2.902   0.903 -0.0241 -0.6165  0.6027
  585MPD2    C3 8672   2.461   2.795   0.873  0.5322 -0.2081 -0.3050
  585MPD2    C4 8673   2.522   2.732   0.978  0.3198 -0.8526  0.4765
  585MPD2    C5 8674   2.510   2.779   1.105  0.4281  0.2935 -0.3711
  585MPD2     H 8675   2.340   2.952   0.816  0.2109 -0.5696  0.5194
  585MPD2    H1 8676   2.563   2.633   0.961  2.0605 -0.1229  0.4610
  585MPD2    H2 8677   2.431   2.915   1.235  2.1465 -0.8545  0.4286
  585MPD2    H3 8678   2.559   2.722   1.184 -0.4502 -2.1684 -1.6319
  585MPD2     N 8679   2.460   2.733   0.744 -0.3528 -0.0406  0.0062
  585MPD2    H5 8680   2.545   2.685   0.717  0.9642  0.9641  2.4012
  585MPD2    N1 8681   2.310   3.077   1.065 -0.2456 -0.3044  0.3780
  585MPD2    H7 8682   2.342   3.112   1.155  1.3059  0.6917 -0.5689
  586TMC3    C1 8683   2.364   2.709   0.520  0.2289  0.5594 -1.0566
  586TMC3    C2 8684   2.481   2.680   0.462  0.1013 -0.9544  0.2923
  586TMC3    C3 8685   2.484   2.664   0.324 -0.3535 -0.9531  0.2164
  586TMC3    C4 8686   2.252   2.724   0.451  0.6082 -0.1152 -0.0765
  586TMC3    C5 8687   2.252   2.696   0.320 -0.2520 -0.6986  0.1426
  586TMC3    C6 8688   2.366   2.671   0.249  0.0733  0.0544 -0.4724
  586TMC3     C 8689   2.347   2.739   0.667  0.0438 -0.6778 -0.2939
  586TMC3     O 8690   2.239   2.787   0.694  0.1819 -0.4355 -0.3865
  586TMC3     H 8691   2.574   2.668   0.516  1.1284 -0.7203 -1.4030
  586TMC3    H1 8692   2.154   2.738   0.495  0.2352 -0.0735 -0.9231
  586TMC3    H2 8693   2.360   2.648   0.143  1.0118 -0.9395 -0.3046
  586TMC3    C7 8694   2.135   2.677   0.236  0.2210 -0.6069  0.2350
  586TMC3    C8 8695   2.611   2.624   0.266  0.1374  0.1857  0.0469
  586TMC3    O1 8696   2.144   2.583   0.158 -0.0085 -0.2803 -0.0213
  586TMC3    O2 8697   2.705   2.605   0.338  0.8499 -0.0594  0.1329
  587TMC3    C1 8698   4.499   1.390  16.607 -0.2203  0.4474  0.6496
  587TMC3    C2 8699   4.471   1.517  16.565  0.4266 -0.1121  0.3706
  587TMC3    C3 8700   4.550   1.624  16.597 -0.4179  0.2487 -0.3085
  587TMC3    C4 8701   4.597   1.370  16.695 -0.3739  0.9796  0.5615
  587TMC3    C5 8702   4.673   1.471  16.738 -0.4078  0.3232  1.2920
  587TMC3    C6 8703   4.648   1.603  16.690  0.0300 -0.0542  0.0251
  587TMC3     C 8704   4.425   1.275  16.557  0.2516 -0.3192 -0.1971
  587TMC3     O 8705   4.487   1.171  16.560  0.0567  0.0269  0.4225
  587TMC3     H 8706   4.392   1.536  16.493 -0.8877  1.5591  2.2352
  587TMC3    H1 8707   4.615   1.272  16.740  1.7749  0.0863 -2.2650
  587TMC3    H2 8708   4.692   1.689  16.739 -1.5045  0.0257  1.2553
  587TMC3    C7 8709   0.047   1.440  16.842  0.1540 -0.1500 -0.7976
  587TMC3    C8 8710   4.519   1.764  16.570  0.1671 -0.3982  0.3614
  587TMC3    O1 8711   0.055   1.322  16.875 -0.0879  0.1985 -0.2360
  587TMC3    O2 8712   4.597   1.857  16.588  0.4178  0.0794  0.3278
  588TMC3    C1 8713   1.928   4.103  10.401 -0.0359  0.1680 -0.1515
  588TMC3    C2 8714   1.952   4.035  10.282 -0.1095 -0.2886 -1.1307
  588TMC3    C3 8715   2.083   4.016  10.239  0.2249  0.5056  0.4695
  588TMC3    C4 8716   2.026   4.163  10.473  0.6107 -0.0820  0.3277
  588TMC3    C5 8717   2.153   4.151  10.421 -0.2345  0.5770 -0.2663
  588TMC3    C6 8718   2.182   4.067  10.318 -0.7963 -0.7764  0.7340
  588TMC3     C 8719   1.813   4.190  10.386  0.4738  0.0871  0.1489
  588TMC3     O 8720   1.715   4.147  10.327 -0.0412  0.5694 -0.4144
  588TMC3     H 8721   1.874   3.994  10.219 -0.2696  0.2882 -1.3043
  588TMC3    H1 8722   2.012   4.209  10.570 -2.2758 -1.9140  0.7795
  588TMC3    H2 8723   2.281   4.040  10.284  0.1990  4.7304 -0.7447
  588TMC3    C7 8724   2.215   4.285  10.412 -0.5291  0.3223  0.5886
  588TMC3    C8 8725   2.115   3.911  10.151  0.0582  0.3834  0.3605
  588TMC3    O1 8726   2.146   4.377  10.458  0.1156  0.8862 -0.2586
  588TMC3    O2 8727   2.033   3.890  10.057  0.1797  0.9904  0.3130
  589TMC3    C1 8728   0.894   1.410   1.126 -0.2336 -0.1126 -0.4939
  589TMC3    C2 8729   0.989   1.397   1.225 -0.4385 -0.6457 -0.7550
  589TMC3    C3 8730   1.079   1.294   1.209 -0.2583  0.1650  0.0137
  589TMC3    C4 8731   0.894   1.324   1.022 -0.6598  0.3518 -0.5584
  589TMC3    C5 8732   0.988   1.224   1.014  0.3157  0.1115  0.1318
  589TMC3    C6 8733   1.077   1.203   1.109 -0.2927 -1.0027  0.0763
  589TMC3     C 8734   0.799   1.522   1.124 -0.1809  0.3040 -0.4517
  589TMC3     O 8735   0.700   1.517   1.057 -0.1801 -0.1787  0.0811
  589TMC3     H 8736   0.993   1.463   1.311  0.6577 -2.2774  0.4371
  589TMC3    H1 8737   0.811   1.330   0.953 -1.5947  1.7988  0.6941
  589TMC3    H2 8738   1.142   1.118   1.092 -0.1457 -1.1975  1.5992
  589TMC3    C7 8739   0.949   1.099   0.940  0.2539 -0.0885  0.4154
  589TMC3    C8 8740   1.162   1.264   1.327  0.0137  0.0668  0.6140
  589TMC3    O1 8741   0.988   0.993   0.977 -0.7502  0.6335 -0.0446
  589TMC3    O2 8742   1.145   1.342   1.419  0.1349 -0.7851  0.3709
  590MPD2     C 8743   0.916   4.459  16.846  0.3049 -0.7812  0.4118
  590MPD2    C1 8744   0.848   4.563  16.779 -0.1975 -0.1480 -0.7503
  590MPD2    C2 8745   0.913   4.623  16.669  0.3725 -0.2403 -1.1330
  590MPD2    C3 8746   1.039   4.589  16.628  0.3942 -0.3835 -0.6637
  590MPD2    C4 8747   1.091   4.472  16.684 -0.1369 -0.1621  0.4259
  590MPD2    C5 8748   1.037   4.415  16.793  0.0041  0.1359 -0.9919
  590MPD2     H 8749   0.866   4.696  16.604 -1.9101  0.3028  1.1396
  590MPD2    H1 8750   1.176   4.425  16.638 -0.1462  1.6469 -1.4282
  590MPD2    H2 8751   0.871   4.403  16.927  1.4527 -2.4855 -0.1236
  590MPD2    H3 8752   1.093   4.335  16.841 -1.4960 -0.1938  0.2063
  590MPD2     N 8753   1.098   4.659  16.514  0.0276 -0.2447  0.3785
  590MPD2    H5 8754   1.035   4.715  16.457 -0.6337  0.6331  1.9618
  590MPD2    N1 8755   0.716   4.604  16.826  0.0036  1.0857  0.0238
  590MPD2    H7 8756   0.668   4.561  16.904  2.7083  1.6237  1.9787
  591TMC3    C1 8757   1.245   4.700  16.333  0.0202 -0.0311  0.3530
  591TMC3    C2 8758   1.333   4.636  16.244  0.0123  0.6089  0.4295
  591TMC3    C3 8759   1.343   4.679  16.113 -0.5942  0.0377  0.5005
  591TMC3    C4 8760   1.183   0.089  16.292 -0.4156 -0.5427  0.5742
  591TMC3    C5 8761   1.192   0.140  16.164  0.1726  0.1349  0.6755
  591TMC3    C6 8762   1.266   0.061  16.079 -0.5664  0.0855 -0.1285
  591TMC3     C 8763   1.229   4.645  16.466 -0.0954  0.4723 -0.0165
  591TMC3     O 8764   1.316   4.578  16.514 -0.1351 -0.0161  1.1597
  591TMC3     H 8765   1.377   4.540  16.268  0.2209  0.7950  0.7858
  591TMC3    H1 8766   1.131   0.146  16.368 -0.9878 -0.5582  0.1961
  591TMC3    H2 8767   1.258   0.080  15.973  1.3564  2.1857  0.1002
  591TMC3    C7 8768   1.080   0.223  16.121 -0.8161  0.1132 -0.2982
  591TMC3    C8 8769   1.369   4.575  16.018  0.0418 -0.4771  0.1810
  591TMC3    O1 8770   0.981   0.238  16.192 -0.1222  0.8672 -0.2459
  591TMC3    O2 8771   1.360   4.460  16.056  0.0224 -0.0994 -1.1946
  592MPD2     C 8772   1.326   2.215  11.451 -0.1433 -0.1622  0.0347
  592MPD2    C1 8773   1.314   2.260  11.580 -0.9140 -0.5029  0.3396
  592MPD2    C2 8774   1.198   2.234  11.649  0.2407 -0.3951  0.1239
  592MPD2    C3 8775   1.098   2.170  11.583 -0.3082  0.6595  1.2289
  592MPD2    C4 8776   1.116   2.115  11.457  0.3519  0.1750 -0.0911
  592MPD2    C5 8777   1.230   2.139  11.387  0.3900  0.1229 -0.2753
  592MPD2     H 8778   1.189   2.270  11.751 -2.9131  2.3925 -1.1312
  592MPD2    H1 8779   1.034   2.060  11.411 -0.9177  1.2791  0.8673
  592MPD2    H2 8780   1.419   2.236  11.400  1.3175  0.2434  2.9046
  592MPD2    H3 8781   1.250   2.102  11.287  1.0534  0.4533 -0.2655
  592MPD2     N 8782   0.989   2.142  11.661  0.4075  0.4881 -0.0878
  592MPD2    H5 8783   0.990   2.161  11.761  0.3322  1.0704 -0.1950
  592MPD2    N1 8784   1.426   2.337  11.627 -0.2217 -0.2418  0.3750
  592MPD2    H7 8785   1.503   2.356  11.564 -0.9762  1.8215  0.0554
  593TMC3    C1 8786   1.542   2.479  11.772  0.2445 -0.8835  0.2069
  593TMC3    C2 8787   1.567   2.528  11.899  0.1340 -0.5853  0.0017
  593TMC3    C3 8788   1.633   2.642  11.914 -0.0632  0.4717 -0.2468
  593TMC3    C4 8789   1.570   2.554  11.657  0.5431 -0.2475  0.6440
  593TMC3    C5 8790   1.636   2.671  11.683 -0.0380  0.2456 -0.6341
  593TMC3    C6 8791   1.668   2.721  11.802  0.2163  0.4673  0.7043
  593TMC3     C 8792   1.452   2.367  11.760  0.9056  0.1875 -0.4517
  593TMC3     O 8793   1.389   2.340  11.862 -0.3867 -0.3579  0.1357
  593TMC3     H 8794   1.529   2.481  11.989 -1.8519 -2.0536 -1.6138
  593TMC3    H1 8795   1.549   2.517  11.557  1.2916  0.9510  0.0506
  593TMC3    H2 8796   1.720   2.813  11.823 -1.4540  0.8532  3.0944
  593TMC3    C7 8797   1.680   2.749  11.569 -0.3011  0.2702  0.2998
  593TMC3    C8 8798   1.680   2.661  12.047  0.1290 -0.6157  0.2232
  593TMC3    O1 8799   1.698   2.868  11.582  0.1157  0.0101 -0.0743
  593TMC3    O2 8800   1.620   2.613  12.143 -0.2841  0.1938  0.1956
  594MPD2     C 8801   4.426   0.725  13.822  0.2594 -0.6238  0.2000
  594MPD2    C1 8802   4.432   0.664  13.950 -0.1368 -0.3904 -0.3198
  594MPD2    C2 8803   4.536   0.706  14.028  0.6258 -0.0119  1.0330
  594MPD2    C3 8804   4.634   0.785  13.987 -0.5771 -0.1252 -0.4043
  594MPD2    C4 8805   4.634   0.826  13.855  0.7543 -0.0720 -0.0613
  594MPD2    C5 8806   4.531   0.799  13.773  0.5005  0.2496  0.1822
  594MPD2     H 8807   4.524   0.679  14.133 -1.0380 -0.4180  0.7393
  594MPD2    H1 8808   4.708   0.890  13.809  0.9612 -1.0145 -1.0387
  594MPD2    H2 8809   4.350   0.695  13.751 -1.5955 -1.0475  2.3771
  594MPD2    H3 8810   4.523   0.841  13.673  0.8618  0.4916  0.2568
  594MPD2     N 8811   0.017   0.815  14.080  0.1144  0.6424 -0.0953
  594MPD2    H5 8812   0.003   0.783  14.175  2.3958 -0.8807 -0.2871
  594MPD2    N1 8813   4.333   0.572  13.991  0.3714  0.0776 -0.2076
  594MPD2    H7 8814   4.252   0.562  13.930 -0.6838 -1.1587  1.4022
  595TMC3    C1 8815   0.444   0.953  14.222  0.4917 -0.2741  0.9757
  595TMC3    C2 8816   0.366   0.914  14.120 -0.0779  0.8416  0.3362
  595TMC3    C3 8817   0.238   0.864  14.144  0.0741 -0.4270  0.5445
  595TMC3    C4 8818   0.402   0.938  14.349  0.1732 -0.4738  0.5258
  595TMC3    C5 8819   0.289   0.864  14.370  0.2551  0.1951  0.3698
  595TMC3    C6 8820   0.200   0.837  14.273  0.5564 -0.8334  1.1730
  595TMC3     C 8821   0.585   0.971  14.206 -0.4404 -0.5151 -0.0438
  595TMC3     O 8822   0.654   0.955  14.310 -0.2422  0.4706 -0.3078
  595TMC3     H 8823   0.393   0.936  14.017 -1.4194 -1.1295 -0.4333
  595TMC3    H1 8824   0.439   0.991  14.437 -1.4531  0.7018  0.4995
  595TMC3    H2 8825   0.108   0.785  14.299  0.8151 -1.8652  0.0382
  595TMC3    C7 8826   0.238   0.861  14.509 -0.7480 -0.6521 -0.3567
  595TMC3    C8 8827   0.135   0.869  14.041 -0.0232  0.6764  0.3658
  595TMC3    O1 8828   0.114   0.852  14.514  0.0392 -0.6138 -0.7108
  595TMC3    O2 8829   0.162   0.935  13.942 -0.0642  0.5209  0.0958
  596MPD2     C 8830   4.063   3.528  16.986  0.1128 -0.0679  0.2807
  596MPD2    C1 8831   4.118   3.650  16.950  0.0973  0.1175 -0.0251
  596MPD2    C2 8832   4.141   3.673  16.813  0.4360  0.6062  0.7691
  596MPD2    C3 8833   4.110   3.583  16.714  1.1355  0.3132 -0.3220
  596MPD2    C4 8834   4.076   3.457  16.756  0.5469  0.3596 -0.2181
  596MPD2    C5 8835   4.048   3.431  16.892  0.0040  0.6802 -0.4684
  596MPD2     H 8836   4.192   3.762  16.779  3.2836 -1.5093 -0.5166
  596MPD2    H1 8837   4.047   3.383  16.682 -1.1069  0.4121  0.3867
  596MPD2    H2 8838   4.036   3.503  17.088  1.1780 -0.5080  0.4593
  596MPD2    H3 8839   4.014   3.331  16.919  0.7007  0.5869  0.0600
  596MPD2     N 8840   4.141   3.601  16.576 -0.1749 -0.3934 -0.3040
  596MPD2    H5 8841   4.118   3.527  16.511 -4.3397  0.0464  0.6721
  596MPD2    N1 8842   4.127   3.754  17.036  0.9053  0.3050  0.5576
  596MPD2    H7 8843   4.157   3.843  16.999 -2.2794  2.0537  2.1917
  597TMC3    C1 8844   4.116   3.886  17.216 -0.2180  0.4360  0.1065
  597TMC3    C2 8845   4.228   3.958  17.185 -0.0174 -0.0172  0.0168
  597TMC3    C3 8846   4.250   4.076  17.254  0.1198 -0.7235  0.2696
  597TMC3    C4 8847   4.015   3.927  17.295  0.1141 -0.2622 -0.0775
  597TMC3    C5 8848   4.036   4.050  17.351  1.2342 -0.1286  0.5500
  597TMC3    C6 8849   4.151   4.123  17.341  0.3058  0.0871  0.1417
  597TMC3     C 8850   4.101   3.750  17.170 -0.6836  0.1914 -0.1512
  597TMC3     O 8851   4.039   3.669  17.241  0.0749 -0.2427 -0.4333
  597TMC3     H 8852   4.300   3.926  17.110  0.5048  3.1995 -0.8293
  597TMC3    H1 8853   3.932   3.862  17.322 -0.2745 -0.3873 -1.5988
  597TMC3    H2 8854   4.176   4.196  17.416  1.2178 -0.6321  0.5375
  597TMC3    C7 8855   3.911   4.103  17.414  0.6487 -0.2278  0.5808
  597TMC3    C8 8856   4.375   4.146  17.275 -0.5613 -0.2256  0.4337
  597TMC3    O1 8857   3.831   4.020  17.449  0.0733 -0.1455 -0.1352
  597TMC3    O2 8858   4.387   4.231  17.359 -0.0407 -0.0129  0.4710
  598TMC3    C1 8859   1.900   4.609  15.683  0.2385  0.0807 -0.0287
  598TMC3    C2 8860   1.920   4.474  15.673 -0.2849  1.6139  0.0513
  598TMC3    C3 8861   1.941   4.422  15.553 -0.1851  0.0370 -0.1412
  598TMC3    C4 8862   1.908   4.699  15.577  0.3843 -0.2318 -0.4427
  598TMC3    C5 8863   1.944   4.642  15.457  0.3036  0.6149 -0.0071
  598TMC3    C6 8864   1.948   4.506  15.445 -1.2212  0.0878  0.0951
  598TMC3     C 8865   1.890   4.677  15.811  0.1381 -1.0540 -0.1008
  598TMC3     O 8866   1.813   0.045  15.818  0.5224  0.7355 -0.2712
  598TMC3     H 8867   1.920   4.421  15.768  0.0899  0.6767 -0.4633
  598TMC3    H1 8868   1.906   0.081  15.601  0.9264  0.0401 -1.6012
  598TMC3    H2 8869   1.991   4.461  15.355 -1.7040  5.2428 -2.6846
  598TMC3    C7 8870   1.956   0.003  15.338 -0.4495  0.6424 -0.1655
  598TMC3    C8 8871   1.931   4.285  15.526 -0.2561  0.5898  0.4233
  598TMC3    O1 8872   1.958   4.660  15.237  0.0725 -1.2228  0.2250
  598TMC3    O2 8873   1.924   4.243  15.408  0.1100 -0.1613  0.0508
  599MPD2     C 8874   2.521   2.815  16.267 -0.4997 -0.4457  1.0579
  599MPD2    C1 8875   2.444   2.707  16.241 -0.8630 -0.4805  0.3146
  599MPD2    C2 8876   2.321   2.691  16.300  0.2479  0.1213  0.2441
  599MPD2    C3 8877   2.276   2.786  16.393 -0.8289 -0.3621  0.5786
  599MPD2    C4 8878   2.353   2.895  16.410  0.4593  0.9006  0.7537
  599MPD2    C5 8879   2.472   2.914  16.343 -0.0183 -0.2703  0.0854
  599MPD2     H 8880   2.261   2.604  16.279 -1.0928  1.1711 -0.3131
  599MPD2    H1 8881   2.318   2.971  16.479  0.7087  1.2105  0.5366
  599MPD2    H2 8882   2.621   2.821  16.226  0.0111 -0.2973  2.3249
  599MPD2    H3 8883   2.523   3.009  16.346 -1.3820  0.4267  1.1783
  599MPD2     N 8884   2.156   2.777  16.459  0.0906  0.0365 -0.2948
  599MPD2    H5 8885   2.130   2.857  16.516  3.1291  0.9854 -0.1871
  599MPD2    N1 8886   2.505   2.609  16.162  0.0176 -1.1486  0.1471
  599MPD2    H7 8887   2.602   2.622  16.134 -0.4855 -1.5376 -1.7616
  600TMC3    C1 8888   1.949   2.690  16.527 -0.1827  0.4596 -0.0735
  600TMC3    C2 8889   1.878   2.579  16.560 -0.0563 -0.4951 -0.3969
  600TMC3    C3 8890   1.762   2.598  16.640  0.3290 -0.4926 -0.5493
  600TMC3    C4 8891   1.908   2.812  16.547 -0.7595 -0.5490 -0.0861
  600TMC3    C5 8892   1.794   2.826  16.626 -1.0236  1.0344 -0.3480
  600TMC3    C6 8893   1.732   2.725  16.685 -0.0655  0.5194  0.4659
  600TMC3     C 8894   2.067   2.670  16.453  0.5254  0.6249 -0.1360
  600TMC3     O 8895   2.074   2.563  16.389 -0.2446 -0.1592  0.0308
  600TMC3     H 8896   1.903   2.483  16.516 -0.8320 -0.9033  0.0537
  600TMC3    H1 8897   1.959   2.894  16.499 -1.5435  0.5386  0.9342
  600TMC3    H2 8898   1.642   2.744  16.743  0.0863 -1.1211  1.2532
  600TMC3    C7 8899   1.752   2.961  16.669  0.1075 -0.4264 -0.6851
  600TMC3    C8 8900   1.692   2.479  16.688  0.3514  0.2285  0.6779
  600TMC3    O1 8901   1.653   2.965  16.740 -0.1188  0.4687  0.3516
  600TMC3    O2 8902   1.753   2.377  16.708  0.2735 -0.2019 -0.3325
  601MPD2     C 8903   2.887   0.906   0.283 -0.4890  0.4875  0.0399
  601MPD2    C1 8904   2.994   0.951   0.212  0.0837  0.0593 -0.6697
  601MPD2    C2 8905   3.118   0.949   0.276  0.0106 -0.2631 -0.1322
  601MPD2    C3 8906   3.135   0.886   0.397 -0.9567  0.4540 -0.2708
  601MPD2    C4 8907   3.025   0.831   0.462 -0.3387 -0.0222 -0.1211
  601MPD2    C5 8908   2.905   0.846   0.402 -0.5531 -0.1958 -0.9480
  601MPD2     H 8909   3.203   0.979   0.215 -0.2465 -0.4215 -0.5699
  601MPD2    H1 8910   3.024   0.783   0.559  0.2964 -3.5253 -1.8658
  601MPD2    H2 8911   2.784   0.912   0.251  0.0679  0.7661 -1.6970
  601MPD2    H3 8912   2.820   0.807   0.455  1.1907 -0.5305  1.6092
  601MPD2     N 8913   3.254   0.873   0.469  0.0553 -0.2859 -0.9790
  601MPD2    H5 8914   3.266   0.810   0.547 -0.5351  0.3971 -0.3397
  601MPD2    N1 8915   2.993   1.005   0.084  0.7058  0.1529  0.8281
  601MPD2    H7 8916   3.086   1.023   0.049 -0.0422  2.6026  0.1257
  602TMC3    C1 8917   2.926   1.118  17.595 -0.2966  0.0132  0.2087
  602TMC3    C2 8918   3.053   1.108  17.546 -0.2393  1.1703  0.0145
  602TMC3    C3 8919   3.092   1.212  17.464  0.2878  0.7417  0.0264
  602TMC3    C4 8920   2.841   1.221  17.577 -0.1954  0.4039  0.6607
  602TMC3    C5 8921   2.887   1.320  17.492 -0.1859 -0.2960  0.2602
  602TMC3    C6 8922   3.013   1.314  17.434 -0.1358 -0.4166  0.2907
  602TMC3     C 8923   2.888   1.029   0.007 -0.1307  0.3241  0.3505
  602TMC3     O 8924   2.767   1.008   0.025  0.5878  0.1993 -0.3139
  602TMC3     H 8925   3.115   1.022  17.572 -0.7068  1.2946  1.5595
  602TMC3    H1 8926   2.737   1.224  17.607  0.1350  1.0027  1.7462
  602TMC3    H2 8927   3.035   1.371  17.345  0.4385  0.5819  1.0677
  602TMC3    C7 8928   2.790   1.392  17.414 -1.3267 -0.8820  0.3343
  602TMC3    C8 8929   3.225   1.217  17.403 -0.2037 -0.8425 -0.4233
  602TMC3    O1 8930   2.684   1.327  17.395  0.1283 -0.3592 -0.0599
  602TMC3    O2 8931   3.287   1.112  17.395  0.2624 -0.3576  0.2436
  603TMC3    C1 8932   2.152   1.250  11.150 -0.1509  0.4790  0.2982
  603TMC3    C2 8933   2.137   1.250  11.289  0.5963 -0.1773  0.1222
  603TMC3    C3 8934   2.144   1.364  11.358 -0.1615 -0.0604  0.0666
  603TMC3    C4 8935   2.167   1.366  11.081 -0.2338 -0.0178 -0.0494
  603TMC3    C5 8936   2.166   1.476  11.158  0.0586 -0.1629 -0.4969
  603TMC3    C6 8937   2.167   1.483  11.295 -0.4280  0.2331  0.1327
  603TMC3     C 8938   2.162   1.115  11.092  0.1160  0.2764  0.2196
  603TMC3     O 8939   2.202   1.033  11.176 -0.2726  0.0332 -0.3642
  603TMC3     H 8940   2.123   1.156  11.341  0.8327 -0.1475  0.2364
  603TMC3    H1 8941   2.180   1.370  10.973  2.0372 -2.0470  0.1302
  603TMC3    H2 8942   2.164   1.575  11.352 -0.4691  0.3584 -0.0700
  603TMC3    C7 8943   2.192   1.594  11.084 -0.5955  0.9226 -0.0413
  603TMC3    C8 8944   2.163   1.348  11.504 -0.3679  0.0734  0.0937
  603TMC3    O1 8945   2.237   1.693  11.150  0.0864  0.6940  0.3438
  603TMC3    O2 8946   2.184   1.232  11.537  0.4301 -0.1257 -0.0127
  604MPD2     C 8947   2.867   4.436  16.508 -0.1109 -0.2586 -0.0226
  604MPD2    C1 8948   2.801   4.534  16.438  0.4145 -0.0744  0.0568
  604MPD2    C2 8949   2.852   4.562  16.311  0.8746  0.7552  0.1249
  604MPD2    C3 8950   2.968   4.501  16.257 -0.2940 -0.6365  0.3022
  604MPD2    C4 8951   3.028   4.405  16.337 -0.8211 -0.0773 -0.8325
  604MPD2    C5 8952   2.979   4.381  16.463  0.3374  0.2256  0.4750
  604MPD2     H 8953   2.804   4.634  16.246  2.1529 -0.4086 -2.1355
  604MPD2    H1 8954   3.115   4.349  16.305  0.6171  1.5922  0.2077
  604MPD2    H2 8955   2.831   4.402  16.605  0.3374 -1.6318 -0.3332
  604MPD2    H3 8956   3.031   4.302  16.516 -1.1098 -1.1228 -0.0963
  604MPD2     N 8957   3.021   4.531  16.127  0.6003  0.1860 -0.0617
  604MPD2    H5 8958   2.970   4.609  16.087  0.1822  0.4868  1.0531
  604MPD2    N1 8959   2.694   4.607  16.500  0.1152 -0.1126  0.4917
  604MPD2    H7 8960   2.675   4.592  16.598  1.2435  0.9690  0.8743
  605TMC3    C1 8961   2.552   0.070  16.533  0.4298 -0.0765 -0.3481
  605TMC3    C2 8962   2.635   0.120  16.629 -0.7569  0.1449 -0.3645
  605TMC3    C3 8963   2.626   0.253  16.655 -0.5702 -0.1070 -0.5077
  605TMC3    C4 8964   2.449   0.141  16.474 -0.2272 -0.2193 -0.1915
  605TMC3    C5 8965   2.445   0.274  16.502 -0.1775  0.2528 -0.6290
  605TMC3    C6 8966   2.532   0.333  16.595 -0.8658  0.3200  0.0083
  605TMC3     C 8967   2.613   4.697  16.439  0.4250  0.1016  0.8589
  605TMC3     O 8968   2.587   4.711  16.322  0.2142 -0.4286 -0.4206
  605TMC3     H 8969   2.721   0.062  16.660 -2.4617 -1.5011  1.2996
  605TMC3    H1 8970   2.389   0.098  16.395 -0.0896  0.7518 -0.8118
  605TMC3    H2 8971   2.527   0.439  16.614 -2.1822  0.0345  1.2887
  605TMC3    C7 8972   2.383   0.375  16.407 -0.2136  0.5354  0.3129
  605TMC3    C8 8973   2.757   0.321  16.675  0.7840  0.8765 -0.7226
  605TMC3    O1 8974   2.382   0.492  16.439  0.6644 -0.9042 -0.6278
  605TMC3    O2 8975   2.848   0.244  16.687  0.3618  0.4673  0.1818
  606TMC3    C1 8976   4.461   3.594  16.995 -0.1012 -0.1873 -0.2205
  606TMC3    C2 8977   4.429   3.622  17.127  0.1904  0.1298 -0.5444
  606TMC3    C3 8978   4.381   3.514  17.194 -0.0726 -0.1783  0.3622
  606TMC3    C4 8979   4.477   3.464  16.951  0.6190  0.4109 -0.0158
  606TMC3    C5 8980   4.429   3.362  17.025 -0.1483  0.5625  0.4009
  606TMC3    C6 8981   4.383   3.387  17.151 -0.3253 -0.3491 -0.7096
  606TMC3     C 8982   4.467   3.707  16.897  0.0660 -0.4068 -0.2385
  606TMC3     O 8983   4.434   3.817  16.938 -0.2705 -0.1034 -0.0897
  606TMC3     H 8984   4.438   3.725  17.161  0.5944 -0.1717  0.2391
  606TMC3    H1 8985   4.481   3.447  16.844  0.4433 -0.1784  0.0715
  606TMC3    H2 8986   4.354   3.304  17.214 -1.0864  0.4570  0.0093
  606TMC3    C7 8987   4.379   3.247  16.951 -0.1171 -0.5418 -0.2373
  606TMC3    C8 8988   4.365   3.538  17.335 -0.4682  0.4934 -0.7112
  606TMC3    O1 8989   4.454   3.221  16.858  0.3195 -0.1291 -0.2680
  606TMC3    O2 8990   4.394   3.649  17.377 -0.0806  0.5855  0.6078
  607MPD2     C 8991   1.143   1.833  12.216 -0.2512  0.7301 -1.1069
  607MPD2    C1 8992   1.234   1.850  12.320 -0.1567  0.5718 -0.5994
  607MPD2    C2 8993   1.221   1.773  12.430  0.0028  0.6951 -0.7168
  607MPD2    C3 8994   1.148   1.657  12.432 -0.1513  0.4216 -0.3522
  607MPD2    C4 8995   1.053   1.643  12.330 -0.0315  0.0310 -0.5387
  607MPD2    C5 8996   1.045   1.742  12.232 -0.2585  0.3899  0.1499
  607MPD2     H 8997   1.299   1.782  12.504 -0.2823  0.7519 -0.4252
  607MPD2    H1 8998   0.984   1.560  12.335  1.5677 -1.0453  3.7782
  607MPD2    H2 8999   1.142   1.895  12.127 -0.2608 -0.0939 -1.6862
  607MPD2    H3 9000   0.969   1.716  12.160 -0.1084 -0.6649  0.3693
  607MPD2     N 9001   1.180   1.569  12.540 -0.0283 -0.0366 -0.0024
  607MPD2    H5 9002   1.256   1.586  12.604  0.6453 -0.6094 -0.6494
  607MPD2    N1 9003   1.335   1.948  12.314 -0.2990 -0.2134  0.1502
  607MPD2    H7 9004   1.391   1.961  12.397  1.0976 -0.2535 -0.7849
  608TMC3    C1 9005   1.516   2.050  12.213  0.6145  0.1935  0.4024
  608TMC3    C2 9006   1.590   1.987  12.303 -0.5170 -0.4941  0.7070
  608TMC3    C3 9007   1.718   2.023  12.323  1.2896 -0.1567  0.4503
  608TMC3    C4 9008   1.564   2.155  12.149  0.1247 -0.3382 -0.5018
  608TMC3    C5 9009   1.695   2.191  12.169 -0.0887  0.4660 -0.2420
  608TMC3    C6 9010   1.777   2.127  12.255  0.3223 -0.6716 -0.2103
  608TMC3     C 9011   1.374   2.016  12.204  0.3886  0.3684  0.3116
  608TMC3     O 9012   1.317   2.044  12.099 -0.2585 -0.1244  0.5216
  608TMC3     H 9013   1.556   1.888  12.331 -2.4827 -0.2600 -0.8924
  608TMC3    H1 9014   1.505   2.212  12.079  1.8322 -0.2088 -1.8241
  608TMC3    H2 9015   1.885   2.138  12.262  0.4049  0.7982 -3.3986
  608TMC3    C7 9016   1.765   2.266  12.065  0.0520 -0.0818  0.0382
  608TMC3    C8 9017   1.784   1.967  12.434 -0.6481  0.3331 -0.5020
  608TMC3    O1 9018   1.733   2.260  11.946 -0.1554  0.6232  0.3947
  608TMC3    O2 9019   1.903   1.975  12.440 -0.1581 -0.0018  0.1357
  609TMC3    C1 9020   4.229   4.572   9.458  0.6312 -0.5438 -0.0486
  609TMC3    C2 9021   4.139   4.477   9.427  0.2939 -0.0338  0.3529
  609TMC3    C3 9022   4.164   4.349   9.464  0.1509 -0.4572 -0.2317
  609TMC3    C4 9023   4.349   4.543   9.516 -0.1015 -0.3468 -0.0894
  609TMC3    C5 9024   4.380   4.407   9.528  0.9185 -0.6835 -0.7050
  609TMC3    C6 9025   4.283   4.315   9.519  0.0665 -0.4476  0.1553
  609TMC3     C 9026   4.169   4.702   9.459 -1.1454 -0.2698  1.2309
  609TMC3     O 9027   4.067   4.716   9.387  0.1962 -0.0496  0.2419
  609TMC3     H 9028   4.040   4.505   9.393  0.4184  0.2862  0.2498
  609TMC3    H1 9029   4.420   4.621   9.538  1.7701 -1.2677 -2.8745
  609TMC3    H2 9030   4.295   4.213   9.554 -0.2012 -0.2698  0.7613
  609TMC3    C7 9031   4.502   4.372   9.595  0.0712 -0.1003  0.3245
  609TMC3    C8 9032   4.058   4.261   9.427  0.1239  0.0560  0.7658
  609TMC3    O1 9033   4.572   4.461   9.636  0.0374  0.0986  0.3389
  609TMC3    O2 9034   3.949   4.308   9.402  0.5156 -0.4024  1.0420
  610TMC3    C1 9035   2.332   1.466  12.560  0.4330  1.1519 -0.3170
  610TMC3    C2 9036   2.236   1.534  12.488  0.3463 -0.1292  0.0456
  610TMC3    C3 9037   2.113   1.475  12.492  1.0498 -0.2825  0.6527
  610TMC3    C4 9038   2.313   1.351  12.630  0.1452 -0.0705  0.5385
  610TMC3    C5 9039   2.188   1.298  12.636 -0.3464  0.1693  0.6170
  610TMC3    C6 9040   2.085   1.365  12.574  0.4410  0.1505  0.0533
  610TMC3     C 9041   2.471   1.496  12.522  0.0250 -0.0730 -0.6138
  610TMC3     O 9042   2.481   1.557  12.413 -0.3464 -0.5312 -0.7451
  610TMC3     H 9043   2.256   1.611  12.415  1.6835 -1.2274 -0.7365
  610TMC3    H1 9044   2.394   1.289  12.667 -0.3473 -0.4624  0.9541
  610TMC3    H2 9045   1.987   1.323  12.554  0.1666  1.4360 -1.3359
  610TMC3    C7 9046   2.193   1.155  12.651 -0.2245  0.0099  0.7983
  610TMC3    C8 9047   2.005   1.544  12.423  0.4183 -0.4391  0.5938
  610TMC3    O1 9048   2.298   1.094  12.635  0.4932  0.1137 -0.4533
  610TMC3    O2 9049   2.041   1.611  12.327  0.0483  0.0142 -0.6064
  611MPD2     C 9050   1.445   1.127  10.698  0.3432 -0.1820 -0.5624
  611MPD2    C1 9051   1.351   1.211  10.638 -0.4082 -0.3352  0.3332
  611MPD2    C2 9052   1.396   1.327  10.578 -0.7914  0.0030 -0.0923
  611MPD2    C3 9053   1.529   1.356  10.566  0.2186  0.2573 -0.6828
  611MPD2    C4 9054   1.616   1.275  10.631 -0.1542  0.0338 -0.3045
  611MPD2    C5 9055   1.578   1.157  10.680 -0.4326 -0.0018 -0.5022
  611MPD2     H 9056   1.321   1.394  10.536 -0.9149  0.1566  0.3722
  611MPD2    H1 9057   1.723   1.291  10.641 -0.3410  1.0554  0.0945
  611MPD2    H2 9058   1.422   1.036  10.751  0.7380  1.3185  2.1961
  611MPD2    H3 9059   1.650   1.095  10.733 -0.9934 -1.4152 -1.3862
  611MPD2     N 9060   1.580   1.471  10.509  0.1410 -0.0179  0.2909
  611MPD2    H5 9061   1.679   1.491  10.505  0.6765 -2.6634  0.3936
  611MPD2    N1 9062   1.211   1.182  10.634  0.5481  0.2768  0.8759
  611MPD2    H7 9063   1.149   1.254  10.599  0.2231 -0.9750 -1.1517
  612TMC3    C1 9064   1.588   1.660  10.368  0.5007 -0.0883  0.5083
  612TMC3    C2 9065   1.676   1.718  10.454 -0.3253 -0.0562 -0.1867
  612TMC3    C3 9066   1.761   1.815  10.412  0.3441  0.7805 -0.5333
  612TMC3    C4 9067   1.563   1.725  10.248 -0.0587 -0.0882  0.7214
  612TMC3    C5 9068   1.641   1.832  10.214 -0.1951  0.6432  0.9419
  612TMC3    C6 9069   1.740   1.883  10.292 -0.1358  0.3577 -0.5413
  612TMC3     C 9070   1.513   1.542  10.418  1.0309 -0.4371 -0.0564
  612TMC3     O 9071   1.396   1.535  10.384  0.3666 -0.6038 -0.3886
  612TMC3     H 9072   1.691   1.684  10.556 -0.5547 -0.1160 -0.1732
  612TMC3    H1 9073   1.490   1.688  10.177  1.3196 -2.2115  0.4223
  612TMC3    H2 9074   1.795   1.972  10.264 -0.6437  0.6523 -0.5847
  612TMC3    C7 9075   1.596   1.902  10.086 -0.4285  0.0464 -0.9631
  612TMC3    C8 9076   1.869   1.867  10.496 -0.4690 -0.2887 -0.5395
  612TMC3    O1 9077   1.537   1.832  10.007 -0.5478 -0.0460 -0.1677
  612TMC3    O2 9078   1.892   1.988  10.483  0.3197  0.0023 -0.4433
  613MPD2     C 9079   0.525   3.237  16.520  0.6998 -0.4497 -1.0306
  613MPD2    C1 9080   0.475   3.333  16.438  1.1434  0.5657  0.5709
  613MPD2    C2 9081   0.395   3.294  16.327 -0.5623 -0.2767  0.0203
  613MPD2    C3 9082   0.376   3.158  16.306  0.4079 -0.6146 -0.0988
  613MPD2    C4 9083   0.445   3.061  16.380  0.2347 -0.2196 -0.3547
  613MPD2    C5 9084   0.518   3.106  16.483  0.1468 -0.0052  0.7556
  613MPD2     H 9085   0.361   3.363  16.252  0.3047 -0.6633 -0.7245
  613MPD2    H1 9086   0.445   2.954  16.361  2.2838  0.5255 -4.4747
  613MPD2    H2 9087   0.599   3.261  16.596 -0.2677  1.6460 -0.7384
  613MPD2    H3 9088   0.564   3.037  16.553 -2.4078 -2.2856  0.2016
  613MPD2     N 9089   0.299   3.114  16.202  0.3823  0.0459 -0.0690
  613MPD2    H5 9090   0.306   3.016  16.179  0.0966  0.9762 -4.0470
  613MPD2    N1 9091   0.508   3.466  16.472  0.0511  0.0864 -0.2856
  613MPD2    H7 9092   0.545   3.481  16.566  0.1493 -1.5266 -0.0719
  614TMC3    C1 9093   0.512   3.570  16.252  0.5226 -0.3236 -0.5311
  614TMC3    C2 9094   0.605   3.486  16.197  0.1624 -0.9360 -0.2056
  614TMC3    C3 9095   0.628   3.498  16.062  0.0857  1.0024 -0.0807
  614TMC3    C4 9096   0.454   3.672  16.177  0.0637  0.0496  0.4925
  614TMC3    C5 9097   0.486   3.687  16.041  0.1657  0.1737  0.4913
  614TMC3    C6 9098   0.571   3.601  15.987 -0.2686  0.7585 -0.2252
  614TMC3     C 9099   0.491   3.578  16.397  0.4853  0.0411 -0.0284
  614TMC3     O 9100   0.469   3.691  16.435  0.3281 -0.3288  0.5608
  614TMC3     H 9101   0.654   3.410  16.256 -0.1347 -0.9722 -0.0063
  614TMC3    H1 9102   0.389   3.743  16.227 -0.5010 -0.7272  0.8528
  614TMC3    H2 9103   0.598   3.606  15.882  2.5523  0.1876  0.4575
  614TMC3    C7 9104   0.414   3.791  15.965 -0.4458  0.8494 -0.2941
  614TMC3    C8 9105   0.601   3.370  16.006 -0.3863 -0.0235  0.6490
  614TMC3    O1 9106   0.368   3.891  16.019  0.3208 -0.3652 -0.8108
  614TMC3    O2 9107   0.543   3.364  15.896  0.2464 -0.1572  0.2382
  615MPD2     C 9108   4.487   0.590  16.164  0.1027  0.7460  0.4575
  615MPD2    C1 9109   4.482   0.713  16.111  0.1609 -0.4813 -1.1442
  615MPD2    C2 9110   4.457   0.718  15.975 -0.5185 -0.2772  0.4612
  615MPD2    C3 9111   4.426   0.602  15.902  0.4280 -0.3580  0.5897
  615MPD2    C4 9112   4.423   0.480  15.967  0.1692 -0.1445 -0.1784
  615MPD2    C5 9113   4.448   0.474  16.095  0.1841 -0.1542 -0.3793
  615MPD2     H 9114   4.452   0.815  15.926 -1.1458 -0.5065  0.0707
  615MPD2    H1 9115   4.403   0.391  15.909  0.8383  0.0372 -0.6904
  615MPD2    H2 9116   4.516   0.578  16.268 -1.6520 -0.8240  0.7431
  615MPD2    H3 9117   4.453   0.380  16.149  0.7566  0.8114  1.2562
  615MPD2     N 9118   4.396   0.597  15.763  0.2968 -0.4756 -0.0378
  615MPD2    H5 9119   4.362   0.506  15.732 -3.5397  1.4325 -1.3097
  615MPD2    N1 9120   4.524   0.827  16.185 -0.3010  0.4108  0.0054
  615MPD2    H7 9121   4.570   0.812  16.274  2.7113 -1.1790 -1.8150
  616TMC3    C1 9122   4.570   1.062  16.224 -0.2494 -0.5483 -0.2563
  616TMC3    C2 9123   4.678   1.035  16.307  1.2663  0.0255  0.0679
  616TMC3    C3 9124   0.023   1.142  16.369  0.4610  0.5855  0.4347
  616TMC3    C4 9125   4.543   1.199  16.194 -0.2863  0.6156 -0.3753
  616TMC3    C5 9126   4.614   1.299  16.249  0.1996 -0.4002 -0.8239
  616TMC3    C6 9127   4.712   1.273  16.343 -0.4615  0.2396 -0.6580
  616TMC3     C 9128   4.503   0.957  16.145  0.2644 -0.1972  0.0021
  616TMC3     O 9129   4.424   1.000  16.058  0.1866  0.3401 -0.2848
  616TMC3     H 9130   4.706   0.932  16.322 -0.6214 -0.5339 -0.2709
  616TMC3    H1 9131   4.495   1.224  16.101 -0.0414  0.0835 -0.6440
  616TMC3    H2 9132   0.040   1.360  16.381 -0.7096 -0.5380  1.4933
  616TMC3    C7 9133   4.546   1.429  16.256  1.1105  0.1952  0.2090
  616TMC3    C8 9134   0.142   1.117  16.442 -0.0723 -0.0800  0.1411
  616TMC3    O1 9135   4.615   1.527  16.279  0.0743  0.6009 -0.1064
  616TMC3    O2 9136   0.202   1.217  16.480 -0.1928  0.2524 -0.1859
  617MPD2     C 9137   2.710   2.715  14.197  0.4285  0.0577 -0.0690
  617MPD2    C1 9138   2.767   2.766  14.311 -0.3604 -0.1215  0.3253
  617MPD2    C2 9139   2.680   2.810  14.414 -0.1018  0.6922 -0.4127
  617MPD2    C3 9140   2.541   2.815  14.397  0.7099  0.0394 -0.0543
  617MPD2    C4 9141   2.490   2.756  14.284  0.5036 -0.0908  1.1995
  617MPD2    C5 9142   2.576   2.699  14.191 -0.2894  0.0329 -0.8403
  617MPD2     H 9143   2.716   2.830  14.514 -1.4385  1.3265 -0.0633
  617MPD2    H1 9144   2.383   2.742  14.272  0.4261  1.6104 -0.1288
  617MPD2    H2 9145   2.762   2.700  14.103  1.4264 -0.1131  0.5060
  617MPD2    H3 9146   2.533   2.659  14.100  1.7495 -0.8410 -1.4214
  617MPD2     N 9147   2.446   2.849  14.499 -0.2480  0.4515  0.5789
  617MPD2    H5 9148   2.349   2.858  14.470 -0.6446 -1.2516  1.3920
  617MPD2    N1 9149   2.909   2.772  14.316 -0.2277 -0.1785 -0.3843
  617MPD2    H7 9150   2.949   2.745  14.226 -1.0355  0.2004 -0.8607
  618TMC3    C1 9151   3.133   2.809  14.388  0.6109  0.6725  0.6399
  618TMC3    C2 9152   3.216   2.904  14.440  0.2125  0.0199 -0.0866
  618TMC3    C3 9153   3.344   2.902  14.394 -0.4297 -0.4733  0.6121
  618TMC3    C4 9154   3.177   2.712  14.304  0.0124  0.2973 -0.1011
  618TMC3    C5 9155   3.307   2.707  14.265 -0.5072 -0.3506  0.0393
  618TMC3    C6 9156   3.391   2.803  14.308 -0.1736  0.3051 -0.6281
  618TMC3     C 9157   2.989   2.828  14.416 -0.5245 -0.3530 -0.6684
  618TMC3     O 9158   2.966   2.885  14.524  0.4706  0.1886  0.2679
  618TMC3     H 9159   3.192   2.986  14.506  1.5978  0.0040  0.4369
  618TMC3    H1 9160   3.108   2.642  14.258 -0.3036 -0.2019  1.1236
  618TMC3    H2 9161   3.493   2.802  14.272 -0.8660  0.4080 -2.5996
  618TMC3    C7 9162   3.326   2.636  14.148  0.4345  0.8230  0.2235
  618TMC3    C8 9163   3.436   2.992  14.458 -0.1978 -0.6595  0.4294
  618TMC3    O1 9164   3.289   2.525  14.135 -0.2100  0.2189 -0.1696
  618TMC3    O2 9165   3.400   3.045  14.559  0.1006  0.1810 -0.0629
  619MPD2     C 9166   3.971   4.579  13.612  0.9276 -0.6382  0.6096
  619MPD2    C1 9167   3.918   4.615  13.487 -0.4166  0.6578  0.5780
  619MPD2    C2 9168   3.789   4.584  13.463  0.8076 -0.4991  0.8022
  619MPD2    C3 9169   3.719   4.503  13.546 -0.3650  0.2772 -0.4372
  619MPD2    C4 9170   3.784   4.459  13.664  0.5199  0.9504 -0.1582
  619MPD2    C5 9171   3.902   4.506  13.705 -0.6907  0.1613 -0.1129
  619MPD2     H 9172   3.745   4.641  13.381 -1.4149 -0.3444  2.0967
  619MPD2    H1 9173   3.728   4.379  13.712  0.5232  1.2565  0.3576
  619MPD2    H2 9174   4.069   4.620  13.637  0.3715  1.5561 -0.7941
  619MPD2    H3 9175   3.944   4.473  13.799 -1.3573 -0.3392  0.0075
  619MPD2     N 9176   3.579   4.473  13.533 -0.0999  0.2667  0.3325
  619MPD2    H5 9177   3.536   4.425  13.611  0.3663  0.1384  0.5117
  619MPD2    N1 9178   3.982   4.708  13.403  0.0675  0.1538  0.5468
  619MPD2    H7 9179   3.939   0.012  13.315 -1.9431  3.1239  2.4349
  620TMC3    C1 9180   4.119   0.173  13.358 -1.1063 -0.3199  0.5036
  620TMC3    C2 9181   4.099   0.164  13.223  0.2492  0.1760 -0.6160
  620TMC3    C3 9182   4.127   0.271  13.144 -0.1023  0.6300 -0.1918
  620TMC3    C4 9183   4.183   0.279  13.421 -0.9172  0.2457 -0.3269
  620TMC3    C5 9184   4.174   0.394  13.342  0.2031 -0.1543 -0.1802
  620TMC3    C6 9185   4.162   0.388  13.207 -0.0741 -0.4725  0.4381
  620TMC3     C 9186   4.102   0.048  13.434  0.3226 -0.4220  0.7104
  620TMC3     O 9187   4.187   0.026  13.518 -0.7046  0.2654 -0.7225
  620TMC3     H 9188   4.071   0.072  13.172  0.4156 -0.7724  0.9812
  620TMC3    H1 9189   4.190   0.277  13.530  0.2629 -1.5401 -0.4410
  620TMC3    H2 9190   4.160   0.486  13.160 -0.9934 -0.5820  0.2457
  620TMC3    C7 9191   4.082   0.475  13.414 -0.2100 -0.6270 -0.5569
  620TMC3    C8 9192   4.034   0.300  13.043  0.3992  0.4461 -0.1813
  620TMC3    O1 9193   4.073   0.457  13.533 -0.2263  0.1571  0.3422
  620TMC3    O2 9194   4.065   0.403  12.990 -0.0274 -0.4321 -0.3104
  621MPD2     C 9195   4.464   0.446  10.394 -0.1853  0.2550  0.4076
  621MPD2    C1 9196   4.466   0.322  10.442  0.3369  0.7935 -0.4482
  621MPD2    C2 9197   4.588   0.257  10.461  0.2564 -0.2363  0.1592
  621MPD2    C3 9198   4.703   0.327  10.433  0.3844 -0.4042  0.1454
  621MPD2    C4 9199   4.700   0.458  10.389 -0.1859 -0.2912  0.7244
  621MPD2    C5 9200   4.578   0.510  10.357 -0.1462 -0.2615  0.4357
  621MPD2     H 9201   4.608   0.154  10.489 -2.0945 -0.5171  0.7455
  621MPD2    H1 9202   0.065   0.516  10.366  0.4520 -1.5094  0.1515
  621MPD2    H2 9203   4.374   0.505  10.383 -1.0567 -1.2758 -0.7464
  621MPD2    H3 9204   4.573   0.612  10.322  2.3005  0.0010  0.8668
  621MPD2     N 9205   0.101   0.266  10.469  0.2240 -0.3825 -0.1963
  621MPD2    H5 9206   0.082   0.183  10.523  2.3728 -2.0785 -2.0227
  621MPD2    N1 9207   4.344   0.257  10.461 -0.4356 -0.0269 -0.0222
  621MPD2    H7 9208   4.355   0.157  10.466  1.9277  0.3216  2.3958
  622TMC3    C1 9209   4.107   0.219  10.460  0.6763 -0.2804 -0.1761
  622TMC3    C2 9210   4.003   0.257  10.532  0.1373  0.0701 -0.2632
  622TMC3    C3 9211   3.887   0.191  10.500 -0.0930  0.1447  0.3406
  622TMC3    C4 9212   4.103   0.130  10.352 -0.1945 -1.0160 -0.0762
  622TMC3    C5 9213   3.982   0.079  10.324  0.7139 -0.0763 -0.4368
  622TMC3    C6 9214   3.871   0.100  10.404  0.1732  0.8478  0.3063
  622TMC3     C 9215   4.217   0.314  10.462 -0.3906  0.6503  0.2930
  622TMC3     O 9216   4.188   0.425  10.512 -0.0682  0.7243  0.0029
  622TMC3     H 9217   4.015   0.315  10.623  1.0960  0.7940 -0.8401
  622TMC3    H1 9218   4.185   0.119  10.282  0.8988 -0.8677  1.1901
  622TMC3    H2 9219   3.774   0.052  10.406  0.1544  0.7749 -2.5177
  622TMC3    C7 9220   3.976   4.699  10.225  1.0041  0.7802 -0.3250
  622TMC3    C8 9221   3.779   0.213  10.597  0.5672 -0.0222 -0.0236
  622TMC3    O1 9222   4.080   4.647  10.189 -0.1555  0.0225 -0.4462
  622TMC3    O2 9223   3.718   0.114  10.633  0.0024  0.4121  0.0208
  623MPD2     C 9224   3.096   0.137  15.688  0.0913 -0.0897 -0.4724
  623MPD2    C1 9225   3.027   0.135  15.808 -0.0448  0.2627 -0.6844
  623MPD2    C2 9226   3.103   0.155  15.920 -0.4546  0.9175 -0.9405
  623MPD2    C3 9227   3.241   0.181  15.914 -0.0242  0.0503  0.0979
  623MPD2    C4 9228   3.302   0.190  15.795  0.0469 -0.8420 -0.5930
  623MPD2    C5 9229   3.231   0.162  15.681 -0.6338 -0.1722 -0.0876
  623MPD2     H 9230   3.060   0.170  16.018  0.1995 -0.4708 -0.4405
  623MPD2    H1 9231   3.410   0.202  15.792 -0.0434  0.1542  0.3868
  623MPD2    H2 9232   3.034   0.126  15.599 -0.3992  3.0921 -0.5180
  623MPD2    H3 9233   3.288   0.150  15.589  3.2690 -1.0575  2.4562
  623MPD2     N 9234   3.300   0.214  16.038 -0.8867  0.2479  0.0095
  623MPD2    H5 9235   3.235   0.204  16.115 -0.4618 -1.0075  0.2142
  623MPD2    N1 9236   2.888   0.122  15.809 -0.6416  0.2332 -0.2559
  623MPD2    H7 9237   2.826   0.157  15.737 -1.4730  0.6626  0.6742
  624TMC3    C1 9238   3.564   0.436  16.352  0.0832  0.2640  0.3590
  624TMC3    C2 9239   3.453   0.454  16.425  0.3671 -0.8221 -0.0251
  624TMC3    C3 9240   3.337   0.396  16.386  0.2969  0.3234  0.2339
  624TMC3    C4 9241   3.553   0.370  16.229 -0.4765  0.1457  0.5509
  624TMC3    C5 9242   3.439   0.311  16.194  0.2898  0.1672  0.3413
  624TMC3    C6 9243   3.336   0.317  16.277  0.4397  0.2642  0.9008
  624TMC3     C 9244   3.681   0.518  16.393 -0.0579 -0.0006 -0.0376
  624TMC3     O 9245   3.696   0.566  16.504 -0.2002 -0.1657  0.0623
  624TMC3     H 9246   3.458   0.516  16.514  2.8481  0.1310 -0.8116
  624TMC3    H1 9247   3.635   0.377  16.158 -1.5891 -0.5888 -0.8069
  624TMC3    H2 9248   3.235   0.282  16.259  0.9731 -0.9560  0.2680
  624TMC3    C7 9249   3.421   0.272  16.056 -0.0227  0.4374  0.4346
  624TMC3    C8 9250   3.221   0.404  16.469 -0.1404 -0.7193  0.1611
  624TMC3    O1 9251   3.513   0.288  15.972 -0.3998  0.4580 -0.2871
  624TMC3    O2 9252   3.143   0.305  16.473  0.0160  0.0198 -0.4133
  625MPD2     C 9253   3.779   2.537   1.281 -0.3148  0.3325  0.0364
  625MPD2    C1 9254   3.807   2.583   1.153  0.2789 -0.2161 -0.1706
  625MPD2    C2 9255   3.929   2.542   1.096  0.0736  0.6345 -0.4391
  625MPD2    C3 9256   4.015   2.455   1.166  0.1312 -0.7298 -0.2582
  625MPD2    C4 9257   3.983   2.421   1.294  0.3060  0.2908  0.3507
  625MPD2    C5 9258   3.867   2.464   1.347 -0.3896 -0.3337  1.0028
  625MPD2     H 9259   3.955   2.568   0.994  0.0706 -0.1829 -0.6475
  625MPD2    H1 9260   4.036   2.357   1.364 -0.3220 -0.9620 -0.3225
  625MPD2    H2 9261   3.687   2.566   1.331 -0.3790 -1.9151  1.2231
  625MPD2    H3 9262   3.851   2.431   1.449  0.9635  0.8060  1.5848
  625MPD2     N 9263   4.138   2.416   1.106 -0.6785 -0.0268  0.3341
  625MPD2    H5 9264   4.152   2.453   1.013 -0.2762 -2.6401 -0.6356
  625MPD2    N1 9265   3.711   2.649   1.074 -0.7606 -0.1050  0.6170
  625MPD2    H7 9266   3.726   2.645   0.973 -0.1759  2.4234  0.6137
  626TMC3    C1 9267   3.510   2.768   1.020  0.0962  0.4049  0.3416
  626TMC3    C2 9268   3.520   2.728   0.882 -0.1281  0.3285 -0.4016
  626TMC3    C3 9269   3.401   2.717   0.810  0.5360  0.0097  0.4707
  626TMC3    C4 9270   3.386   2.788   1.069 -0.3458 -0.5149 -0.5271
  626TMC3    C5 9271   3.275   2.773   0.994 -0.9580 -0.3949  0.2915
  626TMC3    C6 9272   3.275   2.729   0.865 -0.2481  0.1978 -0.2988
  626TMC3     C 9273   3.600   2.712   1.121  0.7028 -0.0576  0.4696
  626TMC3     O 9274   3.577   2.746   1.239  0.3732  0.5244  0.4105
  626TMC3     H 9275   3.616   2.712   0.834  1.1226 -0.1286  2.2282
  626TMC3    H1 9276   3.375   2.834   1.167 -1.6147  1.4089 -1.5863
  626TMC3    H2 9277   3.188   2.718   0.802 -0.4122 -0.0258 -0.0345
  626TMC3    C7 9278   3.148   2.759   1.069 -0.0675  0.2397 -1.1050
  626TMC3    C8 9279   3.408   2.723   0.664  0.2982 -0.1107 -1.1003
  626TMC3    O1 9280   3.138   2.828   1.170 -0.3699 -0.0302 -0.1311
  626TMC3    O2 9281   3.301   2.708   0.607  0.5356  0.3251  0.0197
  627MPD2     C 9282   2.258   1.916  14.572  0.3902 -0.5888 -0.1865
  627MPD2    C1 9283   2.287   1.831  14.678  0.1989 -0.1520  1.0965
  627MPD2    C2 9284   2.247   1.698  14.674 -0.1021 -0.5185 -0.3398
  627MPD2    C3 9285   2.175   1.652  14.567  0.0511  0.5783 -0.1755
  627MPD2    C4 9286   2.157   1.733  14.450 -0.3314 -0.0438  0.5101
  627MPD2    C5 9287   2.196   1.862  14.464  0.5255  0.1222  0.4694
  627MPD2     H 9288   2.245   1.637  14.764  0.0841 -1.5541 -1.0289
  627MPD2    H1 9289   2.101   1.702  14.363 -1.7979  2.6373  0.5089
  627MPD2    H2 9290   2.277   2.022  14.581  0.7553 -0.6542 -0.2160
  627MPD2    H3 9291   2.153   1.921  14.384 -0.4358  0.0613  0.9442
  627MPD2     N 9292   2.111   1.522  14.581  0.4834 -0.6166  0.7463
  627MPD2    H5 9293   2.106   1.473  14.669 -2.5911  2.7723  2.4492
  627MPD2    N1 9294   2.357   1.885  14.786  0.3589  0.1558  0.5251
  627MPD2    H7 9295   2.398   1.815  14.848  1.6295 -0.4970 -1.0383
  628TMC3    C1 9296   2.443   2.025  14.954 -0.2302 -0.5958  0.2100
  628TMC3    C2 9297   2.559   1.958  14.955  1.0450 -0.0339 -0.2092
  628TMC3    C3 9298   2.645   1.983  15.059  0.6250  0.8482  0.3040
  628TMC3    C4 9299   2.411   2.112  15.057 -0.6006  0.1178 -0.0286
  628TMC3    C5 9300   2.496   2.128  15.157 -0.4974  0.3670 -0.1577
  628TMC3    C6 9301   2.620   2.067  15.165 -1.1776  0.2372  0.8675
  628TMC3     C 9302   2.362   2.012  14.836  0.1203  0.1999  0.1316
  628TMC3     O 9303   2.288   2.107  14.817  0.5158  0.2072 -0.0522
  628TMC3     H 9304   2.592   1.902  14.869  2.8386 -0.8785  1.0385
  628TMC3    H1 9305   2.311   2.155  15.057 -0.6994 -0.1143  0.7352
  628TMC3    H2 9306   2.672   2.066  15.260 -0.9869 -2.1265  0.7393
  628TMC3    C7 9307   2.475   2.249  15.243  0.5944 -0.2882 -0.1145
  628TMC3    C8 9308   2.747   1.883  15.081  0.1431 -0.0091 -0.6539
  628TMC3    O1 9309   2.522   2.226  15.353  0.2220  0.4062 -0.7003
  628TMC3    O2 9310   2.724   1.776  15.021 -0.4642 -0.0781  0.3947
  629MPD2     C 9311   0.526   0.849  16.635 -0.1714 -0.5018  0.0079
  629MPD2    C1 9312   0.534   0.973  16.585  0.0784 -0.0468 -0.3129
  629MPD2    C2 9313   0.422   1.023  16.521 -0.8946  0.0504  0.5352
  629MPD2    C3 9314   0.304   0.942  16.508 -0.0758 -0.0158 -0.0088
  629MPD2    C4 9315   0.311   0.809  16.555  0.2298 -0.0355 -0.0780
  629MPD2    C5 9316   0.420   0.763  16.617 -0.4827 -0.2574 -0.1490
  629MPD2     H 9317   0.417   1.126  16.488  0.4727  0.1994  0.7882
  629MPD2    H1 9318   0.223   0.747  16.545 -1.8606  2.9033  0.4062
  629MPD2    H2 9319   0.614   0.821  16.692 -0.0848  1.9190  1.0424
  629MPD2    H3 9320   0.421   0.660  16.648 -0.6849  0.2662  1.6030
  629MPD2     N 9321   0.180   0.985  16.451 -0.2155 -0.1325  0.0095
  629MPD2    H5 9322   0.110   0.914  16.432 -0.1253  0.4834 -2.5753
  629MPD2    N1 9323   0.646   1.046  16.616  0.8004 -0.3270 -0.2261
  629MPD2    H7 9324   0.705   0.997  16.683  2.2845  2.1747  0.2993
  630TMC3    C1 9325   0.803   1.221  16.643 -0.3648  0.0367  0.2705
  630TMC3    C2 9326   0.886   1.296  16.565  0.0139  0.2266  0.1046
  630TMC3    C3 9327   0.991   1.353  16.623 -0.4616 -0.3035  0.0062
  630TMC3    C4 9328   0.834   1.184  16.768  0.0272 -0.1915  0.7905
  630TMC3    C5 9329   0.943   1.241  16.827 -0.1387 -0.3370 -0.0828
  630TMC3    C6 9330   1.020   1.326  16.752  0.6950  0.4160 -0.3466
  630TMC3     C 9331   0.676   1.182  16.588  1.0039 -0.1267 -0.0877
  630TMC3     O 9332   0.628   1.250  16.496  0.5206  0.3318 -0.0909
  630TMC3     H 9333   0.861   1.331  16.466 -4.2306 -0.2511  1.0156
  630TMC3    H1 9334   0.759   1.148  16.838 -0.2785 -0.5789  0.2599
  630TMC3    H2 9335   1.107   1.380  16.788  0.2696  2.5476 -2.4804
  630TMC3    C7 9336   0.974   1.183  16.961 -0.4162  0.5556 -1.5887
  630TMC3    C8 9337   1.103   1.400  16.549  0.5679 -0.5640 -0.2043
  630TMC3    O1 9338   0.911   1.088  17.005 -0.2112  0.1514  0.4848
  630TMC3    O2 9339   1.181   1.467  16.613  0.4269 -0.4210  0.0797
  631MPD2     C 9340   3.638   0.507  15.261 -0.4999 -0.0556  0.2640
  631MPD2    C1 9341   3.708   0.591  15.178  0.3836  0.2508 -0.1505
  631MPD2    C2 9342   3.846   0.595  15.179  0.2854 -0.0631 -0.6033
  631MPD2    C3 9343   3.912   0.504  15.248 -0.6705 -0.3295 -0.3945
  631MPD2    C4 9344   3.838   0.416  15.326 -0.1984 -0.6487  0.2883
  631MPD2    C5 9345   3.699   0.414  15.335  0.1523  0.0846  0.6872
  631MPD2     H 9346   3.908   0.667  15.126  2.6810 -2.4950 -1.1100
  631MPD2    H1 9347   3.897   0.340  15.378  1.6914 -1.0528 -2.4355
  631MPD2    H2 9348   3.529   0.501  15.257 -0.6209  2.0468  0.2784
  631MPD2    H3 9349   3.650   0.338  15.395 -0.1838 -0.4109 -0.2025
  631MPD2     N 9350   4.051   0.521  15.265 -0.2171 -0.3893  0.1743
  631MPD2    H5 9351   4.100   0.571  15.191  1.0283  1.9122  2.5341
  631MPD2    N1 9352   3.634   0.673  15.097 -0.2105  0.7743  0.2187
  631MPD2    H7 9353   3.533   0.677  15.108 -0.1147 -0.1948  1.5108
  632TMC3    C1 9354   3.589   0.854  14.943 -0.6272 -0.9073 -0.9646
  632TMC3    C2 9355   3.485   0.893  15.016  0.3556 -0.4834 -0.1751
  632TMC3    C3 9356   3.389   0.977  14.967 -0.6619  0.3156 -0.7659
  632TMC3    C4 9357   3.598   0.892  14.812  0.0904 -0.1511  0.0980
  632TMC3    C5 9358   3.491   0.966  14.758  0.5076  0.1735  0.1266
  632TMC3    C6 9359   3.396   1.014  14.835 -0.5493 -0.9593  0.1096
  632TMC3     C 9360   3.681   0.757  15.000 -0.7626 -0.1421 -0.2247
  632TMC3     O 9361   3.796   0.760  14.955  0.7767 -0.1889 -0.2844
  632TMC3     H 9362   3.472   0.862  15.119 -0.0889 -0.0738 -0.1063
  632TMC3    H1 9363   3.678   0.855  14.748 -1.1041 -0.4207 -1.2427
  632TMC3    H2 9364   3.315   1.080  14.806  0.1127 -0.4704 -0.5994
  632TMC3    C7 9365   3.501   1.022  14.623  0.0520 -0.7630 -0.4718
  632TMC3    C8 9366   3.296   1.024  15.066 -0.7220 -0.2348  0.5560
  632TMC3    O1 9367   3.426   1.118  14.599 -0.2330 -0.4203 -0.0838
  632TMC3    O2 9368   3.332   1.021  15.182  0.0749 -0.0355 -1.0984
  633MPD2     C 9369   3.546   3.500  17.438  0.7384  0.2398 -0.5653
  633MPD2    C1 9370   3.547   3.518  17.301 -0.7143  0.2512 -0.5045
  633MPD2    C2 9371   3.527   3.404  17.216  0.0206 -0.4951 -0.2489
  633MPD2    C3 9372   3.505   3.279  17.270  0.3043  0.1214  0.1513
  633MPD2    C4 9373   3.499   3.265  17.403  0.5299 -0.6932 -0.1979
  633MPD2    C5 9374   3.520   3.372  17.490  0.2170  0.1917 -0.3015
  633MPD2     H 9375   3.542   3.414  17.110  1.0848 -0.9530 -0.1486
  633MPD2    H1 9376   3.484   3.165  17.441 -1.4814 -0.3261 -0.0259
  633MPD2    H2 9377   3.560   3.586  17.503  2.4232 -2.6233  2.8594
  633MPD2    H3 9378   3.520   3.360  17.598  0.9082  2.5329 -0.0473
  633MPD2     N 9379   3.502   3.163  17.191  0.6182  0.1125  0.0098
  633MPD2    H5 9380   3.529   3.077  17.238 -0.5616 -0.6771 -0.7586
  633MPD2    N1 9381   3.588   3.629  17.226  0.2514 -0.2170  0.8986
  633MPD2    H7 9382   3.595   3.609  17.127  1.7602 -0.3925  1.0404
  634TMC3    C1 9383   3.662   3.831  17.155 -0.5045  0.1558  1.1932
  634TMC3    C2 9384   3.752   3.762  17.076 -0.3044 -0.3315 -0.2202
  634TMC3    C3 9385   3.759   3.778  16.940  0.0533  0.1120  0.1660
  634TMC3    C4 9386   3.580   3.929  17.105 -0.1842  0.4192  0.3644
  634TMC3    C5 9387   3.598   3.961  16.972  0.3769 -0.6574 -0.0396
  634TMC3    C6 9388   3.681   3.884  16.884  0.0116  0.5215 -0.3161
  634TMC3     C 9389   3.603   3.757  17.268  0.7087  0.7245  0.0800
  634TMC3     O 9390   3.575   3.811  17.371  0.2457 -0.4226 -0.1728
  634TMC3     H 9391   3.798   3.673  17.117 -1.3970 -1.5165 -1.5908
  634TMC3    H1 9392   3.501   3.979  17.159 -1.2712 -1.2400  0.2809
  634TMC3    H2 9393   3.684   3.904  16.778 -1.6289 -1.1314 -0.6769
  634TMC3    C7 9394   3.534   4.075  16.908  0.2564  0.2258  0.2106
  634TMC3    C8 9395   3.716   3.651  16.884 -0.7885  0.9243 -0.0081
  634TMC3    O1 9396   3.515   4.051  16.788  0.3084  0.6499  0.2374
  634TMC3    O2 9397   3.666   3.570  16.964  0.3380  0.7300  0.4447
  635TMC3    C1 9398   3.659   4.624   0.481  0.2971  0.2675  0.4259
  635TMC3    C2 9399   3.772   4.600   0.400 -1.2606 -0.3642  0.7115
  635TMC3    C3 9400   3.805   4.469   0.370  1.1215 -0.1844 -0.8082
  635TMC3    C4 9401   3.590   4.522   0.527 -0.2765  0.3459 -0.2570
  635TMC3    C5 9402   3.646   4.395   0.513 -0.4665 -0.2327  0.3890
  635TMC3    C6 9403   3.752   4.365   0.442 -0.4168  0.3346  0.3638
  635TMC3     C 9404   3.641   0.044   0.517  0.0063 -0.2756 -0.2526
  635TMC3     O 9405   3.698   0.132   0.452 -0.4683  0.4860  0.0163
  635TMC3     H 9406   3.830   4.683   0.360 -0.8081 -2.3959 -2.8985
  635TMC3    H1 9407   3.501   4.533   0.588  0.4044  0.1992  0.7555
  635TMC3    H2 9408   3.797   4.268   0.422  0.6514  0.9530 -0.2323
  635TMC3    C7 9409   3.566   4.290   0.578 -0.2302  0.4083  0.3764
  635TMC3    C8 9410   3.938   4.455   0.309 -0.0466  0.2450 -0.7325
  635TMC3    O1 9411   3.456   4.319   0.621 -0.6094 -0.3132  0.1232
  635TMC3    O2 9412   4.021   4.545   0.329  0.3145 -0.0022 -0.4946
  636MPD2     C 9413   4.699   3.810  15.547 -0.4069 -0.4592 -0.2088
  636MPD2    C1 9414   0.000   3.809  15.682 -0.1520 -0.0394  0.7549
  636MPD2    C2 9415   0.040   3.693  15.738  0.6047  0.4021  0.6077
  636MPD2    C3 9416   0.054   3.575  15.671  0.2806  0.3861  0.4483
  636MPD2    C4 9417   0.036   3.576  15.535 -0.1260  1.1759 -0.2648
  636MPD2    C5 9418   4.717   3.692  15.475  0.4303  0.3109 -0.0524
  636MPD2     H 9419   0.062   3.696  15.844 -0.7334  0.8020  0.8784
  636MPD2    H1 9420   0.048   3.485  15.478  0.4095  1.3705 -0.4580
  636MPD2    H2 9421   4.672   3.902  15.496  1.3008 -0.9075 -1.9083
  636MPD2    H3 9422   4.697   3.675  15.370 -0.7892  4.1331 -0.4467
  636MPD2     N 9423   0.087   3.457  15.741 -0.4642 -0.4690  0.2984
  636MPD2    H5 9424   0.096   3.463  15.842  1.1354  0.8467  0.0826
  636MPD2    N1 9425   4.711   3.927  15.761  0.4880 -0.2335  0.4658
  636MPD2    H7 9426   0.004   3.909  15.860 -0.2831 -0.1703  0.6044
  637TMC3    C1 9427   0.149   3.234  15.775  0.3818  0.8892  0.2780
  637TMC3    C2 9428   0.122   3.238  15.905  0.6183  0.2531 -0.6502
  637TMC3    C3 9429   0.182   3.147  15.993 -0.2014 -0.2420  0.4444
  637TMC3    C4 9430   0.229   3.141  15.725  0.7186 -0.0808 -0.0453
  637TMC3    C5 9431   0.280   3.045  15.810  0.1871 -0.2427  0.4591
  637TMC3    C6 9432   0.271   3.056  15.945 -0.0657  0.0727 -0.1578
  637TMC3     C 9433   0.115   3.341  15.681 -0.1372 -0.0900 -0.5247
  637TMC3     O 9434   0.143   3.318  15.563 -0.1228  0.8887  0.7732
  637TMC3     H 9435   0.051   3.308  15.948  2.9539  1.5844  1.0792
  637TMC3    H1 9436   0.256   3.132  15.620 -1.5019 -0.4976 -0.5743
  637TMC3    H2 9437   0.323   2.983  16.006  0.8420 -0.7885 -1.9841
  637TMC3    C7 9438   0.365   2.946  15.746  0.0591  0.2427 -0.2713
  637TMC3    C8 9439   0.210   3.195  16.131  0.0400  0.1653  0.0354
  637TMC3    O1 9440   0.308   2.886  15.656  0.4275 -0.1760 -0.3663
  637TMC3    O2 9441   0.166   3.308  16.152  0.3694  0.0645  0.2517
  638MPD2     C 9442   4.633   2.405  14.965 -0.8511 -0.0455  0.4437
  638MPD2    C1 9443   4.609   2.291  14.892  0.9682 -0.7022 -0.1623
  638MPD2    C2 9444   4.574   2.174  14.955  1.1835  0.2132  0.7318
  638MPD2    C3 9445   4.542   2.172  15.087  0.0954  0.1223  0.6894
  638MPD2    C4 9446   4.560   2.289  15.158 -0.3656  0.3259  0.8016
  638MPD2    C5 9447   4.606   2.406  15.098 -0.2601  1.1120 -0.1328
  638MPD2     H 9448   4.566   2.082  14.897 -0.1050  1.0939 -0.4850
  638MPD2    H1 9449   4.541   2.289  15.264  1.0300 -0.0777  1.0493
  638MPD2    H2 9450   4.671   2.500  14.928  0.5017  0.2912  2.6781
  638MPD2    H3 9451   4.619   2.498  15.154 -0.3470  0.8360  0.3404
  638MPD2     N 9452   4.492   2.051  15.137 -0.4776 -0.3342  0.1063
  638MPD2    H5 9453   4.495   1.971  15.075 -0.7959 -1.6400  1.7887
  638MPD2    N1 9454   4.653   2.301  14.757 -0.0989  0.3766 -0.0259
  638MPD2    H7 9455   4.705   2.383  14.730  0.7380 -0.3606 -0.6796
  639TMC3    C1 9456   4.410   1.896  15.284 -0.2540 -1.1319 -0.2061
  639TMC3    C2 9457   4.348   1.815  15.185  0.1651 -0.0918  0.0552
  639TMC3    C3 9458   4.336   1.681  15.213  0.3079  0.3802  0.1475
  639TMC3    C4 9459   4.452   1.843  15.396 -0.3751 -0.1533  0.5496
  639TMC3    C5 9460   4.412   1.717  15.437 -0.7379 -1.0323  0.5368
  639TMC3    C6 9461   4.364   1.633  15.342  0.8580 -0.0014  0.2227
  639TMC3     C 9462   4.433   2.036  15.258 -0.0518  0.3647  0.3883
  639TMC3     O 9463   4.404   2.107  15.350 -0.6943  0.2757 -0.3048
  639TMC3     H 9464   4.308   1.861  15.096 -1.7081 -2.1232 -0.1564
  639TMC3    H1 9465   4.497   1.917  15.462 -1.0857 -0.7198  1.6756
  639TMC3    H2 9466   4.357   1.527  15.360 -0.2514  0.4571  2.4593
  639TMC3    C7 9467   4.517   1.647  15.512 -0.1209 -0.3389  0.5487
  639TMC3    C8 9468   4.236   1.608  15.136 -0.3645  0.0913  0.5786
  639TMC3    O1 9469   4.491   1.589  15.613 -0.1946 -0.1059  0.2494
  639TMC3    O2 9470   4.242   1.610  15.013  0.0461 -0.6790 -1.0477
  640MPD2     C 9471   4.086   0.647   9.397  0.3742 -0.1358  0.2067
  640MPD2    C1 9472   4.220   0.681   9.402  0.3237 -0.3318  0.1411
  640MPD2    C2 9473   4.252   0.813   9.420 -0.1396 -0.2536  1.0910
  640MPD2    C3 9474   4.151   0.909   9.429  0.3516 -0.5934 -0.0963
  640MPD2    C4 9475   4.021   0.868   9.441  0.1468 -0.4850 -0.0476
  640MPD2    C5 9476   3.989   0.739   9.416  0.2872 -0.1687  0.3015
  640MPD2     H 9477   4.357   0.843   9.426 -0.2071 -0.4535  3.1965
  640MPD2    H1 9478   3.939   0.936   9.458  1.8415  1.9454 -1.5822
  640MPD2    H2 9479   4.052   0.544   9.391 -1.1589  0.3320  0.9107
  640MPD2    H3 9480   3.885   0.709   9.419 -0.2842  1.8304  0.6313
  640MPD2     N 9481   4.175   1.050   9.425 -0.4029  0.1113 -0.3147
  640MPD2    H5 9482   4.100   1.117   9.442 -0.2595 -0.3986  2.3646
  640MPD2    N1 9483   4.320   0.578   9.402 -0.0345  0.3044  0.4141
  640MPD2    H7 9484   4.293   0.481   9.409  1.9642 -0.3626 -1.1465
  641TMC3    C1 9485   4.518   0.467   9.450  0.5094  0.8844 -0.5017
  641TMC3    C2 9486   4.646   0.483   9.482 -0.3437 -0.0898 -0.1612
  641TMC3    C3 9487   0.006   0.376   9.478  1.0890  0.3682  0.2179
  641TMC3    C4 9488   4.469   0.352   9.388 -0.0558  0.4698  0.0647
  641TMC3    C5 9489   4.566   0.254   9.362 -0.5029  0.7365 -0.3543
  641TMC3    C6 9490   4.693   0.259   9.409 -0.5793  0.0541  0.4143
  641TMC3     C 9491   4.456   0.598   9.421 -0.5802 -0.0191 -0.8082
  641TMC3     O 9492   4.519   0.702   9.438 -0.0103  0.4834 -0.3224
  641TMC3     H 9493   4.677   0.571   9.538 -0.9230  0.1496 -0.2160
  641TMC3    H1 9494   4.367   0.350   9.350 -0.0988  1.1056  0.1566
  641TMC3    H2 9495   0.033   0.172   9.410  2.0178  1.9539 -0.3207
  641TMC3    C7 9496   4.508   0.140   9.305  0.8144  0.0850 -0.0835
  641TMC3    C8 9497   0.111   0.351   9.578 -0.5695 -0.4252  0.4276
  641TMC3    O1 9498   4.397   0.150   9.260  0.2838 -0.3215 -0.0040
  641TMC3    O2 9499   0.196   0.265   9.548 -0.4198  0.3112  0.4163
  642TMC3    C1 9500   1.436   2.654  12.399 -0.3295 -0.0531 -0.0470
  642TMC3    C2 9501   1.543   2.581  12.447  0.7332  0.0801  0.7275
  642TMC3    C3 9502   1.543   2.455  12.410 -0.1343 -0.3405 -0.0217
  642TMC3    C4 9503   1.328   2.590  12.346  0.3604 -0.9997  0.6958
  642TMC3    C5 9504   1.328   2.452  12.332 -0.3839  0.0703 -0.3602
  642TMC3    C6 9505   1.437   2.383  12.375 -0.3882 -0.8226  0.0230
  642TMC3     C 9506   1.420   2.782  12.459  0.7176  0.6004  0.0242
  642TMC3     O 9507   1.517   2.853  12.476  0.4317  0.2350  0.1062
  642TMC3     H 9508   1.619   2.622  12.513 -0.2616  3.4589 -0.2113
  642TMC3    H1 9509   1.251   2.645  12.294  0.3674 -0.6022  1.1084
  642TMC3    H2 9510   1.443   2.274  12.378 -1.1907 -0.9389 -2.3825
  642TMC3    C7 9511   1.201   2.381  12.301  0.0032  0.9703  0.1572
  642TMC3    C8 9512   1.658   2.384  12.452  0.4079 -0.4275 -0.4646
  642TMC3    O1 9513   1.122   2.431  12.221  0.4243 -0.5144  0.4532
  642TMC3    O2 9514   1.639   2.282  12.514  0.3364 -0.1552 -1.2417
  643TMC3    C1 9515   0.184   1.739   0.413  0.3964  0.5600  0.3745
  643TMC3    C2 9516   0.053   1.748   0.362 -0.6938  0.0876 -0.5804
  643TMC3    C3 9517   0.023   1.698   0.238 -0.1304  0.5268 -0.0545
  643TMC3    C4 9518   0.279   1.668   0.343  0.3456  0.3306  0.4679
  643TMC3    C5 9519   0.248   1.611   0.223  0.9111  0.0240  0.0660
  643TMC3    C6 9520   0.122   1.629   0.174 -0.0555  0.3716  0.6831
  643TMC3     C 9521   0.224   1.850   0.498 -1.0716 -0.8648 -0.2899
  643TMC3     O 9522   0.150   1.946   0.510 -0.6416  0.1385  0.4884
  643TMC3     H 9523   4.699   1.796   0.420  0.2575  0.2776  0.5316
  643TMC3    H1 9524   0.383   1.688   0.365  0.7118  1.0890 -2.0155
  643TMC3    H2 9525   0.105   1.586   0.076 -1.3128 -0.7774  1.4096
  643TMC3    C7 9526   0.337   1.653   0.125 -0.7672 -0.4054 -0.0101
  643TMC3    C8 9527   4.690   1.787   0.142 -0.9340  1.3578 -0.6500
  643TMC3    O1 9528   0.298   1.711   0.024 -0.5401 -0.0652 -0.0434
  643TMC3    O2 9529   4.685   1.753   0.023 -0.5612  0.1669  0.5173
  644MPD2     C 9530   0.441   2.928   9.842 -0.0277  0.5606 -0.0931
  644MPD2    C1 9531   0.492   2.898   9.967 -0.6184 -0.4634 -0.1886
  644MPD2    C2 9532   0.592   2.980  10.014 -0.0002 -0.5782 -0.4223
  644MPD2    C3 9533   0.630   3.105   9.954  0.4784  0.2908 -0.8523
  644MPD2    C4 9534   0.580   3.129   9.826 -0.5043  0.1599 -0.6404
  644MPD2    C5 9535   0.484   3.041   9.772  0.0403  0.1538  0.2492
  644MPD2     H 9536   0.661   2.956  10.094 -1.5636  0.7570  1.3202
  644MPD2    H1 9537   0.608   3.218   9.772 -0.9392  2.3912  2.7938
  644MPD2    H2 9538   0.363   2.867   9.798  2.2421 -0.7868 -2.2321
  644MPD2    H3 9539   0.442   3.068   9.676  0.5976 -0.2969 -0.1213
  644MPD2     N 9540   0.736   3.178  10.025 -0.0002 -0.0159  0.3054
  644MPD2    H5 9541   0.782   3.147  10.110 -1.4736 -1.0435  0.7153
  644MPD2    N1 9542   0.448   2.777  10.032  0.8039  0.5771 -0.1270
  644MPD2    H7 9543   0.394   2.712   9.976 -0.2172  1.4720 -0.1744
  645TMC3    C1 9544   0.915   3.334  10.047  0.2925  0.4157  0.0146
  645TMC3    C2 9545   0.999   3.425   9.988  0.1570  0.2745 -1.0363
  645TMC3    C3 9546   1.113   3.467  10.050 -0.0212 -0.1049  0.0565
  645TMC3    C4 9547   0.944   3.286  10.170  0.2557  0.1259  0.2949
  645TMC3    C5 9548   1.054   3.337  10.235 -0.2183  0.5847  0.0726
  645TMC3    C6 9549   1.139   3.426  10.178 -0.7210 -0.4613 -0.3548
  645TMC3     C 9550   0.811   3.280   9.967 -0.5722  0.6443  0.7362
  645TMC3     O 9551   0.803   3.323   9.855 -0.5303 -0.1235 -0.9910
  645TMC3     H 9552   0.987   3.439   9.881 -2.1268 -2.4616 -1.1429
  645TMC3    H1 9553   0.891   3.206  10.219  2.1905  0.6789  3.2515
  645TMC3    H2 9554   1.231   3.452  10.229 -1.7429 -1.9742  2.2492
  645TMC3    C7 9555   1.052   3.308  10.377  0.2007  0.3662 -0.0674
  645TMC3    C8 9556   1.191   3.575   9.996 -1.1178  0.0685 -0.8062
  645TMC3    O1 9557   1.009   3.202  10.425  0.9817  0.1254 -0.0277
  645TMC3    O2 9558   1.294   3.597  10.054 -0.2345  0.2734  0.2877
  646MPD2     C 9559   4.531   0.665  14.545 -0.0524 -0.3741 -0.7812
  646MPD2    C1 9560   4.467   0.671  14.669 -0.2548 -0.4010 -0.4876
  646MPD2    C2 9561   4.339   0.734  14.663  0.1415  0.2874 -0.4405
  646MPD2    C3 9562   4.282   0.777  14.546 -0.8343 -0.7196  0.5744
  646MPD2    C4 9563   4.337   0.738  14.426  0.5484  0.4960 -0.0601
  646MPD2    C5 9564   4.463   0.686  14.433  0.0551 -0.4548 -0.3307
  646MPD2     H 9565   4.292   0.766  14.756 -0.7941 -0.6751 -0.5867
  646MPD2    H1 9566   4.293   0.743  14.327  2.5734 -0.7938 -1.0247
  646MPD2    H2 9567   4.635   0.636  14.548 -0.5154 -2.1567 -2.0468
  646MPD2    H3 9568   4.497   0.653  14.336 -0.3193  0.7726 -0.8783
  646MPD2     N 9569   4.166   0.855  14.556  0.7918  0.2978  0.2371
  646MPD2    H5 9570   4.125   0.878  14.646 -0.2729 -2.0717  0.3487
  646MPD2    N1 9571   4.546   0.635  14.786 -0.0624 -0.1300 -0.0189
  646MPD2    H7 9572   4.636   0.592  14.768  1.0120  1.7747  0.8811
  647TMC3    C1 9573   4.580   0.556  15.006 -0.1866 -0.1194 -0.0479
  647TMC3    C2 9574   4.525   0.462  15.090 -0.4738 -0.4929 -0.9698
  647TMC3    C3 9575   4.607   0.402  15.180 -0.5518  0.0620 -0.5142
  647TMC3    C4 9576   4.716   0.577  14.999 -0.0044  0.6664  0.9533
  647TMC3    C5 9577   0.071   0.512  15.091  0.2177  0.0451  0.1338
  647TMC3    C6 9578   0.018   0.432  15.185 -0.2044  0.6517 -0.4305
  647TMC3     C 9579   4.489   0.614  14.911 -1.0161  0.1311  0.4166
  647TMC3     O 9580   4.370   0.614  14.939  0.4052  0.2920 -0.1672
  647TMC3     H 9581   4.419   0.439  15.083 -0.6869 -0.4135  1.9634
  647TMC3    H1 9582   0.021   0.667  14.946  0.9111 -1.8087 -2.7266
  647TMC3    H2 9583   0.080   0.373  15.252 -0.4656  0.4228 -0.3935
  647TMC3    C7 9584   0.215   0.516  15.089  0.2746  0.2010 -0.2436
  647TMC3    C8 9585   4.539   0.330  15.288 -0.8206 -0.1428  0.6119
  647TMC3    O1 9586   0.275   0.474  15.189  0.3535 -0.1750  0.0468
  647TMC3    O2 9587   4.428   0.296  15.255  0.4639 -0.0823 -0.4018
  648TMC3    C1 9588   4.224   3.689  16.386  0.0005  0.5708 -0.4663
  648TMC3    C2 9589   4.311   3.584  16.365  0.2311  0.1924 -0.0652
  648TMC3    C3 9590   4.332   3.555  16.239  0.6752 -0.3404 -0.4112
  648TMC3    C4 9591   4.165   3.764  16.292  0.0454 -0.1513 -0.3771
  648TMC3    C5 9592   4.177   3.720  16.162  0.0800  0.2567  0.5253
  648TMC3    C6 9593   4.259   3.613  16.135  0.9141  0.1251  0.1380
  648TMC3     C 9594   4.191   3.716  16.523 -0.8573 -0.5223  0.3281
  648TMC3     O 9595   4.189   3.830  16.558 -0.3607 -0.2749 -0.1624
  648TMC3     H 9596   4.367   3.549  16.451 -1.1022 -2.3228 -0.1970
  648TMC3    H1 9597   4.100   3.844  16.323 -0.1416 -0.2431 -0.5366
  648TMC3    H2 9598   4.251   3.566  16.037  2.7039  2.3494 -1.0881
  648TMC3    C7 9599   4.065   3.750  16.071  0.5042 -0.0894  0.4801
  648TMC3    C8 9600   4.434   3.454  16.217 -0.3205  0.1134  0.5599
  648TMC3    O1 9601   4.048   3.664  15.986 -0.7127 -0.2699 -0.3220
  648TMC3    O2 9602   4.532   3.467  16.292 -0.2381  0.0860  0.4441
  649TMC3    C1 9603   2.873   4.160  12.459 -0.8722  0.6207  0.8329
  649TMC3    C2 9604   3.002   4.163  12.508  0.1946  0.2934  0.2394
  649TMC3    C3 9605   3.029   4.106  12.630  0.0199 -0.1674 -0.3681
  649TMC3    C4 9606   2.767   4.107  12.527 -0.2453 -0.0970  0.5288
  649TMC3    C5 9607   2.802   4.061  12.651 -0.1231 -0.6353 -0.2224
  649TMC3    C6 9608   2.929   4.054  12.701 -0.0872 -0.0412  0.0925
  649TMC3     C 9609   2.844   4.225  12.330 -0.3682 -0.2177  0.1907
  649TMC3     O 9610   2.726   4.248  12.303  0.3933  0.2398 -0.1136
  649TMC3     H 9611   3.065   4.239  12.463  1.0128  0.1402  1.1224
  649TMC3    H1 9612   2.665   4.125  12.496 -0.3784  0.6387  1.3965
  649TMC3    H2 9613   2.950   4.016  12.800 -1.1710 -0.5023  0.1401
  649TMC3    C7 9614   2.700   4.005  12.735  0.9136 -0.3064 -0.6185
  649TMC3    C8 9615   3.163   4.080  12.671  0.0677 -0.0309 -0.1161
  649TMC3    O1 9616   2.584   4.049  12.740 -0.4478  0.3845 -0.0307
  649TMC3    O2 9617   3.194   3.974  12.721  0.4871  0.1789 -0.3632
  650TMC3    C1 9618   0.720   1.758  13.104 -0.1758  0.1393  0.0186
  650TMC3    C2 9619   0.739   1.883  13.165 -0.1350  0.1890 -0.1191
  650TMC3    C3 9620   0.747   1.993  13.086 -0.0397  1.1034 -0.2023
  650TMC3    C4 9621   0.683   1.748  12.971 -0.6017  0.3925 -0.3442
  650TMC3    C5 9622   0.676   1.870  12.904 -0.6487  0.8635 -0.2527
  650TMC3    C6 9623   0.699   1.991  12.964 -0.0763  0.0212 -0.0728
  650TMC3     C 9624   0.717   1.637  13.187  0.8606  0.1706 -0.4342
  650TMC3     O 9625   0.744   1.647  13.305  0.5003  0.7342 -0.1517
  650TMC3     H 9626   0.778   1.900  13.265 -3.3900  1.7457  0.8876
  650TMC3    H1 9627   0.682   1.662  12.906 -0.5228 -0.5598  0.9282
  650TMC3    H2 9628   0.662   2.085  12.925  0.5695  0.4283  0.2868
  650TMC3    C7 9629   0.627   1.876  12.769  0.6899  0.7539 -0.5578
  650TMC3    C8 9630   0.803   2.118  13.132  0.6422 -0.7125  0.0333
  650TMC3    O1 9631   0.565   1.781  12.715  0.1424  0.1372  0.1241
  650TMC3    O2 9632   0.853   2.192  13.048  0.2010 -0.2804 -0.9417
  651MPD2     C 9633   4.242   3.133  10.690  0.0021  0.0396 -0.6520
  651MPD2    C1 9634   4.199   3.261  10.733 -0.4128 -0.3085 -0.5000
  651MPD2    C2 9635   4.269   3.378  10.713  0.9911 -0.1798  0.5206
  651MPD2    C3 9636   4.369   3.366  10.621 -0.0274 -0.3530 -0.0745
  651MPD2    C4 9637   4.412   3.243  10.567  0.3968 -0.4909  0.0162
  651MPD2    C5 9638   4.357   3.129  10.615 -0.3436 -0.4027  0.0804
  651MPD2     H 9639   4.242   3.478  10.744 -1.3818 -0.4683 -0.6346
  651MPD2    H1 9640   4.496   3.227  10.500  0.5109  2.5479 -0.5360
  651MPD2    H2 9641   4.202   3.038  10.725 -1.9730  1.7182  1.6352
  651MPD2    H3 9642   4.396   3.033  10.585 -2.2772 -1.4449  0.8933
  651MPD2     N 9643   4.422   3.492  10.586 -0.2897 -0.4086  0.3668
  651MPD2    H5 9644   4.368   3.571  10.622 -0.4437 -0.0744 -0.5888
  651MPD2    N1 9645   4.075   3.281  10.802  0.2026  0.7445  0.3075
  651MPD2    H7 9646   4.061   3.376  10.836 -1.5704  0.5761  0.0313
  652TMC3    C1 9647   0.028   3.806  10.577 -0.1761 -0.2222  0.1890
  652TMC3    C2 9648   4.713   3.675  10.576 -0.0089 -0.5767  0.1596
  652TMC3    C3 9649   4.580   3.647  10.553 -0.6344  0.0482  0.2605
  652TMC3    C4 9650   4.666   3.911  10.558  0.0953  0.4810 -0.9854
  652TMC3    C5 9651   4.534   3.878  10.539  0.6382 -0.4815 -0.4227
  652TMC3    C6 9652   4.489   3.751  10.524  0.4385 -0.9584  0.7459
  652TMC3     C 9653   0.165   3.823  10.624 -0.0006 -0.1132 -0.2222
  652TMC3     O 9654   0.208   3.733  10.694 -0.2209  0.0967  0.0506
  652TMC3     H 9655   0.062   3.595  10.570 -1.8389 -2.0308 -2.8625
  652TMC3    H1 9656   4.696   4.005  10.601  0.8372  0.3808 -1.2848
  652TMC3    H2 9657   4.385   3.728  10.505  0.4583 -0.5276  0.1406
  652TMC3    C7 9658   4.435   3.975  10.568 -0.7052 -0.1988  0.4618
  652TMC3    C8 9659   4.546   3.512  10.533 -0.6192 -0.0999  0.0966
  652TMC3    O1 9660   4.349   4.005  10.489  0.1033 -0.2616  0.0581
  652TMC3    O2 9661   4.629   3.434  10.485  0.6276  0.1539  0.7782
  653MPD2     C 9662   2.757   4.128   0.100  0.4382  0.2867 -0.7052
  653MPD2    C1 9663   2.869   4.064   0.052  1.0904 -0.4077  0.2944
  653MPD2    C2 9664   2.850   3.962  17.657 -0.2419  0.0348  0.2545
  653MPD2    C3 9665   2.726   3.910  17.630  0.3504  0.6110 -0.5795
  653MPD2    C4 9666   2.610   3.976  17.679 -0.9677  0.0191 -0.3091
  653MPD2    C5 9667   2.633   4.087   0.066 -0.2400  0.8350 -0.0556
  653MPD2     H 9668   2.932   3.910  17.609  0.7868 -1.2529  3.4042
  653MPD2    H1 9669   2.509   3.943  17.657 -0.5546 -1.1025 -0.5206
  653MPD2    H2 9670   2.756   4.210   0.171 -0.7190  0.8604 -1.3775
  653MPD2    H3 9671   2.550   4.141   0.110 -1.3257  0.0734 -1.1348
  653MPD2     N 9672   2.718   3.793  17.537 -0.0766 -0.2600 -0.2126
  653MPD2    H5 9673   2.801   3.789  17.478 -2.5095 -0.7653 -3.6088
  653MPD2    N1 9674   2.987   4.104   0.115  0.6134 -0.3380  0.8445
  653MPD2    H7 9675   2.992   4.174   0.188  0.4372  1.0128 -0.4331
  654TMC3    C1 9676   2.590   3.624  17.433  0.8627 -0.3129 -0.2745
  654TMC3    C2 9677   2.459   3.624  17.387 -0.6582 -0.1400  0.5538
  654TMC3    C3 9678   2.442   3.587  17.258  0.7582 -0.2962 -0.5801
  654TMC3    C4 9679   2.699   3.598  17.352 -0.4192  0.1622  0.2210
  654TMC3    C5 9680   2.669   3.563  17.226  0.2639  0.3374  0.2851
  654TMC3    C6 9681   2.540   3.568  17.174  0.2431 -0.1274 -0.0589
  654TMC3     C 9682   2.608   3.708  17.540  0.2851 -0.4249  0.1323
  654TMC3     O 9683   2.509   3.720  17.612 -0.1123 -0.1208 -0.6773
  654TMC3     H 9684   2.377   3.630  17.458 -0.4688  0.7457  0.6967
  654TMC3    H1 9685   2.794   3.605  17.404 -0.7740  0.1027  0.8693
  654TMC3    H2 9686   2.514   3.564  17.069  0.2874  0.4841 -0.0944
  654TMC3    C7 9687   2.762   3.480  17.162  0.2200  0.1937  0.4705
  654TMC3    C8 9688   2.299   3.608  17.211 -0.2970  0.0697  0.7333
  654TMC3    O1 9689   2.749   3.464  17.042  0.0994 -0.0920  0.0987
  654TMC3    O2 9690   2.224   3.671  17.284 -0.2403 -0.6568  0.2285
  655MPD2     C 9691   4.491   3.676  15.950  0.3091 -0.2170  0.2261
  655MPD2    C1 9692   4.411   3.755  15.860  0.3337  1.1760 -0.5970
  655MPD2    C2 9693   4.369   3.696  15.741 -0.0511 -0.2437  0.4019
  655MPD2    C3 9694   4.401   3.562  15.715  0.5628 -0.0884 -0.4415
  655MPD2    C4 9695   4.472   3.485  15.805 -0.4511  0.4353 -1.1998
  655MPD2    C5 9696   4.528   3.548  15.916 -0.2339  0.4978 -0.0780
  655MPD2     H 9697   4.325   3.758  15.663 -1.7259 -0.3746  1.2318
  655MPD2    H1 9698   4.493   3.379  15.794 -1.3291  0.0545  0.9429
  655MPD2    H2 9699   4.535   3.712  16.043 -0.9651  1.0456  0.3444
  655MPD2    H3 9700   4.597   3.491  15.977  0.8439 -0.0174 -1.7805
  655MPD2     N 9701   4.372   3.522  15.583  0.5717 -0.8314  0.2924
  655MPD2    H5 9702   4.325   3.587  15.521  1.7771 -0.2626 -0.0188
  655MPD2    N1 9703   4.370   3.886  15.877  0.2986 -0.1087 -0.5744
  655MPD2    H7 9704   4.302   3.915  15.808  1.8314 -2.7201 -3.1958
  656TMC3    C1 9705   4.311   4.084  16.009  0.1467  0.6717 -0.0079
  656TMC3    C2 9706   4.271   4.115  16.133 -0.3554 -0.1577 -0.4296
  656TMC3    C3 9707   4.170   4.206  16.156  0.0207  0.2141 -0.6948
  656TMC3    C4 9708   4.258   4.151  15.904 -0.4243 -0.2566 -0.3155
  656TMC3    C5 9709   4.151   4.229  15.929  0.6805 -0.0092 -0.3226
  656TMC3    C6 9710   4.103   4.255  16.054  0.3611 -0.0200  0.0516
  656TMC3     C 9711   4.393   3.960  15.992  0.5750  0.2880 -0.1785
  656TMC3     O 9712   4.473   3.936  16.079  0.4666  0.3364  0.1566
  656TMC3     H 9713   4.317   4.060  16.214 -0.3108  1.9198  0.9359
  656TMC3    H1 9714   4.295   4.136  15.803 -1.7436  0.5128 -0.9210
  656TMC3    H2 9715   4.031   4.335  16.062 -0.4051 -0.6020 -1.0432
  656TMC3    C7 9716   4.071   4.271  15.808  0.5806  0.2665 -0.1270
  656TMC3    C8 9717   4.097   4.177  16.268  0.3125  0.5112  0.0137
  656TMC3    O1 9718   4.119   4.236  15.704 -0.5951 -0.1951 -0.0572
  656TMC3    O2 9719   4.105   4.065  16.318  0.3588 -0.0757  0.3935
  657TMC3    C1 9720   3.174   2.775  15.188 -0.5319  0.0821  0.2569
  657TMC3    C2 9721   3.239   2.778  15.306  0.1800  0.0882  1.3412
  657TMC3    C3 9722   3.268   2.901  15.354 -0.2879 -0.3471 -0.4433
  657TMC3    C4 9723   3.140   2.885  15.119  0.1219 -0.2470 -0.6235
  657TMC3    C5 9724   3.178   3.004  15.175  1.2835  0.0981  0.0403
  657TMC3    C6 9725   3.245   3.017  15.288  0.4730  0.4424 -0.0686
  657TMC3     C 9726   3.149   2.650  15.120 -0.3442  0.0723 -0.1364
  657TMC3     O 9727   3.044   2.642  15.055  0.0749  0.0468  0.1351
  657TMC3     H 9728   3.243   2.695  15.375  0.1718 -0.6651  0.4338
  657TMC3    H1 9729   3.096   2.869  15.021 -0.5274  1.8977 -0.6826
  657TMC3    H2 9730   3.273   3.112  15.332  0.4068 -0.2451  1.4326
  657TMC3    C7 9731   3.163   3.130  15.096 -0.1105 -0.5615 -0.1160
  657TMC3    C8 9732   3.323   2.931  15.485  0.0787  0.4101 -0.0551
  657TMC3    O1 9733   3.191   3.233  15.152 -0.1311  0.3429 -0.0166
  657TMC3    O2 9734   3.309   3.041  15.538 -0.0839 -0.3243 -0.2636
  658MPD2     C 9735   4.619   3.773  14.918 -0.8299 -0.3127 -0.2293
  658MPD2    C1 9736   4.499   3.705  14.910 -0.0160 -0.6314 -0.1686
  658MPD2    C2 9737   4.408   3.751  14.819  0.3237  0.4042 -0.4238
  658MPD2    C3 9738   4.435   3.851  14.725 -0.1407  0.3367 -0.0540
  658MPD2    C4 9739   4.544   3.932  14.751  0.0606 -0.0219  0.7596
  658MPD2    C5 9740   4.633   3.889  14.843 -0.1066 -1.0790 -0.2749
  658MPD2     H 9741   4.319   3.689  14.812 -0.0531  0.7399  1.4103
  658MPD2    H1 9742   4.567   4.029  14.708  0.7492 -0.1451  0.8368
  658MPD2    H2 9743   4.701   3.745  14.984 -2.1193 -0.8679  1.1498
  658MPD2    H3 9744   4.717   3.956  14.858 -1.1019 -0.1185  1.0564
  658MPD2     N 9745   4.321   3.888  14.644 -0.1076  0.3340 -0.1274
  658MPD2    H5 9746   4.237   3.832  14.636  0.6478 -1.0877  1.8442
  658MPD2    N1 9747   4.475   3.588  14.979  0.1272  0.1867 -0.0330
  658MPD2    H7 9748   4.384   3.549  14.956  0.1102 -0.4057  1.0210
  659TMC3    C1 9749   4.457   3.459  15.179  0.6526 -0.9436  0.7580
  659TMC3    C2 9750   4.448   3.484  15.315 -0.8381  0.2071 -0.1816
  659TMC3    C3 9751   4.386   3.393  15.393  0.1503 -0.3287  0.1727
  659TMC3    C4 9752   4.401   3.345  15.121  0.6724  0.8452 -0.5775
  659TMC3    C5 9753   4.339   3.257  15.212  0.7704  0.0617  0.3282
  659TMC3    C6 9754   4.338   3.275  15.350  0.0565 -0.0301 -0.4111
  659TMC3     C 9755   4.538   3.549  15.094  0.5686  0.8106 -0.3718
  659TMC3     O 9756   4.616   3.617  15.160  0.0693 -0.0578 -0.0230
  659TMC3     H 9757   4.470   3.582  15.356  1.2062 -0.2292 -0.1998
  659TMC3    H1 9758   4.401   3.346  15.013 -0.1448  1.4792 -0.5715
  659TMC3    H2 9759   4.302   3.196  15.415 -2.0991  1.3641  0.0567
  659TMC3    C7 9760   4.223   3.189  15.158 -0.3121 -0.7691 -0.0293
  659TMC3    C8 9761   4.406   3.397  15.534  0.0837  0.2588  0.5372
  659TMC3    O1 9762   4.135   3.160  15.240 -0.4980  0.6725 -0.2793
  659TMC3    O2 9763   4.424   3.288  15.589  0.3080  0.2781  0.1379
  660MPD2     C 9764   2.765   2.241  12.528  0.5881 -0.3613  0.4479
  660MPD2    C1 9765   2.643   2.296  12.547 -0.8668 -0.8830  0.3409
  660MPD2    C2 9766   2.565   2.254  12.656 -0.3281 -0.2954 -0.2552
  660MPD2    C3 9767   2.606   2.153  12.743 -0.3956 -0.4263  0.3470
  660MPD2    C4 9768   2.726   2.094  12.717 -0.3393  0.1473 -0.4136
  660MPD2    C5 9769   2.803   2.138  12.613 -0.2282 -0.3845  1.2959
  660MPD2     H 9770   2.468   2.301  12.658 -0.3688 -0.4798  2.0788
  660MPD2    H1 9771   2.770   2.017  12.779 -0.7625  0.3365  0.1174
  660MPD2    H2 9772   2.826   2.268  12.442 -0.7378  1.7932  0.1773
  660MPD2    H3 9773   2.901   2.093  12.599  0.1225  0.7807  0.0073
  660MPD2     N 9774   2.538   2.109  12.852  0.3046 -0.3301 -0.5959
  660MPD2    H5 9775   2.597   2.066  12.922 -0.7675  0.8490  1.0344
  660MPD2    N1 9776   2.616   2.402  12.456 -1.0410 -0.1943 -0.1320
  660MPD2    H7 9777   2.681   2.415  12.380 -0.9860 -0.0724 -0.0632
  661TMC3    C1 9778   2.531   2.621  12.397  0.8385  0.1695  0.8248
  661TMC3    C2 9779   2.554   2.607  12.264 -0.6766 -0.6228 -0.3435
  661TMC3    C3 9780   2.520   2.709  12.174 -0.3345 -0.3266 -0.6586
  661TMC3    C4 9781   2.465   2.730  12.443 -0.1749 -0.4437 -0.5860
  661TMC3    C5 9782   2.424   2.828  12.358  0.2388  0.4169 -0.0970
  661TMC3    C6 9783   2.461   2.823  12.227  0.7054  0.2637 -0.2802
  661TMC3     C 9784   2.525   2.507  12.483 -0.0728  0.6243 -0.0066
  661TMC3     O 9785   2.473   2.524  12.592  0.2902  0.5605 -0.0025
  661TMC3     H 9786   2.611   2.519  12.234 -0.9161 -0.3635 -1.5642
  661TMC3    H1 9787   2.432   2.738  12.547 -0.4677  0.5622 -0.7579
  661TMC3    H2 9788   2.440   2.911  12.166 -1.9534  0.1312  0.4237
  661TMC3    C7 9789   2.287   2.858  12.388  0.0726  0.3013  0.8886
  661TMC3    C8 9790   2.504   2.699  12.027 -0.4073  0.0748  0.4566
  661TMC3    O1 9791   2.262   2.886  12.502 -0.2206  0.3661  0.0766
  661TMC3    O2 9792   2.417   2.774  11.992  0.3793  0.4205  0.1947
  662MPD2     C 9793   2.911   2.486  17.572  0.2249  0.2924 -0.0191
  662MPD2    C1 9794   2.891   2.431  17.696  0.3427  0.0612  0.1782
  662MPD2    C2 9795   2.801   2.491   0.089 -0.3538 -0.5923 -0.1110
  662MPD2    C3 9796   2.721   2.599   0.054  0.1167  0.2280  0.1368
  662MPD2    C4 9797   2.747   2.652  17.626 -0.3393 -0.5361 -0.7396
  662MPD2    C5 9798   2.849   2.604  17.541 -0.2418  0.1292  0.1863
  662MPD2     H 9799   2.782   2.442   0.184  2.1406 -0.2941  0.5146
  662MPD2    H1 9800   2.697   2.742  17.592 -1.6738 -1.3075 -0.8071
  662MPD2    H2 9801   2.982   2.444  17.502  0.9103 -1.6751  1.8679
  662MPD2    H3 9802   2.870   2.655  17.448  1.0372  2.0937  1.5763
  662MPD2     N 9803   2.615   2.644   0.133  0.5056 -0.1815 -0.3008
  662MPD2    H5 9804   2.534   2.695   0.097  0.4983 -0.2874 -0.4327
  662MPD2    N1 9805   2.954   2.310   0.034 -0.5623 -0.7164  0.1759
  662MPD2    H7 9806   2.930   2.276   0.127 -0.3734  1.6342  1.0817
  663TMC3    C1 9807   3.052   2.108   0.054  0.1465 -0.3720 -0.2801
  663TMC3    C2 9808   3.018   2.116   0.192  0.6979  0.0877 -0.3872
  663TMC3    C3 9809   2.938   2.023   0.252  0.1502  0.1737  0.1690
  663TMC3    C4 9810   3.017   1.988  17.690  0.1126 -0.3075  0.4428
  663TMC3    C5 9811   2.945   1.888   0.059  0.3932 -0.2137 -0.5563
  663TMC3    C6 9812   2.909   1.908   0.189  0.0363 -0.3534  0.5262
  663TMC3     C 9813   3.029   2.221  17.665  0.1113  0.1819  0.3414
  663TMC3     O 9814   3.027   2.212  17.544 -0.0782 -0.0092 -0.0025
  663TMC3     H 9815   3.034   2.209   0.246 -1.6194 -0.7948  1.8438
  663TMC3    H1 9816   3.031   1.978  17.582  1.5826  0.8046  0.5322
  663TMC3    H2 9817   2.823   1.858   0.232  0.6009 -0.4469  1.5273
  663TMC3    C7 9818   2.843   1.822  17.673  0.3045 -0.3128 -0.5554
  663TMC3    C8 9819   2.821   2.099   0.300 -0.2030 -0.1024 -0.9678
  663TMC3    O1 9820   2.832   1.853  17.555 -0.2948  0.2636  0.8191
  663TMC3    O2 9821   2.813   2.214   0.259 -0.0754  0.4990  0.1095
  664MPD2     C 9822   0.665   0.238  17.518 -0.1545  0.7337 -0.0325
  664MPD2    C1 9823   0.692   0.336  17.612 -0.1077 -0.0118 -0.1208
  664MPD2    C2 9824   0.626   0.347   0.040  0.6788  0.3001 -0.4951
  664MPD2    C3 9825   0.519   0.266   0.070  0.3181 -0.3632  0.6161
  664MPD2    C4 9826   0.490   0.170  17.677  1.4942 -0.2528  0.3069
  664MPD2    C5 9827   0.562   0.155  17.558 -0.2507  0.3593  0.1636
  664MPD2     H 9828   0.649   0.435   0.098  0.9609  0.6430 -1.1256
  664MPD2    H1 9829   0.409   0.101   0.004  0.6980 -0.2961 -2.5546
  664MPD2    H2 9830   0.713   0.215  17.424  3.3611  1.8853  1.4577
  664MPD2    H3 9831   0.534   0.084  17.481 -0.1254  1.6952 -1.0908
  664MPD2     N 9832   0.446   0.290   0.193  0.5580 -0.3385 -0.3398
  664MPD2    H5 9833   0.474   0.373   0.244  3.1766 -1.7643  0.5614
  664MPD2    N1 9834   0.806   0.414  17.607 -0.1670 -0.4149 -0.2858
  664MPD2    H7 9835   0.844   0.462  17.688 -0.0429 -1.2345  0.1422
  665TMC3    C1 9836   0.298   0.264   0.365 -0.1876 -0.5388 -0.3967
  665TMC3    C2 9837   0.278   0.160   0.456  0.0756 -0.2719  0.0934
  665TMC3    C3 9838   0.277   0.194   0.586 -0.1132  0.3754  0.7208
  665TMC3    C4 9839   0.318   0.400   0.396 -0.3099 -0.6836 -0.3797
  665TMC3    C5 9840   0.307   0.428   0.533  0.2627  0.0601 -0.9012
  665TMC3    C6 9841   0.288   0.327   0.627  0.1870  0.3856  0.0662
  665TMC3     C 9842   0.335   0.223   0.234 -0.0297  0.9033  0.5111
  665TMC3     O 9843   0.274   0.126   0.189  0.7590 -0.4773  0.1967
  665TMC3     H 9844   0.286   0.056   0.426  0.9245  0.6915 -3.0171
  665TMC3    H1 9845   0.325   0.478   0.321  0.3465  0.9646  1.3816
  665TMC3    H2 9846   0.271   0.348   0.732 -0.8145  2.1822 -0.4549
  665TMC3    C7 9847   0.278   0.566   0.571 -0.0553 -0.7294  0.4207
  665TMC3    C8 9848   0.250   0.107   0.694  0.6492  0.7187 -0.6636
  665TMC3    O1 9849   0.253   0.641   0.479 -0.3272  0.1755  0.1444
  665TMC3    O2 9850   0.269   0.135   0.807  0.7903 -0.5136 -0.9467
  666TMC3    C1 9851   0.326   0.263  10.530 -0.1613 -0.4310  0.2700
  666TMC3    C2 9852   0.296   0.190  10.643  0.2399 -0.0525 -0.5833
  666TMC3    C3 9853   0.353   0.225  10.766 -0.8027 -0.4718  0.3707
  666TMC3    C4 9854   0.427   0.357  10.540  0.5592 -0.5433 -0.1449
  666TMC3    C5 9855   0.495   0.372  10.658 -0.2956 -0.7258  0.0744
  666TMC3    C6 9856   0.464   0.306  10.772 -0.1287 -0.0677  0.0966
  666TMC3     C 9857   0.224   0.321  10.451  0.1809  0.5199  0.1906
  666TMC3     O 9858   0.262   0.396  10.366 -0.0101 -0.0832  0.2228
  666TMC3     H 9859   0.213   0.121  10.635 -0.7050  1.0013  0.0081
  666TMC3    H1 9860   0.459   0.409  10.450 -1.8834  0.5297 -0.3777
  666TMC3    H2 9861   0.528   0.323  10.857  1.6826 -2.6681 -0.7504
  666TMC3    C7 9862   0.580   0.488  10.673  0.0514  0.0643 -0.0330
  666TMC3    C8 9863   0.293   0.161  10.887 -0.9443  0.0433  0.0673
  666TMC3    O1 9864   0.681   0.472  10.744  0.1246  0.6977 -0.1715
  666TMC3    O2 9865   0.192   0.092  10.868 -0.3527  0.3321 -0.2995
  667MPD2     C 9866   1.524   0.484  14.605  0.0904 -0.2660 -0.2165
  667MPD2    C1 9867   1.592   0.426  14.710 -0.2042  0.5939 -0.1059
  667MPD2    C2 9868   1.542   0.307  14.753  0.1363  0.0852 -0.9030
  667MPD2    C3 9869   1.439   0.244  14.697  0.0811 -0.2801 -0.1877
  667MPD2    C4 9870   1.372   0.306  14.595 -0.8793 -0.1449  0.5732
  667MPD2    C5 9871   1.422   0.423  14.543 -0.2220 -0.2928 -0.7701
  667MPD2     H 9872   1.594   0.263  14.838 -0.7714 -1.1661 -0.9910
  667MPD2    H1 9873   1.292   0.258  14.541 -1.7972 -0.2280  2.0167
  667MPD2    H2 9874   1.552   0.581  14.566 -1.5031  0.6105  0.8361
  667MPD2    H3 9875   1.380   0.465  14.452 -1.1041 -0.0915 -0.2607
  667MPD2     N 9876   1.382   0.129  14.738 -0.4818  0.3927  0.2511
  667MPD2    H5 9877   1.323   0.077  14.674 -0.9096 -0.1639  1.1002
  667MPD2    N1 9878   1.702   0.484  14.779 -0.3049 -0.6318 -0.4835
  667MPD2    H7 9879   1.744   0.438  14.859  2.2244  1.6573 -0.4722
  668TMC3    C1 9880   1.850   0.666  14.828  0.1703  0.4378 -0.5490
  668TMC3    C2 9881   1.941   0.742  14.762  0.0718  0.7367  0.3871
  668TMC3    C3 9882   2.025   0.810  14.840 -0.9151 -0.3885 -0.3224
  668TMC3    C4 9883   1.840   0.651  14.960  0.4133 -0.0902 -1.0938
  668TMC3    C5 9884   1.922   0.725  15.033 -0.0932 -0.1118  0.9447
  668TMC3    C6 9885   2.010   0.810  14.974 -0.6513  0.1491 -0.7762
  668TMC3     C 9886   1.745   0.610  14.746 -0.4677  0.3388  0.5537
  668TMC3     O 9887   1.719   0.688  14.653 -0.2933 -0.1196  0.5461
  668TMC3     H 9888   1.938   0.728  14.654  0.4405 -0.7475  0.5716
  668TMC3    H1 9889   1.766   0.580  14.996 -1.1678  2.8192  1.4862
  668TMC3    H2 9890   2.071   0.877  15.034  1.0702 -0.0396 -2.3132
  668TMC3    C7 9891   1.897   0.734  15.176 -0.0316 -0.2279  0.5918
  668TMC3    C8 9892   2.123   0.901  14.784 -0.4529  0.4498  0.6352
  668TMC3    O1 9893   1.964   0.815  15.239 -0.4946  0.1584  0.1567
  668TMC3    O2 9894   2.179   0.980  14.862  0.1823  0.3809 -0.8194
  669TMC3    C1 9895   4.169   0.440  14.397 -0.6582  0.4289  0.0589
  669TMC3    C2 9896   4.048   0.505  14.370 -0.0558 -0.8607  0.5786
  669TMC3    C3 9897   4.013   0.517  14.242  0.2693 -0.0150  0.6541
  669TMC3    C4 9898   4.261   0.407  14.302  0.2876  0.3513 -0.2136
  669TMC3    C5 9899   4.229   0.441  14.170 -0.3395 -0.4123  0.2082
  669TMC3    C6 9900   4.108   0.512  14.139 -0.7162  0.2088  0.2031
  669TMC3     C 9901   4.180   0.393  14.531 -0.5357 -0.1903  0.3801
  669TMC3     O 9902   4.084   0.381  14.607 -0.8556  0.4104 -0.7055
  669TMC3     H 9903   3.971   0.527  14.443 -0.4715  2.4661 -0.8989
  669TMC3    H1 9904   4.354   0.360  14.331 -0.3499 -0.1904  0.9390
  669TMC3    H2 9905   4.074   0.532  14.038 -0.5183 -1.8707 -0.2702
  669TMC3    C7 9906   4.347   0.494  14.105 -0.6307  0.1404 -0.2625
  669TMC3    C8 9907   3.887   0.572  14.215 -0.2803 -0.0981  0.2964
  669TMC3    O1 9908   4.446   0.492  14.181  0.4953  0.3098 -0.1105
  669TMC3    O2 9909   3.838   0.647  14.301  0.1453 -0.1041 -0.4646
  670MPD2     C 9910   2.422   2.409  13.766 -0.5144 -0.2992  0.3682
  670MPD2    C1 9911   2.525   2.339  13.825 -0.4467 -0.5193 -0.7288
  670MPD2    C2 9912   2.528   2.338  13.964 -0.1732 -0.2480  0.5403
  670MPD2    C3 9913   2.431   2.399  14.038 -0.6767  0.6602 -0.3973
  670MPD2    C4 9914   2.333   2.470  13.980 -0.2435  0.4619  0.4522
  670MPD2    C5 9915   2.330   2.476  13.843 -0.1382 -0.3535 -0.3613
  670MPD2     H 9916   2.610   2.293  14.018 -0.6212  0.2654  1.6372
  670MPD2    H1 9917   2.256   2.530  14.027 -1.5083  0.2012 -1.3148
  670MPD2    H2 9918   2.427   2.437  13.661 -0.3393 -0.3935  0.3528
  670MPD2    H3 9919   2.254   2.545  13.810  0.0157 -0.0239 -0.0274
  670MPD2     N 9920   2.442   2.398  14.180  1.0875 -0.8704 -0.0352
  670MPD2    H5 9921   2.526   2.363  14.223 -0.4770 -1.9708  2.1118
  670MPD2    N1 9922   2.634   2.275  13.756 -0.4115  0.3495 -0.3963
  670MPD2    H7 9923   2.707   2.231  13.811  0.7348  2.4151 -0.2450
  671TMC3    C1 9924   2.403   2.431  14.405  1.2357 -0.3064 -0.5070
  671TMC3    C2 9925   2.477   2.315  14.426 -0.5755 -0.6650  0.6141
  671TMC3    C3 9926   2.494   2.261  14.550 -0.4297  0.0037  0.3279
  671TMC3    C4 9927   2.357   2.500  14.506 -0.4184  0.3703  0.1462
  671TMC3    C5 9928   2.385   2.454  14.628 -0.3183 -0.0831 -1.1838
  671TMC3    C6 9929   2.472   2.348  14.655  0.0802 -0.2951 -0.8737
  671TMC3     C 9930   2.355   2.447  14.273  0.2795 -0.1553 -0.0757
  671TMC3     O 9931   2.261   2.523  14.255  0.1582  0.4040  0.3650
  671TMC3     H 9932   2.505   2.244  14.349  0.0189  0.0269  0.1872
  671TMC3    H1 9933   2.293   2.587  14.496 -2.5880 -1.2969 -0.2137
  671TMC3    H2 9934   2.487   2.311  14.756 -1.2410 -0.7429 -0.8455
  671TMC3    C7 9935   2.332   2.511  14.746 -0.4952 -0.0157  0.3973
  671TMC3    C8 9936   2.584   2.145  14.564  0.2983  0.5668 -0.4252
  671TMC3    O1 9937   2.414   2.571  14.814  0.5123 -0.2411  0.2272
  671TMC3    O2 9938   2.571   2.052  14.482 -0.2177  0.0562  0.0657
  672MPD2     C 9939   2.845   3.012   1.037 -0.2557 -0.3501  0.1182
  672MPD2    C1 9940   2.857   3.134   0.976  0.4181  0.0703  0.1501
  672MPD2    C2 9941   2.858   3.249   1.052 -0.1565 -0.3201  0.1677
  672MPD2    C3 9942   2.856   3.232   1.196  0.3014  0.7664 -0.0353
  672MPD2    C4 9943   2.850   3.107   1.250  0.4290  0.2417 -0.1398
  672MPD2    C5 9944   2.844   2.995   1.170 -0.1965  0.2870 -0.4728
  672MPD2     H 9945   2.872   3.345   1.002 -2.2992  0.2874  0.7050
  672MPD2    H1 9946   2.853   3.096   1.358 -1.2908 -2.3645 -0.3522
  672MPD2    H2 9947   2.841   2.918   0.982  0.9660 -0.2385 -0.1666
  672MPD2    H3 9948   2.859   2.897   1.213 -0.0606 -0.1890 -1.6063
  672MPD2     N 9949   2.891   3.331   1.280 -0.5412 -0.4797  0.7515
  672MPD2    H5 9950   2.931   3.316   1.372 -0.8478 -1.8435  0.6704
  672MPD2    N1 9951   2.882   3.163   0.838 -0.5333  0.3393  0.0793
  672MPD2    H7 9952   2.908   3.255   0.805  2.1756 -0.4681 -0.0592
  673TMC3    C1 9953   2.968   3.113   0.628 -0.7385  0.2164  0.3742
  673TMC3    C2 9954   3.102   3.082   0.604  0.3856 -0.1857  0.4211
  673TMC3    C3 9955   3.163   3.171   0.519 -0.2719  0.8098  0.5280
  673TMC3    C4 9956   2.899   3.218   0.578  1.0732  0.1817 -0.4107
  673TMC3    C5 9957   2.968   3.292   0.484 -0.6508 -0.0906 -0.1700
  673TMC3    C6 9958   3.098   3.269   0.441 -1.0364 -0.8859  0.2778
  673TMC3     C 9959   2.924   3.063   0.757 -0.5166  0.2933 -0.1267
  673TMC3     O 9960   2.963   2.948   0.776 -0.1670 -0.1460  0.3296
  673TMC3     H 9961   3.138   2.985   0.635 -0.0452 -0.4794 -0.0029
  673TMC3    H1 9962   2.793   3.235   0.595  0.4392 -3.2749 -0.9929
  673TMC3    H2 9963   3.145   3.345   0.380  0.2371 -1.1379  0.9325
  673TMC3    C7 9964   2.890   3.386   0.408  0.0754  0.2417 -0.3132
  673TMC3    C8 9965   3.302   3.172   0.497  0.7267 -0.1157  0.5588
  673TMC3    O1 9966   2.890   3.370   0.288 -0.2518  0.0412  0.6483
  673TMC3    O2 9967   3.337   3.185   0.379  0.3705  0.2731 -0.4055
  674MPD2     C 9968   2.369   3.001   0.133 -0.0030  0.2937  0.5074
  674MPD2    C1 9969   2.455   3.014   0.239 -0.0539 -0.4098 -0.0709
  674MPD2    C2 9970   2.398   3.043   0.365  0.1505  0.5224 -0.4522
  674MPD2    C3 9971   2.262   3.062   0.374  0.4194 -0.3961  0.1617
  674MPD2    C4 9972   2.179   3.048   0.267 -0.3180 -0.4123 -0.3575
  674MPD2    C5 9973   2.232   3.018   0.144 -0.1827  0.0177  0.2213
  674MPD2     H 9974   2.457   3.064   0.453 -0.7033  0.6867  0.0829
  674MPD2    H1 9975   2.073   3.067   0.273 -0.4839 -1.2718 -0.5459
  674MPD2    H2 9976   2.411   2.984   0.034  0.7311  1.5536  0.6169
  674MPD2    H3 9977   2.175   3.011   0.052  1.3456  0.3391 -0.7387
  674MPD2     N 9978   2.212   3.092   0.504  0.3618  0.0152 -0.2801
  674MPD2    H5 9979   2.276   3.084   0.582  2.1498 -0.0399 -1.7727
  674MPD2    N1 9980   2.595   3.012   0.221 -0.3861  0.1495 -0.0488
  674MPD2    H7 9981   2.623   3.007   0.124  0.6537 -0.4812  0.2844
  675TMC3    C1 9982   2.823   2.987   0.276  0.6575  0.3056  0.1466
  675TMC3    C2 9983   2.878   2.868   0.307 -0.8841 -0.5921 -1.0504
  675TMC3    C3 9984   2.980   2.832   0.225 -0.7202 -0.3448 -0.1429
  675TMC3    C4 9985   2.853   3.072   0.175  0.0803 -0.3402 -0.3974
  675TMC3    C5 9986   2.959   3.030   0.095  0.4311 -0.9829  0.3809
  675TMC3    C6 9987   3.020   2.905   0.118 -0.1081  0.1426  0.0775
  675TMC3     C 9988   2.684   2.993   0.323 -0.0336  0.0082 -0.5378
  675TMC3     O 9989   2.663   2.947   0.432 -0.5621 -0.3047 -0.5732
  675TMC3     H 9990   2.840   2.796   0.378  0.0173  0.6209  0.6930
  675TMC3    H1 9991   2.797   3.164   0.169 -0.3671 -0.7080 -1.8986
  675TMC3    H2 9992   3.096   2.867   0.049  1.1800  0.5896  1.2535
  675TMC3    C7 9993   3.023   3.119   0.008  0.1809  0.6295 -0.3940
  675TMC3    C8 9994   3.046   2.706   0.236  0.6700  0.5164 -0.0785
  675TMC3    O1 9995   3.085   3.076  17.614  0.4377 -0.6049 -0.2440
  675TMC3    O2 9996   3.161   2.697   0.190  0.1934 -0.4998 -0.1377
  676MPD2     C 9997   0.507   1.635  11.075 -0.1522 -0.5972  0.4370
  676MPD2    C1 9998   0.465   1.657  11.198  0.4734 -1.0042  0.5598
  676MPD2    C2 9999   0.490   1.565  11.298 -0.0870 -0.2354  0.0286
  676MPD2    C310000   0.537   1.436  11.264  0.1239 -0.0766 -0.1312
  676MPD2    C410001   0.585   1.420  11.131 -0.1554 -0.7393  0.6162
  676MPD2    C510002   0.580   1.525  11.043 -0.8197  0.4825  0.1307
  676MPD2     H10003   0.468   1.599  11.399  1.4178  0.8815 -0.0186
  676MPD2    H110004   0.629   1.324  11.106  0.7999 -1.0168  3.4336
  676MPD2    H210005   0.483   1.696  10.988  0.2680  0.9613  1.3981
  676MPD2    H310006   0.619   1.518  10.942 -0.1338  1.2281  0.3443
  676MPD2     N10007   0.543   1.324  11.351 -0.2786  0.2044  0.4209
  676MPD2    H510008   0.572   1.236  11.310 -0.5084 -0.7362  2.2611
  676MPD2    N110009   0.381   1.768  11.229  0.1290  0.8683  0.3101
  676MPD2    H710010   0.334   1.760  11.319  0.5338 -1.5398  0.3232
  677TMC3    C110011   0.287   1.987  11.216 -0.4426 -0.0272 -0.3830
  677TMC3    C210012   0.170   1.930  11.258  0.0018 -0.6178  0.3185
  677TMC3    C310013   0.087   2.022  11.323  0.0256 -0.5411 -0.6660
  677TMC3    C410014   0.347   2.100  11.259 -0.1699 -0.5758  0.0820
  677TMC3    C510015   0.261   2.175  11.332 -0.0069 -0.0249 -0.3466
  677TMC3    C610016   0.134   2.141  11.369  0.1934 -0.0114  0.3330
  677TMC3     C10017   0.377   1.887  11.161 -0.2775  0.0444 -0.0642
  677TMC3     O10018   0.446   1.929  11.070 -0.4565  0.3335 -0.7721
  677TMC3     H10019   0.133   1.831  11.233  0.4625 -0.3653 -1.3743
  677TMC3    H110020   0.438   2.127  11.207  0.3219  2.4289  2.5315
  677TMC3    H210021   0.079   2.200  11.441  0.4165 -1.2438  1.5083
  677TMC3    C710022   0.319   2.285  11.411  0.9065  0.2709  0.1230
  677TMC3    C810023   4.689   1.971  11.371 -0.2524 -0.3423 -0.9127
  677TMC3    O110024   0.251   2.344  11.495 -0.3890  0.2867  0.1779
  677TMC3    O210025   4.616   1.924  11.284 -0.1755 -0.0168 -0.8653
  678MPD2     C10026   1.532   1.043   1.593  0.4044  0.3917  0.4303
  678MPD2    C110027   1.535   0.987   1.467  0.2460  0.3790 -0.9610
  678MPD2    C210028   1.444   1.032   1.375 -1.1138  0.1022  0.4625
  678MPD2    C310029   1.347   1.125   1.413 -0.3875  0.4575 -0.4208
  678MPD2    C410030   1.343   1.174   1.539 -0.0160  0.8339 -0.0524
  678MPD2    C510031   1.436   1.129   1.634  0.0549  0.5658 -0.1845
  678MPD2     H10032   1.453   1.002   1.271  0.9696  2.0787  0.0829
  678MPD2    H110033   1.268   1.244   1.573 -3.1899 -1.4925 -2.2243
  678MPD2    H210034   1.614   1.024   1.662  0.9111 -0.5946 -0.4359
  678MPD2    H310035   1.428   1.169   1.734  0.0805 -3.3691  1.4022
  678MPD2     N10036   1.253   1.160   1.317 -0.1989 -0.4551 -0.3474
  678MPD2    H510037   1.247   1.095   1.239 -0.1823 -0.3879 -0.4052
  678MPD2    N110038   1.629   0.897   1.416  0.2872  0.7813  0.4078
  678MPD2    H710039   1.634   0.873   1.318  0.6645  1.6518  0.2148
  679TMC3    C110040   2.058   0.712   1.414 -0.3736  0.0784  0.8657
  679TMC3    C210041   1.940   0.739   1.476  0.6517 -0.4328 -0.6443
  679TMC3    C310042   1.847   0.811   1.411  0.1877  0.2467  1.1540
  679TMC3    C410043   2.086   0.765   1.289  0.5075 -0.0764  0.4474
  679TMC3    C510044   1.992   0.847   1.227  0.8515 -0.3615 -0.2346
  679TMC3    C610045   1.874   0.869   1.296  0.1556 -0.1365 -0.5396
  679TMC3     C10046   2.155   0.619   1.474 -0.5853  0.3023  0.2564
  679TMC3     O10047   2.268   0.615   1.429  0.8102  0.0543  0.3350
  679TMC3     H10048   1.917   0.694   1.571  0.9293  1.0652  0.1329
  679TMC3    H110049   2.184   0.739   1.250 -0.2451  2.1834 -3.0060
  679TMC3    H210050   1.808   0.942   1.251 -0.0262 -1.3068 -2.1702
  679TMC3    C710051   2.045   0.958   1.142  0.3912 -0.1087 -0.7355
  679TMC3    C810052   1.727   0.844   1.489  0.0869  0.6720  0.2756
  679TMC3    O110053   1.972   1.047   1.113  0.0541 -0.6131  0.3649
  679TMC3    O210054   1.743   0.836   1.609  0.1203  0.1801  0.6487
  680MPD2     C10055   2.058   4.433  13.648 -0.6209  0.7704 -0.2640
  680MPD2    C110056   2.138   4.410  13.535 -0.3436 -0.7945  1.0026
  680MPD2    C210057   2.262   4.478  13.516 -0.6106  0.2734  0.3194
  680MPD2    C310058   2.295   4.581  13.605  0.4604 -0.2699  0.5607
  680MPD2    C410059   2.214   4.603  13.716 -0.1635  0.0410 -0.2010
  680MPD2    C510060   2.098   4.531  13.730  0.4906 -0.3934  0.1134
  680MPD2     H10061   2.331   4.441  13.442 -0.8921  0.4609 -0.0377
  680MPD2    H110062   2.231   4.689  13.780 -0.4254  0.5480 -0.8046
  680MPD2    H210063   1.967   4.378  13.669  1.2104 -1.4559  1.7528
  680MPD2    H310064   2.040   4.556  13.819  1.4765 -1.0245  0.9368
  680MPD2     N10065   2.419   4.646  13.601 -0.5676 -0.0066  0.2386
  680MPD2    H510066   2.415   4.716  13.674 -1.5353  0.2654 -0.0695
  680MPD2    N110067   2.099   4.305  13.445 -0.1324 -0.0416  0.0540
  680MPD2    H710068   2.025   4.247  13.482  0.2404 -1.8928 -2.1162
  681TMC3    C110069   2.138   4.120  13.302 -0.5374 -0.2091  0.5166
  681TMC3    C210070   2.041   4.071  13.386  0.0985  0.4015 -0.1736
  681TMC3    C310071   2.055   3.945  13.445 -0.8842  0.1265  0.4399
  681TMC3    C410072   2.250   4.051  13.266  0.3021 -0.5142  0.2519
  681TMC3    C510073   2.265   3.928  13.330  0.4128  0.6148  0.0026
  681TMC3    C610074   2.179   3.878  13.428  0.3291  0.2363  0.5226
  681TMC3     C10075   2.155   4.268  13.324 -0.4775 -0.4418  0.7184
  681TMC3     O10076   2.253   4.313  13.272 -0.0046  0.2766 -0.1602
  681TMC3     H10077   1.951   4.121  13.419  0.5610  0.5607  0.8444
  681TMC3    H110078   2.328   4.095  13.206 -0.1559  0.1095  0.1212
  681TMC3    H210079   2.211   3.802  13.498  0.0441 -0.6068 -0.2728
  681TMC3    C710080   2.378   3.845  13.286  0.5690  0.2905  0.0599
  681TMC3    C810081   1.992   3.951  13.569  0.1860  0.3296  0.3311
  681TMC3    O110082   2.387   3.733  13.337 -0.4295 -0.1987  0.2220
  681TMC3    O210083   1.873   3.931  13.563 -0.4283  0.5173  0.1322
  682MPD2     C10084   0.014   1.686  10.504 -0.8916 -0.3483  0.2879
  682MPD2    C110085   0.013   1.555  10.544  0.2499  0.6927  0.5366
  682MPD2    C210086   4.618   1.505  10.594 -0.7714 -0.2060 -0.1252
  682MPD2    C310087   4.501   1.582  10.612 -1.0528  0.6948  0.3471
  682MPD2    C410088   4.514   1.720  10.586  0.1314  0.1692 -0.2571
  682MPD2    C510089   4.626   1.767  10.527  0.1632 -0.5774 -0.5928
  682MPD2     H10090   4.612   1.399  10.612 -0.0868  0.0624  1.7105
  682MPD2    H110091   4.427   1.785  10.591  0.6876  1.0002 -1.5058
  682MPD2    H210092   0.098   1.738  10.460 -2.2324 -0.5555 -2.5639
  682MPD2    H310093   4.617   1.871  10.501  3.3764 -0.0324  0.4981
  682MPD2     N10094   4.385   1.534  10.670  0.5165  0.0741 -0.3337
  682MPD2    H510095   4.309   1.600  10.656  0.3440 -0.2446 -0.9022
  682MPD2    N110096   0.108   1.465  10.520 -0.9274 -0.3002  0.0758
  682MPD2    H710097   0.079   1.371  10.548  2.2534 -2.1829 -2.9920
  683TMC3    C110098   4.044   1.510  10.869 -0.2597 -0.8416 -0.4639
  683TMC3    C210099   3.979   1.392  10.842 -0.1710  0.6305  0.1217
  683TMC3    C310100   4.057   1.276  10.812 -0.3530 -0.1206 -0.0053
  683TMC3    C410101   4.179   1.516  10.845 -0.0732  0.3804  0.2935
  683TMC3    C510102   4.252   1.406  10.811 -0.0453  0.1514  0.7956
  683TMC3    C610103   4.193   1.278  10.789  1.1361  0.5831  0.2066
  683TMC3     C10104   4.011   1.555  10.999 -0.6595  0.6091 -0.0746
  683TMC3     O10105   4.104   1.597  11.064 -0.4116  0.0727  0.0997
  683TMC3     H10106   3.872   1.382  10.858 -0.0535 -0.2449  0.3219
  683TMC3    H110107   4.223   1.613  10.865 -0.2121  0.3041  0.9393
  683TMC3    H210108   4.251   1.192  10.757 -0.9866  0.3579 -3.0238
  683TMC3    C710109   4.378   1.423  10.748  1.2772 -0.0045 -0.0928
  683TMC3    C810110   3.993   1.151  10.790  0.5898  0.1272  0.0126
  683TMC3    O110111   4.462   1.334  10.759  0.0224 -0.2069 -0.1513
  683TMC3    O210112   3.883   1.160  10.735  0.3752 -0.7351  0.1870
  684MPD2     C10113   2.646   0.635  16.383  0.3827 -0.0451  0.2288
  684MPD2    C110114   2.650   0.652  16.248 -0.0106 -0.3256  0.3887
  684MPD2    C210115   2.662   0.786  16.204  0.0830  0.6189  0.3559
  684MPD2    C310116   2.678   0.893  16.290  1.4000 -0.2988 -0.6094
  684MPD2    C410117   2.672   0.871  16.423 -0.5530  0.2554 -0.3994
  684MPD2    C510118   2.654   0.739  16.469 -0.6973  0.4843 -0.0233
  684MPD2     H10119   2.664   0.806  16.098  1.5957  0.7967  0.4166
  684MPD2    H110120   2.691   0.946  16.499  1.1968 -0.2693 -0.3046
  684MPD2    H210121   2.651   0.536  16.428  0.0886  0.7909  2.0905
  684MPD2    H310122   2.665   0.722  16.576 -2.4813 -3.2853 -0.4292
  684MPD2     N10123   2.691   1.026  16.248  0.4389  0.1280 -0.3012
  684MPD2    H510124   2.732   1.091  16.315 -0.2247  0.4611 -0.2222
  684MPD2    N110125   2.632   0.546  16.159 -0.0220  0.2893 -0.5790
  684MPD2    H710126   2.619   0.571  16.061 -2.0827 -2.2535 -0.9486
  685TMC3    C110127   2.620   0.325  16.070 -0.9068 -0.1361  0.1812
  685TMC3    C210128   2.551   0.383  15.969  0.1295 -0.2200  0.3775
  685TMC3    C310129   2.577   0.332  15.842  0.1791  1.5156  0.8855
  685TMC3    C410130   2.692   0.213  16.054  0.6827  0.0096  0.3178
  685TMC3    C510131   2.700   0.152  15.935  0.5225 -0.8236 -0.5383
  685TMC3    C610132   2.641   0.207  15.821 -1.3762  0.5065  0.4354
  685TMC3     C10133   2.653   0.407  16.185 -0.0189 -0.1600  0.5533
  685TMC3     O10134   2.695   0.349  16.283 -0.0855 -0.2621 -0.0756
  685TMC3     H10135   2.481   0.465  15.977  0.4835  0.1081  0.1163
  685TMC3    H110136   2.739   0.174  16.144 -0.4576  0.2452  1.0221
  685TMC3    H210137   2.646   0.162  15.723 -1.9381  1.6997 -0.1309
  685TMC3    C710138   2.823   0.081  15.922  0.5365  0.3998 -0.0424
  685TMC3    C810139   2.485   0.377  15.735  0.1815 -0.2887 -0.1680
  685TMC3    O110140   2.874   0.022  16.018  0.2769 -0.1768 -0.0600
  685TMC3    O210141   2.423   0.286  15.682 -0.2251  0.3361 -0.0144
  686MPD2     C10142   3.965   0.943  15.171  0.1728 -0.4225 -0.9372
  686MPD2    C110143   4.042   0.906  15.282  0.2826  0.2418  0.6979
  686MPD2    C210144   4.179   0.889  15.269 -0.5031 -0.1729 -0.5429
  686MPD2    C310145   4.246   0.905  15.146  0.0824  0.0069  0.4364
  686MPD2    C410146   4.170   0.959  15.045  0.0218  0.0323  0.3056
  686MPD2    C510147   4.028   0.966  15.055  0.1280 -0.0738  0.4299
  686MPD2     H10148   4.239   0.866  15.356  0.9478  0.3435 -1.3957
  686MPD2    H110149   4.209   0.969  14.944  0.3525 -0.5694  0.3731
  686MPD2    H210150   3.857   0.948  15.173  0.2840  0.4545  3.0484
  686MPD2    H310151   3.971   0.998  14.969 -0.0115 -2.4083 -0.3188
  686MPD2     N10152   4.381   0.866  15.126 -0.0757  0.1977  0.0767
  686MPD2    H510153   4.425   0.891  15.039  2.3206 -3.3749  0.2556
  686MPD2    N110154   3.970   0.880  15.396 -0.4463 -0.2911 -0.1584
  686MPD2    H710155   3.872   0.855  15.386 -0.6901  1.0099 -1.0552
  687TMC3    C110156   4.410   0.706  15.316  0.3257 -0.0303 -0.1227
  687TMC3    C210157   4.308   0.626  15.280 -0.7864 -0.0405 -0.0681
  687TMC3    C310158   4.245   0.556  15.381  0.4385 -0.2944 -0.2393
  687TMC3    C410159   4.458   0.725  15.439 -0.3048  0.0292 -0.3559
  687TMC3    C510160   4.396   0.660  15.539  0.6386  0.7581  0.2773
  687TMC3    C610161   4.297   0.565  15.508  0.3675  0.1905  0.0604
  687TMC3     C10162   4.460   0.794  15.218 -0.6381 -0.5540 -0.6364
  687TMC3     O10163   4.582   0.778  15.216 -0.4015  0.4679 -0.2563
  687TMC3     H10164   4.271   0.625  15.178  0.5113  1.8306 -0.5605
  687TMC3    H110165   4.539   0.795  15.453 -0.9297  0.3442  1.6896
  687TMC3    H210166   4.261   0.493  15.580 -0.7346 -0.0897 -0.7608
  687TMC3    C710167   4.415   0.699  15.675  0.8706 -0.3537 -0.3415
  687TMC3    C810168   4.122   0.483  15.371 -0.4992  0.2279 -0.0985
  687TMC3    O110169   4.483   0.799  15.690 -0.5512 -0.0282 -0.5784
  687TMC3    O210170   4.080   0.428  15.474  0.5347  0.9444 -0.0365
  688MPD2     C10171   3.679   4.481  17.677 -0.2567  0.4699  0.0480
  688MPD2    C110172   3.647   4.347  17.665  0.0819 -0.4432 -0.4525
  688MPD2    C210173   3.738   4.266  17.597 -0.9191 -0.2627  0.4118
  688MPD2    C310174   3.847   4.308  17.532  0.1074  0.5644 -0.3163
  688MPD2    C410175   3.883   4.438  17.550  0.4920  0.0897 -0.3560
  688MPD2    C510176   3.805   4.516  17.632 -0.3429 -0.0624  0.2474
  688MPD2     H10177   3.714   4.160  17.602  2.8330 -1.1480  0.1153
  688MPD2    H110178   3.983   4.466  17.517 -0.4621  2.6215 -1.0925
  688MPD2    H210179   3.621   4.551   0.039 -1.9875  0.8994 -2.1863
  688MPD2    H310180   3.840   4.616  17.654  3.2079 -1.2444  0.0083
  688MPD2     N10181   3.932   4.231  17.451  0.4909  0.3773  0.3736
  688MPD2    H510182   4.005   4.288  17.408  0.5870 -0.9332 -1.2036
  688MPD2    N110183   3.537   4.283   0.028 -0.2963  0.2913  0.4904
  688MPD2    H710184   3.521   4.184   0.010 -0.0242  0.1482  1.0589
  689TMC3    C110185   3.382   4.247   0.200 -0.3689 -0.5862 -1.1302
  689TMC3    C210186   3.333   4.283   0.321  0.2824 -0.7188  0.2454
  689TMC3    C310187   3.224   4.218   0.378 -0.3287  0.4460  0.7156
  689TMC3    C410188   3.321   4.151   0.126 -0.0225 -0.3187  0.5292
  689TMC3    C510189   3.215   4.089   0.181  0.0832 -0.4449 -0.1378
  689TMC3    C610190   3.160   4.127   0.307  0.0837  0.1516  0.4482
  689TMC3     C10191   3.468   4.344   0.132  0.2606  0.4130 -0.1336
  689TMC3     O10192   3.477   4.457   0.178  0.2524  0.3457 -0.5039
  689TMC3     H10193   3.384   4.359   0.379  1.9522 -0.7652 -1.1715
  689TMC3    H110194   3.333   4.133   0.019 -1.9739  0.1473  0.2415
  689TMC3    H210195   3.079   4.064   0.344  1.5067 -0.8772  1.7890
  689TMC3    C710196   3.110   4.045   0.090  0.3982  0.6968  0.5131
  689TMC3    C810197   3.171   4.276   0.495  0.0849 -0.2589 -0.1363
  689TMC3    O110198   3.142   3.967   0.003  0.2002  0.3239  0.5911
  689TMC3    O210199   3.118   4.209   0.584 -0.4725 -0.0583 -0.1936
  690MPD2     C10200   0.948   1.157  15.814 -0.4034 -0.2163  0.8248
  690MPD2    C110201   0.813   1.135  15.798  0.1755  0.5657 -0.9511
  690MPD2    C210202   0.769   1.129  15.671  0.9333 -0.5928 -0.2356
  690MPD2    C310203   0.849   1.142  15.558 -0.2512  0.8235  0.1954
  690MPD2    C410204   0.981   1.166  15.579  0.4737  0.5106 -0.3771
  690MPD2    C510205   1.033   1.173  15.707  0.1384 -0.3817  0.1030
  690MPD2     H10206   0.663   1.115  15.659  0.9878 -0.9521 -0.3004
  690MPD2    H110207   1.055   1.165  15.500  1.5299 -2.0808  0.6216
  690MPD2    H210208   0.994   1.166  15.911  3.0284 -1.6215 -0.6965
  690MPD2    H310209   1.140   1.188  15.718 -0.2119  1.2750  1.3047
  690MPD2     N10210   0.787   1.122  15.435 -0.5193 -0.1321 -0.0117
  690MPD2    H510211   0.687   1.107  15.442 -0.4658  0.3686  1.6148
  690MPD2    N110212   0.723   1.127  15.903  0.0345 -0.6565  0.6957
  690MPD2    H710213   0.622   1.118  15.894  0.2705  0.3499 -3.0284
  691TMC3    C110214   0.653   1.094  16.122 -0.4195  0.1442  0.0667
  691TMC3    C210215   0.522   1.126  16.078 -0.2069 -0.4439  0.3267
  691TMC3    C310216   0.422   1.047  16.119 -0.0838  0.1353 -0.0771
  691TMC3    C410217   0.678   0.995  16.223  0.5790  0.2442  0.0030
  691TMC3    C510218   0.575   0.913  16.253 -0.4489 -0.6619  0.2774
  691TMC3    C610219   0.451   0.940  16.202 -0.0886  0.5210 -0.0098
  691TMC3     C10220   0.765   1.114  16.033  0.2722 -0.0941  0.2620
  691TMC3     O10221   0.875   1.100  16.080  0.8368 -0.3677  0.1389
  691TMC3     H10222   0.516   1.206  16.004 -1.5009 -0.3770  0.5112
  691TMC3    H110223   0.772   0.973  16.273  0.2674  2.9685  1.7662
  691TMC3    H210224   0.363   0.893  16.245 -0.8685  1.3562 -0.6978
  691TMC3    C710225   0.610   0.780  16.292  0.1594 -0.4182 -1.0470
  691TMC3    C810226   0.284   1.060  16.081  0.0012 -0.7554  0.3005
  691TMC3    O110227   0.724   0.767  16.328 -0.6058  0.3291 -0.6393
  691TMC3    O210228   0.204   0.976  16.126 -0.0846  0.3764 -0.0837
  692TMC3    C110229   2.525   2.391  16.074  0.3365 -0.2688 -0.0051
  692TMC3    C210230   2.649   2.390  16.126 -0.2626 -0.1146  0.4448
  692TMC3    C310231   2.730   2.288  16.083  0.2189  0.5202 -0.1882
  692TMC3    C410232   2.465   2.290  16.007  0.2742 -0.2376 -0.2186
  692TMC3    C510233   2.540   2.178  15.998 -0.3178 -0.2605  1.4858
  692TMC3    C610234   2.676   2.180  16.022  0.1772  0.3389 -0.2279
  692TMC3     C10235   2.437   2.501  16.116 -0.0110 -0.1313  0.1181
  692TMC3     O10236   2.313   2.478  16.106  0.1049  0.2094  0.0905
  692TMC3     H10237   2.705   2.476  16.159 -3.8399  2.0404  0.9521
  692TMC3    H110238   2.368   2.303  15.958  1.5900 -0.2463 -2.8450
  692TMC3    H210239   2.739   2.092  16.021  2.0060  1.6674 -2.8549
  692TMC3    C710240   2.476   2.068  15.927 -0.5783  0.1326 -0.2202
  692TMC3    C810241   2.800   2.229  16.189  0.7422 -0.1181  0.5190
  692TMC3    O110242   2.363   2.083  15.884 -0.1932 -0.0798  0.3039
  692TMC3    O210243   2.904   2.165  16.169 -0.0204  0.2422  0.9282
  693MPD2     C10244   1.282   0.689  10.786 -0.6847 -0.3805  0.0506
  693MPD2    C110245   1.284   0.582  10.875  0.4084 -0.3528 -0.0106
  693MPD2    C210246   1.412   0.534  10.907  0.5100 -0.2605 -0.1974
  693MPD2    C310247   1.527   0.587  10.856  0.2881  0.2104 -0.1278
  693MPD2    C410248   1.522   0.697  10.768 -0.0253  0.6823 -0.0450
  693MPD2    C510249   1.395   0.741  10.727  0.0188 -0.5781 -0.0251
  693MPD2     H10250   1.428   0.448  10.972  1.1878 -0.9667 -1.2935
  693MPD2    H110251   1.610   0.743  10.724  0.2261 -0.1379 -0.3971
  693MPD2    H210252   1.182   0.727  10.769 -0.3043  0.8421  0.5381
  693MPD2    H310253   1.385   0.820  10.654 -1.8062  1.2614  2.2148
  693MPD2     N10254   1.653   0.530  10.908  0.4465 -0.1293 -0.1258
  693MPD2    H510255   1.643   0.447  10.965 -1.0875  0.3434  0.2952
  693MPD2    N110256   1.165   0.518  10.910 -0.2411 -0.7643  0.3186
  693MPD2    H710257   1.073   0.549  10.881 -1.0039 -4.5906 -1.3203
  694TMC3    C110258   1.020   0.398  11.050  0.1351 -0.0195  0.7741
  694TMC3    C210259   0.959   0.303  10.972  0.1916 -0.7736 -0.2992
  694TMC3    C310260   0.871   0.222  11.037 -0.2808 -0.9941  0.5145
  694TMC3    C410261   1.017   0.398  11.191 -1.1341  0.5452 -0.0709
  694TMC3    C510262   0.930   0.314  11.248 -0.0555  0.2198 -0.0213
  694TMC3    C610263   0.849   0.228  11.174 -0.1274  0.1706 -0.0107
  694TMC3     C10264   1.157   0.416  11.000 -0.3084 -0.3767  0.6201
  694TMC3     O10265   1.248   0.350  11.047  0.1737 -0.2479 -0.3424
  694TMC3     H10266   0.989   0.281  10.870 -0.4908 -0.1571 -0.6284
  694TMC3    H110267   1.084   0.468  11.241  1.1211 -1.5657 -0.1239
  694TMC3    H210268   0.781   0.161  11.226  0.3831 -2.4365 -2.7123
  694TMC3    C710269   0.933   0.311  11.393  0.0635  0.1931  0.1923
  694TMC3    C810270   0.774   0.145  10.963 -0.2808  0.0707  0.2241
  694TMC3    O110271   0.970   0.419  11.434  0.5780  0.4109  0.1399
  694TMC3    O210272   0.719   0.049  11.020  0.4975  0.2278 -0.3399
  695MPD2     C10273   2.680   1.824  13.831  0.0905  0.4490  0.5899
  695MPD2    C110274   2.656   1.821  13.970  0.3506 -0.7153  0.0428
  695MPD2    C210275   2.541   1.882  14.013 -0.0745 -0.2361  0.0307
  695MPD2    C310276   2.452   1.949  13.927  0.5800  0.3025  0.2641
  695MPD2    C410277   2.480   1.941  13.788  0.7921 -0.0787 -0.8972
  695MPD2    C510278   2.591   1.878  13.746  0.0119  0.0715  0.1846
  695MPD2     H10279   2.527   1.886  14.120 -1.2445 -0.7657 -0.1047
  695MPD2    H110280   2.428   2.004  13.717  0.4923 -0.6447 -1.1744
  695MPD2    H210281   2.768   1.776  13.789  0.1873  0.3381  0.9181
  695MPD2    H310282   2.622   1.887  13.642  1.7646 -2.6262  0.4729
  695MPD2     N10283   2.353   2.030  13.985 -0.0835  0.3290  0.1901
  695MPD2    H510284   2.344   2.030  14.086  0.4115  1.5093  0.2211
  695MPD2    N110285   2.744   1.776  14.068  0.1660 -0.1370 -0.2982
  695MPD2    H710286   2.716   1.779  14.166  0.1203  0.1936 -0.3213
  696TMC3    C110287   2.159   2.172  13.996 -0.2696  0.7262  0.1078
  696TMC3    C210288   2.121   2.132  14.123  0.0894  0.8743  0.2460
  696TMC3    C310289   2.019   2.188  14.188  0.3285  0.1625 -0.1982
  696TMC3    C410290   2.089   2.274  13.931 -0.0956 -0.0609 -0.4904
  696TMC3    C510291   1.990   2.337  14.006 -0.1841  0.2600 -0.1251
  696TMC3    C610292   1.958   2.296  14.131  0.7183  0.0654  0.3156
  696TMC3     C10293   2.247   2.089  13.916  0.6566 -0.4419 -0.5109
  696TMC3     O10294   2.229   2.085  13.797  0.2754  0.0618  0.1795
  696TMC3     H10295   2.162   2.040  14.161 -3.8619 -0.5556  1.0390
  696TMC3    H110296   2.108   2.304  13.829  1.7273  0.0600 -0.1181
  696TMC3    H210297   1.889   2.361  14.185  1.4367  0.9393  0.1859
  696TMC3    C710298   1.984   2.482  13.982 -0.0849  0.2038  0.2152
  696TMC3    C810299   2.064   2.213  14.331  0.0212 -0.6342 -0.4427
  696TMC3    O110300   1.993   2.521  13.864  0.0586 -0.6868  0.7676
  696TMC3    O210301   2.184   2.197  14.358  0.0746  0.1516  0.2528
  697MPD2     C10302   2.291   3.845  15.937  0.1787  0.0203 -0.6433
  697MPD2    C110303   2.246   3.781  15.822 -0.0180 -0.1620  0.2102
  697MPD2    C210304   2.233   3.858  15.708 -0.4236  0.4193 -0.7751
  697MPD2    C310305   2.256   3.994  15.705 -0.0375 -0.0507  0.1075
  697MPD2    C410306   2.297   4.048  15.821  0.1581  0.5591  0.4351
  697MPD2    C510307   2.312   3.974  15.937 -0.4255  0.5814 -0.1421
  697MPD2     H10308   2.210   3.810  15.613  0.3823 -0.1478 -0.6778
  697MPD2    H110309   2.335   4.149  15.829 -3.4409  1.9014  0.5718
  697MPD2    H210310   2.301   3.793  16.032  1.7311  0.4807 -0.5530
  697MPD2    H310311   2.362   4.028  16.016 -2.5000  0.4655  1.2477
  697MPD2     N10312   2.252   4.061  15.581  0.5621 -0.0066  0.0979
  697MPD2    H510313   2.238   4.015  15.492 -1.6487 -0.4796  0.7019
  697MPD2    N110314   2.221   3.643  15.819 -0.2005 -0.1259 -0.8239
  697MPD2    H710315   2.182   3.612  15.730 -2.2717 -0.0030  0.0285
  698TMC3    C110316   2.326   4.246  15.436 -0.4245  0.0395 -0.0105
  698TMC3    C210317   2.455   4.284  15.427 -0.5412  0.5253 -0.0806
  698TMC3    C310318   2.516   4.309  15.311  0.7199 -0.0838 -0.2020
  698TMC3    C410319   2.258   4.219  15.322  0.1775  0.7618  0.4950
  698TMC3    C510320   2.319   4.251  15.200 -0.1659  0.2980 -0.4139
  698TMC3    C610321   2.449   4.294  15.195 -0.1160  0.1190 -0.7118
  698TMC3     C10322   2.277   4.205  15.564  0.6640 -0.1822 -0.5942
  698TMC3     O10323   2.288   4.294  15.654 -0.0349 -0.2927 -0.2524
  698TMC3     H10324   2.514   4.300  15.516  0.8435  1.3608 -1.1400
  698TMC3    H110325   2.156   4.185  15.332 -0.4111  1.9194 -1.6065
  698TMC3    H210326   2.487   4.327  15.099 -2.0070 -0.3009 -1.6082
  698TMC3    C710327   2.251   4.193  15.083 -0.4511  0.5950  0.2448
  698TMC3    C810328   2.663   4.328  15.317  0.0782  0.3944  0.8039
  698TMC3    O110329   2.129   4.179  15.087  0.0849 -0.0069 -0.1000
  698TMC3    O210330   2.714   4.300  15.422 -0.2101 -0.3696 -0.0784
  699TMC3    C110331   2.361   2.089  13.014  0.2388 -0.4446  1.1321
  699TMC3    C210332   2.421   1.988  13.077 -0.3994 -0.9982 -0.0177
  699TMC3    C310333   2.358   1.932  13.186 -0.3246  0.1311 -0.2426
  699TMC3    C410334   2.236   2.132  13.056 -0.1008  0.5913 -1.5233
  699TMC3    C510335   2.178   2.077  13.161  0.4935 -0.6729  0.2558
  699TMC3    C610336   2.233   1.974  13.219  0.2274 -0.4025  0.3889
  699TMC3     C10337   2.413   2.144  12.888  0.5977  0.3029  0.4742
  699TMC3     O10338   2.328   2.185  12.810  0.0940  0.1811 -0.3781
  699TMC3     H10339   2.517   1.947  13.046  0.6399  2.2361 -1.1251
  699TMC3    H110340   2.193   2.221  13.012  0.1609  0.4669 -2.0270
  699TMC3    H210341   2.179   1.929  13.302 -1.5207 -0.1927 -0.6252
  699TMC3    C710342   2.027   2.078  13.179 -0.8811 -0.4874 -0.0903
  699TMC3    C810343   2.413   1.812  13.251 -0.3801 -0.0787 -0.3594
  699TMC3    O110344   1.993   2.071  13.299  0.8180 -0.1049  0.2633
  699TMC3    O210345   2.331   1.745  13.315 -0.3207  0.0248 -0.1778
  700TMC3    C110346   0.998   0.132  17.292  0.3760 -0.4814 -0.0372
  700TMC3    C210347   0.987   0.000  17.276 -0.0225 -0.1757 -0.1261
  700TMC3    C310348   1.057   4.636  17.364  0.4081  0.4566 -0.0226
  700TMC3    C410349   1.078   0.176  17.397  0.1901 -0.2365  0.4096
  700TMC3    C510350   1.131   0.091  17.491 -0.1257  0.2081 -0.3407
  700TMC3    C610351   1.118   4.681  17.478 -0.9784  0.7134 -0.0870
  700TMC3     C10352   1.028   0.199  17.164  0.4982 -0.4569  0.3205
  700TMC3     O10353   1.006   0.137  17.058  0.5557  0.0861 -0.1095
  700TMC3     H10354   0.934   4.681  17.192 -0.1371 -0.8535  0.2926
  700TMC3    H110355   1.098   0.282  17.407 -0.8303 -0.1246  1.3176
  700TMC3    H210356   1.140   4.613  17.560  2.7451  0.9046 -0.9037
  700TMC3    C710357   1.207   0.155  17.596 -0.3650  0.5356 -0.1116
  700TMC3    C810358   1.090   4.504  17.319 -0.0175  0.8659 -0.0196
  700TMC3    O110359   1.188   0.275  17.617 -0.1922 -0.5800 -0.2670
  700TMC3    O210360   1.197   4.457  17.361  0.2659  0.0192  0.5821
  701TMC3    C110361   1.750   2.857  15.739 -0.7733 -0.3644  0.5000
  701TMC3    C210362   1.750   2.833  15.606  0.0736 -0.9546 -0.1610
  701TMC3    C310363   1.792   2.932  15.524 -0.4969 -0.1552  0.2394
  701TMC3    C410364   1.776   2.975  15.794  0.0247 -0.0840  0.4729
  701TMC3    C510365   1.816   3.076  15.711  0.5366 -0.0736 -0.0173
  701TMC3    C610366   1.834   3.055  15.575 -0.0135  0.1437 -0.3138
  701TMC3     C10367   1.690   2.763  15.834  0.0252  0.7855  0.4738
  701TMC3     O10368   1.622   2.811  15.919  0.3607 -0.1189  0.7836
  701TMC3     H10369   1.726   2.735  15.565 -0.9469 -0.8505  0.1774
  701TMC3    H110370   1.757   2.985  15.900 -0.0479 -1.7215  0.6214
  701TMC3    H210371   1.875   3.128  15.506 -0.6988  0.2466 -0.6060
  701TMC3    C710372   1.805   3.211  15.758  0.1373 -0.2744  0.1446
  701TMC3    C810373   1.783   2.907  15.376  0.4721  0.3560 -0.1825
  701TMC3    O110374   1.829   3.303  15.680 -0.2100 -0.1919 -0.0643
  701TMC3    O210375   1.847   2.981  15.301  0.0705  0.3992  0.6321
  702MPD2     C10376   0.347   0.852  11.180 -0.0872  0.0554 -0.0764
  702MPD2    C110377   0.479   0.870  11.214 -0.2099 -0.2718  0.2681
  702MPD2    C210378   0.577   0.884  11.116 -0.1466 -0.1322 -0.4802
  702MPD2    C310379   0.538   0.902  10.988  0.3098  0.1153 -0.1156
  702MPD2    C410380   0.400   0.900  10.961 -0.2831 -0.1670 -0.8424
  702MPD2    C510381   0.308   0.862  11.048 -0.3491 -0.1354 -0.3545
  702MPD2     H10382   0.682   0.885  11.140 -0.5354  1.2489  1.1108
  702MPD2    H110383   0.357   0.915  10.863 -0.4413 -1.1355 -0.9235
  702MPD2    H210384   0.273   0.854  11.258  0.6094 -0.3686  0.5945
  702MPD2    H310385   0.204   0.868  11.019 -1.2505 -1.2947  2.6551
  702MPD2     N10386   0.621   0.950  10.888 -0.3302 -0.3668  0.0519
  702MPD2    H510387   0.577   1.002  10.813  0.4986 -0.4496 -0.4950
  702MPD2    N110388   0.506   0.870  11.351 -0.1973 -0.8091  0.1754
  702MPD2    H710389   0.425   0.866  11.411 -0.9308 -1.1621 -0.8225
  703TMC3    C110390   0.818   1.034  10.795  0.1151 -0.0371  0.6929
  703TMC3    C210391   0.753   1.147  10.759  0.3710  0.8575 -0.0891
  703TMC3    C310392   0.810   1.230  10.668 -0.5038  0.2623  1.0824
  703TMC3    C410393   0.941   1.008  10.741  0.2610 -0.3350  0.3712
  703TMC3    C510394   1.007   1.089  10.657 -0.4091 -0.0060 -1.0875
  703TMC3    C610395   0.943   1.210  10.620  0.7938 -0.4077  0.7466
  703TMC3     C10396   0.759   0.945  10.896 -1.1055 -0.0456 -0.1237
  703TMC3     O10397   0.827   0.867  10.962 -0.2121  0.2866 -0.4189
  703TMC3     H10398   0.675   1.191  10.820  1.9203  0.9138  1.8462
  703TMC3    H110399   0.982   0.918  10.786 -0.0609 -0.3062  0.7204
  703TMC3    H210400   0.985   1.276  10.545  0.1108 -2.3645 -1.3704
  703TMC3    C710401   1.150   1.074  10.667  0.0029  0.0259  0.0951
  703TMC3    C810402   0.767   1.365  10.651 -0.1468 -0.2668 -0.0807
  703TMC3    O110403   1.190   0.974  10.724  0.1843 -0.1672 -0.5054
  703TMC3    O210404   0.839   1.438  10.586 -0.1783 -0.2926 -0.3601
  704TMC3    C110405   2.970   3.347  11.951  0.1993 -0.3411 -0.2396
  704TMC3    C210406   3.009   3.461  12.011  0.7691  0.1986 -0.3945
  704TMC3    C310407   3.065   3.456  12.138 -0.0586  0.0381  0.2705
  704TMC3    C410408   2.992   3.218  12.010  0.4700 -0.0016 -0.1345
  704TMC3    C510409   3.063   3.228  12.119  1.1515 -0.3564  0.3581
  704TMC3    C610410   3.093   3.335  12.188 -0.1608 -0.9166 -0.0173
  704TMC3     C10411   2.899   3.353  11.825  0.3918  0.7277 -0.2077
  704TMC3     O10412   2.833   3.254  11.797  0.2811 -0.1944  0.4362
  704TMC3     H10413   2.982   3.557  11.968 -0.7863  0.1708  0.5308
  704TMC3    H110414   2.990   3.127  11.952 -0.4831  0.2897 -0.5636
  704TMC3    H210415   3.147   3.321  12.282 -1.8785  0.7391  1.2059
  704TMC3    C710416   3.132   3.113  12.174 -0.6371  0.5519 -0.0976
  704TMC3    C810417   3.166   3.563  12.140  0.2278 -0.4202 -0.5075
  704TMC3    O110418   3.185   3.038  12.093 -0.8654  0.1317 -0.2749
  704TMC3    O210419   3.206   3.594  12.030 -0.3031  0.4233  0.8830
  705MPD2     C10420   2.813   2.665  17.095  0.0239 -0.0399  0.0786
  705MPD2    C110421   2.722   2.623  17.001 -1.2553  0.2324 -0.5960
  705MPD2    C210422   2.586   2.656  17.028 -0.2229 -0.2437 -0.5095
  705MPD2    C310423   2.543   2.709  17.146  1.1931 -0.8469 -0.2128
  705MPD2    C410424   2.644   2.748  17.235  0.0198 -0.1843  0.4590
  705MPD2    C510425   2.774   2.731  17.205 -0.0407  1.1424  0.7050
  705MPD2     H10426   2.514   2.636  16.949 -0.6816  0.3462 -0.2409
  705MPD2    H110427   2.623   2.796  17.330  2.5788  3.9217 -1.0351
  705MPD2    H210428   2.920   2.647  17.087 -0.0758 -1.0076  0.8058
  705MPD2    H310429   2.843   2.760  17.284 -0.0773 -2.3358  2.0196
  705MPD2     N10430   2.405   2.740  17.167 -0.0713  0.4898 -0.5257
  705MPD2    H510431   2.340   2.694  17.104  2.4985 -1.8073 -1.4848
  705MPD2    N110432   2.756   2.553  16.878  0.0001  0.7222 -0.1939
  705MPD2    H710433   2.682   2.522  16.817  1.3954  0.1226 -1.5892
  706TMC3    C110434   3.041   2.328  16.575  0.3872 -0.1109  0.2422
  706TMC3    C210435   3.002   2.408  16.473  1.2582  0.0119  0.3373
  706TMC3    C310436   2.903   2.502  16.501 -1.2914 -0.4219 -0.4481
  706TMC3    C410437   2.982   2.345  16.698 -0.2452 -0.0280  0.2018
  706TMC3    C510438   2.891   2.446  16.718 -0.1418  0.2549 -0.2864
  706TMC3    C610439   2.850   2.525  16.622  0.1622  0.3771  1.2849
  706TMC3     C10440   3.146   2.236  16.573 -0.1778 -0.5982 -0.7513
  706TMC3     O10441   3.191   2.201  16.680 -0.3325 -0.0764  0.4706
  706TMC3     H10442   3.040   2.382  16.376  2.4138 -1.9181  1.3063
  706TMC3    H110443   3.005   2.283  16.784  1.4544  0.9566  0.4599
  706TMC3    H210444   2.788   2.610  16.648 -2.8371 -1.3102 -0.3391
  706TMC3    C710445   2.878   2.491  16.856 -0.1921  0.3551  0.0926
  706TMC3    C810446   2.884   2.601  16.400 -0.1350 -0.5693 -0.0466
  706TMC3    O110447   2.970   2.465  16.929 -0.7440  0.3959  0.6004
  706TMC3    O210448   2.879   2.565  16.282 -0.3018 -0.2798  0.3013
  707TMC3    C110449   4.202   0.019   1.590 -0.0559  0.5504 -0.4209
  707TMC3    C210450   4.250   4.615   1.566 -0.0942  0.1967 -0.4261
  707TMC3    C310451   4.176   4.514   1.617  0.5064  0.1286  0.1553
  707TMC3    C410452   4.082   0.048   1.643 -0.2032 -0.1256  0.1888
  707TMC3    C510453   4.008   4.660   1.689  0.2527 -0.2380 -0.0765
  707TMC3    C610454   4.058   4.529   1.680 -0.0167 -0.8017  0.9163
  707TMC3     C10455   4.282   0.129   1.530  0.6902  0.0698  0.2049
  707TMC3     O10456   4.382   0.089   1.475  0.2123  0.0252  0.1985
  707TMC3     H10457   4.346   4.600   1.518  0.1619 -1.7123  0.6462
  707TMC3    H110458   4.026   0.141   1.636  0.4145  0.1014 -1.4920
  707TMC3    H210459   4.008   4.443   1.722  0.9096 -1.3944  0.8078
  707TMC3    C710460   3.882   4.682   1.756  0.0648 -0.4051 -0.2246
  707TMC3    C810461   4.246   4.396   1.641  0.5513 -0.4159  0.1968
  707TMC3    O110462   3.858   0.061   1.812 -0.2741  0.1259  0.4812
  707TMC3    O210463   4.196   4.334   1.733  0.0974  0.2276 -0.3235
  708MPD2     C10464   1.284   0.189  13.600 -0.7067  0.4118  0.6017
  708MPD2    C110465   1.203   0.160  13.713 -0.3580 -0.3261  0.2683
  708MPD2    C210466   1.251   0.072  13.804  0.0952  0.4997 -0.0066
  708MPD2    C310467   1.377   0.024  13.803 -1.0888  0.3354 -0.5683
  708MPD2    C410468   1.467   0.071  13.706  0.1635  0.0083 -0.1071
  708MPD2    C510469   1.414   0.148  13.604 -0.0524 -0.0868  1.0559
  708MPD2     H10470   1.188   0.043  13.887 -1.6083 -0.9036 -1.7965
  708MPD2    H110471   1.573   0.047  13.701  0.8454  3.0461 -0.5355
  708MPD2    H210472   1.256   0.250  13.514 -2.2691  0.9282  1.4723
  708MPD2    H310473   1.477   0.168  13.517 -0.0076 -1.6948  0.7198
  708MPD2     N10474   1.436   4.676  13.907 -0.2966 -0.2522 -0.3117
  708MPD2    H510475   1.537   4.682  13.905 -0.0954 -3.6520  0.4703
  708MPD2    N110476   1.074   0.204  13.732 -0.2565 -0.2264 -0.2583
  708MPD2    H710477   1.017   0.163  13.806 -0.5014  1.1286  0.2972
  709TMC3    C110478   0.877   0.326  13.717 -0.1960  0.0006  0.6724
  709TMC3    C210479   0.766   0.363  13.644 -0.4374 -0.8576 -0.0160
  709TMC3    C310480   0.650   0.362  13.714  0.2120  0.4953 -0.3307
  709TMC3    C410481   0.876   0.325  13.857  0.4877  0.1537  0.2477
  709TMC3    C510482   0.753   0.328  13.920 -0.2081  0.5126  1.0023
  709TMC3    C610483   0.637   0.342  13.851  0.3604  0.3420  0.2362
  709TMC3     C10484   1.011   0.296  13.652  0.1805  0.3797 -0.7095
  709TMC3     O10485   1.060   0.385  13.582 -0.3653 -0.9144  0.0295
  709TMC3     H10486   0.770   0.364  13.536  2.8776  0.5320  0.1320
  709TMC3    H110487   0.973   0.319  13.904  1.9284  0.4694 -2.7159
  709TMC3    H210488   0.543   0.347  13.904  1.5049 -1.6548  2.4356
  709TMC3    C710489   0.745   0.277  14.060  0.2657 -0.3276  1.1094
  709TMC3    C810490   0.520   0.360  13.643 -0.6755  0.5471  0.2159
  709TMC3    O110491   0.668   0.327  14.136 -0.0955  0.0391 -0.4685
  709TMC3    O210492   0.425   0.315  13.706  0.2292  0.0760  0.0436
  710TMC3    C110493   1.983   1.733   0.721  0.3351 -0.6074 -0.2511
  710TMC3    C210494   2.085   1.802   0.672  0.5104 -0.3210 -0.5870
  710TMC3    C310495   2.213   1.751   0.685  1.3135  1.4396  0.8538
  710TMC3    C410496   2.006   1.620   0.789 -0.0702  0.2417 -0.1337
  710TMC3    C510497   2.133   1.571   0.813 -0.8291  0.1155 -0.0428
  710TMC3    C610498   2.234   1.631   0.754  0.3009 -0.1447  0.5962
  710TMC3     C10499   1.842   1.772   0.711 -0.4415 -0.1938  1.2318
  710TMC3     O10500   1.761   1.682   0.705  0.4947 -0.3370 -0.3509
  710TMC3     H10501   2.066   1.889   0.611  1.9784  0.4486  0.0462
  710TMC3    H110502   1.921   1.565   0.826  0.8563 -0.6736  0.6402
  710TMC3    H210503   2.337   1.603   0.774  0.0596 -1.4999 -0.0340
  710TMC3    C710504   2.145   1.437   0.874  0.2622 -0.5562  0.5711
  710TMC3    C810505   2.321   1.802   0.603 -0.0646  0.3457 -0.4526
  710TMC3    O110506   2.045   1.401   0.942  0.2542 -0.2907 -0.7519
  710TMC3    O210507   2.413   1.729   0.572 -0.1251  0.4145 -0.8318
  711TMC3    C110508   1.717   2.361  15.168  0.8946 -0.2007 -0.7762
  711TMC3    C210509   1.728   2.431  15.285  0.5604  0.5195  0.2164
  711TMC3    C310510   1.854   2.476  15.309 -0.4969  0.5693 -0.6403
  711TMC3    C410511   1.824   2.315  15.097 -0.0305 -0.0392 -0.0263
  711TMC3    C510512   1.949   2.333  15.144  0.4959  0.0856 -0.3301
  711TMC3    C610513   1.965   2.420  15.243 -0.4720 -0.3986  0.6231
  711TMC3     C10514   1.587   2.335  15.121 -0.1463  0.3824  0.3343
  711TMC3     O10515   1.580   2.284  15.010  0.7510  0.1066  0.0113
  711TMC3     H10516   1.645   2.492  15.318 -0.8627 -2.0626  1.3436
  711TMC3    H110517   1.811   2.250  15.011  1.9072 -1.5726  0.8349
  711TMC3    H210518   2.066   2.439  15.277 -0.0219 -1.3135 -0.2122
  711TMC3    C710519   2.040   2.224  15.142  0.2951 -0.0046 -0.0719
  711TMC3    C810520   1.882   2.519  15.449  0.4540  0.1164  0.4498
  711TMC3    O110521   2.142   2.230  15.206 -0.6244 -0.0710 -0.2847
  711TMC3    O210522   1.795   2.492  15.531  0.4749  0.6969 -0.3485
  712MPD2     C10523   3.247   3.877  13.985 -0.1088 -0.4952  0.5029
  712MPD2    C110524   3.134   3.901  13.912 -0.0389  0.6392 -0.6329
  712MPD2    C210525   3.137   3.988  13.805 -0.7040  0.2707  0.1388
  712MPD2    C310526   3.255   4.062  13.782 -0.0923 -0.1016  0.5134
  712MPD2    C410527   3.367   4.030  13.849  0.4456  0.5205 -0.1632
  712MPD2    C510528   3.360   3.945  13.950 -0.2287 -0.1534 -0.1426
  712MPD2     H10529   3.048   4.005  13.744 -0.8864  0.6752  0.5187
  712MPD2    H110530   3.453   4.097  13.846  0.5994  0.1899 -2.5573
  712MPD2    H210531   3.257   3.819  14.076  0.5525 -0.0855  0.6832
  712MPD2    H310532   3.449   3.927  14.009 -1.1171 -0.3784  1.1288
  712MPD2     N10533   3.270   4.164  13.682 -0.2644 -0.7565 -0.3648
  712MPD2    H510534   3.349   4.227  13.675  0.3473 -1.6754 -1.8256
  712MPD2    N110535   3.006   3.832  13.928  0.2184  0.2566 -0.4104
  712MPD2    H710536   2.936   3.855  13.858 -1.1866 -0.6311  0.7055
  713TMC3    C110537   3.221   4.287  13.483 -0.4139  0.7242  0.1848
  713TMC3    C210538   3.339   4.343  13.499 -0.2031 -0.3163  0.2171
  713TMC3    C310539   3.363   4.458  13.433 -0.4405 -0.3852  0.4880
  713TMC3    C410540   3.119   4.344  13.410 -0.7778  0.2776 -0.6680
  713TMC3    C510541   3.151   4.462  13.346  0.5863  0.5053  0.0802
  713TMC3    C610542   3.273   4.515  13.348 -0.6618 -0.8765 -0.4234
  713TMC3     C10543   3.177   4.186  13.584 -0.9047 -0.6139  0.0615
  713TMC3     O10544   3.062   4.150  13.566  1.0305 -0.4501 -0.2559
  713TMC3     H10545   3.418   4.282  13.541  1.0971  1.3899  0.2827
  713TMC3    H110546   3.017   4.308  13.412 -0.2537 -1.1642  0.5573
  713TMC3    H210547   3.305   4.604  13.294 -1.5084 -0.7690 -0.7511
  713TMC3    C710548   3.051   4.510  13.254  0.5894  0.0086  0.0396
  713TMC3    C810549   3.502   4.506  13.421  0.0731 -0.0324  0.3289
  713TMC3    O110550   2.931   4.486  13.278 -0.0287 -0.0997  0.5485
  713TMC3    O210551   3.528   4.529  13.304 -0.3223 -0.1171  0.0524
  714MPD2     C10552   0.561   2.961   1.822 -0.2654 -1.1278  0.6027
  714MPD2    C110553   0.559   2.899   1.703 -1.0345 -0.1374 -0.2776
  714MPD2    C210554   0.458   2.927   1.610 -0.0101 -0.2186 -0.2571
  714MPD2    C310555   0.361   3.017   1.642  0.4660  0.4924 -0.5154
  714MPD2    C410556   0.363   3.080   1.763  0.6773 -0.4107 -0.0021
  714MPD2    C510557   0.469   3.050   1.856 -0.1230 -0.7274  0.8016
  714MPD2     H10558   0.465   2.893   1.507 -0.1761 -0.9560 -0.0246
  714MPD2    H110559   0.281   3.141   1.799  1.0978  0.4551 -0.5285
  714MPD2    H210560   0.646   2.945   1.887 -0.0405  1.3073  0.9408
  714MPD2    H310561   0.469   3.085   1.959 -0.3340 -0.6071  0.7618
  714MPD2     N10562   0.280   3.051   1.527 -0.5020 -0.1990  0.3054
  714MPD2    H510563   0.293   2.994   1.445 -1.0738 -0.7641  0.6043
  714MPD2    N110564   0.667   2.827   1.667 -0.2194 -0.4035  0.4696
  714MPD2    H710565   0.733   2.811   1.743  1.1638  0.9565 -0.4226
  715TMC3    C110566   0.828   2.708   1.548  0.2972  0.6537  0.7302
  715TMC3    C210567   0.866   2.619   1.449 -0.0557 -0.6601 -0.3162
  715TMC3    C310568   0.992   2.572   1.451 -0.1956  0.2054 -0.1183
  715TMC3    C410569   0.914   2.748   1.645 -0.1783  0.6680  0.1146
  715TMC3    C510570   1.039   2.693   1.646  0.0372  0.1159 -0.2784
  715TMC3    C610571   1.086   2.606   1.548  0.1537  0.4447 -0.4715
  715TMC3     C10572   0.701   2.779   1.545 -0.1294 -0.0437 -0.1345
  715TMC3     O10573   0.634   2.755   1.443  0.4507  0.1609  0.3702
  715TMC3     H10574   0.792   2.598   1.373 -0.8550 -0.6008  0.4416
  715TMC3    H110575   0.887   2.831   1.710 -1.0883  0.4365  0.0230
  715TMC3    H210576   1.188   2.569   1.543 -0.3304 -0.8064 -1.0290
  715TMC3    C710577   1.137   2.737   1.741 -0.3863  0.0813 -0.2279
  715TMC3    C810578   1.016   2.470   1.350 -0.2630 -0.5876  0.3014
  715TMC3    O110579   1.255   2.718   1.717 -0.1918  0.2182  0.7848
  715TMC3    O210580   0.925   2.398   1.312  0.0601 -0.6061  0.5494
  716MPD2     C10581   0.102   0.427   9.951  0.3179  0.2449  0.3204
  716MPD2    C110582   0.139   0.361   9.833 -0.5145  0.1683 -0.2502
  716MPD2    C210583   0.221   0.253   9.841  0.5652  0.9817 -0.4603
  716MPD2    C310584   0.271   0.216   9.960  0.5203  0.2447  0.0462
  716MPD2    C410585   0.245   0.285  10.074 -0.0072  0.4187  0.5702
  716MPD2    C510586   0.162   0.392  10.067 -0.4136 -0.4510 -0.0874
  716MPD2     H10587   0.247   0.203   9.748 -1.8499 -1.8845  0.3970
  716MPD2    H110588   0.283   0.259  10.172 -2.1136 -1.7784  0.8162
  716MPD2    H210589   0.051   0.523   9.947 -1.1914 -0.4936  2.0364
  716MPD2    H310590   0.136   0.458  10.149 -2.3440 -1.0714 -0.1794
  716MPD2     N10591   0.351   0.103   9.956 -0.4270 -0.0885 -0.4842
  716MPD2    H510592   0.361   0.045   9.874 -0.0303  2.4768 -2.2369
  716MPD2    N110593   0.081   0.396   9.709  0.2838  0.3307 -0.7324
  716MPD2    H710594   0.015   0.473   9.720 -0.4501 -0.4987  0.8126
  717TMC3    C110595   0.434   4.628  10.039  0.5131  0.1004 -0.4622
  717TMC3    C210596   0.380   4.558   9.932  0.0265 -0.3078  0.3848
  717TMC3    C310597   0.352   4.423   9.936 -0.5033  0.5459 -0.1151
  717TMC3    C410598   0.481   4.549  10.149  0.4404 -0.0456  0.1474
  717TMC3    C510599   0.455   4.415  10.147  0.5287 -0.3984 -0.1780
  717TMC3    C610600   0.395   4.353  10.042  0.0899  0.5741 -0.3316
  717TMC3     C10601   0.416   0.041  10.065  0.2727  0.6467 -0.1176
  717TMC3     O10602   0.435   0.090  10.177  0.0708  0.1782  0.4901
  717TMC3     H10603   0.340   4.614   9.849 -1.3370  0.3912  1.5032
  717TMC3    H110604   0.530   4.598  10.232 -1.4759  0.5716  0.8968
  717TMC3    H210605   0.363   4.251  10.058 -0.7035  0.5362 -2.1653
  717TMC3    C710606   0.565   4.337  10.209 -0.5634  0.1910  0.3922
  717TMC3    C810607   0.252   4.374   9.837  0.1198  0.9458 -0.1030
  717TMC3    O110608   0.611   4.248  10.144  0.8147 -0.2348 -0.2759
  717TMC3    O210609   0.189   4.456   9.774 -0.4423 -0.1174  0.1152
  718MPD2     C10610   4.273   3.853  13.853 -0.3592  0.4281 -0.3912
  718MPD2    C110611   4.295   3.885  13.721 -0.3534  0.6470  0.3585
  718MPD2    C210612   4.202   3.855  13.629 -0.3234  0.8547  0.3698
  718MPD2    C310613   4.083   3.806  13.662  0.4560  0.0995 -0.3630
  718MPD2    C410614   4.057   3.774  13.791  0.9416 -0.0362  0.1699
  718MPD2    C510615   4.150   3.791  13.886  0.1083  0.5051  0.6422
  718MPD2     H10616   4.224   3.876  13.525  0.2404  1.6515  0.6490
  718MPD2    H110617   3.966   3.722  13.820  0.3249 -0.5285 -2.6424
  718MPD2    H210618   4.343   3.872  13.934 -0.1340 -2.0086 -0.0399
  718MPD2    H310619   4.117   3.763  13.985 -0.9829  0.3095  0.2216
  718MPD2     N10620   3.987   3.790  13.554 -0.2019  0.6379 -0.3911
  718MPD2    H510621   4.025   3.820  13.465 -1.3984 -1.8346 -1.7442
  718MPD2    N110622   4.421   3.929  13.684  0.6509 -0.2247 -0.0686
  718MPD2    H710623   4.503   3.910  13.741 -1.1086 -2.6392  1.6538
  719TMC3    C110624   4.595   4.005  13.553 -0.4123  0.5805 -0.7939
  719TMC3    C210625   4.644   3.879  13.546 -0.5026  0.6839  0.0075
  719TMC3    C310626   4.700   3.819  13.437  1.0367  1.0772 -0.3471
  719TMC3    C410627   4.622   4.094  13.448  0.8304  0.2921  0.4299
  719TMC3    C510628   4.695   4.039  13.343 -0.8894 -0.9911 -0.1051
  719TMC3    C610629   0.009   3.905  13.334  0.1699  0.2788  0.1235
  719TMC3     C10630   4.452   4.006  13.582  0.1887  0.3714  0.2190
  719TMC3     O10631   4.379   4.041  13.490 -0.2517 -0.9473 -0.2837
  719TMC3     H10632   4.620   3.819  13.633 -2.1378  1.6611  0.2119
  719TMC3    H110633   4.567   4.188  13.448 -0.4588 -0.4698 -2.0646
  719TMC3    H210634   0.089   3.873  13.268  0.1854  0.8036 -0.1202
  719TMC3    C710635   0.008   4.115  13.229 -0.1128 -0.7814 -0.1074
  719TMC3    C810636   4.607   3.714  13.394  0.2778  0.1020  0.5843
  719TMC3    O110637   0.051   4.051  13.135  0.3790  0.8632 -0.3254
  719TMC3    O210638   4.531   3.681  13.482  0.5069  0.0192 -0.6629
  720MPD2     C10639   3.734   1.078  13.275 -0.3902  0.4035 -0.0788
  720MPD2    C110640   3.676   1.078  13.404 -0.4401  0.0159 -0.2964
  720MPD2    C210641   3.753   1.032  13.503 -0.1571 -0.3738 -0.3175
  720MPD2    C310642   3.874   0.971  13.488 -0.0465 -0.5734 -0.5717
  720MPD2    C410643   3.934   0.976  13.362 -0.8563  0.2883  0.1945
  720MPD2    C510644   3.861   1.028  13.255 -0.1984  0.5989  0.6891
  720MPD2     H10645   3.702   1.046  13.598 -0.1886 -2.7025  0.0202
  720MPD2    H110646   4.028   0.930  13.337 -1.8057 -0.6663 -1.6513
  720MPD2    H210647   3.679   1.109  13.187 -0.1894  0.4271 -0.1979
  720MPD2    H310648   3.903   1.031  13.155 -1.1613  4.8498  0.4094
  720MPD2     N10649   3.932   0.912  13.597  0.6087 -0.0661  0.1297
  720MPD2    H510650   3.877   0.914  13.683  0.1398  1.6614 -0.2053
  720MPD2    N110651   3.546   1.124  13.422 -0.0240  0.1557 -0.0096
  720MPD2    H710652   3.501   1.096  13.509 -2.0867  0.4565 -0.9899
  721TMC3    C110653   4.091   0.849  13.755  1.2308  0.0448 -0.5077
  721TMC3    C210654   3.983   0.835  13.839  0.1104  0.6523 -0.1513
  721TMC3    C310655   3.990   0.896  13.961  0.1942  0.1903  0.5217
  721TMC3    C410656   4.198   0.926  13.786  0.4578 -0.2645 -0.0752
  721TMC3    C510657   4.198   0.975  13.913  0.0781 -0.1271  0.2975
  721TMC3    C610658   4.095   0.969  14.006 -0.1092  0.4793  0.3109
  721TMC3     C10659   4.061   0.873  13.607 -0.4155 -0.2715  0.3398
  721TMC3     O10660   4.152   0.876  13.523  0.4077  0.0207  0.7584
  721TMC3     H10661   3.894   0.779  13.812 -0.0517  0.8890 -0.1096
  721TMC3    H110662   4.285   0.933  13.722  0.5114  2.9468  0.3281
  721TMC3    H210663   4.098   1.025  14.099  0.7361  2.4435 -0.8963
  721TMC3    C710664   4.323   1.037  13.944 -0.2663  0.2713 -0.6138
  721TMC3    C810665   3.858   0.933  13.996  0.3641 -0.1061  0.1979
  721TMC3    O110666   4.384   1.089  13.855  0.0824 -0.1909  0.2537
  721TMC3    O210667   3.788   0.957  13.899 -0.0339 -0.0507  0.2765
  722MPD2     C10668   2.096   0.017  13.313  0.6870  0.3445 -0.5251
  722MPD2    C110669   2.043   0.035  13.190  0.5146  0.3828  0.7286
  722MPD2    C210670   1.905   0.030  13.170 -0.8714  1.1576  0.7537
  722MPD2    C310671   1.828   4.719  13.276  0.9736  0.4791  0.0433
  722MPD2    C410672   1.886   4.678  13.395 -0.1974 -0.0215  0.8851
  722MPD2    C510673   2.019   4.692  13.412 -0.2250 -0.1219 -0.0290
  722MPD2     H10674   1.851   0.044  13.077 -1.0894 -0.0492  0.6927
  722MPD2    H110675   1.827   4.654  13.483  0.0493 -2.7553  0.3226
  722MPD2    H210676   2.201   0.034  13.331  0.8127  0.5719 -1.5035
  722MPD2    H310677   2.069   4.674  13.506  0.1585 -0.7069 -0.3439
  722MPD2     N10678   1.693   4.711  13.250  0.2683 -0.1105  0.2206
  722MPD2    H510679   1.655   0.025  13.164 -0.0539 -1.0545 -0.0463
  722MPD2    N110680   2.117   0.061  13.071 -0.3127 -0.0335  1.0266
  722MPD2    H710681   2.060   0.085  12.991  1.9892  0.5415 -0.4382
  723TMC3    C110682   1.460   4.678  13.291  0.5864  0.4124 -0.0631
  723TMC3    C210683   1.377   4.570  13.311 -0.0675 -0.2095  0.0993
  723TMC3    C310684   1.248   4.583  13.265  0.1259  0.0152 -0.0718
  723TMC3    C410685   1.425   0.064  13.217 -0.5101  0.6591 -0.6003
  723TMC3    C510686   1.293   0.076  13.173  0.3779  0.3925 -0.3777
  723TMC3    C610687   1.206   4.697  13.197 -0.5395 -0.1196  0.2374
  723TMC3     C10688   1.600   4.655  13.335  0.5381  0.0186  0.1521
  723TMC3     O10689   1.614   4.580  13.430 -0.1065 -0.0331  0.3243
  723TMC3     H10690   1.411   4.481  13.362 -1.0941 -0.6174  0.0704
  723TMC3    H110691   1.498   0.140  13.193 -0.8992  1.2233 -0.0085
  723TMC3    H210692   1.101   4.706  13.169 -0.6542  0.9524  1.0128
  723TMC3    C710693   1.257   0.179  13.082  0.1618 -0.5597  0.5431
  723TMC3    C810694   1.163   4.466  13.271  0.4438 -0.3640  1.0029
  723TMC3    O110695   1.170   0.157  13.001  0.0690  0.1400  0.3863
  723TMC3    O210696   1.049   4.496  13.295 -0.4215  0.7489 -0.0206
  724TMC3    C110697   3.382   3.432   9.734  0.1878  0.1498 -0.2353
  724TMC3    C210698   3.277   3.463   9.815 -0.5250  0.0102 -0.1494
  724TMC3    C310699   3.152   3.421   9.777  0.0274 -0.8013 -0.0580
  724TMC3    C410700   3.373   3.373   9.615  0.4194 -0.0544 -0.0191
  724TMC3    C510701   3.241   3.349   9.575 -0.0484  0.2155  0.2298
  724TMC3    C610702   3.125   3.370   9.655  0.2069 -0.4517 -0.4817
  724TMC3     C10703   3.511   3.424   9.800 -0.8027 -0.5449 -0.2837
  724TMC3     O10704   3.535   3.518   9.878  0.5571  0.2947 -0.2578
  724TMC3     H10705   3.302   3.491   9.917 -1.3305 -2.7124  0.8037
  724TMC3    H110706   3.457   3.358   9.548  0.9554  0.4598  0.5400
  724TMC3    H210707   3.033   3.326   9.619  0.4493 -0.2309 -1.3710
  724TMC3    C710708   3.218   3.266   9.455 -0.6873 -0.5400  0.0165
  724TMC3    C810709   3.028   3.469   9.839  0.0664 -0.6573  0.7673
  724TMC3    O110710   3.117   3.203   9.454 -0.1161 -0.3891 -0.4423
  724TMC3    O210711   2.928   3.406   9.808 -0.0091 -0.5472 -0.2439
  725TMC3    C110712   3.973   1.462  13.147 -0.5189 -0.4821 -0.3279
  725TMC3    C210713   3.848   1.416  13.121 -0.4983 -0.2824  0.0677
  725TMC3    C310714   3.837   1.311  13.029 -0.6427 -0.4683  0.3233
  725TMC3    C410715   4.084   1.423  13.073 -0.5748  0.6659  0.1128
  725TMC3    C510716   4.059   1.328  12.979 -0.3608  0.7482  0.0464
  725TMC3    C610717   3.941   1.264  12.958  0.1779  0.2049  0.6091
  725TMC3     C10718   4.000   1.577  13.238 -0.7327  0.0488 -0.1122
  725TMC3     O10719   4.086   1.659  13.203 -0.4184 -0.2397 -0.0246
  725TMC3     H10720   3.761   1.452  13.176 -1.0244 -0.8446 -0.3901
  725TMC3    H110721   4.179   1.470  13.095  0.0800  0.1854 -1.7339
  725TMC3    H210722   3.925   1.220  12.860  0.3593 -1.9374  1.5355
  725TMC3    C710723   4.158   1.300  12.878 -0.8563  0.0216 -0.2562
  725TMC3    C810724   3.721   1.322  12.947  0.4323  0.2476 -0.1409
  725TMC3    O110725   4.152   1.191  12.818 -0.1603  0.1593 -0.9666
  725TMC3    O210726   3.641   1.229  12.942 -0.9932 -0.2576  0.0755
  726MPD2     C10727   1.322   3.369   9.751  0.4079 -1.2221 -0.0741
  726MPD2    C110728   1.394   3.346   9.863 -0.2369  0.4112 -0.2934
  726MPD2    C210729   1.346   3.253   9.956  0.1182  0.5150 -0.0112
  726MPD2    C310730   1.230   3.171   9.932 -0.3701 -0.4684 -0.0355
  726MPD2    C410731   1.156   3.196   9.818 -0.2767  0.0002  0.1185
  726MPD2    C510732   1.203   3.294   9.730  0.3935 -0.1119  0.2327
  726MPD2     H10733   1.405   3.246  10.047  1.4235  0.6827 -0.8302
  726MPD2    H110734   1.058   3.153   9.802  0.8335 -1.4923 -2.7350
  726MPD2    H210735   1.358   3.431   9.670  1.2788 -0.8952  0.5556
  726MPD2    H310736   1.146   3.313   9.640 -0.2030 -1.3068  0.3579
  726MPD2     N10737   1.187   3.071  10.018 -0.0464  0.2214 -0.2031
  726MPD2    H510738   1.118   3.006   9.981 -0.9378 -0.0232  1.8642
  726MPD2    N110739   1.522   3.403   9.891 -0.2531  0.2047  0.2917
  726MPD2    H710740   1.580   3.361   9.963 -2.2908 -2.8298  0.1593
  727TMC3    C110741   1.711   3.534   9.843  0.6598  0.1825  0.0319
  727TMC3    C210742   1.753   3.550   9.977  0.0167  0.5871 -0.0536
  727TMC3    C310743   1.879   3.533  10.010  0.5017  0.8339 -0.2606
  727TMC3    C410744   1.796   3.500   9.746  0.1841  0.5405 -0.0884
  727TMC3    C510745   1.926   3.474   9.787  0.3097 -0.2409  0.0552
  727TMC3    C610746   1.968   3.477   9.919 -0.5870 -0.6149  0.0985
  727TMC3     C10747   1.575   3.506   9.810 -0.5569  0.0597 -0.4782
  727TMC3     O10748   1.537   3.552   9.707  0.6435  0.2483  0.5466
  727TMC3     H10749   1.677   3.580  10.048  0.7368  0.8208  0.6176
  727TMC3    H110750   1.765   3.478   9.644  0.2592 -0.6360  0.1457
  727TMC3    H210751   2.071   3.462   9.949 -0.6178  1.9112  1.4448
  727TMC3    C710752   2.029   3.426   9.700  0.2402  0.5026 -0.0434
  727TMC3    C810753   1.922   3.522  10.149  0.0796  0.4944 -0.2761
  727TMC3    O110754   2.108   3.341   9.733 -0.0624  0.7985 -0.2691
  727TMC3    O210755   2.001   3.433  10.173  0.1354 -0.1500 -0.8402
  728TMC3    C110756   0.754   1.101  15.201 -0.2181 -0.2622  0.5831
  728TMC3    C210757   0.811   1.058  15.080  0.2050 -0.7952  0.5762
  728TMC3    C310758   0.720   1.059  14.975  0.3992  1.2527 -0.6606
  728TMC3    C410759   0.625   1.135  15.224  0.0328  0.3786 -0.5229
  728TMC3    C510760   0.549   1.141  15.111 -0.1039  0.2028 -0.1894
  728TMC3    C610761   0.594   1.101  14.990  0.6098  0.1874  0.5592
  728TMC3     C10762   0.849   1.127  15.307 -0.6584  0.3369 -0.4297
  728TMC3     O10763   0.969   1.132  15.287  0.3557  0.2153 -0.3312
  728TMC3     H10764   0.902   0.999  15.081 -0.9512 -2.5727  0.9284
  728TMC3    H110765   0.579   1.176  15.313 -1.1694 -0.5670 -0.7250
  728TMC3    H210766   0.521   1.109  14.910  0.3893  1.1819  0.8700
  728TMC3    C710767   0.454   1.255  15.116  0.4348 -0.6706 -0.0619
  728TMC3    C810768   0.761   1.061  14.841 -0.0184 -0.3300 -0.3280
  728TMC3    O110769   0.337   1.238  15.149  0.3073  0.1537 -0.3691
  728TMC3    O210770   0.676   1.053  14.754 -0.6333  1.5314  0.0639
  729MPD2     C10771   3.435   3.066  16.239 -0.2655 -0.1996  0.1523
  729MPD2    C110772   3.551   3.011  16.282  0.9239  0.0359  0.2346
  729MPD2    C210773   3.543   2.944  16.402  0.2068 -0.0260 -0.7981
  729MPD2    C310774   3.430   2.966  16.491 -0.3273  0.6533 -0.0074
  729MPD2    C410775   3.324   3.038  16.441 -0.1800 -0.6414  0.7463
  729MPD2    C510776   3.321   3.072  16.310  0.1061  0.4329 -0.2470
  729MPD2     H10777   3.629   2.887  16.436 -1.9220 -3.0899 -0.6394
  729MPD2    H110778   3.237   3.044  16.506 -1.7207 -2.1590 -1.1513
  729MPD2    H210779   3.434   3.117  16.144  1.0178 -0.5151 -0.0346
  729MPD2    H310780   3.242   3.132  16.266 -0.7584  0.0781  0.8224
  729MPD2     N10781   3.431   2.930  16.623 -0.3968  0.1185 -0.1981
  729MPD2    H510782   3.356   2.962  16.683  1.6890  0.6571  2.1163
  729MPD2    N110783   3.675   3.025  16.202  0.0439 -0.4923 -0.5174
  729MPD2    H710784   3.667   3.091  16.126  1.9567  0.6384  0.2689
  730TMC3    C110785   3.493   2.862  16.833 -0.8368 -0.2460 -0.5182
  730TMC3    C210786   3.587   2.785  16.897 -0.0012  0.6836  0.2204
  730TMC3    C310787   3.660   2.840  17.002  0.2455  0.4226 -0.0076
  730TMC3    C410788   3.466   2.989  16.881  0.4611 -0.1070  0.4841
  730TMC3    C510789   3.517   3.025  17.002 -0.5133 -0.0654  0.4608
  730TMC3    C610790   3.619   2.954  17.054 -0.4199 -0.3572  0.1743
  730TMC3     C10791   3.523   2.853  16.695 -0.0191 -0.2614  0.6628
  730TMC3     O10792   3.607   2.779  16.646  0.0935 -0.2316 -0.0562
  730TMC3     H10793   3.601   2.683  16.864  1.9014  1.3337 -0.9368
  730TMC3    H110794   3.389   3.056  16.845  0.4406 -0.4227 -0.0583
  730TMC3    H210795   3.676   2.990  17.139 -0.0019  0.1204 -0.3096
  730TMC3    C710796   3.480   3.158  17.058  0.2457 -0.5451 -0.1199
  730TMC3    C810797   3.794   2.816  16.975 -0.4292  0.7389 -0.0066
  730TMC3    O110798   3.442   3.248  16.983 -0.3194  0.6251  0.6086
  730TMC3    O210799   3.828   2.701  16.944  0.1107  0.4707  0.1794
  731MPD2     C10800   3.507   0.674  11.283 -0.0899 -0.4616 -0.0312
  731MPD2    C110801   3.620   0.718  11.348 -0.9198 -0.2871 -0.2972
  731MPD2    C210802   3.624   0.694  11.482 -0.5788 -0.3376  0.0803
  731MPD2    C310803   3.538   0.608  11.555 -0.7874  1.0152  0.1237
  731MPD2    C410804   3.437   0.561  11.479 -0.1255 -0.1911 -0.8570
  731MPD2    C510805   3.410   0.602  11.349  0.8207 -0.2182  0.1910
  731MPD2     H10806   3.701   0.742  11.542  0.0640 -1.3152  0.0341
  731MPD2    H110807   3.372   0.484  11.520  1.7133 -1.1869  0.1540
  731MPD2    H210808   3.489   0.692  11.177 -0.8970 -0.8948  0.0333
  731MPD2    H310809   3.317   0.564  11.308 -0.7530  1.8009  1.9135
  731MPD2     N10810   3.559   0.578  11.696  0.0006  0.1843  0.0738
  731MPD2    H510811   3.642   0.608  11.745 -0.2522 -0.1864  0.7369
  731MPD2    N110812   3.710   0.801  11.272  0.4505 -0.0611 -0.1569
  731MPD2    H710813   3.680   0.817  11.177  0.6994  1.5102  0.0415
  732TMC3    C110814   3.894   0.948  11.221  0.6954 -0.3790 -0.1741
  732TMC3    C210815   3.810   1.021  11.146 -0.0961  0.9469  0.8475
  732TMC3    C310816   3.828   1.155  11.143 -0.2822 -0.0376 -0.2885
  732TMC3    C410817   4.011   0.999  11.274 -0.1115  0.4367 -0.1692
  732TMC3    C510818   4.032   1.133  11.261 -0.9729 -0.2609  0.1843
  732TMC3    C610819   3.941   1.219  11.201 -0.4761  0.5188  0.0117
  732TMC3     C10820   3.833   0.853  11.313 -0.2349  0.1000  1.5357
  732TMC3     O10821   3.888   0.833  11.419 -0.4419  0.1849 -0.1033
  732TMC3     H10822   3.715   0.995  11.101  1.1831 -0.2365 -1.1824
  732TMC3    H110823   4.085   0.943  11.331  0.8622  0.9620 -0.9060
  732TMC3    H210824   3.943   1.327  11.209 -2.0952  0.7562 -2.8540
  732TMC3    C710825   4.139   1.201  11.330 -0.3556 -0.3115 -0.2076
  732TMC3    C810826   3.708   1.217  11.162 -0.6063  0.6697 -0.0469
  732TMC3    O110827   4.148   1.314  11.297  0.4279  0.0307  0.0310
  732TMC3    O210828   3.640   1.240  11.062 -0.1805  0.0557  0.1226
  733TMC3    C110829   3.706   3.579  13.255  0.3714  0.4895 -0.4309
  733TMC3    C210830   3.716   3.631  13.385  0.4642 -0.0895  0.0415
  733TMC3    C310831   3.845   3.648  13.430 -0.1031 -0.1885 -0.3197
  733TMC3    C410832   3.809   3.552  13.176  0.6034  0.1848  0.3976
  733TMC3    C510833   3.934   3.545  13.234  0.0585 -0.3791 -0.0684
  733TMC3    C610834   3.951   3.589  13.364  0.2742 -0.7638  0.8436
  733TMC3     C10835   3.580   3.596  13.186  1.2482 -0.3020 -0.5436
  733TMC3     O10836   3.572   3.657  13.078  0.0269 -0.2908 -0.3064
  733TMC3     H10837   3.633   3.675  13.440  0.1434 -0.4680 -0.1447
  733TMC3    H110838   3.789   3.503  13.081  1.2635  2.1519 -0.7463
  733TMC3    H210839   4.048   3.593  13.413  0.1818 -2.7718  1.2091
  733TMC3    C710840   4.050   3.520  13.146 -0.3021  0.4722 -0.1251
  733TMC3    C810841   3.867   3.720  13.554 -0.0068  0.5455  1.0415
  733TMC3    O110842   4.023   3.549  13.031  0.6536  0.0829  0.2371
  733TMC3    O210843   3.790   3.700  13.645  0.0667 -0.2674 -0.1767
  734MPD2     C10844   1.772   1.614  12.823  0.3569  0.0485 -0.6114
  734MPD2    C110845   1.640   1.648  12.792  0.2186 -0.2637  0.4643
  734MPD2    C210846   1.625   1.747  12.697  0.5725  0.0715  0.2840
  734MPD2    C310847   1.727   1.821  12.633  0.1029  0.1310 -0.1436
  734MPD2    C410848   1.860   1.780  12.666  0.4734  0.0978 -0.2865
  734MPD2    C510849   1.877   1.679  12.755  0.3388  0.4039 -0.7585
  734MPD2     H10850   1.531   1.766  12.647  0.0219 -0.9100  0.9305
  734MPD2    H110851   1.949   1.811  12.613  0.4528 -0.2218 -0.5083
  734MPD2    H210852   1.795   1.543  12.902 -1.4535  1.7610  1.4572
  734MPD2    H310853   1.972   1.632  12.779  0.2580  0.1420 -0.9575
  734MPD2     N10854   1.697   1.905  12.526 -0.5305  0.7777  0.1463
  734MPD2    H510855   1.601   1.925  12.502 -0.0818  1.8046 -0.8021
  734MPD2    N110856   1.529   1.568  12.839 -0.2112 -0.4238  0.0422
  734MPD2    H710857   1.556   1.485  12.891 -1.1972 -1.2002 -0.6693
  735TMC3    C110858   1.321   1.465  12.845 -0.2195 -0.5245  0.2152
  735TMC3    C210859   1.210   1.479  12.770 -0.5382 -0.0095  0.0333
  735TMC3    C310860   1.178   1.389  12.678  0.5327 -0.0669  0.3288
  735TMC3    C410861   1.385   1.342  12.839 -0.7189 -0.3944  0.0008
  735TMC3    C510862   1.344   1.243  12.746  0.3132  0.0721 -0.3166
  735TMC3    C610863   1.240   1.269  12.659 -0.3964 -0.1617  0.1265
  735TMC3     C10864   1.399   1.577  12.812 -0.1737 -0.2687 -1.0610
  735TMC3     O10865   1.354   1.660  12.732 -0.1820 -0.0567  0.6163
  735TMC3     H10866   1.151   1.569  12.787 -1.2252 -0.6676  1.0978
  735TMC3    H110867   1.476   1.324  12.894 -1.0252  0.3314  0.7446
  735TMC3    H210868   1.220   1.194  12.583 -0.4475 -1.3918  1.3758
  735TMC3    C710869   1.446   1.160  12.694 -0.5638 -0.0948 -0.1836
  735TMC3    C810870   1.128   1.447  12.559  0.4175  0.0521  0.6436
  735TMC3    O110871   1.564   1.193  12.728  0.3368 -0.1907  0.2486
  735TMC3    O210872   1.070   1.386  12.471  0.2438 -0.0067  0.1829
  736MPD2     C10873   1.403   0.829  12.532  0.0992  0.2610 -0.1434
  736MPD2    C110874   1.470   0.949  12.560  0.4222 -0.4134  0.1132
  736MPD2    C210875   1.604   0.961  12.525 -0.1101 -0.8152  0.0595
  736MPD2    C310876   1.674   0.864  12.448 -0.0151 -0.0944 -0.3204
  736MPD2    C410877   1.605   0.747  12.419 -0.6037 -0.4828 -0.3550
  736MPD2    C510878   1.474   0.734  12.459  0.4677 -0.1021 -0.4958
  736MPD2     H10879   1.658   1.049  12.557  1.3635 -1.2568 -1.2287
  736MPD2    H110880   1.645   0.666  12.358  1.0526  1.9297 -2.4678
  736MPD2    H210881   1.300   0.815  12.561  0.6653 -1.0207  1.2665
  736MPD2    H310882   1.424   0.645  12.422 -0.7972  0.4557 -0.1149
  736MPD2     N10883   1.808   0.873  12.409 -0.2171  0.4470  0.2592
  736MPD2    H510884   1.850   0.785  12.382  2.9833  2.0644  0.0841
  736MPD2    N110885   1.398   1.050  12.627  0.2198  0.3334 -0.3329
  736MPD2    H710886   1.297   1.038  12.622  0.0333  2.0578 -0.4056
  737TMC3    C110887   2.010   0.982  12.343 -0.3438 -0.3836  0.3978
  737TMC3    C210888   2.052   1.100  12.294  0.0591  0.3347 -0.1897
  737TMC3    C310889   2.139   1.104  12.192  0.0672 -0.5157  0.3805
  737TMC3    C410890   2.064   0.860  12.306  0.3685 -0.1302 -0.4048
  737TMC3    C510891   2.169   0.867  12.217 -0.9446  0.0261  0.6997
  737TMC3    C610892   2.203   0.988  12.154  0.7065  0.1855  0.4926
  737TMC3     C10893   1.890   0.986  12.422 -0.1836  0.6102 -0.4586
  737TMC3     O10894   1.864   1.098  12.464  0.6964  0.5043  0.3854
  737TMC3     H10895   2.011   1.195  12.329  0.0689 -0.2122  1.3119
  737TMC3    H110896   2.039   0.771  12.361  2.1863 -0.0782  0.4979
  737TMC3    H210897   2.274   0.988  12.072  0.1463 -0.3006  0.0046
  737TMC3    C710898   2.208   0.740  12.163  0.6019  0.4795 -0.3058
  737TMC3    C810899   2.183   1.230  12.146 -0.2808  0.0378  0.6584
  737TMC3    O110900   2.153   0.641  12.212  0.4738  0.1440 -0.2324
  737TMC3    O210901   2.208   1.309  12.231  0.3086 -0.4716 -0.0730
  738MPD2     C10902   2.926   4.451  15.265 -0.1966 -0.1544  0.0388
  738MPD2    C110903   2.834   4.442  15.169  0.3657 -0.0446 -0.5503
  738MPD2    C210904   2.857   4.497  15.046  0.0968 -0.5603  0.8330
  738MPD2    C310905   2.979   4.561  15.018 -0.3697 -0.2584  0.1341
  738MPD2    C410906   3.079   4.560  15.119  0.3383  0.3953  0.1793
  738MPD2    C510907   3.049   4.502  15.236  0.8291 -0.8912 -0.0506
  738MPD2     H10908   2.783   4.468  14.972  1.7096 -2.2935 -0.1192
  738MPD2    H110909   3.178   4.598  15.097  0.2529 -0.4009 -1.6064
  738MPD2    H210910   2.912   4.397  15.358  1.8583  0.0216  0.4514
  738MPD2    H310911   3.123   4.494  15.316  0.9608  0.0894 -0.0792
  738MPD2     N10912   3.010   4.630  14.895 -0.5993 -0.1872 -0.1030
  738MPD2    H510913   3.095   4.685  14.897 -1.1759  0.6733  0.8804
  738MPD2    N110914   2.710   4.377  15.196  0.4275 -0.0033  0.6639
  738MPD2    H710915   2.647   4.364  15.118  3.6522  0.0752 -1.9201
  739TMC3    C110916   3.013   4.689  14.666 -0.0697 -0.1929 -0.2793
  739TMC3    C210917   2.951   0.007  14.548  0.0928  0.4865 -0.9035
  739TMC3    C310918   3.033   0.076  14.459 -0.0461  0.3047  0.9806
  739TMC3    C410919   3.150   4.704  14.687 -0.3367  0.5813  0.2869
  739TMC3    C510920   3.228   0.032  14.589  0.1224  0.1935 -0.3572
  739TMC3    C610921   3.163   0.085  14.474 -0.3566  0.3591  0.1846
  739TMC3     C10922   2.936   4.634  14.775 -0.1648 -0.5217 -0.5130
  739TMC3     O10923   2.825   4.586  14.745 -0.0035 -0.4444  0.1477
  739TMC3     H10924   2.843   0.016  14.535  0.1640  1.7656 -0.5733
  739TMC3    H110925   3.206   4.638  14.752  1.2348  2.0104  0.3935
  739TMC3    H210926   3.228   0.103  14.388 -1.3130  0.5449 -0.5015
  739TMC3    C710927   3.372   0.018  14.606  0.3393  0.5463  0.2132
  739TMC3    C810928   2.978   0.143  14.340 -0.2904 -0.1526  0.9350
  739TMC3    O110929   3.410   4.693  14.712  0.4082 -0.0719  0.2846
  739TMC3    O210930   2.878   0.094  14.297  0.1102 -0.0357  0.1413
  740TMC3    C110931   2.989   1.141  14.401  0.3234  1.2238  0.1076
  740TMC3    C210932   3.036   1.038  14.476  0.3130  0.2672  0.0068
  740TMC3    C310933   3.127   0.955  14.424  0.3575 -0.5164 -0.1286
  740TMC3    C410934   3.035   1.176  14.272 -0.1601 -0.3595  0.0673
  740TMC3    C510935   3.130   1.091  14.229  0.0436  0.1272  0.0897
  740TMC3    C610936   3.172   0.977  14.299  0.3702  1.0189 -0.0540
  740TMC3     C10937   2.878   1.221  14.453  0.4331 -0.7647 -0.5569
  740TMC3     O10938   2.817   1.294  14.375 -0.2496 -0.1494  0.0211
  740TMC3     H10939   3.003   1.019  14.577  0.8130  0.4644  0.2089
  740TMC3    H110940   2.987   1.259  14.222 -0.0697  1.1059  2.3934
  740TMC3    H210941   3.257   0.921  14.263  0.4116  2.3090 -1.9320
  740TMC3    C710942   3.191   1.101  14.102 -0.0857  0.1901  0.1224
  740TMC3    C810943   3.185   0.856  14.517  0.2246 -0.2973 -0.6915
  740TMC3    O110944   3.228   0.996  14.056  0.6982 -0.1466 -0.2982
  740TMC3    O210945   3.140   0.852  14.630 -0.3288 -0.0469 -0.4734
  741TMC3    C110946   2.864   0.605  14.526 -0.2738  0.1546 -0.3319
  741TMC3    C210947   2.779   0.522  14.464 -0.1857  0.2242 -0.5807
  741TMC3    C310948   2.765   0.396  14.519 -0.0599 -0.6949 -0.6228
  741TMC3    C410949   2.943   0.564  14.628 -0.2997  0.5404 -0.2622
  741TMC3    C510950   2.923   0.439  14.677 -0.1956  0.0981 -0.8039
  741TMC3    C610951   2.836   0.352  14.630 -0.3099  0.0659  0.1565
  741TMC3     C10952   2.825   0.747  14.517 -0.6321 -0.2028 -0.0292
  741TMC3     O10953   2.800   0.809  14.620  0.5380  0.1025  0.7926
  741TMC3     H10954   2.705   0.568  14.399 -1.7595  1.2534  1.9046
  741TMC3    H110955   2.996   0.644  14.679  0.1562  0.2824 -0.3230
  741TMC3    H210956   2.845   0.247  14.654 -0.2930  0.3825  1.5295
  741TMC3    C710957   2.994   0.409  14.802  0.1108  0.8785  0.7629
  741TMC3    C810958   2.652   0.327  14.459  0.4781  0.0515 -0.0160
  741TMC3    O110959   3.090   0.485  14.822  0.4606  0.1695  0.8700
  741TMC3    O210960   2.623   0.349  14.341 -0.7010  0.2656 -0.0729
  742TMC3    C110961   3.070   4.091  15.562  0.1878 -0.1399 -0.4889
  742TMC3    C210962   3.000   4.114  15.442 -0.0645  0.1876  0.4113
  742TMC3    C310963   3.051   4.064  15.328  0.5426  0.8340  0.0951
  742TMC3    C410964   3.183   4.011  15.565 -0.4070 -0.1525 -0.2251
  742TMC3    C510965   3.236   3.968  15.442 -0.4082  0.0312 -0.0036
  742TMC3    C610966   3.171   3.994  15.324 -0.0793  0.0204 -0.0112
  742TMC3     C10967   3.024   4.128  15.687  0.1376  0.0050 -0.4751
  742TMC3     O10968   3.100   4.113  15.781 -0.0059  0.8473  0.0612
  742TMC3     H10969   2.918   4.185  15.438  0.0217  0.2911  0.4908
  742TMC3    H110970   3.212   3.966  15.659 -1.8154 -2.5295 -0.9322
  742TMC3    H210971   3.218   3.967  15.230  2.7359 -2.1118  1.9851
  742TMC3    C710972   3.292   3.842  15.444  0.0164  0.1622  0.0130
  742TMC3    C810973   2.959   4.006  15.227  0.5708  0.0803 -0.4250
  742TMC3    O110974   3.237   3.760  15.373 -0.0450  0.5263  0.1523
  742TMC3    O210975   3.009   3.979  15.117 -0.1009  0.2879  0.1888
  743MPD2     C10976   0.752   4.307   1.776 -0.3026 -0.6843 -0.5927
  743MPD2    C110977   0.753   4.359   1.650  0.2995  0.0413 -0.1417
  743MPD2    C210978   0.877   4.391   1.586 -0.7379  0.0481  0.0536
  743MPD2    C310979   0.999   4.359   1.640  0.3939 -0.4994  0.1444
  743MPD2    C410980   0.992   4.295   1.772  0.2067  0.2861 -0.1680
  743MPD2    C510981   0.870   4.278   1.837 -0.6142 -0.4684 -0.1856
  743MPD2     H10982   0.876   4.448   1.494  0.6859  1.2060  0.7510
  743MPD2    H110983   1.082   4.268   1.826  0.1724  0.6541  0.0703
  743MPD2    H210984   0.662   4.275   1.827  0.3988 -1.9249 -0.1438
  743MPD2    H310985   0.876   4.231   1.934 -1.6233 -0.7715 -0.2634
  743MPD2     N10986   1.126   4.405   1.579 -0.4617  0.1728  0.4413
  743MPD2    H510987   1.112   4.452   1.489 -0.1200  0.9715  0.7993
  743MPD2    N110988   0.628   4.367   1.586 -0.4278 -0.2609 -0.2690
  743MPD2    H710989   0.546   4.341   1.640  1.0140 -0.7252  1.7051
  744TMC3    C110990   0.471   4.373   1.412  0.8347 -0.0095 -0.3854
  744TMC3    C210991   0.407   4.255   1.449  0.3647  0.4956 -0.0145
  744TMC3    C310992   0.297   4.220   1.380 -0.0189  0.2658 -0.6303
  744TMC3    C410993   0.425   4.464   1.312  0.3795 -0.7258 -0.1331
  744TMC3    C510994   0.323   4.415   1.233  0.1912 -0.1225  0.3459
  744TMC3    C610995   0.256   4.300   1.271 -0.3224  0.0523 -0.4376
  744TMC3     C10996   0.612   4.382   1.449  0.1660  0.1957 -0.6070
  744TMC3     O10997   0.691   4.417   1.362 -0.2394 -0.1797  0.3426
  744TMC3     H10998   0.439   4.181   1.521 -1.3551  0.4292  0.6770
  744TMC3    H110999   0.485   4.552   1.293 -1.0812 -0.0314 -1.5249
  744TMC3    H211000   0.176   4.267   1.206  0.1793 -0.2043 -0.9339
  744TMC3    C711001   0.295   4.478   1.105  0.1393 -0.3796 -0.6119
  744TMC3    C811002   0.190   4.151   1.448  0.3667 -0.0171 -0.5653
  744TMC3    O111003   0.355   4.581   1.078  0.4963 -0.7622 -0.3624
  744TMC3    O211004   0.221   4.065   1.525 -0.1542 -0.1479  0.2797
  745TMC3    C111005   2.830   3.720  14.033  0.1142  0.2561  0.1246
  745TMC3    C211006   2.782   3.681  14.160  0.3135  0.5622 -0.2552
  745TMC3    C311007   2.672   3.742  14.221  0.4029  0.5818  0.8210
  745TMC3    C411008   2.750   3.803  13.952 -0.1256 -0.5318  0.2853
  745TMC3    C511009   2.629   3.842  14.006 -0.1491  0.1688 -0.3892
  745TMC3    C611010   2.605   3.827  14.141 -0.6667  0.2594  0.3514
  745TMC3     C11011   2.972   3.749  14.034  0.0547  0.1208 -0.6009
  745TMC3     O11012   3.031   3.730  14.141  0.1384 -0.4563  0.1244
  745TMC3     H11013   2.846   3.609  14.210 -0.7693 -0.1470  0.0807
  745TMC3    H111014   2.775   3.822  13.849 -0.5928 -2.0281 -0.1018
  745TMC3    H211015   2.527   3.888  14.185 -0.9570 -1.3268  2.0447
  745TMC3    C711016   2.550   3.938  13.939  0.5772 -0.2829  0.0373
  745TMC3    C811017   2.665   3.781  14.360  0.1710  0.5636  0.1082
  745TMC3    O111018   2.515   4.032  14.007 -0.1249  0.6722  0.0423
  745TMC3    O211019   2.560   3.822  14.410 -0.0879 -0.1141 -0.3195
  746TMC3    C111020   0.510   1.206  11.554  0.1694 -0.4002 -0.9094
  746TMC3    C211021   0.611   1.117  11.524  0.4813  0.3360 -0.0147
  746TMC3    C311022   0.597   0.982  11.536  0.1029 -0.9674  1.1228
  746TMC3    C411023   0.388   1.156  11.583 -0.0586  0.0131 -0.4793
  746TMC3    C511024   0.379   1.024  11.603  0.3366  0.4263 -0.0685
  746TMC3    C611025   0.476   0.935  11.584  1.0800 -0.7544 -1.0541
  746TMC3     C11026   0.497   1.335  11.481 -0.6003 -0.5090  0.0189
  746TMC3     O11027   0.436   1.425  11.537  0.2958  0.2738  0.3091
  746TMC3     H11028   0.705   1.155  11.487  0.3686  0.6034 -0.0265
  746TMC3    H111029   0.308   1.229  11.583 -0.0129  0.0643 -0.8519
  746TMC3    H211030   0.453   0.834  11.615  3.7553 -0.7825  0.9469
  746TMC3    C711031   0.250   0.977  11.567 -0.0235 -0.1609  0.1916
  746TMC3    C811032   0.623   0.914  11.411 -0.7048  0.2789 -0.2497
  746TMC3    O111033   0.252   0.860  11.530  0.0381 -0.2313 -0.2294
  746TMC3    O211034   0.726   0.955  11.359 -1.1391  0.0452 -0.0672
  747TMC3    C111035   2.824   0.668  11.299  0.1921  0.8471  0.4168
  747TMC3    C211036   2.724   0.607  11.372 -0.1828 -0.5440  0.0941
  747TMC3    C311037   2.680   0.652  11.501  0.2087 -0.1155  0.5191
  747TMC3    C411038   2.882   0.774  11.359  0.4901 -0.1011 -0.1064
  747TMC3    C511039   2.842   0.816  11.485 -0.3822  0.0642  0.0015
  747TMC3    C611040   2.736   0.761  11.556  0.8926 -0.5982  0.0060
  747TMC3     C11041   2.791   0.704  11.165 -0.1470  0.8221  0.4650
  747TMC3     O11042   2.803   0.824  11.138  0.0876  0.3563  0.2237
  747TMC3     H11043   2.655   0.537  11.327 -0.1338 -1.4553  1.4479
  747TMC3    H111044   2.972   0.806  11.307  0.1428  2.1684  0.7268
  747TMC3    H211045   2.722   0.803  11.655  1.9277  1.5457 -0.7521
  747TMC3    C711046   2.856   0.960  11.497  0.4552  0.0546 -0.5493
  747TMC3    C811047   2.616   0.553  11.587 -0.4588  0.2145 -0.4466
  747TMC3    O111048   2.834   1.010  11.603  0.1119 -0.2434  0.0722
  747TMC3    O211049   2.618   0.432  11.559  0.3250 -0.2254  0.2116
  748MPD2     C11050   4.192   1.676   1.376  1.0977  0.4510  0.3581
  748MPD2    C111051   4.219   1.775   1.288  0.1220 -0.0202  0.5326
  748MPD2    C211052   4.346   1.821   1.261 -0.4421 -0.2364 -0.0640
  748MPD2    C311053   4.456   1.768   1.333 -0.2720 -0.6440  0.0948
  748MPD2    C411054   4.432   1.677   1.430  0.3436 -0.0441 -0.4733
  748MPD2    C511055   4.300   1.632   1.445  0.5185 -0.1941  0.7424
  748MPD2     H11056   4.357   1.893   1.181 -1.6095 -0.2687 -0.2517
  748MPD2    H111057   4.514   1.631   1.483  0.8285  1.5738  0.2027
  748MPD2    H211058   4.099   1.621   1.386  1.8719 -0.5040  2.4125
  748MPD2    H311059   4.279   1.552   1.515 -0.7948 -2.4331 -2.1970
  748MPD2     N11060   4.592   1.809   1.311  0.1576 -0.2361 -0.6746
  748MPD2    H511061   4.593   1.896   1.258 -2.6037 -0.7934 -1.6393
  748MPD2    N111062   4.102   1.823   1.218  0.1099  0.4088 -0.3251
  748MPD2    H711063   4.016   1.774   1.240  0.2399 -0.4783 -1.8111
  749TMC3    C111064   0.114   1.809   1.320  0.0236 -0.1836  0.6399
  749TMC3    C211065   0.238   1.760   1.365  0.6277  0.2121  0.2568
  749TMC3    C311066   0.337   1.854   1.384  0.4525 -0.1479  0.0498
  749TMC3    C411067   0.101   1.946   1.286 -0.1825  0.3809  0.8780
  749TMC3    C511068   0.199   2.030   1.320 -0.3627 -0.1542  0.5255
  749TMC3    C611069   0.320   1.984   1.369  0.1175  0.2696  0.3282
  749TMC3     C11070   4.709   1.744   1.351  0.6544 -0.8608 -0.2305
  749TMC3     O11071   0.008   1.630   1.395 -0.0249  0.2456  0.1203
  749TMC3     H11072   0.251   1.653   1.377 -0.3892 -0.0125 -0.5966
  749TMC3    H111073   0.010   1.985   1.241  1.9102  3.4798 -0.6753
  749TMC3    H211074   0.395   2.059   1.391  0.6419 -0.3328  0.5795
  749TMC3    C711075   0.211   2.149   1.241  0.2860 -0.2429  0.4158
  749TMC3    C811076   0.455   1.814   1.460  0.2758  0.0705  0.1662
  749TMC3    O111077   0.277   2.242   1.286  0.2247 -0.5411  0.3637
  749TMC3    O211078   0.497   1.886   1.552 -0.3947  0.4373  0.0825
  750MPD2     C11079   0.809   2.941  11.369  0.5971 -0.3155 -0.1589
  750MPD2    C111080   0.676   2.921  11.379  0.5998 -0.1845  0.0241
  750MPD2    C211081   0.621   2.802  11.333 -0.1004  0.6357 -0.1539
  750MPD2    C311082   0.700   2.715  11.255 -0.1016  0.2201 -0.2318
  750MPD2    C411083   0.839   2.740  11.255  0.3103 -0.4714 -0.1885
  750MPD2    C511084   0.888   2.856  11.304  0.5748  0.0158  0.1652
  750MPD2     H11085   0.514   2.790  11.343 -0.2959  1.7282 -0.9611
  750MPD2    H111086   0.895   2.666  11.200  0.9827  1.2034 -1.7629
  750MPD2    H211087   0.857   3.031  11.405 -2.0526  1.1612 -0.3083
  750MPD2    H311088   0.994   2.878  11.297  1.0947 -2.8816 -0.9441
  750MPD2     N11089   0.665   2.599  11.196 -0.1358  0.4026  0.4731
  750MPD2    H511090   0.747   2.540  11.179 -0.5938 -0.8767  2.6240
  750MPD2    N111091   0.602   3.015  11.457 -0.1229 -0.4088  0.5536
  750MPD2    H711092   0.661   3.096  11.475  1.4060 -1.2680 -0.5013
  751TMC3    C111093   0.525   2.432  11.103 -0.3637 -0.9212 -0.3431
  751TMC3    C211094   0.400   2.407  11.061 -0.1710  0.1951  0.2048
  751TMC3    C311095   0.376   2.309  10.968  0.1660 -0.1862  0.2961
  751TMC3    C411096   0.630   2.347  11.077 -0.1451  0.1682  0.0728
  751TMC3    C511097   0.596   2.242  10.994 -0.3020 -0.4637  0.3520
  751TMC3    C611098   0.479   2.228  10.931  0.0352 -0.0572 -0.4605
  751TMC3     C11099   0.542   2.559  11.167 -0.0168  0.2007 -0.9495
  751TMC3     O11100   0.440   2.622  11.189 -0.4939 -0.0601 -0.1529
  751TMC3     H11101   0.316   2.462  11.102 -1.1940 -0.1276 -1.4543
  751TMC3    H111102   0.733   2.366  11.105  0.3841 -0.8733 -1.1550
  751TMC3    H211103   0.465   2.149  10.859  0.9274 -3.4108  3.0155
  751TMC3    C711104   0.716   2.170  10.948  0.0385 -0.0610 -0.1871
  751TMC3    C811105   0.249   2.259  10.925 -0.5657 -0.4864 -0.7612
  751TMC3    O111106   0.822   2.224  10.929 -0.1788  0.7641 -0.2049
  751TMC3    O211107   0.245   2.168  10.841 -0.4972  0.3956  0.2692
  752TMC3    C111108   4.697   3.017  17.002  0.5374 -0.4609 -0.4381
  752TMC3    C211109   4.713   3.157  16.996  0.5432  0.0371 -0.4793
  752TMC3    C311110   0.020   3.218  17.119 -0.1790  0.4706 -0.1177
  752TMC3    C411111   4.703   2.943  17.119 -0.3257 -0.9052  0.8283
  752TMC3    C511112   0.013   3.006  17.235  0.5913 -0.4307 -0.3913
  752TMC3    C611113   0.036   3.143  17.236 -0.0192  0.2183  0.3774
  752TMC3     C11114   4.692   2.948  16.881 -0.1301 -0.1942 -0.2549
  752TMC3     O11115   0.007   2.833  16.881  0.0867  0.4864 -0.3129
  752TMC3     H11116   4.710   3.211  16.903 -0.7202 -0.5277 -0.7760
  752TMC3    H111117   4.701   2.835  17.110 -1.6580 -0.7675 -0.4945
  752TMC3    H211118   0.083   3.179  17.327  0.4495  1.0892 -0.2134
  752TMC3    C711119   4.703   2.949  17.361  0.8128 -0.2698 -1.1504
  752TMC3    C811120   0.044   3.362  17.115 -0.4720  0.1304  0.2263
  752TMC3    O111121   0.047   2.989  17.453 -0.1872  0.7578 -0.0048
  752TMC3    O211122   0.092   3.400  17.008 -0.2042 -0.1590 -0.2235
  753TMC3    C111123   1.108   3.359  13.928 -0.0263 -0.7487  0.2082
  753TMC3    C211124   1.232   3.339  13.982 -0.1190  0.1655  0.1603
  753TMC3    C311125   1.251   3.224  14.046 -0.8435  0.3583  0.3260
  753TMC3    C411126   1.005   3.269  13.944  0.3301 -0.3309 -0.0452
  753TMC3    C511127   1.034   3.142  14.002 -0.0682 -0.4121  0.0903
  753TMC3    C611128   1.160   3.122  14.057 -0.1120 -0.1650  0.5485
  753TMC3     C11129   1.084   3.474  13.851 -0.1763  0.9392 -0.4089
  753TMC3     O11130   0.966   3.496  13.828 -0.0442 -0.0683 -0.4065
  753TMC3     H11131   1.307   3.416  13.970 -0.7329  0.5959 -0.9738
  753TMC3    H111132   0.909   3.290  13.900  0.6981 -0.1473 -0.7686
  753TMC3    H211133   1.181   3.026  14.102  2.1358  0.7870  1.4940
  753TMC3    C711134   0.955   3.037  13.950  0.1351  0.2632 -0.3932
  753TMC3    C811135   1.361   3.192  14.137  0.8786 -0.0902 -0.2413
  753TMC3    O111136   0.840   3.055  13.914  0.0870 -0.5464 -0.3550
  753TMC3    O211137   1.390   3.073  14.163  0.7094  0.1882  0.4502
  754MPD2     C11138   4.589   2.603  12.941 -0.3434  0.3455  0.1858
  754MPD2    C111139   4.556   2.475  12.969 -0.0592  0.1238  0.5327
  754MPD2    C211140   4.426   2.440  12.970  0.2244  0.1645 -0.8495
  754MPD2    C311141   4.329   2.545  12.959  0.0345 -0.1260  0.6715
  754MPD2    C411142   4.365   2.676  12.923 -0.0788 -0.2396 -0.7005
  754MPD2    C511143   4.495   2.700  12.918 -0.3318 -0.8272 -0.9326
  754MPD2     H11144   4.401   2.343  13.011  0.5342  0.7117  0.6411
  754MPD2    H111145   4.296   2.759  12.912 -0.4100 -0.4625 -0.3312
  754MPD2    H211146   4.693   2.634  12.944 -0.1499 -0.0312 -2.2558
  754MPD2    H311147   4.538   2.799  12.909 -0.4245 -0.4899  2.3428
  754MPD2     N11148   4.199   2.523  12.987  0.2717 -0.5454 -0.1650
  754MPD2    H511149   4.139   2.605  12.994  2.9614  1.3352  0.7492
  754MPD2    N111150   4.661   2.389  12.995 -0.2929 -0.4724  0.3726
  754MPD2    H711151   0.030   2.431  12.995 -0.7834  0.6110  0.2028
  755MPD2     C11152   4.469   2.587  13.874 -0.3420 -0.2443  0.2209
  755MPD2    C111153   4.374   2.674  13.820  0.2095  0.5534 -0.2658
  755MPD2    C211154   4.289   2.628  13.722  0.2118 -0.6236 -0.0268
  755MPD2    C311155   4.302   2.502  13.671  0.3864  0.4552  0.1963
  755MPD2    C411156   4.401   2.421  13.723 -0.0841 -0.3512 -0.0709
  755MPD2    C511157   4.482   2.460  13.821 -0.5786  0.6317  0.6387
  755MPD2     H11158   4.214   2.695  13.680 -1.3404 -2.5976 -0.4257
  755MPD2    H111159   4.404   2.315  13.699 -0.6954 -0.7323  1.5509
  755MPD2    H211160   4.515   2.620  13.967 -0.2687 -0.2887  0.2002
  755MPD2    H311161   4.543   2.387  13.873 -2.0311 -0.8750  0.2165
  755MPD2     N11162   4.222   2.454  13.559 -0.7581  0.0197 -0.5768
  755MPD2    H511163   4.231   2.355  13.538  1.0322  0.0786 -0.0740
  755MPD2    N111164   4.340   2.798  13.883 -0.1714  0.3364 -0.2476
  755MPD2    H711165   4.252   2.841  13.856 -0.2074  0.0673 -0.5526
  756MPD2     C11166   0.155   3.502   9.439  0.2755 -0.0884  0.3118
  756MPD2    C111167   0.110   3.403   9.527  0.9694  0.5009 -0.7002
  756MPD2    C211168   0.001   3.333   9.496 -0.3875 -0.7311  0.4947
  756MPD2    C311169   4.646   3.363   9.386  0.9867 -0.0405  0.3216
  756MPD2    C411170   4.700   3.453   9.295 -0.1479 -0.2904  0.0803
  756MPD2    C511171   0.084   3.530   9.329  0.4995 -0.5337  0.1103
  756MPD2     H11172   4.688   3.263   9.571 -2.3866 -0.9714 -0.6837
  756MPD2    H111173   4.641   3.484   9.209  1.5779  4.2231  0.5466
  756MPD2    H211174   0.243   3.564   9.449 -0.2570  1.0715 -2.2409
  756MPD2    H311175   0.132   3.600   9.261  0.1006 -1.3912 -1.0446
  756MPD2     N11176   4.515   3.307   9.379  0.2292 -0.1103  0.3242
  756MPD2    H511177   4.489   3.238   9.448 -0.5638 -0.8870 -0.7474
  756MPD2    N111178   0.182   3.359   9.642 -0.2855  0.2376  0.0997
  756MPD2    H711179   0.152   3.284   9.704 -1.8095 -0.2078 -1.1559
  757MPD2     C11180   4.354   2.477   9.464 -0.2837 -0.9415 -0.1950
  757MPD2    C111181   4.462   2.565   9.477  0.2087  0.5681 -0.0934
  757MPD2    C211182   4.447   2.700   9.443 -0.1043 -0.4194  0.3087
  757MPD2    C311183   4.330   2.742   9.383  0.4115 -0.2211  0.0267
  757MPD2    C411184   4.223   2.649   9.372 -0.6765 -0.5129 -0.1246
  757MPD2    C511185   4.235   2.523   9.421 -0.1232  0.1732  0.3495
  757MPD2     H11186   4.529   2.771   9.454 -0.4358  0.0994 -0.5769
  757MPD2    H111187   4.125   2.665   9.330 -0.5602  0.2767 -0.0876
  757MPD2    H211188   4.376   2.371   9.474 -2.3664 -1.2758  0.7758
  757MPD2    H311189   4.150   2.456   9.416 -1.4804  1.8570  0.8964
  757MPD2     N11190   4.315   2.878   9.349 -0.2004 -0.1134  0.6590
  757MPD2    H511191   4.396   2.939   9.346 -0.3706  0.0573 -0.4663
  757MPD2    N111192   4.581   2.509   9.525  0.5065 -0.1571 -0.2536
  757MPD2    H711193   4.594   2.410   9.511 -0.8777 -0.5982  1.4936
  758MPD2     C11194   4.594   1.906  16.182  0.6021 -0.1158  0.7574
  758MPD2    C111195   4.705   1.921  16.254  0.3739  0.8017 -0.7922
  758MPD2    C211196   0.018   2.050  16.299 -0.6182  0.0395 -0.2594
  758MPD2    C311197   4.657   2.158  16.270  0.0057  0.2716 -0.2839
  758MPD2    C411198   4.544   2.145  16.190  0.3765 -0.4790  0.0564
  758MPD2    C511199   4.515   2.015  16.152  0.3281 -0.5091  0.0945
  758MPD2     H11200   0.102   2.068  16.365 -0.2665  1.6993 -1.1628
  758MPD2    H111201   4.477   2.225  16.160 -0.2444 -1.1649 -0.3988
  758MPD2    H211202   4.569   1.804  16.155 -2.1576  0.6230  0.5119
  758MPD2    H311203   4.429   2.008  16.086  0.5598  1.7015 -0.4734
  758MPD2     N11204   4.684   2.292  16.310 -0.3194  0.0105  0.4062
  758MPD2    H511205   4.613   2.359  16.281  2.3730  1.5478 -2.5848
  758MPD2    N111206   0.048   1.801  16.296  0.4885 -0.1134  0.1244
  758MPD2    H711207   0.015   1.715  16.254  1.8864 -0.9507  0.7415
  759MPD2     C11208   3.100   0.959  10.048 -0.2829 -0.4461 -0.5072
  759MPD2    C111209   3.202   0.886  10.105  0.7706  0.1504 -0.2858
  759MPD2    C211210   3.269   0.785  10.035 -0.8657 -0.3682  0.2259
  759MPD2    C311211   3.242   0.762   9.899  0.1039 -0.6363 -1.0991
  759MPD2    C411212   3.137   0.836   9.846 -0.3407 -0.1104 -0.0773
  759MPD2    C511213   3.067   0.927   9.921  0.6764 -0.0065 -0.3727
  759MPD2     H11214   3.345   0.731  10.089 -0.4939 -0.7096 -0.6409
  759MPD2    H111215   3.109   0.829   9.742 -0.9746 -2.2622  0.2539
  759MPD2    H211216   3.034   1.029  10.097 -1.0254 -0.6618 -1.2061
  759MPD2    H311217   2.984   0.980   9.876  0.8933 -0.2887 -1.0987
  759MPD2     N11218   3.330   0.671   9.826  0.4779 -0.1488  0.2058
  759MPD2    H511219   3.395   0.614   9.879 -0.2200  0.1491  1.3711
  759MPD2    N111220   3.234   0.915  10.238 -0.0826 -0.3935  0.3823
  759MPD2    H711221   3.287   0.845  10.290  1.8712  0.5095 -0.3875
  760MPD2     C11222   3.565   2.522  12.087 -0.3184 -0.4769 -0.4345
  760MPD2    C111223   3.695   2.485  12.054  0.1985  1.0117 -0.7144
  760MPD2    C211224   3.763   2.379  12.123 -0.4649 -0.0611  0.1131
  760MPD2    C311225   3.704   2.315  12.225  0.2457 -0.0529 -0.3485
  760MPD2    C411226   3.576   2.355  12.260  0.5187 -0.3818  0.4193
  760MPD2    C511227   3.513   2.462  12.198  0.2450 -0.3176 -0.4019
  760MPD2     H11228   3.864   2.357  12.089 -0.5098 -0.0475 -0.0295
  760MPD2    H111229   3.518   2.306  12.337  0.1513  1.4796  1.3291
  760MPD2    H211230   3.513   2.610  12.051 -0.0759  0.1344  0.7280
  760MPD2    H311231   3.415   2.491  12.234  0.1561 -0.5578 -0.4511
  760MPD2     N11232   3.757   2.198  12.290  0.5342 -0.4806  0.1160
  760MPD2    H511233   3.692   2.157  12.356  0.3047 -1.6136 -0.8165
  760MPD2    N111234   3.773   2.559  11.956 -0.4325  0.3282 -0.2467
  760MPD2    H711235   3.868   2.534  11.931 -0.4129  1.3613 -1.2098
  761MPD2     C11236   4.486   2.156  11.066 -0.1250 -0.4008 -0.0912
  761MPD2    C111237   4.582   2.080  11.006  0.1377 -0.4719  0.1755
  761MPD2    C211238   4.703   2.134  10.974  0.1675 -0.5825 -0.7277
  761MPD2    C311239   0.012   2.270  10.998 -0.3659  0.0787 -0.2358
  761MPD2    C411240   4.643   2.350  11.055 -0.1162 -0.0191  0.1423
  761MPD2    C511241   4.522   2.288  11.090  0.3668  0.0993 -0.5863
  761MPD2     H11242   0.060   2.066  10.950  2.2955  0.6061  3.0029
  761MPD2    H111243   4.658   2.446  11.102 -1.7120  0.3840 -0.1820
  761MPD2    H211244   4.387   2.121  11.092 -0.0798 -1.4350 -1.2980
  761MPD2    H311245   4.435   2.340  11.129 -0.0154 -1.0828  0.1386
  761MPD2     N11246   0.141   2.323  10.986 -0.7955 -0.4760  0.2980
  761MPD2    H511247   0.151   2.420  11.013  1.1938 -1.3410  2.6845
  761MPD2    N111248   4.554   1.944  10.993  0.2055  0.8223 -0.1302
  761MPD2    H711249   4.478   1.909  11.050  0.9446 -0.1431  0.2502
  762MPD2     C11250   0.403   1.735  10.713  0.3285  0.1392  0.5120
  762MPD2    C111251   0.355   1.619  10.770 -0.1521 -0.3933  0.7322
  762MPD2    C211252   0.428   1.505  10.758  0.1589  0.0966 -0.1291
  762MPD2    C311253   0.556   1.502  10.695  0.5353  0.7033 -0.3073
  762MPD2    C411254   0.606   1.620  10.646 -0.0780 -0.0064  0.1949
  762MPD2    C511255   0.527   1.732  10.650 -0.6574  0.6289 -0.5446
  762MPD2     H11256   0.404   1.416  10.814  1.7015  0.9867  1.9287
  762MPD2    H111257   0.692   1.630  10.581 -1.1600  2.0440 -0.9322
  762MPD2    H211258   0.338   1.822  10.706 -0.3699 -0.5478 -1.6688
  762MPD2    H311259   0.561   1.822  10.600  1.7760  0.2748  0.4764
  762MPD2     N11260   0.634   1.385  10.687 -0.7320  1.0018  0.4688
  762MPD2    H511261   0.586   1.297  10.704 -1.7467  1.0154 -2.2608
  762MPD2    N111262   0.229   1.623  10.832  0.3686  0.4342  0.5253
  762MPD2    H711263   0.175   1.708  10.819 -0.4609 -0.0187  1.0193
  763MPD2     C11264   2.223   1.667  16.382  0.1429  0.6380  0.7817
  763MPD2    C111265   2.139   1.772  16.340  0.4738 -0.1429 -0.3815
  763MPD2    C211266   2.122   1.880  16.434  0.6120 -0.1826  0.1976
  763MPD2    C311267   2.175   1.874  16.561 -0.1878 -0.5079  0.7325
  763MPD2    C411268   2.241   1.757  16.593 -0.3775 -0.2042  0.3788
  763MPD2    C511269   2.268   1.654  16.510  0.6352  0.3724  0.5717
  763MPD2     H11270   2.088   1.973  16.389 -0.3971 -0.1670  1.0224
  763MPD2    H111271   2.267   1.739  16.697  0.9044 -0.4653  0.0172
  763MPD2    H211272   2.251   1.587  16.315 -0.6972  0.5650  0.5196
  763MPD2    H311273   2.332   1.572  16.539  0.3904  0.4635  1.3587
  763MPD2     N11274   2.184   1.983  16.649 -0.7142 -0.0255 -0.1091
  763MPD2    H511275   2.237   1.966  16.734  0.5051  0.8693 -0.6958
  763MPD2    N111276   2.087   1.780  16.212 -0.7271  0.3733  0.2139
  763MPD2    H711277   2.025   1.858  16.192 -0.7157  0.7968  1.7898
  764MPD2     C11278   0.206   4.414   0.149 -0.3893 -0.0978  0.4414
  764MPD2    C111279   0.209   4.311   0.059  0.1582  0.1218  0.0666
  764MPD2    C211280   0.155   4.193   0.102  0.2982  0.3553  0.0098
  764MPD2    C311281   0.087   4.182   0.221 -0.5815 -0.3606 -0.1372
  764MPD2    C411282   0.080   4.291   0.305 -0.6271  1.1499  0.0185
  764MPD2    C511283   0.137   4.405   0.269 -0.2117 -0.0083  0.7698
  764MPD2     H11284   0.149   4.105   0.039  1.5623 -0.0087  0.3798
  764MPD2    H111285   0.046   4.300   0.408  0.9867  2.1540  0.4535
  764MPD2    H211286   0.236   4.515   0.125 -2.0546  0.5370  1.0559
  764MPD2    H311287   0.136   4.492   0.334 -4.2909  1.0084 -0.6940
  764MPD2     N11288   0.033   4.055   0.253  0.2779 -0.3174 -0.3601
  764MPD2    H511289   0.080   3.974   0.214  2.1428  1.5608 -1.9693
  764MPD2    N111290   0.280   4.318  17.634 -0.5081  0.7175 -0.2794
  764MPD2    H711291   0.260   4.258  17.555 -2.2383  1.0787 -0.1273
  765MPD2     C11292   4.605   1.225  15.834 -0.9545 -0.8434 -0.2044
  765MPD2    C111293   4.659   1.335  15.894 -0.3594  0.0367  1.0288
  765MPD2    C211294   0.065   1.320  15.940 -0.1636 -0.0345 -0.6380
  765MPD2    C311295   0.120   1.193  15.969  0.8950 -0.8901 -0.0061
  765MPD2    C411296   0.053   1.086  15.913 -0.7075  0.3495 -0.2740
  765MPD2    C511297   4.653   1.097  15.853 -0.4165 -0.4576  0.4404
  765MPD2     H11298   0.118   1.407  15.977 -0.4542  0.1044 -0.5504
  765MPD2    H111299   0.086   0.983  15.927  2.3502  1.3239 -0.2871
  765MPD2    H211300   4.503   1.227  15.799 -0.9749 -0.6547 -0.1364
  765MPD2    H311301   4.596   1.010  15.824 -1.1789  0.0777  0.3222
  765MPD2     N11302   0.247   1.180  16.031  0.5716 -0.2565 -0.5736
  765MPD2    H511303   0.303   1.264  16.037 -2.2822  1.5295  0.5652
  765MPD2    N111304   4.584   1.456  15.891 -0.1565 -0.4078  0.0985
  765MPD2    H711305   4.502   1.456  15.831 -0.8747 -1.7264  1.0770
  766MPD2     C11306   4.021   1.435  15.624 -0.6563  0.6029 -0.1714
  766MPD2    C111307   4.155   1.441  15.645 -0.1690 -0.1618  0.4419
  766MPD2    C211308   4.230   1.349  15.567  0.7677 -0.0825  0.0147
  766MPD2    C311309   4.181   1.264  15.472 -0.1400 -0.3771 -0.2554
  766MPD2    C411310   4.050   1.252  15.458  0.0921 -0.2881  0.0629
  766MPD2    C511311   3.975   1.333  15.540  0.2040  0.3803 -0.2431
  766MPD2     H11312   4.338   1.362  15.563  0.7952  0.3856  2.1930
  766MPD2    H111313   3.997   1.191  15.385  0.8985 -2.1887  1.0769
  766MPD2    H211314   3.953   1.503  15.672 -0.2163  0.6438  0.3918
  766MPD2    H311315   3.868   1.319  15.533  0.1269  0.6054  0.4817
  766MPD2     N11316   4.267   1.200  15.376  0.6936  0.5277 -0.0399
  766MPD2    H511317   4.231   1.144  15.299  2.6821 -3.4977  1.9788
  766MPD2    N111318   4.238   1.535  15.712  0.5373  0.4052 -0.2130
  766MPD2    H711319   4.339   1.529  15.701  0.4326 -2.9937  0.7627
  767MPD2     C11320   3.924   1.441  15.222  0.0434  1.2496  0.5017
  767MPD2    C111321   4.032   1.477  15.143  0.0755  0.6262 -0.2274
  767MPD2    C211322   4.031   1.419  15.012  0.0643 -0.5365 -0.3971
  767MPD2    C311323   3.938   1.330  14.969 -0.1736  0.4418 -0.4411
  767MPD2    C411324   3.832   1.301  15.050 -0.2656 -0.7954 -0.3366
  767MPD2    C511325   3.828   1.350  15.181  0.2697 -0.1968 -0.1131
  767MPD2     H11326   4.118   1.434  14.949  0.1164  0.0899 -0.1695
  767MPD2    H111327   3.744   1.243  15.024 -1.4345  0.1791  1.4345
  767MPD2    H211328   3.924   1.488  15.319 -1.0859 -1.9892  2.0933
  767MPD2    H311329   3.754   1.319  15.254  2.1494 -2.4265  0.8245
  767MPD2     N11330   3.956   1.273  14.843 -0.0638  0.8262 -0.5193
  767MPD2    H511331   4.042   1.283  14.790  0.7531 -0.0517  0.6100
  767MPD2    N111332   4.132   1.556  15.204  0.0683 -0.3468  0.3058
  767MPD2    H711333   4.115   1.580  15.301  1.3039 -2.2864  1.0015
  768MPD2     C11334   0.463   0.544  11.003 -0.0896  0.3902  0.4323
  768MPD2    C111335   0.363   0.514  11.093  1.0689  1.4183 -0.3748
  768MPD2    C211336   0.395   0.487  11.223 -0.6490 -0.0678  0.2919
  768MPD2    C311337   0.523   0.496  11.272  0.2363  1.5777  0.6336
  768MPD2    C411338   0.623   0.519  11.187  0.2947  0.6416  0.0992
  768MPD2    C511339   0.589   0.533  11.056  0.5788  0.1890 -0.1106
  768MPD2     H11340   0.309   0.459  11.283  1.9001 -2.4138  2.9128
  768MPD2    H111341   0.725   0.532  11.222 -0.1118 -1.2254  2.0398
  768MPD2    H211342   0.443   0.560  10.898 -1.3574 -1.1525  0.4379
  768MPD2    H311343   0.668   0.540  10.983  0.6987 -1.9236 -0.1680
  768MPD2     N11344   0.564   0.477  11.407  0.2178  0.0320 -0.7323
  768MPD2    H511345   0.657   0.506  11.436 -0.8533  3.6317 -0.9913
  768MPD2    N111346   0.232   0.513  11.059  0.2488 -0.7877  0.3155
  768MPD2    H711347   0.163   0.482  11.126  1.1583 -0.9780  1.1674
  769MPD2     C11348   1.558   2.709  14.961 -0.1241 -0.1863 -0.0092
  769MPD2    C111349   1.470   2.687  15.067  0.1284 -0.0642 -0.0625
  769MPD2    C211350   1.519   2.718  15.194  0.4732 -0.5178  0.2982
  769MPD2    C311351   1.636   2.790  15.215  0.5147 -0.0001 -0.2500
  769MPD2    C411352   1.713   2.817  15.103 -0.0431 -0.1996  0.0788
  769MPD2    C511353   1.680   2.761  14.983  0.0873  0.7809  0.1593
  769MPD2     H11354   1.453   2.711  15.280 -0.9926  1.9659 -0.6458
  769MPD2    H111355   1.806   2.871  15.109 -0.7926  1.2485 -1.1205
  769MPD2    H211356   1.542   2.669  14.861 -2.4655  1.5125 -0.3354
  769MPD2    H311357   1.752   2.777  14.904  0.8202 -1.0313  0.4457
  769MPD2     N11358   1.674   2.824  15.346 -0.6026 -0.3090  0.8665
  769MPD2    H511359   1.617   2.794  15.424 -0.3239  1.5635  1.7592
  769MPD2    N111360   1.338   2.642  15.041  0.4516  0.2847  0.2669
  769MPD2    H711361   1.321   2.614  14.945 -0.0817 -0.8150  0.6771
  770MPD2     C11362   0.673   2.136  15.602  0.7066  0.4542  0.1291
  770MPD2    C111363   0.709   2.080  15.484  0.1769 -1.1182 -0.4259
  770MPD2    C211364   0.724   2.146  15.368 -0.6040  0.5087  0.0750
  770MPD2    C311365   0.724   2.284  15.377  0.3146  0.6330 -0.4645
  770MPD2    C411366   0.698   2.348  15.497 -1.0200 -0.2850 -0.6007
  770MPD2    C511367   0.660   2.271  15.604 -0.3881 -0.3969 -0.0730
  770MPD2     H11368   0.760   2.097  15.279 -2.1300  0.3823 -0.4798
  770MPD2    H111369   0.700   2.456  15.508 -2.6149 -0.3758  0.6401
  770MPD2    H211370   0.631   2.086  15.688  1.4021  0.6494  0.5815
  770MPD2    H311371   0.618   2.314  15.694  0.8624 -1.6530  1.1256
  770MPD2     N11372   0.775   2.356  15.266 -0.0295 -0.5337 -0.2697
  770MPD2    H511373   0.793   2.303  15.182  0.3623  0.5278 -0.8579
  770MPD2    N111374   0.710   1.946  15.487 -0.0077  0.3250  0.1816
  770MPD2    H711375   0.726   1.905  15.578 -0.8153  0.1112  0.2277
  771MPD2     C11376   2.342   0.859  13.529  0.5080  0.6318  0.1496
  771MPD2    C111377   2.302   0.984  13.518 -0.1070  0.8401  0.2659
  771MPD2    C211378   2.212   1.017  13.415 -0.3523 -0.2051  0.5134
  771MPD2    C311379   2.153   0.924  13.341  0.4350  0.8577  0.4063
  771MPD2    C411380   2.191   0.788  13.361  0.1401  0.0860 -0.0611
  771MPD2    C511381   2.285   0.755  13.450  0.4390  0.0364 -0.5601
  771MPD2     H11382   2.191   1.123  13.403  0.3215 -0.1396 -0.1005
  771MPD2    H111383   2.139   0.713  13.302 -1.3254  2.2904 -1.5559
  771MPD2    H211384   2.410   0.829  13.608  0.8345 -1.4660 -0.9074
  771MPD2    H311385   2.309   0.652  13.476 -1.7552 -0.8028 -1.9393
  771MPD2     N11386   2.057   0.969  13.248 -0.0185  0.2324 -0.3675
  771MPD2    H511387   2.038   1.068  13.237  0.8413  0.4692  0.2227
  771MPD2    N111388   2.341   1.092  13.601  0.2998 -0.4996 -0.2643
  771MPD2    H711389   2.296   1.180  13.580  0.7453  0.4102  2.5951
  772MPD2     C11390   1.967   1.614  13.777 -0.6627 -0.0553 -0.7914
  772MPD2    C111391   2.000   1.513  13.867  0.0730 -0.3373  0.0127
  772MPD2    C211392   1.896   1.447  13.937  0.6423 -0.0653 -0.8159
  772MPD2    C311393   1.762   1.498  13.930 -0.5379  0.6192  0.0121
  772MPD2    C411394   1.742   1.609  13.856 -0.1179 -0.1758  0.0034
  772MPD2    C511395   1.845   1.669  13.779  0.1172 -0.5091  0.0911
  772MPD2     H11396   1.924   1.361  13.998  0.1899  0.2791 -0.1326
  772MPD2    H111397   1.645   1.657  13.858 -0.6285 -1.1643 -1.0676
  772MPD2    H211398   2.035   1.667  13.712 -1.2883  2.8814  0.9581
  772MPD2    H311399   1.823   1.755  13.716 -0.6229 -0.2482  0.7039
  772MPD2     N11400   1.654   1.453  14.006 -0.2545  0.7259  0.1700
  772MPD2    H511401   1.559   1.482  13.986  0.0150  0.4862 -1.5038
  772MPD2    N111402   2.129   1.455  13.883  0.6002 -0.0073 -0.1643
  772MPD2    H711403   2.151   1.378  13.946 -1.7102 -1.5741 -1.2677
  773MPD2     C11404   0.530   2.581   0.666  0.1889  1.1553 -0.0091
  773MPD2    C111405   0.493   2.505   0.557 -1.0115  0.2045 -0.4486
  773MPD2    C211406   0.567   2.392   0.526  0.1375 -0.1217 -0.8912
  773MPD2    C311407   0.679   2.360   0.598  0.1153 -0.6049  0.5977
  773MPD2    C411408   0.718   2.438   0.710 -0.1908 -0.0093  0.3388
  773MPD2    C511409   0.641   2.546   0.741 -0.4090 -0.3505 -0.1108
  773MPD2     H11410   0.546   2.337   0.435 -0.1410  2.5338 -2.4412
  773MPD2    H111411   0.807   2.419   0.768  0.5892  0.6669 -0.6371
  773MPD2    H211412   0.476   2.664   0.710 -0.1764  1.3513 -0.8317
  773MPD2    H311413   0.664   2.616   0.819 -0.0440  0.3885 -0.8827
  773MPD2     N11414   0.752   2.252   0.548  0.1945 -0.2535 -0.1626
  773MPD2    H511415   0.721   2.221   0.457  0.0933 -1.0028  0.1291
  773MPD2    N111416   0.376   2.536   0.485 -0.5633 -0.3593  0.6167
  773MPD2    H711417   0.360   2.493   0.394  2.5487 -0.9297  0.3597
  774MPD2     C11418   0.003   1.470  13.554  0.2118 -0.2189 -0.3632
  774MPD2    C111419   0.098   1.552  13.609  0.0562 -0.2997 -0.0494
  774MPD2    C211420   0.128   1.676  13.549 -0.5328  0.6935 -0.0569
  774MPD2    C311421   0.059   1.708  13.430  0.4429 -0.1007 -0.7149
  774MPD2    C411422   4.688   1.625  13.378  0.4157  1.0124 -0.1778
  774MPD2    C511423   4.664   1.505  13.438 -0.5566  0.2754 -0.6017
  774MPD2     H11424   0.204   1.746  13.581  0.6116 -0.7403  0.3248
  774MPD2    H111425   4.624   1.636  13.291 -1.6091 -1.0469  1.0369
  774MPD2    H211426   4.716   1.365  13.579 -3.0806 -0.2420 -1.7785
  774MPD2    H311427   4.593   1.438  13.391 -3.0158  1.7760  0.9634
  774MPD2     N11428   0.089   1.828  13.364  0.2102  0.9884  1.0091
  774MPD2    H511429   0.150   1.892  13.415 -0.1452  3.3308 -1.4968
  774MPD2    N111430   0.182   1.484  13.699 -0.1274  0.4210  0.0698
  774MPD2    H711431   0.152   1.391  13.729 -2.8443  1.0143 -0.8423
  775MPD2     C11432   1.800   2.715  16.179  0.4064 -0.5251 -0.2872
  775MPD2    C111433   1.786   2.849  16.199  0.0455 -0.6731  0.7880
  775MPD2    C211434   1.893   2.933  16.174  0.7371 -0.3739 -0.0032
  775MPD2    C311435   2.003   2.891  16.103 -0.4880  0.5283 -0.7796
  775MPD2    C411436   2.012   2.763  16.069 -0.0649  0.9321 -0.0280
  775MPD2    C511437   1.916   2.672  16.113  1.1087  0.0725 -0.4657
  775MPD2     H11438   1.884   3.041  16.185  1.6841 -0.2523 -0.3907
  775MPD2    H111439   2.102   2.728  16.020 -0.3096 -1.2691  1.1163
  775MPD2    H211440   1.723   2.646  16.213  0.3397 -1.0493 -1.5269
  775MPD2    H311441   1.927   2.565  16.101 -0.1071 -0.0141 -0.8309
  775MPD2     N11442   2.092   2.983  16.036  0.3930 -0.1702 -0.2463
  775MPD2    H511443   2.147   2.949  15.958  0.9488 -0.7314  0.3917
  775MPD2    N111444   1.661   2.891  16.250 -0.0486 -0.3907  1.1722
  775MPD2    H711445   1.591   2.819  16.264 -1.5073  0.8770  0.3696
  776MPD2     C11446   0.390   3.577  11.132 -1.1991 -0.0517  0.6560
  776MPD2    C111447   0.429   3.591  11.259 -1.0438 -0.3650 -0.3929
  776MPD2    C211448   0.457   3.711  11.315  0.0349  0.2366 -0.1925
  776MPD2    C311449   0.438   3.826  11.251 -0.2435 -0.1361  0.0257
  776MPD2    C411450   0.399   3.818  11.118 -0.2489 -0.1418  0.0017
  776MPD2    C511451   0.375   3.692  11.063 -0.3291 -0.2470 -0.8090
  776MPD2     H11452   0.499   3.716  11.415  2.4812  0.0329 -1.2070
  776MPD2    H111453   0.375   3.913  11.072  1.4129  0.6894  0.8362
  776MPD2    H211454   0.372   3.477  11.096  1.7879 -0.3808  0.0546
  776MPD2    H311455   0.343   3.683  10.960 -0.2918  0.5257 -0.8936
  776MPD2     N11456   0.467   3.952  11.310 -0.3470  0.2357 -0.2358
  776MPD2    H511457   0.458   4.032  11.248 -0.4765  0.1168 -0.3696
  776MPD2    N111458   0.441   3.476  11.340 -0.2353 -0.7711 -0.0445
  776MPD2    H711459   0.434   3.386  11.294 -0.9914 -0.3420 -0.7769
  777MPD2     C11460   0.363   0.995   0.846 -0.2675  0.2250  0.6670
  777MPD2    C111461   0.439   0.891   0.895  0.4306 -0.1811 -0.9128
  777MPD2    C211462   0.423   0.773   0.839  0.4879 -0.2788  0.0215
  777MPD2    C311463   0.332   0.741   0.745 -0.4000  0.6521 -0.3793
  777MPD2    C411464   0.257   0.843   0.696 -0.1179 -0.3855 -0.1799
  777MPD2    C511465   0.273   0.973   0.743 -0.1184 -0.1810 -0.0067
  777MPD2     H11466   0.470   0.687   0.886 -0.3693  0.0088  1.4061
  777MPD2    H111467   0.190   0.826   0.613 -1.2180 -0.3837  0.7134
  777MPD2    H211468   0.377   1.097   0.882  0.1425  0.6171 -0.5977
  777MPD2    H311469   0.227   1.063   0.704 -1.2126 -0.3660  0.8683
  777MPD2     N11470   0.319   0.604   0.698 -0.5838 -0.3960  0.0912
  777MPD2    H511471   0.366   0.534   0.754  0.1952 -1.5349 -1.9557
  777MPD2    N111472   0.532   0.917   0.991 -0.0042  0.1319  0.0504
  777MPD2    H711473   0.557   1.015   1.006 -0.1068 -0.0960  1.7370
  778MPD2     C11474   2.256   1.113  14.603 -0.4792 -0.3042  0.0152
  778MPD2    C111475   2.194   0.996  14.559  0.2053  0.9382  0.5123
  778MPD2    C211476   2.182   0.972  14.428  0.3824 -1.1340  0.6286
  778MPD2    C311477   2.205   1.066  14.321  0.7620  0.6987 -1.2699
  778MPD2    C411478   2.258   1.187  14.369  0.3339  0.1579 -0.3671
  778MPD2    C511479   2.291   1.199  14.506 -0.5709  0.2691 -0.6385
  778MPD2     H11480   2.130   0.883  14.396  0.1238 -1.2153  1.2827
  778MPD2    H111481   2.280   1.260  14.292 -0.7129  1.4892  0.5936
  778MPD2    H211482   2.286   1.133  14.705 -0.0408 -2.3395  0.2889
  778MPD2    H311483   2.342   1.290  14.536 -2.9841  0.4473  2.8694
  778MPD2     N11484   2.205   1.018  14.192 -0.0314 -0.2156  0.8391
  778MPD2    H511485   2.209   0.916  14.191  1.4048 -0.1593 -0.9235
  778MPD2    N111486   2.124   0.899  14.645  0.0783 -0.6323  1.0377
  778MPD2    H711487   2.067   0.828  14.599  3.5711 -2.3103 -0.6585
  779MPD2     C11488   1.625   4.329  14.030 -0.3875 -0.2977  0.7269
  779MPD2    C111489   1.724   4.345  14.126 -0.2280 -0.7712  0.2244
  779MPD2    C211490   1.821   4.442  14.112  0.2368 -0.4032  0.4093
  779MPD2    C311491   1.809   4.541  14.011  0.7029  0.1468 -0.3215
  779MPD2    C411492   1.718   4.519  13.911  0.6494 -0.1175 -0.7696
  779MPD2    C511493   1.627   4.415  13.922 -0.5340 -0.6445 -0.2808
  779MPD2     H11494   1.892   4.456  14.192 -0.0965 -0.2327  0.6725
  779MPD2    H111495   1.711   4.585  13.825  0.4553  0.2943 -0.4353
  779MPD2    H211496   1.544   4.257  14.034  0.2327 -1.1284 -2.2946
  779MPD2    H311497   1.568   4.398  13.832 -0.9963  0.5133 -0.2000
  779MPD2     N11498   1.892   4.659  14.020  0.4276 -0.1579 -0.2256
  779MPD2    H511499   1.948   4.657  14.105 -1.5002  0.8214  1.0619
  779MPD2    N111500   1.733   4.264  14.244 -0.2283 -0.0055  0.8131
  779MPD2    H711501   1.812   4.284  14.304  0.8830  1.0888 -1.0227
  780MPD2     C11502   1.417   4.465   0.968  0.5307  0.2725  0.4722
  780MPD2    C111503   1.285   4.448   0.931  0.2212 -0.0839  0.1586
  780MPD2    C211504   1.225   4.528   0.829 -0.3400 -0.8381 -0.4177
  780MPD2    C311505   1.312   4.614   0.760 -0.0198 -1.1973 -0.6265
  780MPD2    C411506   1.443   4.627   0.802 -0.1190 -0.3764  0.0708
  780MPD2    C511507   1.490   4.563   0.911  0.9994 -0.0834  1.1841
  780MPD2     H11508   1.127   4.503   0.789  0.0313 -1.2334 -1.0854
  780MPD2    H111509   1.516   4.692   0.755  0.7231 -3.1970 -2.5316
  780MPD2    H211510   1.463   4.411   1.050  1.5989  0.1467 -0.2065
  780MPD2    H311511   1.592   4.589   0.937  0.9955  1.0923  0.0479
  780MPD2     N11512   1.258   4.672   0.644 -0.0015 -0.1161  0.2602
  780MPD2    H511513   1.168   4.640   0.611  0.5187 -0.5470 -0.7365
  780MPD2    N111514   1.202   4.357   1.001 -0.3760 -0.3923 -0.4230
  780MPD2    H711515   1.252   4.275   1.034  3.0358  1.0699 -1.9132
  781MPD2     C11516   3.469   1.952  12.206 -0.5703 -0.4205  0.0562
  781MPD2    C111517   3.373   1.856  12.230 -0.3496 -0.1568  0.1862
  781MPD2    C211518   3.285   1.830  12.126 -0.5519 -0.1304  0.8170
  781MPD2    C311519   3.282   1.910  12.013 -0.0291 -0.2223 -0.2837
  781MPD2    C411520   3.365   2.017  12.000  0.6203 -0.9209 -0.2805
  781MPD2    C511521   3.456   2.037  12.095 -0.2764  0.1354  0.1838
  781MPD2     H11522   3.204   1.762  12.150 -0.7145  0.3232  1.5484
  781MPD2    H111523   3.371   2.089  11.918 -3.2852  0.5935  0.7325
  781MPD2    H211524   3.549   1.983  12.272  0.5554  3.1505 -2.9530
  781MPD2    H311525   3.522   2.122  12.080 -0.6035  0.0731 -1.5801
  781MPD2     N11526   3.181   1.896  11.918  0.1208 -0.0634 -0.1258
  781MPD2    H511527   3.161   1.972  11.854  0.3933  2.2996  2.5789
  781MPD2    N111528   3.384   1.768  12.343  0.0177 -0.1045  0.2036
  781MPD2    H711529   3.457   1.794  12.408  1.1038 -0.1119 -1.0205
  782MPD2     C11530   1.264   2.075  10.127  0.3433  0.4106  0.5565
  782MPD2    C111531   1.318   2.133  10.246 -0.0026 -0.6161 -0.5535
  782MPD2    C211532   1.309   2.264  10.264  0.6558  0.2088  0.3876
  782MPD2    C311533   1.257   2.346  10.167  0.6851  0.5451 -0.0054
  782MPD2    C411534   1.219   2.296  10.043 -0.0765 -0.0527 -0.5414
  782MPD2    C511535   1.220   2.160  10.029  0.9903 -0.2700 -0.4864
  782MPD2     H11536   1.327   2.304  10.363  1.0625  0.9228  0.0342
  782MPD2    H111537   1.191   2.353   9.955  1.8413  1.5369 -0.1212
  782MPD2    H211538   1.269   1.967  10.121  0.9844  0.5406 -1.0541
  782MPD2    H311539   1.181   2.106   9.944  0.2035  1.0758 -0.9770
  782MPD2     N11540   1.252   2.482  10.201 -0.7452 -0.1104  0.1227
  782MPD2    H511541   1.279   2.516  10.293  2.0292 -0.0419 -0.7408
  782MPD2    N111542   1.364   2.038  10.342  0.0276 -0.0929 -0.0834
  782MPD2    H711543   1.330   1.944  10.326  0.9554 -0.5399  0.5732
  783MPD2     C11544   0.761   1.812  10.902  0.1799  0.2961 -0.0949
  783MPD2    C111545   0.799   1.939  10.897 -0.4618  0.5530 -0.1619
  783MPD2    C211546   0.923   1.974  10.851 -0.4693 -0.6213 -0.4082
  783MPD2    C311547   1.012   1.873  10.809 -0.4181  0.7695 -0.8157
  783MPD2    C411548   0.977   1.743  10.830 -0.3441  0.3078 -0.6762
  783MPD2    C511549   0.850   1.713  10.866  0.1245 -0.6554  0.2638
  783MPD2     H11550   0.968   2.072  10.866 -0.4169 -0.5955 -0.7454
  783MPD2    H111551   1.039   1.661  10.798 -0.0817  0.1110  0.3612
  783MPD2    H211552   0.664   1.781  10.942  1.1650 -1.5080  0.9368
  783MPD2    H311553   0.821   1.609  10.878  1.9861 -1.2101 -0.0994
  783MPD2     N11554   1.140   1.915  10.760  0.2844  0.7366  0.0932
  783MPD2    H511555   1.151   2.013  10.737  1.2845  0.8417  1.0679
  783MPD2    N111556   0.700   2.033  10.935 -0.1351 -0.1251  0.2349
  783MPD2    H711557   0.616   1.984  10.963  1.5036 -3.0956 -0.0287
  784MPD2     C11558   3.777   3.061   0.675 -0.5004 -0.2146 -0.2621
  784MPD2    C111559   3.686   3.054   0.777  0.8734  0.8051  0.2569
  784MPD2    C211560   3.552   3.082   0.747  0.2976 -0.2238 -0.3357
  784MPD2    C311561   3.509   3.103   0.620  0.1951 -0.1770 -0.0814
  784MPD2    C411562   3.602   3.103   0.520 -0.3051  0.2986  0.5396
  784MPD2    C511563   3.733   3.090   0.549 -0.1467  0.5664  0.3542
  784MPD2     H11564   3.474   3.088   0.823  1.4027  3.2044  0.5184
  784MPD2    H111565   3.561   3.097   0.419  0.9992 -1.3878  0.1065
  784MPD2    H211566   3.883   3.053   0.697 -0.9849  2.5407  2.9969
  784MPD2    H311567   3.803   3.093   0.466 -1.1042  2.2939 -0.3821
  784MPD2     N11568   3.371   3.119   0.604  0.2557 -1.1545 -0.9322
  784MPD2    H511569   3.322   3.119   0.693 -1.3811  1.5318 -1.8252
  784MPD2    N111570   3.721   3.047   0.913  0.0318 -0.2102 -0.2204
  784MPD2    H711571   3.647   3.077   0.975  0.0416 -0.7111  0.0325
  785MPD2     C11572   3.572   1.364  10.226 -0.1387 -0.5567 -0.2854
  785MPD2    C111573   3.498   1.429  10.125  0.1640 -0.7671  0.4327
  785MPD2    C211574   3.418   1.357  10.038  0.0065 -0.1294 -1.0269
  785MPD2    C311575   3.437   1.224  10.031 -0.7601 -0.5454 -0.2528
  785MPD2    C411576   3.519   1.159  10.121  0.4020 -0.2229 -0.5209
  785MPD2    C511577   3.582   1.228  10.222 -0.1501 -0.3674  0.6138
  785MPD2     H11578   3.358   1.411   9.966 -1.2104 -1.9516 -1.3683
  785MPD2    H111579   3.553   1.057  10.104 -1.6282 -0.8089 -1.0444
  785MPD2    H211580   3.634   1.415  10.299  0.5462  1.1038 -2.0193
  785MPD2    H311581   3.649   1.169  10.283  0.9588  0.3169  0.0687
  785MPD2     N11582   3.396   1.164   9.911  0.4370  0.0306 -0.3680
  785MPD2    H511583   3.350   1.230   9.848 -0.6455 -0.9358 -0.5801
  785MPD2    N111584   3.515   1.567  10.101  0.2578  0.9641  0.5394
  785MPD2    H711585   3.450   1.609  10.036  1.7746 -2.4508 -3.2049
  786MPD2     C11586   2.495   3.869  15.038 -0.2133 -0.2106 -0.3319
  786MPD2    C111587   2.620   3.838  14.992 -0.3922 -0.2120  0.2458
  786MPD2    C211588   2.733   3.895  15.057 -0.0239 -0.4599 -0.5664
  786MPD2    C311589   2.716   3.951  15.184  0.2824  0.3274 -0.3896
  786MPD2    C411590   2.589   3.968  15.237 -0.2426 -0.0415  0.0232
  786MPD2    C511591   2.482   3.925  15.162  0.0435 -0.6635 -0.1492
  786MPD2     H11592   2.835   3.878  15.024 -0.0204 -0.2662 -0.6587
  786MPD2    H111593   2.562   4.011  15.333 -0.7180 -3.2456  1.3180
  786MPD2    H211594   2.399   3.832  15.003 -0.2831  1.3511 -1.7857
  786MPD2    H311595   2.385   3.924  15.211 -0.0252 -1.5279 -0.2881
  786MPD2     N11596   2.823   3.992  15.267 -0.6293  0.9292  0.3199
  786MPD2    H511597   2.788   4.022  15.358 -0.9928 -0.5188  0.6594
  786MPD2    N111598   2.638   3.752  14.891  0.1818 -0.2750 -0.0383
  786MPD2    H711599   2.734   3.723  14.874  0.1874  0.8400 -1.9110
  787MPD2     C11600   2.851   3.260  15.255 -0.6749 -0.7320  0.0233
  787MPD2    C111601   2.801   3.208  15.139 -0.6302 -0.2459 -0.3588
  787MPD2    C211602   2.782   3.071  15.135  0.0629 -0.9662  0.4051
  787MPD2    C311603   2.815   2.985  15.241  0.3417  0.3531  0.5385
  787MPD2    C411604   2.868   3.038  15.358  0.0527  0.4349  0.5931
  787MPD2    C511605   2.890   3.177  15.360  0.1463 -0.1092  0.2735
  787MPD2     H11606   2.733   3.021  15.052  2.5223 -1.7843 -0.5350
  787MPD2    H111607   2.895   2.985  15.448 -3.3844 -1.5478  0.4512
  787MPD2    H211608   2.869   3.366  15.268  1.1356 -0.8207 -1.6860
  787MPD2    H311609   2.923   3.219  15.454  0.4695  1.0367 -0.3513
  787MPD2     N11610   2.789   2.850  15.216 -0.0616  0.5377  0.5355
  787MPD2    H511611   2.768   2.824  15.121  0.0465  0.8780  0.4179
  787MPD2    N111612   2.764   3.293  15.028  0.3328 -0.0084 -0.3305
  787MPD2    H711613   2.809   3.385  15.026  3.4425 -1.4873  1.3901
  788MPD2     C11614   4.440   2.614   0.495 -0.0830 -0.0486 -0.1821
  788MPD2    C111615   4.334   2.547   0.556  0.1067  0.2620  0.3050
  788MPD2    C211616   4.211   2.565   0.503 -0.7354 -0.0770 -0.3323
  788MPD2    C311617   4.192   2.643   0.392  0.3311 -0.6083 -0.1290
  788MPD2    C411618   4.299   2.711   0.337 -0.6825 -0.0614 -0.2812
  788MPD2    C511619   4.427   2.695   0.388  0.3248 -0.2644 -0.2635
  788MPD2     H11620   4.129   2.526   0.562  1.0445  0.8087  2.7484
  788MPD2    H111621   4.286   2.779   0.253  1.4758  2.1188  1.1477
  788MPD2    H211622   4.544   2.606   0.524 -0.2073 -0.8549  0.0212
  788MPD2    H311623   4.521   2.726   0.345  0.4467  1.8785  1.4893
  788MPD2     N11624   4.070   2.656   0.321 -0.5025 -0.4463 -0.2918
  788MPD2    H511625   4.078   2.702   0.231 -0.4866 -0.3193 -0.2260
  788MPD2    N111626   4.340   2.469   0.672  0.0723 -0.1376  0.3172
  788MPD2    H711627   4.251   2.444   0.714 -0.8865 -0.6597 -2.0569
  789MPD2     C11628   4.391   2.016  16.513  0.2893  0.5569  0.5492
  789MPD2    C111629   4.324   1.907  16.570 -0.1081  0.1986 -0.7104
  789MPD2    C211630   4.194   1.925  16.621 -0.3842  0.3632 -0.1447
  789MPD2    C311631   4.138   2.051  16.617  1.0279 -0.9805  0.4294
  789MPD2    C411632   4.204   2.155  16.568  0.1018  0.3606 -0.0505
  789MPD2    C511633   4.324   2.139  16.514  0.3077  0.0263  0.1947
  789MPD2     H11634   4.146   1.838  16.663  3.3605 -1.5900  0.1130
  789MPD2    H111635   4.164   2.256  16.568  0.8220  0.6422 -1.0115
  789MPD2    H211636   4.483   2.013  16.456  0.7923  0.7634  1.3557
  789MPD2    H311637   4.371   2.221  16.461  2.6710 -1.0383  0.6205
  789MPD2     N11638   4.010   2.083  16.667 -0.3403 -0.5061 -0.0806
  789MPD2    H511639   3.983   2.181  16.663 -0.4772 -0.4393  2.4434
  789MPD2    N111640   4.384   1.781  16.573 -0.0731 -0.1667 -0.4973
  789MPD2    H711641   4.317   1.707  16.589  1.0359 -0.4756  2.6673
  790MPD2     C11642   0.535   2.903  14.316 -0.4293 -0.6391  0.1123
  790MPD2    C111643   0.650   2.971  14.277  0.3012 -0.0500 -0.2628
  790MPD2    C211644   0.637   3.060  14.176 -0.2702  0.0639 -0.3259
  790MPD2    C311645   0.513   3.078  14.110  0.2283  0.7644 -1.0690
  790MPD2    C411646   0.400   3.009  14.156 -0.2462  0.2466 -0.9650
  790MPD2    C511647   0.408   2.926  14.260  0.0664  0.3045 -1.0239
  790MPD2     H11648   0.721   3.115  14.135 -1.4144  1.7334 -0.4681
  790MPD2    H111649   0.299   3.005  14.116  0.7748 -3.6060 -3.1206
  790MPD2    H211650   0.543   2.839  14.403  0.4263 -0.1845  0.3743
  790MPD2    H311651   0.316   2.879  14.294 -0.3121  1.1020 -0.9521
  790MPD2     N11652   0.508   3.165  14.001  1.1680  0.2017  0.2029
  790MPD2    H511653   0.592   3.219  13.984  2.6704 -2.4059 -0.5669
  790MPD2    N111654   0.770   2.957  14.351 -0.2778  0.1289  0.1106
  790MPD2    H711655   0.801   2.871  14.396  0.3245  0.7663  0.9186
  791MPD2     C11656   4.630   3.364  13.543  0.3891  0.6016 -0.6225
  791MPD2    C111657   0.032   3.344  13.487 -0.3902 -0.1837 -0.3947
  791MPD2    C211658   0.037   3.292  13.358  0.7412 -0.6109  0.6030
  791MPD2    C311659   4.645   3.254  13.287  0.2263  0.4574  0.1050
  791MPD2    C411660   4.518   3.291  13.339 -0.0763  0.8935 -0.0510
  791MPD2    C511661   4.518   3.335  13.469 -0.3513  0.2411  0.3730
  791MPD2     H11662   0.134   3.273  13.312  0.8750 -0.7516  0.9433
  791MPD2    H111663   4.424   3.258  13.296  0.7971  3.1357 -3.6166
  791MPD2    H211664   4.613   3.408  13.641  3.1116 -2.1147  1.0815
  791MPD2    H311665   4.423   3.357  13.516  0.3892  0.7998  1.6033
  791MPD2     N11666   4.662   3.187  13.162  0.4212 -0.5794  0.6936
  791MPD2    H511667   0.034   3.172  13.131 -0.6145 -0.5473 -2.5910
  791MPD2    N111668   0.151   3.370  13.562  1.0692  0.0659  0.6874
  791MPD2    H711669   0.129   3.386  13.660 -1.1820 -0.5952  0.2753
  792MPD2     C11670   1.006   3.296  11.152  0.2046  0.1838  0.5186
  792MPD2    C111671   0.879   3.344  11.114 -0.6212  0.6966 -0.0626
  792MPD2    C211672   0.785   3.254  11.062 -0.8173 -0.1776 -0.4385
  792MPD2    C311673   0.821   3.118  11.046 -1.2361  0.2108  0.5900
  792MPD2    C411674   0.940   3.073  11.090 -0.0351 -0.4587  0.0295
  792MPD2    C511675   1.032   3.161  11.131  0.0856  0.8237 -0.4300
  792MPD2     H11676   0.688   3.290  11.031 -0.4389  0.7572 -0.5389
  792MPD2    H111677   0.964   2.969  11.078 -2.1398 -1.0343  0.7826
  792MPD2    H211678   1.086   3.363  11.183  1.1215 -0.5213 -0.3364
  792MPD2    H311679   1.135   3.132  11.142  0.1048  1.1668  0.2616
  792MPD2     N11680   0.735   3.018  11.008  0.1249 -0.7748 -0.1471
  792MPD2    H511681   0.778   2.927  10.995  0.0653 -1.1198  2.0784
  792MPD2    N111682   0.851   3.481  11.131 -0.7207  0.5308  0.5955
  792MPD2    H711683   0.921   3.526  11.189  1.3481 -1.7007 -0.1771
  793MPD2     C11684   0.002   3.035  10.309  0.3691  0.4785  0.1256
  793MPD2    C111685   0.136   3.071  10.315 -0.4550 -0.3206  0.4883
  793MPD2    C211686   0.203   3.031  10.425 -0.5666 -0.0602  0.0905
  793MPD2    C311687   0.153   2.960  10.534  0.0329  0.2899  0.2271
  793MPD2    C411688   0.018   2.931  10.530  0.0468  0.3263 -0.2760
  793MPD2    C511689   4.676   2.962  10.415  0.0245 -0.0707  0.1471
  793MPD2     H11690   0.305   3.066  10.435 -0.6785  0.0702  0.7816
  793MPD2    H111691   4.689   2.881  10.611 -0.4175 -1.3009 -1.5621
  793MPD2    H211692   4.658   3.077  10.235  0.4881 -1.0120 -0.8363
  793MPD2    H311693   4.571   2.938  10.405  0.2178 -1.1050  0.5395
  793MPD2     N11694   0.244   2.935  10.640 -0.2177  0.9240  0.1758
  793MPD2    H511695   0.337   2.960  10.607  0.0727 -2.4474 -1.5131
  793MPD2    N111696   0.203   3.153  10.219  0.7214  0.0465 -0.7769
  793MPD2    H711697   0.300   3.172  10.242  0.4828  0.6785 -0.2910
  794MPD2     C11698   0.114   3.252   0.155 -0.0484  0.2960  0.1171
  794MPD2    C111699   0.158   3.145   0.078  0.5946  0.0840  0.2942
  794MPD2    C211700   0.216   3.152  17.648 -0.0770 -0.3204 -0.2115
  794MPD2    C311701   0.227   3.281  17.597 -0.3963 -0.5505 -0.7246
  794MPD2    C411702   0.186   3.389  17.672 -0.5518 -0.2925 -0.3178
  794MPD2    C511703   0.128   3.374   0.098 -0.4167  0.5276  1.2209
  794MPD2     H11704   0.243   3.063  17.591  2.9120  0.8029 -0.5480
  794MPD2    H111705   0.204   3.489  17.634 -1.5659 -0.0643 -0.1904
  794MPD2    H211706   0.072   3.238   0.254  1.6062  0.1405  0.8093
  794MPD2    H311707   0.097   3.459   0.157  0.6158  1.0758  0.9795
  794MPD2     N11708   0.304   3.314  17.489  1.1233  0.0161 -0.1787
  794MPD2    H511709   0.316   3.413  17.472  1.3830 -0.3899 -2.4169
  794MPD2    N111710   0.158   3.016   0.123  0.1662  0.1924 -0.2484
  794MPD2    H711711   0.198   2.950   0.057  1.2438  0.0773  0.5288
  795MPD2     C11712   2.940   0.025  12.814  0.5161  0.7618  0.2258
  795MPD2    C111713   2.855   4.698  12.913  0.0022 -0.2626 -0.4462
  795MPD2    C211714   2.914   4.638  13.022 -0.2836 -0.2446  0.3328
  795MPD2    C311715   3.050   4.644  13.042  0.4910  0.6550 -0.1124
  795MPD2    C411716   3.131   4.713  12.954 -0.5480  0.6664 -0.8766
  795MPD2    C511717   3.076   0.036  12.843 -0.7131  0.6825  0.2931
  795MPD2     H11718   2.854   4.605  13.106  2.1719  0.9215  2.5489
  795MPD2    H111719   3.237   0.011  12.968 -1.4450  2.5945  2.9018
  795MPD2    H211720   2.909   0.081  12.727  0.8499  1.6851  0.7069
  795MPD2    H311721   3.145   0.088  12.778 -0.1888  1.6361  1.6178
  795MPD2     N11722   3.111   4.573  13.149  0.4407  0.0807 -0.9150
  795MPD2    H511723   3.212   4.584  13.150  0.7640 -2.9975 -2.0861
  795MPD2    N111724   2.709   4.697  12.893  0.6211  0.3156  0.4054
  795MPD2    H711725   2.649   4.661  12.967 -0.1257  2.7072  0.9640
  796MPD2     C11726   2.450   1.592  15.732 -0.1505 -0.1871 -0.1330
  796MPD2    C111727   2.563   1.615  15.806 -0.1434  0.4866 -0.0590
  796MPD2    C211728   2.589   1.733  15.864 -0.6733 -0.2172  1.2004
  796MPD2    C311729   2.506   1.841  15.847 -0.1684  0.0683 -0.2413
  796MPD2    C411730   2.401   1.829  15.764 -1.0676 -0.4154 -0.2572
  796MPD2    C511731   2.374   1.703  15.707 -0.3446  0.7917  0.6842
  796MPD2     H11732   2.672   1.749  15.932  2.9078 -0.3125 -3.1758
  796MPD2    H111733   2.342   1.914  15.732 -0.2894 -0.4669 -1.8819
  796MPD2    H211734   2.405   1.498  15.699  1.0808 -0.4484 -1.0910
  796MPD2    H311735   2.284   1.680  15.651 -0.5945 -0.9585  1.7731
  796MPD2     N11736   2.548   1.957  15.913 -0.6758  0.2732 -0.8164
  796MPD2    H511737   2.649   1.962  15.927 -0.9144 -0.0023  1.0096
  796MPD2    N111738   2.646   1.501  15.831 -0.3000  0.0013  0.0865
  796MPD2    H711739   2.609   1.416  15.791 -2.9503  1.2719 -0.1854
  797MPD2     C11740   2.664   1.541  17.188 -0.6428  0.5278 -0.8922
  797MPD2    C111741   2.788   1.560  17.244 -0.8236  0.0790 -0.1216
  797MPD2    C211742   2.864   1.660  17.186  0.2132 -0.2907 -0.1943
  797MPD2    C311743   2.842   1.694  17.054  0.1452  0.2012 -0.2590
  797MPD2    C411744   2.729   1.651  16.991  0.1130  0.0914 -0.1050
  797MPD2    C511745   2.637   1.585  17.065  0.7440  0.0918 -0.3697
  797MPD2     H11746   2.962   1.683  17.226 -0.6548  0.7598  1.3166
  797MPD2    H111747   2.714   1.694  16.893 -1.1145  1.7396  0.8075
  797MPD2    H211748   2.593   1.476  17.237 -0.3236  0.2343 -0.8200
  797MPD2    H311749   2.539   1.562  17.023 -0.5187  1.9854  1.5782
  797MPD2     N11750   2.949   1.766  16.997  0.9395 -0.2714  0.7504
  797MPD2    H511751   3.025   1.781  17.063  2.7175 -0.2052 -1.3403
  797MPD2    N111752   2.843   1.506  17.363  0.0277  0.2280 -0.1343
  797MPD2    H711753   2.937   1.535  17.389 -0.6161  2.2648 -0.0964
  798MPD2     C11754   3.543   1.462  17.081  0.2817 -0.2414 -0.7014
  798MPD2    C111755   3.449   1.555  17.121 -0.1626  0.5839  0.0219
  798MPD2    C211756   3.368   1.524  17.231 -0.3908 -0.7259  0.6724
  798MPD2    C311757   3.360   1.386  17.270  0.1719 -0.3633 -0.0905
  798MPD2    C411758   3.457   1.297  17.222 -0.3399  0.4398 -0.1388
  798MPD2    C511759   3.552   1.337  17.134 -0.0007  0.0148 -0.1647
  798MPD2     H11760   3.300   1.595  17.276 -0.7597 -0.8782  0.3518
  798MPD2    H111761   3.466   1.194  17.254  0.9928  0.4761 -0.4143
  798MPD2    H211762   3.614   1.485  17.002  1.1031 -0.4660 -0.0199
  798MPD2    H311763   3.626   1.269  17.093 -0.3383 -2.2935  3.0791
  798MPD2     N11764   3.252   1.350  17.358 -0.3088  0.3918 -0.1203
  798MPD2    H511765   3.183   1.419  17.384 -0.5508  0.2711 -0.4269
  798MPD2    N111766   3.434   1.681  17.056 -0.0602  0.3363 -0.1438
  798MPD2    H711767   3.494   1.689  16.975  0.5675  0.6504  0.3496
  799MPD2     C11768   2.439   2.530  15.338  0.5908 -0.0039  0.2727
  799MPD2    C111769   2.388   2.483  15.224 -0.7486 -0.9167 -0.1315
  799MPD2    C211770   2.325   2.570  15.131 -0.3279 -0.4651  0.2357
  799MPD2    C311771   2.340   2.706  15.150 -0.2527 -0.2404  0.3073
  799MPD2    C411772   2.402   2.756  15.267  0.4325 -0.6114 -0.6025
  799MPD2    C511773   2.447   2.665  15.361  0.2830  0.7137 -0.0389
  799MPD2     H11774   2.287   2.535  15.035 -1.9214  0.4912  0.5222
  799MPD2    H111775   2.425   2.861  15.281 -1.4939 -0.2631  0.0407
  799MPD2    H211776   2.508   2.466  15.392 -1.0870 -1.4006  0.7525
  799MPD2    H311777   2.495   2.709  15.448  1.4669 -0.4907 -0.0746
  799MPD2     N11778   2.306   2.804  15.052 -0.0867  0.3701  0.1182
  799MPD2    H511779   2.360   2.890  15.055  0.5774 -0.0933  1.6947
  799MPD2    N111780   2.411   2.349  15.180  0.1259  0.6334  0.3190
  799MPD2    H711781   2.394   2.329  15.082 -1.1097 -0.9871  0.8577
  800MPD2     C11782   2.983   3.971  14.725 -0.8271 -0.2402  0.0970
  800MPD2    C111783   3.048   3.881  14.647  0.1416 -0.2139 -0.4598
  800MPD2    C211784   2.979   3.820  14.542 -0.6427  1.0611 -0.3586
  800MPD2    C311785   2.843   3.842  14.530  0.4799 -0.2066 -1.1102
  800MPD2    C411786   2.777   3.926  14.613 -0.5403 -0.2090  0.3387
  800MPD2    C511787   2.848   3.991  14.709 -0.3743 -0.0074  0.5161
  800MPD2     H11788   3.018   3.739  14.482 -0.9480  2.4132 -2.4092
  800MPD2    H111789   2.669   3.933  14.606 -0.3571  1.1791 -1.1319
  800MPD2    H211790   3.042   4.024  14.799 -0.6138  2.0972 -1.7470
  800MPD2    H311791   2.794   4.036  14.791 -0.0590  0.8961  0.2195
  800MPD2     N11792   2.790   3.768  14.415  1.2861 -0.1060  0.2860
  800MPD2    H511793   2.864   3.727  14.358 -1.1167 -1.7097 -1.6741
  800MPD2    N111794   3.184   3.863  14.669  0.1518 -0.1620 -0.0929
  800MPD2    H711795   3.225   3.925  14.739 -2.4167  2.4380 -0.9121
  801MPD2     C11796   3.015   4.166  14.105  0.9000  0.1178 -0.3382
  801MPD2    C111797   2.998   4.125  14.232  0.5790  0.8499 -0.3370
  801MPD2    C211798   2.868   4.124  14.288  0.2303 -0.2255 -0.7712
  801MPD2    C311799   2.760   4.163  14.204 -0.4469 -0.6486 -0.2751
  801MPD2    C411800   2.782   4.204  14.075 -0.1811 -0.2961  0.6736
  801MPD2    C511801   2.907   4.196  14.020 -0.2343 -0.1260  0.5634
  801MPD2     H11802   2.844   4.107  14.392  0.3141 -0.5058 -0.7960
  801MPD2    H111803   2.700   4.235  14.011 -0.1736 -1.0330  0.3050
  801MPD2    H211804   3.114   4.161  14.061  1.3970 -0.6196  0.8622
  801MPD2    H311805   2.909   4.223  13.915  0.5351 -0.0960  0.5897
  801MPD2     N11806   2.624   4.180  14.253  0.1166 -0.4239  0.2774
  801MPD2    H511807   2.551   4.199  14.185  0.2922 -0.1073  0.1792
  801MPD2    N111808   3.111   4.095  14.315  0.3925 -0.3926  0.1731
  801MPD2    H711809   3.081   4.058  14.405 -2.3643  2.5550  0.4433
  802MPD2     C11810   1.818   0.556   1.122  0.3360 -0.4041 -0.0226
  802MPD2    C111811   1.824   0.602   0.992 -0.1654 -0.2157  0.0098
  802MPD2    C211812   1.893   0.521   0.904 -0.3662 -0.4435 -0.3060
  802MPD2    C311813   1.955   0.399   0.936  0.6409 -0.0056 -0.8584
  802MPD2    C411814   1.926   0.349   1.060 -0.2288 -0.2614 -0.2601
  802MPD2    C511815   1.863   0.430   1.148  0.5060  0.4211  0.2478
  802MPD2     H11816   1.917   0.562   0.807 -0.8513  1.7733  0.4973
  802MPD2    H111817   1.947   0.247   1.090 -1.0886 -0.6953 -1.0947
  802MPD2    H211818   1.771   0.619   1.197 -1.1890 -1.3129 -0.2282
  802MPD2    H311819   1.832   0.388   1.243  0.7841  0.8106  0.5075
  802MPD2     N11820   2.023   0.334   0.835  0.0546 -0.1382 -0.5280
  802MPD2    H511821   2.010   0.379   0.744  1.0602 -3.1703 -2.1755
  802MPD2    N111822   1.764   0.722   0.949  0.4175  0.6808 -0.1952
  802MPD2    H711823   1.764   0.742   0.850  0.9206  2.3820  0.1518
  803MPD2     C11824   3.643   3.235  11.725  0.1554 -0.3856  0.7339
  803MPD2    C111825   3.753   3.258  11.804  0.2206  0.4112 -0.6952
  803MPD2    C211826   3.795   3.160  11.895  0.2374 -0.0102  0.1749
  803MPD2    C311827   3.708   3.058  11.929  0.1890  1.2226 -0.1453
  803MPD2    C411828   3.598   3.043  11.846  0.1104 -0.8006  0.1374
  803MPD2    C511829   3.570   3.119  11.738 -0.1960  0.6573 -0.2398
  803MPD2     H11830   3.880   3.178  11.960 -1.3473  2.5371  1.5549
  803MPD2    H111831   3.532   2.958  11.862  0.0435 -0.4976  1.4510
  803MPD2    H211832   3.612   3.303  11.647  0.7879  0.3112  1.0847
  803MPD2    H311833   3.486   3.105  11.672  0.2944  1.2135 -0.9738
  803MPD2     N11834   3.727   2.969  12.034  0.2024  0.2582 -0.3671
  803MPD2    H511835   3.648   2.905  12.046 -0.7303  1.2810 -1.0889
  803MPD2    N111836   3.815   3.376  11.822  0.4477 -0.8001 -0.0793
  803MPD2    H711837   3.898   3.375  11.881  0.2049 -0.0271  0.2792
  804MPD2     C11838   3.019   4.595  16.846 -0.1213 -0.3514 -0.2530
  804MPD2    C111839   3.055   4.629  16.976  0.2304  0.6609  0.6033
  804MPD2    C211840   3.114   0.027  16.990 -0.9957 -0.8705  0.0397
  804MPD2    C311841   3.156   0.103  16.884 -0.5862  1.0595  0.4683
  804MPD2    C411842   3.131   0.071  16.749  0.2320  0.2076  0.0779
  804MPD2    C511843   3.055   4.675  16.740  0.6508 -0.5003 -0.3708
  804MPD2     H11844   3.145   0.049  17.092 -1.6494  1.1034 -0.1660
  804MPD2    H111845   3.162   0.139  16.671 -1.4308  0.2978 -0.4985
  804MPD2    H211846   2.957   4.508  16.831 -0.1928 -0.1347 -1.1838
  804MPD2    H311847   3.024   4.651  16.639 -0.9769  2.3832 -0.5618
  804MPD2     N11848   3.187   0.238  16.916 -0.0765 -0.2810 -0.1224
  804MPD2    H511849   3.181   0.274  17.010 -1.0344 -1.0155  0.0891
  804MPD2    N111850   3.033   4.545  17.088  1.0887 -0.0081 -0.3064
  804MPD2    H711851   3.068   4.577  17.178  0.8290  0.8476 -0.5167
  805MPD2     C11852   2.030   2.548  15.692  0.1935 -0.4385  0.3481
  805MPD2    C111853   2.063   2.620  15.581  0.3911  0.1639 -0.0073
  805MPD2    C211854   2.170   2.708  15.570  0.1008 -0.4882 -0.4437
  805MPD2    C311855   2.238   2.745  15.688 -0.0926  0.8323 -0.2830
  805MPD2    C411856   2.198   2.679  15.807 -0.3304 -0.0671  0.4171
  805MPD2    C511857   2.106   2.578  15.803 -0.1635 -0.3269  0.9986
  805MPD2     H11858   2.194   2.759  15.477 -2.4036  0.5005 -0.5418
  805MPD2    H111859   2.251   2.688  15.901 -0.0796  2.0862  0.0701
  805MPD2    H211860   1.955   2.469  15.691  0.3052 -0.5594  1.9836
  805MPD2    H311861   2.085   2.525  15.896  3.2847 -0.6068  1.5992
  805MPD2     N11862   2.348   2.837  15.688  0.1745  0.6883 -0.1706
  805MPD2    H511863   2.369   2.883  15.600  0.9003  1.7299  0.5621
  805MPD2    N111864   1.996   2.589  15.465  0.2235 -0.7023  0.1773
  805MPD2    H711865   2.026   2.635  15.379  1.6160 -0.4554  0.7979
  806MPD2     C11866   3.154   2.305   0.524  0.5059  0.2288  1.2647
  806MPD2    C111867   3.020   2.333   0.535 -0.0131 -0.4212 -0.3026
  806MPD2    C211868   2.971   2.440   0.464  0.1536  0.0026 -0.1882
  806MPD2    C311869   3.056   2.516   0.386  0.1054  0.5437 -0.3686
  806MPD2    C411870   3.194   2.492   0.379 -0.3038  0.0987  0.4206
  806MPD2    C511871   3.236   2.383   0.456 -0.0096 -0.7552  0.3462
  806MPD2     H11872   2.864   2.448   0.444  0.1661  1.0495  0.1985
  806MPD2    H111873   3.264   2.540   0.313  0.9242  1.7068  2.9124
  806MPD2    H211874   3.196   2.211   0.559 -1.3559 -0.4364  1.6744
  806MPD2    H311875   3.342   2.360   0.450  0.1472 -0.1839  0.8964
  806MPD2     N11876   2.988   2.618   0.317  0.1566  0.2508 -0.2824
  806MPD2    H511877   2.888   2.624   0.333  0.0885 -0.6050 -0.3888
  806MPD2    N111878   2.940   2.237   0.610 -0.6518 -0.5913 -0.1904
  806MPD2    H711879   2.980   2.146   0.628  0.7466  0.3575  1.5568
  807MPD2     C11880   2.758   1.507   0.826  0.3881  0.1474  0.6075
  807MPD2    C111881   2.671   1.595   0.896  0.3513  0.8789 -0.3045
  807MPD2    C211882   2.575   1.539   0.978 -0.2111 -0.1167  0.1946
  807MPD2    C311883   2.567   1.403   1.003 -0.4185 -0.7352 -0.1070
  807MPD2    C411884   2.657   1.316   0.941 -0.4393 -0.4109  0.4969
  807MPD2    C511885   2.744   1.368   0.844  0.0609 -0.2623  0.1568
  807MPD2     H11886   2.514   1.606   1.039 -0.7228 -0.5578  0.1705
  807MPD2    H111887   2.667   1.210   0.963  0.7163 -0.0823  1.5513
  807MPD2    H211888   2.842   1.544   0.769 -0.2633  1.8520  0.7425
  807MPD2    H311889   2.811   1.298   0.795 -0.7834  0.8661 -2.6163
  807MPD2     N11890   2.480   1.361   1.105 -0.0030  0.6632  0.5401
  807MPD2    H511891   2.438   1.436   1.160 -1.4293 -0.7547  1.3818
  807MPD2    N111892   2.670   1.736   0.892 -0.7433  0.8583  0.0551
  807MPD2    H711893   2.604   1.782   0.954 -1.8711 -0.3836 -0.2346
  808MPD2     C11894   3.464   4.524  10.423  0.2963  0.2103 -0.3448
  808MPD2    C111895   3.360   4.532  10.517  0.3400 -1.0141 -0.0564
  808MPD2    C211896   3.328   4.659  10.566  0.2695  0.6223  0.3597
  808MPD2    C311897   3.391   0.050  10.526  0.2046 -0.0342 -0.0175
  808MPD2    C411898   3.491   0.040  10.426 -1.1166 -1.0989  0.1193
  808MPD2    C511899   3.527   4.637  10.380  0.1814  0.2720 -0.4919
  808MPD2     H11900   3.242   4.671  10.631 -1.5438 -0.4800 -1.8693
  808MPD2    H111901   3.532   0.131  10.383 -0.8918 -1.3301 -0.1539
  808MPD2    H211902   3.499   4.433  10.375 -1.2882 -1.1961  1.1871
  808MPD2    H311903   3.615   4.630  10.318  0.7106 -0.5948  0.3553
  808MPD2     N11904   3.340   0.178  10.557 -0.1213 -0.3451  0.4897
  808MPD2    H511905   3.355   0.256  10.494  0.2598  0.1678  1.2237
  808MPD2    N111906   3.274   4.424  10.556 -0.1334 -0.1117  0.5756
  808MPD2    H711907   3.184   4.440  10.601  0.6212  0.3808  1.9037
  809MPD2     C11908   2.771   0.126   9.984  0.7386  0.0469 -0.0759
  809MPD2    C111909   2.903   0.102  10.007  0.1790  0.1316 -0.1762
  809MPD2    C211910   2.957   0.165  10.113 -0.2027 -1.6286 -0.2774
  809MPD2    C311911   2.892   0.255  10.196 -0.0631 -0.1341 -0.0336
  809MPD2    C411912   2.759   0.282  10.169 -0.9908  0.2902 -0.3128
  809MPD2    C511913   2.700   0.214  10.062 -0.5912  0.4116 -0.2747
  809MPD2     H11914   3.062   0.149  10.131  0.3473 -0.9796 -2.8947
  809MPD2    H111915   2.694   0.348  10.226 -2.0432 -1.9518  1.0841
  809MPD2    H211916   2.722   0.091   9.895 -0.2625 -0.9156  0.8604
  809MPD2    H311917   2.598   0.242  10.039 -0.6676  0.0052 -0.4290
  809MPD2     N11918   2.969   0.302  10.304  0.3252  0.6866  0.4355
  809MPD2    H511919   3.063   0.263  10.311  0.8227  1.7938  0.0045
  809MPD2    N111920   2.978   0.017   9.932  0.0553 -0.0715 -0.9344
  809MPD2    H711921   3.077   0.024   9.950  0.0855 -2.4713 -0.2359
  810MPD2     C11922   2.933   3.215  10.336  0.0158 -0.0001  0.0053
  810MPD2    C111923   2.816   3.171  10.394 -0.3720 -0.3194 -0.4473
  810MPD2    C211924   2.750   3.261  10.480  0.2809  0.3406  0.4960
  810MPD2    C311925   2.791   3.394  10.499  0.8029 -0.0984 -0.1785
  810MPD2    C411926   2.912   3.428  10.445 -0.2871 -0.2600  0.3124
  810MPD2    C511927   2.980   3.340  10.367 -0.3654 -0.0803  0.8275
  810MPD2     H11928   2.661   3.217  10.523 -0.1307  1.7186  1.0458
  810MPD2    H111929   2.949   3.530  10.447 -1.5913  0.2388 -0.9163
  810MPD2    H211930   2.994   3.151  10.275  1.0836  0.1411  0.9202
  810MPD2    H311931   3.075   3.385  10.337 -0.8536 -0.1744 -0.8492
  810MPD2     N11932   2.722   3.490  10.575 -0.5925 -0.2745 -0.2201
  810MPD2    H511933   2.777   3.575  10.587  2.6931 -2.1391 -2.2903
  810MPD2    N111934   2.786   3.030  10.372  0.3877  0.0166  0.6592
  810MPD2    H711935   2.867   2.975  10.343  0.4372 -0.1204  1.0490
  811MPD2     C11936   2.320   3.455  10.009  0.4161  0.3489  0.2751
  811MPD2    C111937   2.333   3.462  10.143 -0.6193  0.6134 -1.2396
  811MPD2    C211938   2.303   3.588  10.202 -0.1242 -0.1861 -0.2644
  811MPD2    C311939   2.257   3.697  10.130  0.0084 -0.4006 -0.9316
  811MPD2    C411940   2.247   3.681   9.995 -0.2496 -0.1718  0.1654
  811MPD2    C511941   2.277   3.565   9.931  0.4594  0.3609  0.2130
  811MPD2     H11942   2.317   3.609  10.307 -1.3564 -1.3365  0.1225
  811MPD2    H111943   2.208   3.760   9.932  0.8102 -1.4012 -2.0128
  811MPD2    H211944   2.355   3.368   9.956  1.7471  1.4183 -0.6260
  811MPD2    H311945   2.265   3.545   9.825  0.9756  2.2942 -0.2056
  811MPD2     N11946   2.209   3.815  10.202 -0.4222  0.0074  0.0980
  811MPD2    H511947   2.241   3.820  10.298  0.2527 -1.1943 -0.0611
  811MPD2    N111948   2.375   3.344  10.211  0.1266  0.5643  0.6412
  811MPD2    H711949   2.402   3.267  10.151 -4.0931 -0.8650  0.5464
  812MPD2     C11950   1.302   3.646  12.667 -0.4875  0.2845  0.1786
  812MPD2    C111951   1.177   3.588  12.699 -0.7295  0.4894  0.1756
  812MPD2    C211952   1.165   3.504  12.810 -0.1460 -0.3103 -0.3090
  812MPD2    C311953   1.284   3.474  12.879 -0.2010 -0.2049  0.5291
  812MPD2    C411954   1.404   3.533  12.853  0.0082  0.4374  0.3180
  812MPD2    C511955   1.413   3.611  12.740 -0.3831  0.1726 -0.1491
  812MPD2     H11956   1.068   3.461  12.833 -1.2709  0.1802 -4.1464
  812MPD2    H111957   1.492   3.511  12.912  0.5979 -1.7356 -1.3404
  812MPD2    H211958   1.316   3.718  12.587  0.6567 -1.0202 -0.7869
  812MPD2    H311959   1.507   3.657  12.714  0.6898 -0.3309  2.7782
  812MPD2     N11960   1.264   3.385  12.985  0.4533  0.1344 -0.2222
  812MPD2    H511961   1.173   3.382  13.030  0.0952 -0.7590 -1.0214
  812MPD2    N111962   1.067   3.632  12.620  0.4538  0.0888 -0.5251
  812MPD2    H711963   1.100   3.674  12.534 -0.7762 -1.0185 -1.5485
  813MPD2     C11964   4.607   0.492  12.891 -0.3230 -1.0005 -0.2218
  813MPD2    C111965   4.658   0.608  12.953  0.2390 -0.5442  0.8022
  813MPD2    C211966   4.651   0.625  13.088 -0.6784  0.1820  0.4324
  813MPD2    C311967   4.592   0.531  13.166 -0.6778 -0.5600  0.1679
  813MPD2    C411968   4.521   0.432  13.107  0.7074  0.1408  0.0195
  813MPD2    C511969   4.531   0.410  12.974  0.0983  0.3422 -0.4522
  813MPD2     H11970   4.707   0.704  13.137  0.0444 -0.1119  0.0847
  813MPD2    H111971   4.457   0.368  13.166  0.1370  0.1797 -0.5632
  813MPD2    H211972   4.620   0.470  12.785  0.3739  0.4600 -0.4393
  813MPD2    H311973   4.482   0.324  12.930  1.1063  0.5860 -2.0509
  813MPD2     N11974   4.604   0.551  13.307 -0.2684 -0.4595 -0.0385
  813MPD2    H511975   4.620   0.645  13.341 -1.1370 -0.3809  0.1606
  813MPD2    N111976   0.018   0.688  12.875 -0.1233  0.2762 -0.0459
  813MPD2    H711977   0.051   0.652  12.787 -3.3160 -1.1313 -0.6681
  814MPD2     C11978   0.870   1.998  12.331 -0.5462 -0.6471  0.3309
  814MPD2    C111979   0.885   2.091  12.237 -0.8871  0.4149 -0.2849
  814MPD2    C211980   0.982   2.189  12.263 -0.2180  0.2263  0.3397
  814MPD2    C311981   1.065   2.187  12.374 -0.4549  0.4949  0.3897
  814MPD2    C411982   1.041   2.090  12.471 -0.1598 -0.0044 -0.5402
  814MPD2    C511983   0.945   1.996  12.445  0.2065 -0.3580  0.5028
  814MPD2     H11984   1.001   2.257  12.181  2.7660 -1.7673 -0.6413
  814MPD2    H111985   1.099   2.069  12.559 -1.1857 -0.6065 -0.0017
  814MPD2    H211986   0.815   1.906  12.313 -0.0910 -0.8493 -0.0374
  814MPD2    H311987   0.911   1.930  12.525  0.0278 -0.6474  0.1860
  814MPD2     N11988   1.180   2.275  12.386  0.4921  0.4547  0.0990
  814MPD2    H511989   1.250   2.268  12.459  1.6493 -1.4583 -1.2100
  814MPD2    N111990   0.811   2.104  12.115  0.1787  0.0905 -0.3086
  814MPD2    H711991   0.840   2.178  12.052  0.7717 -0.6362 -0.8899
  815MPD2     C11992   1.075   4.277  12.489  0.0183  1.0257  0.0633
  815MPD2    C111993   1.025   4.393  12.428 -0.0959 -0.0182 -0.0722
  815MPD2    C211994   0.897   4.431  12.453 -0.7270  0.7721 -0.6874
  815MPD2    C311995   0.814   4.348  12.530  0.5212  0.4232  0.7152
  815MPD2    C411996   0.855   4.234  12.592 -0.2777  0.6248  0.0321
  815MPD2    C511997   0.986   4.201  12.569  0.2686 -1.0522  0.2719
  815MPD2     H11998   0.864   4.526  12.411 -4.0782  0.7600  1.8833
  815MPD2    H111999   0.804   4.163  12.656  0.6513 -0.5426 -0.5188
  815MPD2    H212000   1.178   4.242  12.481 -0.0799  0.7783 -0.1270
  815MPD2    H312001   1.030   4.118  12.621  1.7440 -0.0828  0.5557
  815MPD2     N12002   0.679   4.392  12.525  0.5361 -0.2765  0.4962
  815MPD2    H512003   0.661   4.478  12.474 -3.0207  0.1975  2.5112
  815MPD2    N112004   1.110   4.463  12.341  0.2446  0.2542 -0.5152
  815MPD2    H712005   1.197   4.419  12.314 -0.8961 -1.0409 -2.1279
  816MPD2     C12006   0.883   4.235  17.142 -0.0407  0.1499 -0.2509
  816MPD2    C112007   0.998   4.306  17.179 -0.2001 -0.3757  0.7562
  816MPD2    C212008   1.122   4.250  17.153  0.3109  0.2601 -0.1618
  816MPD2    C312009   1.130   4.134  17.077  0.1056 -0.7959  0.3248
  816MPD2    C412010   1.016   4.059  17.051 -0.3605  0.7813 -0.3670
  816MPD2    C512011   0.899   4.113  17.090 -0.2853 -0.3225 -1.1503
  816MPD2     H12012   1.212   4.304  17.179  1.2776 -1.4349  0.0085
  816MPD2    H112013   1.029   3.962  17.004 -1.3401 -0.0720  1.1358
  816MPD2    H212014   0.789   4.280  17.172  0.0536  0.8100 -0.9291
  816MPD2    H312015   0.807   4.066  17.058  0.2564 -1.2057 -1.4129
  816MPD2     N12016   1.263   4.105  17.030  0.3784  0.3732 -0.9417
  816MPD2    H512017   1.336   4.171  17.057  0.9663  0.0271 -1.6916
  816MPD2    N112018   0.992   4.436  17.247 -0.1369  0.3634  0.1464
  816MPD2    H712019   0.902   4.483  17.234  0.0480  0.5612 -0.4085
  817MPD2     C12020   0.975   1.928  10.405  0.4875  0.1181 -0.2847
  817MPD2    C112021   0.869   1.894  10.327 -0.4715  0.2656  0.0284
  817MPD2    C212022   0.782   1.984  10.267 -0.0586  0.3762  0.7719
  817MPD2    C312023   0.812   2.115  10.277  0.1712  0.5764  0.1653
  817MPD2    C412024   0.926   2.154  10.347 -0.2088 -0.0974  0.4871
  817MPD2    C512025   1.001   2.068  10.417 -0.1798 -0.4742 -0.2464
  817MPD2     H12026   0.686   1.945  10.234  0.1507  1.4228 -1.0814
  817MPD2    H112027   0.958   2.257  10.357 -0.3613 -0.3655  3.5799
  817MPD2    H212028   1.039   1.855  10.452 -3.0545 -0.8717  3.0323
  817MPD2    H312029   1.093   2.094  10.467  0.9698 -2.0213 -1.5778
  817MPD2     N12030   0.726   2.209  10.222 -0.1546 -0.5216 -0.4887
  817MPD2    H512031   0.655   2.165  10.165 -0.0374 -1.1305 -0.1666
  817MPD2    N112032   0.832   1.760  10.292  0.0125  0.0240  0.1697
  817MPD2    H712033   0.757   1.738  10.228 -0.5980 -0.0170  0.9006
  818MPD2     C12034   0.730   0.930  10.458  1.0970 -0.6034 -0.3902
  818MPD2    C112035   0.593   0.910  10.442 -0.1058 -0.0823 -0.2428
  818MPD2    C212036   0.533   0.791  10.485  0.3005  0.1404 -0.1690
  818MPD2    C312037   0.606   0.697  10.550  0.3364 -0.3094  0.1590
  818MPD2    C412038   0.742   0.709  10.554 -0.3223  0.1521 -0.6743
  818MPD2    C512039   0.806   0.825  10.504 -0.3584  0.6589  0.1850
  818MPD2     H12040   0.430   0.770  10.458 -0.3732  0.8660  1.8069
  818MPD2    H112041   0.820   0.645  10.593 -2.5059 -2.8466 -1.1901
  818MPD2    H212042   0.771   1.027  10.431 -1.4415  0.7976  0.8043
  818MPD2    H312043   0.912   0.840  10.514 -0.2617 -1.9788  3.0061
  818MPD2     N12044   0.531   0.589  10.599 -0.7484 -0.5808 -0.1539
  818MPD2    H512045   0.436   0.574  10.568 -0.6678  0.3136 -0.8395
  818MPD2    N112046   0.502   1.006  10.392  0.1586  0.1612 -0.3125
  818MPD2    H712047   0.403   0.986  10.397  0.2396  0.2854  1.8722
  819MPD2     C12048   2.581   2.414  15.659  0.4362 -0.1067 -0.9795
  819MPD2    C112049   2.693   2.329  15.665  0.4768 -0.7246 -0.2658
  819MPD2    C212050   2.816   2.366  15.718  0.2942 -0.2580  0.8954
  819MPD2    C312051   2.826   2.489  15.787 -0.4110 -0.5245  0.1675
  819MPD2    C412052   2.715   2.571  15.795 -0.0612 -0.1179  0.5108
  819MPD2    C512053   2.599   2.532  15.725 -0.6334  1.2101  0.8980
  819MPD2     H12054   2.897   2.294  15.722  1.9761  1.5063 -1.2365
  819MPD2    H112055   2.717   2.670  15.839 -2.6289 -0.3501  1.1564
  819MPD2    H212056   2.489   2.387  15.608 -0.9736  1.3291  0.8131
  819MPD2    H312057   2.519   2.604  15.711 -1.7114 -0.1204  0.2867
  819MPD2     N12058   2.956   2.519  15.843  0.8713 -0.4921 -0.2306
  819MPD2    H512059   3.029   2.450  15.832 -0.5585 -2.2110  1.0293
  819MPD2    N112060   2.666   2.201  15.606 -0.5943  0.4054 -0.4154
  819MPD2    H712061   2.577   2.194  15.557 -2.1416  0.2087  2.3802
  820MPD2     C12062   2.034   1.886  14.997 -0.3719  0.7081  0.3932
  820MPD2    C112063   2.060   1.984  15.088 -0.2437 -0.0080 -0.6678
  820MPD2    C212064   2.146   1.951  15.188 -0.5634  0.0077 -0.0796
  820MPD2    C312065   2.206   1.823  15.199  0.3870  0.6683  0.4994
  820MPD2    C412066   2.189   1.732  15.098 -0.3853 -0.6033  0.2271
  820MPD2    C512067   2.101   1.761  14.998 -0.4016  0.1872 -0.4636
  820MPD2     H12068   2.177   2.030  15.254  1.1116 -0.0352 -0.8344
  820MPD2    H112069   2.240   1.637  15.087  2.7488  1.2507 -0.9827
  820MPD2    H212070   1.967   1.897  14.913  0.4931  2.7869 -0.0379
  820MPD2    H312071   2.088   1.689  14.919  2.6332  0.4825 -1.2513
  820MPD2     N12072   2.307   1.800  15.303 -0.5511  0.4135 -0.1016
  820MPD2    H512073   2.366   1.718  15.308 -2.4340 -0.8579  1.0344
  820MPD2    N112074   1.993   2.109  15.076 -0.1817  0.3067 -0.1995
  820MPD2    H712075   1.922   2.111  15.003 -1.8606  2.1439  1.4845
  821MPD2     C12076   2.462   4.135  13.741 -0.5100 -0.1866 -0.0277
  821MPD2    C112077   2.526   4.017  13.711  0.8418  0.9545 -0.3388
  821MPD2    C212078   2.567   3.993  13.585 -0.8936 -0.1056  0.2441
  821MPD2    C312079   2.562   4.097  13.497  0.0521  0.8789 -0.3225
  821MPD2    C412080   2.498   4.217  13.518 -0.0422  0.4507 -0.1130
  821MPD2    C512081   2.439   4.232  13.645 -0.0695 -0.4142  0.1439
  821MPD2     H12082   2.631   3.908  13.566 -0.7626  0.2939 -1.1449
  821MPD2    H112083   2.492   4.301  13.450  1.2660  2.8033  2.6653
  821MPD2    H212084   2.416   4.159  13.836  0.9388 -1.1847  0.9152
  821MPD2    H312085   2.390   4.325  13.673 -0.9794 -1.4317  1.9671
  821MPD2     N12086   2.638   4.101  13.377  0.6315 -0.0344 -0.5353
  821MPD2    H512087   2.614   4.176  13.313  1.4382 -1.2805 -2.2912
  821MPD2    N112088   2.557   3.920  13.806 -0.8597  0.1732 -0.1670
  821MPD2    H712089   2.583   3.824  13.786 -1.7286 -0.2795  0.9082
  822MPD2     C12090   3.772   3.786  15.997  0.2015 -0.4874 -0.0536
  822MPD2    C112091   3.854   3.882  16.056 -0.0212  0.9392  0.1137
  822MPD2    C212092   3.801   3.996  16.098  0.5582 -0.2394 -0.2283
  822MPD2    C312093   3.671   4.023  16.081 -0.8054 -0.0977  0.5762
  822MPD2    C412094   3.589   3.938  16.019 -0.2372  0.1053  0.0246
  822MPD2    C512095   3.640   3.819  15.981  1.0225  0.1231 -0.7097
  822MPD2     H12096   3.869   4.058  16.156  0.8024 -0.7691  0.0566
  822MPD2    H112097   3.483   3.958  16.014  0.1484  3.2397  3.9847
  822MPD2    H212098   3.815   3.690  15.971 -0.0912 -0.1401 -1.8146
  822MPD2    H312099   3.580   3.738  15.942  1.2711 -0.0124 -0.8073
  822MPD2     N12100   3.608   4.149  16.109 -0.0784 -0.3419  0.1765
  822MPD2    H512101   3.507   4.151  16.107 -0.0597 -0.1510 -0.6933
  822MPD2    N112102   3.989   3.858  16.102  0.1899 -0.2297 -0.5631
  822MPD2    H712103   4.018   3.919  16.178  3.1130 -0.4204 -1.5282
  823MPD2     C12104   3.402   4.564  16.825  0.1487 -0.8914 -0.1465
  823MPD2    C112105   3.420   4.457  16.742 -0.3171  0.3176  0.5098
  823MPD2    C212106   3.421   4.327  16.796 -0.4721 -0.6580 -0.1883
  823MPD2    C312107   3.460   4.311  16.927 -1.1361 -0.6409 -0.4609
  823MPD2    C412108   3.457   4.418  17.006  0.1377  0.5149  0.5049
  823MPD2    C512109   3.423   4.544  16.957  0.6338 -0.7219  0.1049
  823MPD2     H12110   3.413   4.237  16.737 -1.6593 -1.7107  1.5927
  823MPD2    H112111   3.492   4.418  17.109 -0.4089 -2.4487  0.6887
  823MPD2    H212112   3.376   4.661  16.785  1.1900  0.2003  1.8605
  823MPD2    H312113   3.429   4.633  17.020  0.2667  1.0201 -2.2964
  823MPD2     N12114   3.504   4.187  16.984  0.0251 -0.0089  0.5895
  823MPD2    H512115   3.531   4.191  17.081 -1.5316 -2.4813  1.1113
  823MPD2    N112116   3.424   4.476  16.602  0.2371 -0.5755 -0.4507
  823MPD2    H712117   3.435   4.571  16.567  0.8535 -0.5540 -0.2059
  824MPD2     C12118   4.571   3.195  16.215 -0.4426 -0.2089 -0.7094
  824MPD2    C112119   4.477   3.229  16.121 -0.2239  0.6519  0.0057
  824MPD2    C212120   4.460   3.150  16.008  0.3289 -0.1671 -0.2411
  824MPD2    C312121   4.534   3.034  15.989 -0.0728 -0.4462 -0.4361
  824MPD2    C412122   4.611   2.990  16.094 -0.4268 -0.1799  0.2030
  824MPD2    C512123   4.627   3.067  16.210  0.7370 -0.4054 -0.1426
  824MPD2     H12124   4.393   3.184  15.930 -1.0501 -0.6445  0.7215
  824MPD2    H112125   4.663   2.895  16.089 -1.6595 -0.9594  2.3335
  824MPD2    H212126   4.588   3.238  16.312  1.4658  2.2805 -2.1438
  824MPD2    H312127   4.701   3.042  16.285  0.1513 -0.7916  0.3044
  824MPD2     N12128   4.536   2.972  15.862 -0.0282  0.1541  0.2930
  824MPD2    H512129   4.466   2.995  15.793  2.1275 -0.3209 -2.0666
  824MPD2    N112130   4.398   3.352  16.133 -0.1835 -0.3872  0.0783
  824MPD2    H712131   4.310   3.347  16.083 -0.0833 -1.8317  0.0446
  825MPD2     C12132   4.574   3.008  15.034 -1.0799 -0.1647 -0.4601
  825MPD2    C112133   4.619   3.067  15.146 -0.2310 -0.2395 -0.1383
  825MPD2    C212134   4.703   3.177  15.132 -0.5055 -0.7887  1.1814
  825MPD2    C312135   0.004   3.233  15.012 -0.4248  0.0762 -0.0151
  825MPD2    C412136   4.685   3.171  14.900  0.2417  1.0834 -0.1331
  825MPD2    C512137   4.605   3.062  14.914  0.8117  0.0714  0.7575
  825MPD2     H12138   4.717   3.235  15.222 -3.5850  2.3145 -0.3264
  825MPD2    H112139   4.694   3.219  14.803 -1.2108  0.3007 -0.6405
  825MPD2    H212140   4.505   2.924  15.040 -1.1766 -0.0038  0.6658
  825MPD2    H312141   4.569   3.023  14.819  2.9778 -1.6539  0.6322
  825MPD2     N12142   0.084   3.351  14.988 -0.4267  0.1930 -0.2091
  825MPD2    H512143   0.066   3.397  14.899  0.5378  1.9241  0.4865
  825MPD2    N112144   4.591   2.999  15.261  0.0264 -0.1861  0.2295
  825MPD2    H712145   4.540   2.911  15.259 -2.7532  1.4076  1.1724
  826MPD2     C12146   4.135   3.305  13.922  0.7284 -0.2837 -0.1768
  826MPD2    C112147   4.060   3.196  13.871  0.3350  0.6013 -0.1077
  826MPD2    C212148   3.936   3.187  13.927 -0.9016 -0.9240  0.1708
  826MPD2    C312149   3.890   3.277  14.030  0.1716  1.0538 -0.3103
  826MPD2    C412150   3.974   3.366  14.084  0.6312 -0.3328 -0.3116
  826MPD2    C512151   4.101   3.377  14.027  0.3213 -0.1109 -0.0483
  826MPD2     H12152   3.868   3.111  13.891 -3.3787  1.4746 -0.2362
  826MPD2    H112153   3.948   3.426  14.170 -0.4336 -0.2180 -0.7203
  826MPD2    H212154   4.228   3.324  13.869  0.4215  0.0408 -0.6072
  826MPD2    H312155   4.170   3.455  14.056 -2.5524  2.3042  0.2569
  826MPD2     N12156   3.758   3.288  14.080  0.4759  0.1254  0.2591
  826MPD2    H512157   3.745   3.367  14.143  0.5780 -0.1061  0.5664
  826MPD2    N112158   4.098   3.119  13.761 -0.1965  0.4234  0.4395
  826MPD2    H712159   4.028   3.067  13.710 -0.0216  1.2445 -0.6458
  827MPD2     C12160   4.561   4.574  10.408 -0.5550  0.0560  0.3782
  827MPD2    C112161   4.571   4.451  10.473  0.6070  0.2698 -0.0822
  827MPD2    C212162   4.485   4.354  10.438 -0.8155  0.1107  0.5380
  827MPD2    C312163   4.394   4.361  10.336 -0.0066 -0.2345 -0.7184
  827MPD2    C412164   4.382   4.487  10.278  0.5970  0.3623 -0.3717
  827MPD2    C512165   4.461   4.589  10.317 -0.3778  0.1807 -0.4280
  827MPD2     H12166   4.495   4.256  10.483  1.3651  0.4108  0.7095
  827MPD2    H112167   4.311   4.519  10.203  0.0178 -0.9256 -0.3725
  827MPD2    H212168   4.630   4.653  10.435 -0.2995  0.4823 -1.5528
  827MPD2    H312169   4.458   4.688  10.272  1.4123  1.1494  1.5745
  827MPD2     N12170   4.320   4.242  10.316  0.9111  0.0962  0.9579
  827MPD2    H512171   4.335   4.157  10.369  0.5922 -0.8308 -0.4622
  827MPD2    N112172   4.664   4.448  10.580 -0.5026  0.6138  0.2219
  827MPD2    H712173   4.715   4.535  10.594  1.2155  0.2648 -3.6318
  828MPD2     C12174   3.426   4.164  12.316  0.5167  0.4297  0.0942
  828MPD2    C112175   3.428   4.106  12.188  0.6061 -0.7204  0.2853
  828MPD2    C212176   3.534   4.130  12.110  0.0559  0.6280  0.2922
  828MPD2    C312177   3.640   4.210  12.142  0.4549  0.7012 -0.2100
  828MPD2    C412178   3.640   4.266  12.270  0.3790 -0.8473  0.9215
  828MPD2    C512179   3.538   4.235  12.354  0.1729 -0.6441  1.2781
  828MPD2     H12180   3.543   4.079  12.015  1.9503  1.2499  0.1414
  828MPD2    H112181   3.721   4.330  12.305 -0.1300 -0.1063  0.7387
  828MPD2    H212182   3.361   4.146  12.401  1.3387 -2.0284  0.2120
  828MPD2    H312183   3.546   4.256  12.460  1.4047 -1.3812  1.3429
  828MPD2     N12184   3.756   4.220  12.063  0.3319  0.0814 -0.8428
  828MPD2    H512185   3.834   4.269  12.106  0.6798  0.9748 -2.5000
  828MPD2    N112186   3.324   4.027  12.135  0.4394  0.8263 -0.5404
  828MPD2    H712187   3.337   3.993  12.040 -0.7410  1.8733 -1.0624
  829MPD2     C12188   2.673   4.338  11.600 -1.0689  0.1800  0.3852
  829MPD2    C112189   2.622   4.300  11.719  1.0738 -0.2751  0.2645
  829MPD2    C212190   2.686   4.208  11.800 -0.0403  0.4408 -0.9371
  829MPD2    C312191   2.807   4.154  11.753  0.5047 -0.5022  1.2723
  829MPD2    C412192   2.861   4.193  11.633 -0.0277  0.4877  0.5294
  829MPD2    C512193   2.789   4.278  11.551 -0.0626 -0.5935  0.1312
  829MPD2     H12194   2.643   4.173  11.893 -1.0002 -2.5255 -2.5255
  829MPD2    H112195   2.954   4.148  11.601  0.0246 -0.8785  2.6292
  829MPD2    H212196   2.621   4.404  11.531 -2.1634 -0.7395  0.3270
  829MPD2    H312197   2.822   4.311  11.453 -1.5730 -1.2586 -0.6002
  829MPD2     N12198   2.872   4.057  11.832 -0.0722 -0.5724 -0.0402
  829MPD2    H512199   2.813   4.027  11.909 -0.1343 -1.9249 -0.6146
  829MPD2    N112200   2.483   4.345  11.738  0.6729  0.1304 -0.1474
  829MPD2    H712201   2.431   4.381  11.659  0.1216 -0.7066 -0.1663
  830MPD2     C12202   3.629   2.208  16.041  0.8146  0.4973 -1.1828
  830MPD2    C112203   3.552   2.237  15.934 -0.5232 -0.5704  0.0517
  830MPD2    C212204   3.568   2.158  15.822 -0.8425  0.4269  0.5873
  830MPD2    C312205   3.677   2.073  15.798  0.0565 -0.0358  0.2604
  830MPD2    C412206   3.753   2.052  15.905  0.2469  0.5559 -0.9911
  830MPD2    C512207   3.728   2.114  16.027 -0.7309  0.1062 -0.5339
  830MPD2     H12208   3.502   2.173  15.737 -0.2599  1.4527  0.3180
  830MPD2    H112209   3.846   1.996  15.906  0.0554  0.2583  0.7190
  830MPD2    H212210   3.608   2.245  16.141  0.4917  0.0365 -1.0767
  830MPD2    H312211   3.791   2.080  16.108 -2.6337  0.8265  1.2589
  830MPD2     N12212   3.712   2.026  15.671  0.2580 -0.2123  0.2439
  830MPD2    H512213   3.801   1.978  15.669 -0.1324 -0.9201 -0.1739
  830MPD2    N112214   3.469   2.349  15.950 -0.1604 -0.1596 -0.4408
  830MPD2    H712215   3.453   2.379  16.046 -0.1200  3.0500 -1.4270
  831MPD2     C12216   3.874   4.371  16.492  0.6469  0.1631  0.3540
  831MPD2    C112217   3.916   4.268  16.417  0.3231  0.4038  0.1864
  831MPD2    C212218   3.854   4.144  16.429  0.2733  0.6054 -0.1870
  831MPD2    C312219   3.739   4.129  16.503  0.9434  0.0741 -0.1759
  831MPD2    C412220   3.708   4.238  16.585  0.4535  0.8405  0.3162
  831MPD2    C512221   3.765   4.358  16.571 -0.4950 -0.5785  0.1706
  831MPD2     H12222   3.888   4.069  16.359  2.4929 -0.8325  2.4414
  831MPD2    H112223   3.618   4.234  16.644  0.7247 -0.8882  0.6360
  831MPD2    H212224   3.913   4.470  16.472  0.3143  0.0711 -0.7703
  831MPD2    H312225   3.723   4.446  16.618  1.2529  0.5918 -0.4596
  831MPD2     N12226   3.657   4.020  16.499  0.1218  0.1991 -0.2436
  831MPD2    H512227   3.575   4.024  16.558  0.6094  0.0531  0.4481
  831MPD2    N112228   4.020   4.283  16.322  0.1135 -0.0561  0.0483
  831MPD2    H712229   4.057   4.378  16.315 -0.9340  0.3428 -0.2109
  832MPD2     C12230   2.003   0.669   0.164  0.1151  0.2518  0.5000
  832MPD2    C112231   2.051   0.774   0.094  0.0620  0.3142  0.8684
  832MPD2    C212232   1.990   0.812  17.668 -0.0297  0.0860  0.0168
  832MPD2    C312233   1.894   0.730  17.607 -0.1449  0.2833 -0.3837
  832MPD2    C412234   1.841   0.628  17.685  0.1039 -0.5028  0.7342
  832MPD2    C512235   1.900   0.594   0.110 -0.1511  0.5215 -0.0296
  832MPD2     H12236   2.032   0.889  17.605 -2.2220  1.1300 -0.1723
  832MPD2    H112237   1.755   0.569  17.657  0.6951 -0.6819 -0.6817
  832MPD2    H212238   2.043   0.633   0.258  0.1611 -0.4486  0.2146
  832MPD2    H312239   1.865   0.514   0.174  0.7657 -0.8854 -1.2796
  832MPD2     N12240   1.837   0.747  17.478  0.4083  0.2506 -0.1941
  832MPD2    H512241   1.773   0.671  17.457 -1.0254  0.6451  2.7082
  832MPD2    N112242   2.160   0.838   0.156 -0.1386 -0.2217  0.4217
  832MPD2    H712243   2.180   0.813   0.252  1.0686 -2.2860 -0.3756
  833MPD2     C12244   4.106   1.466  12.539  0.3894 -0.7070  0.3182
  833MPD2    C112245   4.175   1.554  12.456  0.6675  0.2643  0.6227
  833MPD2    C212246   4.170   1.521  12.322 -0.9628 -0.0798 -0.2612
  833MPD2    C312247   4.095   1.422  12.273  1.0762 -0.4800  0.2453
  833MPD2    C412248   4.027   1.337  12.353 -0.0889  0.3905  0.2559
  833MPD2    C512249   4.029   1.366  12.485 -0.3276 -0.5349 -0.4297
  833MPD2     H12250   4.228   1.585  12.255 -1.1230  0.8333  0.4700
  833MPD2    H112251   3.959   1.264  12.309 -0.9065  0.8222  0.7994
  833MPD2    H212252   4.107   1.474  12.647 -0.0763  0.1005  0.2590
  833MPD2    H312253   3.986   1.309  12.566 -1.4919 -0.8944 -1.2861
  833MPD2     N12254   4.092   1.416  12.136  0.4162 -0.4157  0.0183
  833MPD2    H512255   4.135   1.496  12.090  2.7360 -1.1882  0.8013
  833MPD2    N112256   4.232   1.666  12.515  0.3523 -0.6419 -0.4076
  833MPD2    H712257   4.234   1.681  12.615  1.6020 -1.2576 -0.3346
  834MPD2     C12258   3.685   1.555  11.170 -0.3450  0.6310  0.0221
  834MPD2    C112259   3.821   1.551  11.162  0.0728  0.3444  0.1554
  834MPD2    C212260   3.893   1.560  11.278 -0.1346 -0.4682  0.2049
  834MPD2    C312261   3.834   1.538  11.403  0.5465 -0.0062 -0.0464
  834MPD2    C412262   3.694   1.529  11.409  0.6425 -0.0908  0.6849
  834MPD2    C512263   3.626   1.541  11.295 -0.4797  0.7815  0.3182
  834MPD2     H12264   4.000   1.575  11.274 -0.4115  1.3490 -0.2369
  834MPD2    H112265   3.640   1.524  11.503 -0.1712  1.8031  0.3270
  834MPD2    H212266   3.631   1.541  11.078  0.6515 -2.8438 -0.0183
  834MPD2    H312267   3.519   1.526  11.305 -0.2073 -0.4899  1.2457
  834MPD2     N12268   3.920   1.538  11.517 -0.2062  0.1584  0.6463
  834MPD2    H512269   4.019   1.554  11.498  0.3549 -2.1220  1.5851
  834MPD2    N112270   3.876   1.543  11.032  0.4031 -0.1949 -0.4879
  834MPD2    H712271   3.806   1.532  10.959 -0.8086  2.4857  0.2862
  835MPD2     C12272   4.239   4.200  11.475  0.4092  0.4842 -0.1730
  835MPD2    C112273   4.121   4.277  11.489 -0.6471 -0.2303 -0.1617
  835MPD2    C212274   4.102   4.352  11.609  0.2273 -0.8019  0.1055
  835MPD2    C312275   4.202   4.344  11.710 -0.1591 -0.2947  0.1351
  835MPD2    C412276   4.311   4.263  11.691 -0.4172 -0.6280 -0.4816
  835MPD2    C512277   4.333   4.190  11.575 -0.4313 -0.6669 -0.5671
  835MPD2     H12278   4.015   4.417  11.610  0.4504 -0.4908 -0.4089
  835MPD2    H112279   4.393   4.256  11.762  1.1195  2.5761 -1.9629
  835MPD2    H212280   4.264   4.168  11.374  1.1236 -1.1109  0.4961
  835MPD2    H312281   4.423   4.132  11.562 -0.3521 -0.3712 -1.3484
  835MPD2     N12282   4.195   4.409  11.834 -0.2741  0.2362  0.4460
  835MPD2    H512283   4.283   4.414  11.884  0.5067  1.4596 -1.0677
  835MPD2    N112284   4.022   4.292  11.393  0.6643 -0.1727  0.2608
  835MPD2    H712285   3.963   4.374  11.402  0.1471 -0.5617  0.3583
  836MPD2     C12286   3.823   0.221  12.523  0.4827 -0.4461  0.4502
  836MPD2    C112287   3.818   0.128  12.421  0.4397 -0.1322 -0.2627
  836MPD2    C212288   3.700   0.055  12.404  0.0693  0.3476 -0.2964
  836MPD2    C312289   3.581   0.088  12.476  0.0218 -0.2365 -0.0367
  836MPD2    C412290   3.586   0.179  12.579 -0.3303  0.8001 -0.1335
  836MPD2    C512291   3.707   0.244  12.595  0.5547 -0.4707 -0.5122
  836MPD2     H12292   3.696   4.700  12.330 -0.4594  0.3822 -0.3051
  836MPD2    H112293   3.503   0.214  12.638  0.4506  0.6351  1.0575
  836MPD2    H212294   3.906   0.290  12.533 -1.6165  2.3400 -1.0223
  836MPD2    H312295   3.721   0.319  12.672  2.3805 -0.6792 -0.6431
  836MPD2     N12296   3.459   0.021  12.448  0.1800  0.5827 -0.5284
  836MPD2    H512297   3.386   0.027  12.519 -0.0082  0.5638 -0.7226
  836MPD2    N112298   3.935   0.104  12.340  0.6027 -0.1460 -0.0638
  836MPD2    H712299   4.020   0.153  12.367 -1.0353  2.7067 -0.1136
  837MPD2     C12300   2.486   4.418  10.194 -0.1129  0.2061 -0.2922
  837MPD2    C112301   2.370   4.416  10.264  0.8725 -0.2810 -0.1260
  837MPD2    C212302   2.304   4.538  10.283 -0.0076 -0.4586 -0.0528
  837MPD2    C312303   2.346   4.651  10.222 -0.1775 -0.4823  0.3106
  837MPD2    C412304   2.457   4.649  10.138 -0.2197 -0.1164 -1.5103
  837MPD2    C512305   2.530   4.534  10.137 -0.0375 -0.0876  0.3251
  837MPD2     H12306   2.212   4.546  10.340 -0.4076  0.4633 -0.8356
  837MPD2    H112307   2.499   0.014  10.093  1.4233 -0.7557 -1.2202
  837MPD2    H212308   2.554   4.333  10.197 -1.2662 -0.7395 -1.0771
  837MPD2    H312309   2.627   4.527  10.089 -0.0004  2.3349  0.0835
  837MPD2     N12310   2.259   0.036  10.242  0.0147 -0.1048  0.0845
  837MPD2    H512311   2.188   0.029  10.314 -0.7954  2.4677 -0.4828
  837MPD2    N112312   2.313   4.297  10.314 -0.1629 -0.6564 -0.1020
  837MPD2    H712313   2.370   4.213  10.307  1.1155  0.0580  1.7517
  838MPD2     C12314   1.315   2.880  11.817  0.1935  0.9919 -0.2484
  838MPD2    C112315   1.203   2.801  11.782  0.2662  0.7501 -0.7287
  838MPD2    C212316   1.124   2.757  11.879  0.0212 -0.1782 -0.2629
  838MPD2    C312317   1.148   2.782  12.009 -0.5076  0.2924 -0.6220
  838MPD2    C412318   1.263   2.858  12.043 -0.2431  0.0892  0.2493
  838MPD2    C512319   1.342   2.913  11.950  0.1272  1.0162 -0.1865
  838MPD2     H12320   1.031   2.707  11.857 -0.4951  0.4096  0.5724
  838MPD2    H112321   1.271   2.893  12.146 -0.0434 -0.8769  0.5608
  838MPD2    H212322   1.380   2.928  11.744  0.1197  0.9270 -0.3551
  838MPD2    H312323   1.424   2.977  11.980 -0.1723  1.2043  0.2300
  838MPD2     N12324   1.057   2.755  12.119 -0.2979  0.2897  0.5858
  838MPD2    H512325   1.084   2.795  12.208 -0.6406  1.7071  0.0568
  838MPD2    N112326   1.179   2.757  11.648  0.0551 -0.1066 -0.1653
  838MPD2    H712327   1.088   2.713  11.639  0.3062 -1.0163  1.8237
  839MPD2     C12328   0.504   2.419  11.601  0.4689  0.0049  0.5265
  839MPD2    C112329   0.541   2.379  11.476  0.1784  0.0252 -0.1126
  839MPD2    C212330   0.667   2.391  11.433 -0.8507 -0.4088  0.5122
  839MPD2    C312331   0.766   2.446  11.511  0.1254  0.8426 -0.7828
  839MPD2    C412332   0.726   2.488  11.639 -0.0979  0.6675  0.6416
  839MPD2    C512333   0.598   2.473  11.681  0.3804 -0.5372 -0.5833
  839MPD2     H12334   0.705   2.348  11.341  0.6438 -0.4938  1.1580
  839MPD2    H112335   0.803   2.515  11.710  0.0429  1.9712 -0.0069
  839MPD2    H212336   0.403   2.408  11.637  1.1928 -0.5064  2.3841
  839MPD2    H312337   0.563   2.505  11.778  1.7354 -1.4432  0.2023
  839MPD2     N12338   0.899   2.469  11.468  0.1518 -0.3688  0.8545
  839MPD2    H512339   0.961   2.534  11.516  0.2761  0.2728 -0.1860
  839MPD2    N112340   0.460   2.303  11.394 -0.4316  0.1598 -0.3869
  839MPD2    H712341   0.501   2.256  11.314 -1.6601 -0.8782 -0.4129
  840MPD2     C12342   0.538   4.707  10.534 -0.1321  0.3881  0.2255
  840MPD2    C112343   0.518   4.672  10.672  0.3699  0.6963  0.3012
  840MPD2    C212344   0.596   0.013  10.769  0.8018 -0.3348 -0.0045
  840MPD2    C312345   0.707   0.091  10.730 -0.0050  0.1890 -0.4023
  840MPD2    C412346   0.737   0.108  10.595 -0.5017 -0.7381  0.0127
  840MPD2    C512347   0.653   0.061  10.500 -0.3429  0.5058 -0.5142
  840MPD2     H12348   0.563   0.026  10.872  1.9255 -3.2844  0.7337
  840MPD2    H112349   0.831   0.157  10.573  0.4318 -2.0575  1.0864
  840MPD2    H212350   0.472   4.668  10.457  0.9970  0.1517 -0.6252
  840MPD2    H312351   0.671   0.069  10.394 -0.0893  0.8112 -0.4466
  840MPD2     N12352   0.784   0.161  10.826 -0.4748 -0.0107 -0.3241
  840MPD2    H512353   0.853   0.225  10.790 -0.1922 -0.8239 -1.2320
  840MPD2    N112354   0.412   4.590  10.712 -0.0240  0.7181 -0.5578
  840MPD2    H712355   0.355   4.551  10.637 -1.2628  1.0670  0.1999
  841MPD2     C12356   0.794   4.448  15.489  0.6322  0.4113 -0.8794
  841MPD2    C112357   0.809   4.349  15.395 -0.1808  0.1385 -0.3813
  841MPD2    C212358   0.867   4.395  15.273 -0.4270 -0.2502 -0.1545
  841MPD2    C312359   0.899   4.529  15.248 -0.3787  0.1011 -0.2028
  841MPD2    C412360   0.887   4.617  15.353  0.1641  0.1160  0.0155
  841MPD2    C512361   0.831   4.579  15.475  0.4366 -0.2294 -0.3984
  841MPD2     H12362   0.884   4.312  15.206 -1.1035  1.3390 -2.2896
  841MPD2    H112363   0.900   0.000  15.342  1.2076 -0.3110 -2.7045
  841MPD2    H212364   0.753   4.424  15.586  3.7208 -2.3811 -0.2888
  841MPD2    H312365   0.829   4.655  15.553  0.5408 -0.3932 -0.2380
  841MPD2     N12366   0.959   4.561  15.124 -0.9597 -0.1223 -0.1827
  841MPD2    H512367   0.969   4.484  15.058 -0.9829  0.0422 -0.3769
  841MPD2    N112368   0.777   4.215  15.420 -0.8946 -0.0548  0.2324
  841MPD2    H712369   0.792   4.152  15.342  2.1472  0.2134  0.5858
  842MPD2     C12370   1.244   1.294  17.193 -0.0746  0.0928  0.4214
  842MPD2    C112371   1.156   1.201  17.140 -0.8821  0.2960 -0.0063
  842MPD2    C212372   1.147   1.073  17.195  0.1462 -0.0100  0.4984
  842MPD2    C312373   1.215   1.039  17.307  0.2945  0.0204 -0.7500
  842MPD2    C412374   1.293   1.140  17.365  0.7395  0.3072 -0.2927
  842MPD2    C512375   1.312   1.261  17.302  0.4183  0.6163  0.2359
  842MPD2     H12376   1.069   1.007  17.156  0.2654 -0.6697  1.3684
  842MPD2    H112377   1.342   1.120  17.459  1.0262  0.9010 -0.3161
  842MPD2    H212378   1.253   1.399  17.164  1.2687 -0.6924 -2.0230
  842MPD2    H312379   1.378   1.332  17.351 -0.4635  0.2499  1.9527
  842MPD2     N12380   1.199   0.910  17.372  0.3084 -0.1858 -0.3373
  842MPD2    H512381   1.259   0.886  17.451 -0.2172 -1.2942 -0.2798
  842MPD2    N112382   1.085   1.246  17.027  0.0679 -0.2766 -0.4318
  842MPD2    H712383   1.107   1.342  17.002 -1.4891  0.2635  0.2728
  843MPD2     C12384   3.316   0.909   0.877 -0.1364 -0.4657  0.0217
  843MPD2    C112385   3.448   0.897   0.912  0.0427  0.4423 -0.2607
  843MPD2    C212386   3.524   1.012   0.909  0.2151 -0.4928  0.3800
  843MPD2    C312387   3.473   1.135   0.869  0.0106  0.6223  0.0089
  843MPD2    C412388   3.338   1.139   0.833 -0.5895 -0.1177 -0.0876
  843MPD2    C512389   3.266   1.026   0.827  0.8540 -0.2703  0.1675
  843MPD2     H12390   3.625   1.010   0.950  0.0472 -1.2737  0.7586
  843MPD2    H112391   3.293   1.226   0.786  0.3934 -0.5460 -1.8382
  843MPD2    H212392   3.251   0.822   0.872  1.2277 -1.5266  0.7777
  843MPD2    H312393   3.163   1.034   0.795  0.6542 -1.4794  0.5144
  843MPD2     N12394   3.537   1.262   0.875 -0.0617 -0.2928  0.0444
  843MPD2    H512395   3.479   1.337   0.839  1.4474  1.1183  0.5364
  843MPD2    N112396   3.502   0.775   0.955 -0.1223  0.0289 -0.4314
  843MPD2    H712397   3.432   0.706   0.983  0.8339 -0.6939  0.1539
  844MPD2     C12398   1.676   0.357  16.941 -0.6007 -0.1959  0.0908
  844MPD2    C112399   1.786   0.369  16.864 -0.1551 -0.0259  0.4032
  844MPD2    C212400   1.898   0.414  16.928 -0.5366  0.1208  0.7428
  844MPD2    C312401   1.887   0.462  17.060  0.3352 -0.0964  0.0126
  844MPD2    C412402   1.773   0.451  17.133 -0.4839  0.3288  0.3149
  844MPD2    C512403   1.667   0.397  17.070  0.1604 -0.2528 -0.7166
  844MPD2     H12404   1.992   0.423  16.874 -1.1454  2.1225  0.0301
  844MPD2    H112405   1.752   0.503  17.226 -3.0017  0.2147 -0.2004
  844MPD2    H212406   1.581   0.331  16.895 -0.1370 -1.3359 -0.2104
  844MPD2    H312407   1.577   0.384  17.129  0.2870  0.4493 -0.3643
  844MPD2     N12408   2.007   0.512  17.114 -0.0381  0.0509 -0.0800
  844MPD2    H512409   2.082   0.542  17.052 -0.8287  1.2808 -0.4391
  844MPD2    N112410   1.793   0.336  16.728  0.1747  0.0751 -0.3184
  844MPD2    H712411   1.877   0.297  16.686  0.1214 -0.1324 -0.2328
  845MPD2     C12412   2.224   1.450  17.300  0.4086 -0.0399 -0.6458
  845MPD2    C112413   2.160   1.400  17.410 -0.4089  0.2153  0.4092
  845MPD2    C212414   2.170   1.269  17.451  0.0474  0.5778 -0.0862
  845MPD2    C312415   2.232   1.181  17.366  0.5986  0.0995 -0.8748
  845MPD2    C412416   2.309   1.235  17.263 -0.3668  0.2880  0.4513
  845MPD2    C512417   2.309   1.367  17.231 -0.3237 -0.3606 -0.6246
  845MPD2     H12418   2.117   1.230  17.537  0.6757 -1.2364 -0.5147
  845MPD2    H112419   2.376   1.173  17.204 -2.5515  0.0638 -1.7968
  845MPD2    H212420   2.219   1.556  17.275  1.3189  0.5106  1.5254
  845MPD2    H312421   2.378   1.392  17.152  0.3503  2.5155  0.8513
  845MPD2     N12422   2.224   1.044  17.391 -0.2120  0.0368  0.4550
  845MPD2    H512423   2.190   1.023  17.485 -1.8744 -0.3492 -0.2285
  845MPD2    N112424   2.089   1.500  17.475 -0.6101  0.1094  0.2585
  845MPD2    H712425   2.095   1.591  17.430  0.0703 -0.4954 -0.8735
  846MPD2     C12426   3.520   1.317  13.759 -0.2752 -0.1321 -0.4698
  846MPD2    C112427   3.418   1.413  13.791 -0.1342  0.1956 -0.3740
  846MPD2    C212428   3.325   1.376  13.886  0.1426 -0.2197  0.0034
  846MPD2    C312429   3.312   1.251  13.943  0.4003 -0.2722 -0.3697
  846MPD2    C412430   3.407   1.160  13.899 -0.0677  0.1753  1.1774
  846MPD2    C512431   3.507   1.191  13.809 -0.5829 -0.1954  0.6069
  846MPD2     H12432   3.257   1.442  13.938  0.9336 -0.5809  1.4957
  846MPD2    H112433   3.412   1.057  13.932  2.2088 -0.1940 -0.2718
  846MPD2    H212434   3.604   1.352  13.701  0.2206 -1.0531 -0.2984
  846MPD2    H312435   3.584   1.118  13.787 -0.3221  0.3152 -0.1942
  846MPD2     N12436   3.214   1.224  14.042 -0.2115  0.1665 -0.6242
  846MPD2    H512437   3.163   1.304  14.077  1.1059 -0.3478  2.4591
  846MPD2    N112438   3.421   1.552  13.753  0.0143 -0.0931 -0.0880
  846MPD2    H712439   3.357   1.619  13.794 -0.5770 -0.4884 -0.3630
  847MPD2     C12440   3.623   1.891  14.399 -0.5402  0.1046 -0.2079
  847MPD2    C112441   3.682   2.013  14.443  0.2302 -0.5103  0.5850
  847MPD2    C212442   3.789   2.012  14.523 -0.8723  0.0499  0.1809
  847MPD2    C312443   3.850   1.892  14.552 -0.5839  0.7258 -0.2731
  847MPD2    C412444   3.792   1.773  14.515 -0.5370  0.2781 -0.1429
  847MPD2    C512445   3.674   1.770  14.442 -0.0439  0.0833 -0.3234
  847MPD2     H12446   3.834   2.103  14.559 -1.1896  0.2346  0.1087
  847MPD2    H112447   3.839   1.677  14.533  0.2925  0.9775  1.4427
  847MPD2    H212448   3.536   1.896  14.335 -1.8471 -1.9620  1.4205
  847MPD2    H312449   3.626   1.676  14.418 -3.4750  1.2758  1.7840
  847MPD2     N12450   3.962   1.909  14.636  0.3283 -0.0964  0.4209
  847MPD2    H512451   3.980   2.007  14.655  0.3210  0.4713 -2.4671
  847MPD2    N112452   3.627   2.134  14.394 -0.2049  0.3907 -0.4366
  847MPD2    H712453   3.542   2.125  14.340 -0.5165  1.9777 -0.1898
  848MPD2     C12454   2.031   0.922  16.687  0.5594  0.5167 -0.7308
  848MPD2    C112455   1.961   1.012  16.765  0.1764 -0.4611  0.0910
  848MPD2    C212456   1.963   1.142  16.734  0.2926  0.1343  0.2831
  848MPD2    C312457   2.003   1.185  16.611 -0.0447  0.1176  0.3440
  848MPD2    C412458   2.059   1.097  16.526  0.5937 -0.3940 -0.0630
  848MPD2    C512459   2.082   0.978  16.569  0.4815  0.6860  0.2950
  848MPD2     H12460   1.909   1.207  16.803  1.6312  2.4480 -0.8438
  848MPD2    H112461   2.100   1.126  16.430 -0.1731 -0.1790 -0.3251
  848MPD2    H212462   2.055   0.819  16.712  2.2264  0.7803 -1.2339
  848MPD2    H312463   2.144   0.911  16.510 -1.0434 -1.5855  1.2567
  848MPD2     N12464   1.991   1.320  16.564 -0.2136 -0.2412 -0.3592
  848MPD2    H512465   2.022   1.324  16.467 -1.9147  0.7080 -0.8726
  848MPD2    N112466   1.902   0.970  16.885  0.1464 -0.3785 -0.1228
  848MPD2    H712467   1.864   1.044  16.944  1.6357  0.7105 -0.5394
  849MPD2     C12468   0.811   0.148  14.310  0.2855 -0.5696 -0.2667
  849MPD2    C112469   0.875   0.117  14.193  0.6052  0.1585  0.2646
  849MPD2    C212470   0.994   0.048  14.197  0.5041  0.4721 -0.0598
  849MPD2    C312471   1.044   4.722  14.317  0.4446 -0.1424 -0.1956
  849MPD2    C412472   0.980   0.024  14.436  0.0257  0.1146 -0.0903
  849MPD2    C512473   0.867   0.100  14.427 -0.0215  0.6546  0.0706
  849MPD2     H12474   1.047   0.040  14.103  1.7733  0.2095  0.6767
  849MPD2    H112475   1.018   4.720  14.534  0.5399  0.1631 -0.2782
  849MPD2    H212476   0.715   0.197  14.321 -0.3559 -1.5571 -1.4167
  849MPD2    H312477   0.819   0.130  14.520  0.3297 -0.3303  0.5692
  849MPD2     N12478   1.172   4.654  14.310 -0.1991  0.4009 -0.0467
  849MPD2    H512479   1.209   4.635  14.218 -1.9302 -1.3016 -0.3838
  849MPD2    N112480   0.845   0.181  14.074 -0.0849 -0.1147 -0.1397
  849MPD2    H712481   0.891   0.155  13.987 -2.1191  1.3029 -1.6473
  850MPD2     C12482   3.923   3.019  14.773 -0.3087  0.3765 -0.2990
  850MPD2    C112483   3.885   3.069  14.899  0.0561 -0.4155  0.4464
  850MPD2    C212484   3.995   3.108  14.980 -0.6653 -0.8290 -0.0975
  850MPD2    C312485   4.121   3.124  14.935 -1.1207  1.0487  0.0918
  850MPD2    C412486   4.151   3.087  14.801 -0.1745  0.3981 -0.2938
  850MPD2    C512487   4.047   3.044  14.723  0.0839 -0.1830 -0.0260
  850MPD2     H12488   3.965   3.142  15.078 -1.3929 -0.1747 -0.5350
  850MPD2    H112489   4.247   3.086  14.751  0.0029  2.1473  0.0285
  850MPD2    H212490   3.848   2.974  14.709 -0.6966 -0.3608  0.6869
  850MPD2    H312491   4.065   3.002  14.624  1.0325 -0.2653  0.1865
  850MPD2     N12492   4.231   3.164  15.023 -0.2158 -0.0177  0.3564
  850MPD2    H512493   4.322   3.157  14.977 -1.6811 -1.9614 -2.3027
  850MPD2    N112494   3.750   3.076  14.947  0.5596  0.0608 -0.3208
  850MPD2    H712495   3.678   3.024  14.898  0.9645 -1.3396  0.5599
  851MPD2     C12496   3.968   2.751  15.480  0.2220  0.7227 -0.1976
  851MPD2    C112497   3.858   2.729  15.398 -0.1341  0.3509 -0.5665
  851MPD2    C212498   3.831   2.602  15.358 -0.0048 -0.0315 -0.0024
  851MPD2    C312499   3.922   2.500  15.396  0.8032  0.3517 -0.1438
  851MPD2    C412500   4.020   2.524  15.493  0.0346 -0.0409  0.2543
  851MPD2    C512501   4.038   2.652  15.529  0.5711 -0.1441  0.0618
  851MPD2     H12502   3.751   2.575  15.289 -1.7318 -0.8615  2.3174
  851MPD2    H112503   4.079   2.447  15.541 -0.3982 -0.3657  0.2692
  851MPD2    H212504   3.999   2.849  15.515  1.1245  0.4094 -0.1175
  851MPD2    H312505   4.110   2.681  15.605  0.0871  0.3834  0.3203
  851MPD2     N12506   3.898   2.373  15.341  0.1070 -0.1026 -0.2739
  851MPD2    H512507   3.819   2.355  15.279 -0.1471 -1.8715  0.5698
  851MPD2    N112508   3.785   2.845  15.360 -0.4540 -0.3288  0.0397
  851MPD2    H712509   3.814   2.936  15.394  1.4004 -0.6693 -0.6544
  852MPD2     C12510   3.827   1.080   9.246 -0.1488 -0.1463 -0.1898
  852MPD2    C112511   3.778   1.190   9.317 -0.1269  0.7700 -1.0958
  852MPD2    C212512   3.847   1.307   9.291 -0.4612 -0.0246  0.1633
  852MPD2    C312513   3.957   1.318   9.202 -0.6657  0.6980  0.0973
  852MPD2    C412514   3.998   1.204   9.136  0.8045  0.6298  0.5398
  852MPD2    C512515   3.929   1.092   9.156  0.4027  0.7066  0.6969
  852MPD2     H12516   3.810   1.396   9.342  0.2160 -0.9933  2.3376
  852MPD2    H112517   4.079   1.197   9.064  0.1941 -0.0091 -0.0931
  852MPD2    H212518   3.769   0.988   9.245 -1.3421  0.5807  2.4613
  852MPD2    H312519   3.941   1.003   9.095  0.4843  1.2318 -0.0595
  852MPD2     N12520   4.028   1.437   9.205  0.0201  0.7782 -0.2206
  852MPD2    H512521   3.997   1.507   9.271 -0.1903  0.8416 -0.3856
  852MPD2    N112522   3.662   1.184   9.396 -0.1685 -0.1543 -0.4510
  852MPD2    H712523   3.609   1.266   9.423 -0.4538 -0.6329  0.4119
  853MPD2     C12524   4.687   1.078  12.705  0.3260  0.6359 -0.2437
  853MPD2    C112525   0.022   1.206  12.704 -0.4540  0.0847 -0.6134
  853MPD2    C212526   0.067   1.251  12.579 -0.2796 -0.1482 -0.4976
  853MPD2    C312527   0.071   1.166  12.469  0.1335  0.3797 -0.1550
  853MPD2    C412528   0.036   1.032  12.481  0.0902 -0.0718 -0.5623
  853MPD2    C512529   4.697   0.994  12.596  0.0858 -0.3896  0.5345
  853MPD2     H12530   0.097   1.355  12.581 -1.7159  0.2837 -0.9488
  853MPD2    H112531   0.046   0.977  12.388  2.2212  1.3980 -1.2209
  853MPD2    H212532   4.648   1.035  12.797  0.5489  0.5315 -0.1974
  853MPD2    H312533   4.638   0.905  12.616 -1.0290 -0.3205 -2.3411
  853MPD2     N12534   0.121   1.210  12.347 -0.0644 -0.1093 -0.2918
  853MPD2    H512535   0.159   1.141  12.283  1.9823  1.2159 -0.5009
  853MPD2    N112536   0.031   1.270  12.826 -0.2084  0.4689  0.1133
  853MPD2    H712537   4.708   1.231  12.907  0.1764 -1.7401 -0.7460
  854MPD2     C12538   1.923   0.938  12.741 -0.5951 -0.1262 -0.3983
  854MPD2    C112539   2.053   0.970  12.703 -1.1155  0.4455 -0.0327
  854MPD2    C212540   2.136   0.863  12.662 -0.1812 -0.3447  0.4154
  854MPD2    C312541   2.085   0.731  12.666 -0.2332  0.2582 -0.3655
  854MPD2    C412542   1.955   0.709  12.706 -0.1114  0.3234  0.3748
  854MPD2    C512543   1.874   0.808  12.755 -0.6502  0.5303 -0.8131
  854MPD2     H12544   2.236   0.884  12.626  0.0386 -1.1151  0.5870
  854MPD2    H112545   1.907   0.613  12.715  3.1936 -1.2264  1.5036
  854MPD2    H212546   1.853   1.020  12.754 -1.5874 -1.3732  2.2080
  854MPD2    H312547   1.773   0.781  12.783 -0.6134 -0.5918 -1.7761
  854MPD2     N12548   2.159   0.622  12.629 -0.0819  0.2230  0.4250
  854MPD2    H512549   2.139   0.532  12.670 -0.4634  0.3056  0.4151
  854MPD2    N112550   2.073   1.104  12.681  0.1050 -0.1714 -0.3025
  854MPD2    H712551   1.988   1.160  12.683 -0.0136 -0.3955  0.9373
  855MPD2     C12552   2.973   0.301  13.085  0.3169 -0.1098 -0.1497
  855MPD2    C112553   2.841   0.249  13.109  0.1328  0.9719  0.7925
  855MPD2    C212554   2.746   0.270  13.009  0.2990 -0.1925 -0.3281
  855MPD2    C312555   2.786   0.334  12.890  0.0902  1.6970 -0.3061
  855MPD2    C412556   2.912   0.386  12.862  0.8628 -0.8841  0.8157
  855MPD2    C512557   3.002   0.368  12.966 -0.1456  0.0073 -0.0378
  855MPD2     H12558   2.649   0.223  13.016  0.2642 -0.2290 -1.0645
  855MPD2    H112559   2.935   0.445  12.773  0.0698  1.2808  2.0662
  855MPD2    H212560   3.050   0.290  13.161  0.2386  2.7098  0.3396
  855MPD2    H312561   3.102   0.410  12.963 -0.0123 -0.2507  0.8510
  855MPD2     N12562   2.686   0.366  12.795  0.2470 -0.2172 -0.5063
  855MPD2    H512563   2.707   0.410  12.706  1.2920  1.2215  0.4548
  855MPD2    N112564   2.807   0.197  13.235  0.5856  0.4125  0.1892
  855MPD2    H712565   2.709   0.176  13.249  0.1717  3.4656  2.1101
  856MPD2     C12566   4.131   1.547  14.285  0.0200  0.1262 -0.3153
  856MPD2    C112567   4.259   1.601  14.248 -0.1240 -1.1734 -0.6829
  856MPD2    C212568   4.259   1.742  14.220 -0.1745 -0.7611 -0.2159
  856MPD2    C312569   4.144   1.819  14.233  0.1937 -0.4932 -0.3288
  856MPD2    C412570   4.026   1.760  14.255 -0.0721 -0.3103 -0.0665
  856MPD2    C512571   4.019   1.628  14.285 -0.2849 -0.0533  0.3340
  856MPD2     H12572   4.351   1.793  14.195 -1.5630  1.5702 -0.5378
  856MPD2    H112573   3.938   1.823  14.255 -0.2205 -0.5456  2.2665
  856MPD2    H212574   4.117   1.441  14.307 -2.1409  0.3623 -0.5209
  856MPD2    H312575   3.919   1.588  14.297 -0.6407  0.1607 -1.8442
  856MPD2     N12576   4.148   1.958  14.234  0.6729 -0.1141 -0.7848
  856MPD2    H512577   4.060   2.008  14.231 -0.9796 -2.9371  1.0177
  856MPD2    N112578   4.377   1.531  14.246  0.0667 -0.4726  0.1094
  856MPD2    H712579   4.459   1.580  14.211  0.0660 -0.9902 -0.6115
  857MPD2     C12580   1.036   3.973  13.284  0.1772  0.3673 -0.2445
  857MPD2    C112581   1.171   3.982  13.255 -0.7412 -0.4816  0.1033
  857MPD2    C212582   1.222   4.105  13.240 -0.6460 -0.4172  0.1894
  857MPD2    C312583   1.152   4.220  13.261  0.5525 -0.0514 -0.1155
  857MPD2    C412584   1.023   4.214  13.303 -0.6501 -0.0284  0.3108
  857MPD2    C512585   0.967   4.088  13.312 -0.3412 -1.0697 -0.5706
  857MPD2     H12586   1.322   4.117  13.199 -0.5778  1.1049  0.7954
  857MPD2    H112587   0.961   4.302  13.314 -0.5460 -0.0247  0.8373
  857MPD2    H212588   0.982   3.879  13.295 -1.6516  1.6590  1.7964
  857MPD2    H312589   0.861   4.076  13.332  0.0117 -3.3870 -0.0737
  857MPD2     N12590   1.225   4.343  13.259 -0.3688 -0.0945 -0.1902
  857MPD2    H512591   1.325   4.341  13.244 -0.0401 -1.1978  2.2378
  857MPD2    N112592   1.238   3.856  13.242  0.3179  0.5751 -0.1756
  857MPD2    H712593   1.183   3.770  13.246 -0.2131  0.9619  0.6331
  858MPD2     C12594   1.807   2.562  16.976  0.3841  0.2751 -0.3471
  858MPD2    C112595   1.936   2.610  16.963  0.0407 -0.3886  0.0534
  858MPD2    C212596   1.966   2.739  16.993  0.2213  0.4259 -0.0811
  858MPD2    C312597   1.864   2.826  17.032  0.1787  0.0052 -0.2352
  858MPD2    C412598   1.731   2.780  17.023 -0.1689  0.1968  0.4021
  858MPD2    C512599   1.710   2.645  16.996 -0.1548 -0.3863  0.3313
  858MPD2     H12600   2.068   2.776  16.983 -0.3244  1.6553 -1.0825
  858MPD2    H112601   1.645   2.843  17.042 -0.7988 -1.0178  1.6247
  858MPD2    H212602   1.767   2.462  16.964 -2.5697  1.1622  2.0207
  858MPD2    H312603   1.614   2.598  16.979 -0.0390 -1.2350  2.0217
  858MPD2     N12604   1.882   2.967  17.063 -0.2932 -0.0090 -0.0611
  858MPD2    H512605   1.797   3.021  17.069 -0.7687 -0.7306 -0.2343
  858MPD2    N112606   2.026   2.511  16.914  0.5030  0.0568 -0.3127
  858MPD2    H712607   1.989   2.417  16.901 -0.6448  0.6876 -1.7315
  859MPD2     C12608   0.955   0.132  15.748 -0.3691 -0.6466 -0.0412
  859MPD2    C112609   1.027   0.077  15.643  0.3017  0.2766  0.4603
  859MPD2    C212610   1.089   4.679  15.652  0.1732 -0.0435 -0.3555
  859MPD2    C312611   1.067   4.595  15.753  0.0002  0.2848  0.8139
  859MPD2    C412612   0.987   4.644  15.855 -0.1089 -0.3731  0.6742
  859MPD2    C512613   0.931   0.049  15.853 -0.1208 -0.0962 -0.1241
  859MPD2     H12614   1.125   4.643  15.556  2.6555 -0.0765  0.5973
  859MPD2    H112615   0.956   4.591  15.945  1.4975 -1.8119  0.3908
  859MPD2    H212616   0.910   0.231  15.750 -3.0819 -1.8349 -1.8487
  859MPD2    H312617   0.871   0.081  15.937 -1.7645  0.5818 -1.5575
  859MPD2     N12618   1.114   4.461  15.752  0.2719  0.0365  0.1459
  859MPD2    H512619   1.086   4.406  15.832 -1.0940  0.8571  0.2421
  859MPD2    N112620   1.040   0.153  15.522 -0.0598  0.0664 -0.4487
  859MPD2    H712621   1.098   0.115  15.448  1.0543  1.4311 -0.2702
  860MPD2     C12622   3.415   1.230  11.268  0.2965 -0.4921 -0.4348
  860MPD2    C112623   3.530   1.171  11.337  0.8583  0.2650 -0.0714
  860MPD2    C212624   3.505   1.097  11.451  0.2688  0.1281  0.0379
  860MPD2    C312625   3.372   1.066  11.491 -0.1368  0.5389 -0.0054
  860MPD2    C412626   3.267   1.125  11.433  0.0843 -0.8406  0.0082
  860MPD2    C512627   3.290   1.208  11.327 -0.1379  0.0320  0.1767
  860MPD2     H12628   3.595   1.058  11.498 -0.2265  1.0736  1.8043
  860MPD2    H112629   3.163   1.118  11.463  0.0989  0.7522  0.4360
  860MPD2    H212630   3.428   1.311  11.197 -1.9800 -1.6837 -2.2035
  860MPD2    H312631   3.206   1.265  11.286  0.1677  1.1003  1.0285
  860MPD2     N12632   3.358   0.966  11.599 -0.0630  0.3339 -0.4261
  860MPD2    H512633   3.440   0.942  11.653 -0.1980  3.2119  1.0169
  860MPD2    N112634   3.665   1.188  11.294 -0.2703 -0.2288  0.2834
  860MPD2    H712635   3.731   1.163  11.368 -0.2465 -1.1984 -0.0589
  861MPD2     C12636   1.884   4.217  11.143 -0.3069 -0.4602 -0.0278
  861MPD2    C112637   1.769   4.171  11.203 -0.4616  0.1595  0.0922
  861MPD2    C212638   1.650   4.209  11.147 -0.4741  0.2641  0.3828
  861MPD2    C312639   1.645   4.300  11.045 -0.3698 -0.0788 -0.1685
  861MPD2    C412640   1.767   4.330  10.976 -0.7772 -0.9238 -0.5839
  861MPD2    C512641   1.886   4.282  11.028  0.5604  0.1208  0.3745
  861MPD2     H12642   1.561   4.162  11.188 -1.4079  0.4602 -1.4294
  861MPD2    H112643   1.770   4.389  10.885  0.2973 -0.2106 -0.0950
  861MPD2    H212644   1.985   4.185  11.165 -1.3817 -2.6274  1.8354
  861MPD2    H312645   1.974   4.313  10.973  0.6563  3.1756  2.2301
  861MPD2     N12646   1.526   4.365  10.994 -0.0308 -0.4578  0.7043
  861MPD2    H512647   1.517   4.421  10.910  0.9336  0.0962  0.9733
  861MPD2    N112648   1.774   4.083  11.316  0.1793  0.6133  0.1857
  861MPD2    H712649   1.691   4.074  11.374  0.3092  1.7502  0.5576
  862MPD2     C12650   1.049   4.648  10.521  0.1684 -0.2680 -0.4665
  862MPD2    C112651   1.153   4.563  10.551  0.2134  0.3126  0.6004
  862MPD2    C212652   1.179   4.449  10.473  0.6430 -0.4703  0.0383
  862MPD2    C312653   1.096   4.415  10.366 -0.3697  0.0056  0.1808
  862MPD2    C412654   0.991   4.499  10.334 -0.3365  0.6548  0.2565
  862MPD2    C512655   0.970   4.618  10.402  0.2159 -0.6505 -0.0600
  862MPD2     H12656   1.262   4.384  10.498  1.0336  0.1663  0.3819
  862MPD2    H112657   0.921   4.478  10.254 -1.1869 -0.3917  1.2705
  862MPD2    H212658   1.024   0.013  10.579  2.0260  1.8450 -2.9041
  862MPD2    H312659   0.895   4.689  10.370  2.2671  1.0973 -0.9951
  862MPD2     N12660   1.111   4.299  10.284  0.0425 -0.2596  0.2352
  862MPD2    H512661   1.036   4.276  10.220 -0.3666  1.0685  0.2335
  862MPD2    N112662   1.217   4.569  10.673 -0.1762 -0.0510 -0.3577
  862MPD2    H712663   1.272   4.490  10.703  1.3547  1.0108 -0.3264
  863MPD2     C12664   0.394   2.106  16.625  0.2930  0.4154  0.1287
  863MPD2    C112665   0.381   2.224  16.699 -0.2926 -0.5105 -0.3200
  863MPD2    C212666   0.446   2.231  16.822 -0.1628 -0.0773 -0.1724
  863MPD2    C312667   0.528   2.128  16.872 -0.1322 -0.6426 -0.3581
  863MPD2    C412668   0.524   2.010  16.795 -0.2638 -0.3433  0.1457
  863MPD2    C512669   0.452   1.995  16.679 -0.7519 -0.3128 -0.3693
  863MPD2     H12670   0.428   2.318  16.883 -1.0495  2.6652 -4.3146
  863MPD2    H112671   0.579   1.923  16.830  0.4136 -0.2919 -0.7821
  863MPD2    H212672   0.347   2.080  16.531 -0.9242  4.5605 -0.4367
  863MPD2    H312673   0.452   1.905  16.619 -1.4175 -1.1371  0.8703
  863MPD2     N12674   0.581   2.126  17.004 -0.5841  0.6740 -0.1173
  863MPD2    H512675   0.609   2.033  17.033  0.6930  0.5691 -1.6449
  863MPD2    N112676   0.307   2.325  16.641  0.0048  0.2682  0.0805
  863MPD2    H712677   0.274   2.307  16.546 -1.1362 -1.8044  0.8781
  864MPD2     C12678   0.801   3.484  17.247  0.5989 -0.4458  0.2576
  864MPD2    C112679   0.895   3.393  17.199  0.6392 -0.1091 -0.0659
  864MPD2    C212680   0.979   3.436  17.102 -0.2467 -0.1408  0.5390
  864MPD2    C312681   0.969   3.557  17.035  0.4334  0.0092  0.5382
  864MPD2    C412682   0.872   3.644  17.075 -0.8581 -0.9326  0.4433
  864MPD2    C512683   0.787   3.604  17.181  0.1305 -0.1925  0.2417
  864MPD2     H12684   1.054   3.364  17.073 -0.5790 -0.2507 -0.0303
  864MPD2    H112685   0.860   3.746  17.043 -1.3742 -1.2976 -0.5120
  864MPD2    H212686   0.727   3.477  17.325 -1.4905 -2.5244 -1.9191
  864MPD2    H312687   0.708   3.675  17.204 -0.4786 -0.3345 -1.3874
  864MPD2     N12688   1.054   3.596  16.925 -0.0766 -0.3615  0.0471
  864MPD2    H512689   1.037   3.689  16.889  0.1582 -0.8159 -1.2223
  864MPD2    N112690   0.906   3.266  17.247  0.1630  0.4348 -0.9363
  864MPD2    H712691   0.985   3.209  17.217  0.6302 -0.5820  2.2237
  865MPD2     C12692   1.297   3.490  16.130  0.7159  0.0928 -0.0492
  865MPD2    C112693   1.261   3.466  16.256 -0.4063 -0.3366 -0.0710
  865MPD2    C212694   1.219   3.570  16.340  0.0130 -0.0656 -0.2719
  865MPD2    C312695   1.215   3.691  16.285 -0.5440 -0.3848 -0.0499
  865MPD2    C412696   1.227   3.712  16.145  0.6881 -0.1355 -0.3497
  865MPD2    C512697   1.278   3.614  16.076  0.0800 -0.1073  0.2263
  865MPD2     H12698   1.189   3.553  16.443 -0.8234  0.5786 -0.4095
  865MPD2    H112699   1.217   3.814  16.107  2.9077 -0.1487 -0.9812
  865MPD2    H212700   1.319   3.404  16.068  1.2119  1.4265 -1.7461
  865MPD2    H312701   1.312   3.627  15.974 -1.4320  0.4047 -0.2131
  865MPD2     N12702   1.163   3.803  16.358 -0.0022  0.5210  0.2948
  865MPD2    H512703   1.124   3.882  16.309 -0.9252  0.2268  0.5608
  865MPD2    N112704   1.276   3.338  16.298  1.0903 -0.0134 -0.2926
  865MPD2    H712705   1.321   3.275  16.233  1.9635  0.4624 -0.1512
  866MPD2     C12706   2.154   4.091  11.665  0.1063  0.0226 -0.2154
  866MPD2    C112707   2.185   4.162  11.546  0.2402 -0.1942  0.1526
  866MPD2    C212708   2.093   4.241  11.484 -0.5929  0.1854  0.4987
  866MPD2    C312709   1.971   4.264  11.554  0.1103 -0.1984 -0.6172
  866MPD2    C412710   1.943   4.189  11.664 -0.3532 -0.1116  0.7227
  866MPD2    C512711   2.027   4.093  11.716  0.0165  0.0494 -0.0581
  866MPD2     H12712   2.132   4.293  11.397  1.7533  0.3262  1.6477
  866MPD2    H112713   1.840   4.197  11.697 -0.2880 -0.0383  0.9102
  866MPD2    H212714   2.220   4.023  11.717 -1.3743 -1.1737  0.1100
  866MPD2    H312715   1.988   4.034  11.799 -1.1049  0.8731  0.0014
  866MPD2     N12716   1.864   4.350  11.514  0.5730  0.3956 -0.2041
  866MPD2    H512717   1.774   4.344  11.560  0.0711 -2.1215 -1.5322
  866MPD2    N112718   2.320   4.137  11.501 -0.0313  0.2242  0.6680
  866MPD2    H712719   2.371   4.066  11.551  1.1697 -0.1670 -1.0995
  867MPD2     C12720   0.453   3.805  16.843  0.2076 -0.1337  0.0755
  867MPD2    C112721   0.462   3.782  16.975  0.1281  0.8011 -0.4850
  867MPD2    C212722   0.502   3.885  17.060  0.7570 -0.2731 -0.3061
  867MPD2    C312723   0.501   4.015  17.029  0.3385 -0.5226  0.3200
  867MPD2    C412724   0.469   4.036  16.893 -0.0343  0.8386  0.3935
  867MPD2    C512725   0.452   3.933  16.802 -0.5061  0.3873  0.3099
  867MPD2     H12726   0.528   3.855  17.161  2.6839  0.8820 -0.4623
  867MPD2    H112727   0.452   4.139  16.863 -2.2537  0.1365 -0.7144
  867MPD2    H212728   0.437   3.727  16.770  0.8635  0.7902 -1.0666
  867MPD2    H312729   0.422   3.951  16.699  1.5244 -0.4965 -0.4297
  867MPD2     N12730   0.532   4.126  17.115 -0.2125  0.4545 -1.2640
  867MPD2    H512731   0.551   4.214  17.067  1.0454  1.9734  2.0449
  867MPD2    N112732   0.466   3.651  17.013 -0.0271 -0.4162  0.3550
  867MPD2    H712733   0.459   3.580  16.941  1.2534  0.0912 -0.2605
  868MPD2     C12734   1.774   2.042  12.915  0.0861 -0.2599 -0.6980
  868MPD2    C112735   1.824   2.066  13.038  0.0071  0.2787  0.8863
  868MPD2    C212736   1.729   2.069  13.141 -0.1430  0.3890 -0.1792
  868MPD2    C312737   1.594   2.062  13.122 -0.2918 -0.0064  0.0538
  868MPD2    C412738   1.550   2.029  12.997  0.4776 -0.0961 -0.4967
  868MPD2    C512739   1.638   2.023  12.895 -0.0920 -0.1771 -0.0338
  868MPD2     H12740   1.753   2.095  13.243 -4.3726 -0.6203  1.0985
  868MPD2    H112741   1.449   1.999  12.971  0.5271 -0.8760  0.2462
  868MPD2    H212742   1.843   2.014  12.837 -0.4988  0.8075 -1.6063
  868MPD2    H312743   1.604   1.996  12.796 -1.4638 -0.9610  0.6518
  868MPD2     N12744   1.512   2.087  13.243 -0.2920  0.0636 -0.3494
  868MPD2    H512745   1.556   2.098  13.334 -0.5512  1.2917 -0.3777
  868MPD2    N112746   1.962   2.058  13.060 -0.3591 -0.0225  0.8897
  868MPD2    H712747   2.023   2.040  12.980 -0.8850 -2.3479  0.9934
  869MPD2     C12748   3.003   4.279   2.080  0.1208  0.2839 -0.5542
  869MPD2    C112749   2.880   4.293   2.030 -0.2758  0.3192 -0.1458
  869MPD2    C212750   2.860   4.389   1.942  0.7640 -0.2444  0.4447
  869MPD2    C312751   2.958   4.470   1.896 -0.1511 -0.2285 -0.4306
  869MPD2    C412752   3.086   4.449   1.927  0.3294 -0.1763  0.4938
  869MPD2    C512753   3.108   4.350   2.021 -1.0488  0.1393  1.2263
  869MPD2     H12754   2.770   4.385   1.882  0.0290  1.6799  1.4215
  869MPD2    H112755   3.168   4.506   1.885 -0.5635  1.6940  1.2902
  869MPD2    H212756   3.026   4.210   2.161 -2.1499  0.3063  0.1261
  869MPD2    H312757   3.203   4.323   2.066  0.0752  1.7942 -0.1315
  869MPD2     N12758   2.943   4.581   1.810 -0.4601  0.2374  0.2480
  869MPD2    H512759   3.025   4.641   1.802  0.6475 -1.1597  1.1546
  869MPD2    N112760   2.774   4.223   2.097 -0.1109 -0.1000 -0.3148
  869MPD2    H712761   2.794   4.157   2.171 -0.3880  1.4306  1.1206
  870MPD2     C12762   2.176   4.123   1.862  0.2357  0.2225 -0.2186
  870MPD2    C112763   2.280   4.144   1.785  0.2060  0.5988 -0.0031
  870MPD2    C212764   2.271   4.213   1.669 -0.3923  0.9341  0.0622
  870MPD2    C312765   2.160   4.287   1.640  0.8415  0.0901 -0.1427
  870MPD2    C412766   2.051   4.273   1.723  0.5339 -0.3303  0.6820
  870MPD2    C512767   2.059   4.198   1.839 -0.7529 -0.0458 -1.1960
  870MPD2     H12768   2.362   4.228   1.612  1.3626 -2.1108  2.0905
  870MPD2    H112769   1.948   4.305   1.712  0.6221 -0.1276  0.4238
  870MPD2    H212770   2.186   4.071   1.956 -0.6899  1.7087  0.6971
  870MPD2    H312771   1.984   4.196   1.917  2.4548  1.0032  1.9266
  870MPD2     N12772   2.149   4.357   1.522  0.2320 -0.0089  0.3772
  870MPD2    H512773   2.222   4.352   1.452 -0.3340 -1.3398 -0.1244
  870MPD2    N112774   2.396   4.065   1.804 -0.6040  0.0025 -0.1667
  870MPD2    H712775   2.370   3.992   1.868  0.1511  1.0422  1.3239
  871MPD2     C12776   3.612   3.422  16.722  0.0786 -0.2457  0.1054
  871MPD2    C112777   3.722   3.505  16.688  0.3247 -0.1495  0.0366
  871MPD2    C212778   3.797   3.474  16.575  0.6967 -0.3391  0.3256
  871MPD2    C312779   3.765   3.365  16.494 -0.0425 -0.2059 -0.5243
  871MPD2    C412780   3.663   3.289  16.529 -0.3697 -0.2885  0.4317
  871MPD2    C512781   3.577   3.315  16.633 -0.1483 -0.2863 -0.0247
  871MPD2     H12782   3.873   3.544  16.544 -1.2433  1.1820 -1.0216
  871MPD2    H112783   3.636   3.204  16.467 -1.3504 -0.2383  0.7812
  871MPD2    H212784   3.555   3.431  16.813  0.1484 -1.5326  0.2741
  871MPD2    H312785   3.494   3.250  16.658 -0.8211  0.8401  0.7001
  871MPD2     N12786   3.834   3.312  16.389 -0.5542  0.2828  0.5829
  871MPD2    H512787   3.788   3.234  16.343 -0.6886  0.7526 -0.0715
  871MPD2    N112788   3.755   3.627  16.754 -0.8222  0.7605  0.5377
  871MPD2    H712789   3.819   3.694  16.712  0.5622 -0.2018  1.1141
  872MPD2     C12790   4.721   1.099  14.278  0.3514  0.6907  0.4666
  872MPD2    C112791   4.707   1.144  14.146 -0.3522  0.0320 -0.0810
  872MPD2    C212792   4.586   1.128  14.077  0.4455  0.4710 -0.3241
  872MPD2    C312793   4.479   1.065  14.135  0.0851 -0.2852 -0.2950
  872MPD2    C412794   4.494   1.025  14.265  0.2642  0.1141  0.5221
  872MPD2    C512795   4.612   1.038  14.335 -0.2954 -0.4517  0.2846
  872MPD2     H12796   4.577   1.163  13.975 -1.3131 -0.1599 -0.3836
  872MPD2    H112797   4.415   0.969  14.313  0.5857 -1.2407 -0.5242
  872MPD2    H212798   0.085   1.105  14.342  0.4211 -0.7983  0.4988
  872MPD2    H312799   4.626   0.994  14.433  0.3504 -0.9823 -0.0490
  872MPD2     N12800   4.355   1.031  14.077  0.8247  0.7567  0.0769
  872MPD2    H512801   4.287   0.985  14.135  2.4078 -1.2051  0.3647
  872MPD2    N112802   0.088   1.211  14.079  0.1487  0.1867  0.1162
  872MPD2    H712803   0.066   1.231  13.982  2.7201 -1.2650 -0.7586
  873MPD2     C12804   0.691   1.058   0.682 -0.3669  0.6735 -0.3413
  873MPD2    C112805   0.794   1.018   0.767 -1.1118 -0.0530 -0.4518
  873MPD2    C212806   0.809   0.880   0.771  0.1869 -0.7121 -0.0491
  873MPD2    C312807   0.742   0.790   0.695  0.7594  0.0623 -0.2616
  873MPD2    C412808   0.658   0.836   0.599  0.0448  0.0628  0.2670
  873MPD2    C512809   0.618   0.968   0.601 -0.7595 -0.4378  0.5378
  873MPD2     H12810   0.886   0.840   0.837 -0.1269 -1.9083 -0.4054
  873MPD2    H112811   0.585   0.774   0.548  0.8594 -0.1012 -0.7036
  873MPD2    H212812   0.663   1.163   0.675  0.4269  0.8119 -1.3199
  873MPD2    H312813   0.544   0.998   0.528 -0.2829 -0.6157 -0.0204
  873MPD2     N12814   0.770   0.655   0.723  0.2094 -0.6217 -0.1649
  873MPD2    H512815   0.826   0.632   0.804  2.1002 -1.9208 -1.8219
  873MPD2    N112816   0.863   1.120   0.838 -0.1438 -0.7111 -0.8732
  873MPD2    H712817   0.832   1.214   0.812 -1.9671 -1.4930 -1.5450
  874MPD2     C12818   1.232   1.341  16.210 -0.4145  0.2762 -0.0820
  874MPD2    C112819   1.235   1.388  16.336  0.1348  0.3225  0.1544
  874MPD2    C212820   1.340   1.468  16.370 -0.1305 -0.3705 -0.0064
  874MPD2    C312821   1.441   1.488  16.287 -0.0876  0.3818  0.3345
  874MPD2    C412822   1.439   1.430  16.160  0.1458  0.1004 -0.2407
  874MPD2    C512823   1.334   1.363  16.124  0.3297  0.3651  0.3059
  874MPD2     H12824   1.342   1.510  16.470 -0.8559  0.5150 -0.3617
  874MPD2    H112825   1.526   1.428  16.095 -0.3464 -2.0275 -0.8245
  874MPD2    H212826   1.145   1.284  16.181  0.6118 -1.0598 -0.5550
  874MPD2    H312827   1.329   1.323  16.023  0.6616 -2.8830  1.5773
  874MPD2     N12828   1.559   1.551  16.337  0.0730 -0.0467 -0.6196
  874MPD2    H512829   1.547   1.606  16.421 -2.6296 -1.8611  0.1838
  874MPD2    N112830   1.126   1.355  16.417  0.5959 -0.0766  0.4030
  874MPD2    H712831   1.062   1.283  16.385 -1.4217  1.4434  1.0300
  875MPD2     C12832   2.270   4.038  14.592 -0.7531 -0.4271 -0.4246
  875MPD2    C112833   2.172   4.077  14.673 -0.3739 -0.2089 -0.1305
  875MPD2    C212834   2.194   4.126  14.800 -0.2585  0.2102  0.1395
  875MPD2    C312835   2.315   4.135  14.851  0.6905  0.7958 -0.9349
  875MPD2    C412836   2.417   4.081  14.776 -0.1406 -0.0509  0.4725
  875MPD2    C512837   2.395   4.038  14.645 -0.5770 -0.1421 -0.3125
  875MPD2     H12838   2.106   4.157  14.855 -0.7307 -1.0333  0.0764
  875MPD2    H112839   2.519   4.077  14.812 -0.3849 -4.4976  0.7237
  875MPD2    H212840   2.260   4.006  14.490 -0.8819 -0.0876 -0.5187
  875MPD2    H312841   2.478   4.016  14.579  0.6265 -0.3160  1.2491
  875MPD2     N12842   2.349   4.180  14.983 -0.0581 -0.1609  0.4120
  875MPD2    H512843   2.441   4.179  15.027  0.5277  0.7865 -0.7861
  875MPD2    N112844   2.038   4.070  14.626  0.0126 -0.2101  0.2818
  875MPD2    H712845   1.968   4.119  14.681 -0.2948  1.2556 -1.4015
  876MPD2     C12846   0.868   0.556  15.790 -0.0731 -0.1584 -0.2420
  876MPD2    C112847   1.005   0.540  15.759  0.0705 -0.3376  0.1970
  876MPD2    C212848   1.077   0.450  15.839 -0.9828  0.8715  0.2003
  876MPD2    C312849   1.028   0.392  15.955  0.4610  0.6540  0.0696
  876MPD2    C412850   0.894   0.418  15.987 -0.4169  1.1183  0.3326
  876MPD2    C512851   0.822   0.487  15.905 -0.0795 -0.5472  0.5391
  876MPD2     H12852   1.175   0.416  15.807 -1.4098 -2.9159  2.9336
  876MPD2    H112853   0.836   0.369  16.065 -0.0800 -1.5206 -1.0766
  876MPD2    H212854   0.803   0.624  15.736  1.5335  1.0381 -0.6804
  876MPD2    H312855   0.715   0.494  15.919 -0.3519 -1.3300 -1.1372
  876MPD2     N12856   1.114   0.301  16.017  0.4653  0.3163 -0.1958
  876MPD2    H512857   1.204   0.281  15.975 -0.2290 -1.8130 -0.6598
  876MPD2    N112858   1.064   0.609  15.650 -0.1029 -0.8506  0.1173
  876MPD2    H712859   1.002   0.665  15.592  0.2579 -1.3846 -0.7805
  877MPD2     C12860   0.905   0.758  14.910 -0.7008 -0.5788 -0.3706
  877MPD2    C112861   1.035   0.803  14.933  0.1126  0.2930 -0.1767
  877MPD2    C212862   1.118   0.815  14.819 -0.1862 -0.0706  0.2714
  877MPD2    C312863   1.069   0.806  14.687 -0.6683  0.3455  0.2815
  877MPD2    C412864   0.939   0.762  14.674 -0.0979 -0.0714 -0.7950
  877MPD2    C512865   0.862   0.729  14.784  0.2711  0.5996  0.4418
  877MPD2     H12866   1.224   0.826  14.835  0.3406 -0.7374 -2.7432
  877MPD2    H112867   0.893   0.739  14.578  1.1205  1.0496 -1.6650
  877MPD2    H212868   0.842   0.742  14.997 -0.4727 -0.4767 -0.1856
  877MPD2    H312869   0.761   0.698  14.758  1.0147 -0.0672 -1.5858
  877MPD2     N12870   1.150   0.818  14.570 -0.0936  0.1769 -0.5635
  877MPD2    H512871   1.113   0.803  14.477 -0.4901  1.2225 -0.5859
  877MPD2    N112872   1.100   0.803  15.057  0.0009  0.1999 -0.0007
  877MPD2    H712873   1.196   0.836  15.062 -0.7535  2.1519  1.6188
  878MPD2     C12874   0.242   0.428  13.220  0.4271 -0.1911 -0.1849
  878MPD2    C112875   0.364   0.485  13.194 -0.2144  0.7292 -0.0717
  878MPD2    C212876   0.460   0.493  13.297 -0.7070  0.4438 -0.1069
  878MPD2    C312877   0.432   0.427  13.417  0.4166  0.6785  0.0523
  878MPD2    C412878   0.310   0.356  13.432 -0.1168  0.6150 -0.4718
  878MPD2    C512879   0.215   0.374  13.341 -0.1350 -0.2854 -0.1062
  878MPD2     H12880   0.552   0.551  13.286  0.4265 -1.2802  0.2757
  878MPD2    H112881   0.292   0.312  13.529  0.1109 -0.8600 -1.0935
  878MPD2    H212882   0.160   0.443  13.150  0.9864  0.6334 -0.6742
  878MPD2    H312883   0.121   0.326  13.365 -0.4867 -0.2067 -1.3597
  878MPD2     N12884   0.533   0.416  13.515 -0.0330  0.6309  0.3497
  878MPD2    H512885   0.617   0.470  13.496 -0.1407  0.7653  0.2575
  878MPD2    N112886   0.367   0.558  13.079  0.6025 -0.5166  0.1933
  878MPD2    H712887   0.291   0.543  13.014  0.3854 -0.9775  0.5538
  879MPD2     C12888   1.145   2.199  17.212 -0.8130 -0.6119 -0.0627
  879MPD2    C112889   1.209   2.106  17.296  0.1378 -0.4940 -0.1424
  879MPD2    C212890   1.164   1.974  17.300  0.3855  0.3873 -0.7231
  879MPD2    C312891   1.056   1.940  17.220 -0.0750  0.1370 -0.6247
  879MPD2    C412892   0.994   2.033  17.139  0.4565  0.4216  0.1807
  879MPD2    C512893   1.040   2.158  17.135 -0.3364 -0.4958  0.2720
  879MPD2     H12894   1.208   1.903  17.369 -1.9730 -1.6388 -1.3427
  879MPD2    H112895   0.906   2.006  17.083  2.7186 -2.0372 -2.1555
  879MPD2    H212896   1.173   2.302  17.193 -3.0248  0.1154  0.6704
  879MPD2    H312897   0.989   2.228  17.070  1.5647  1.4588  0.8801
  879MPD2     N12898   1.004   1.812  17.229  0.2510 -0.1353 -0.2215
  879MPD2    H512899   0.933   1.790  17.159  0.6398 -2.7975  0.1971
  879MPD2    N112900   1.323   2.149  17.374  0.6007  0.0488  0.2675
  879MPD2    H712901   1.348   2.246  17.387 -1.0731  0.3040  1.7270
  880MPD2     C12902   2.639   3.828   0.319  0.0685  0.3855 -0.3747
  880MPD2    C112903   2.709   3.845   0.435 -0.3583  0.1516 -0.5287
  880MPD2    C212904   2.788   3.739   0.485  0.1130 -0.0969 -0.0849
  880MPD2    C312905   2.796   3.616   0.417 -0.2624 -0.5204 -0.4837
  880MPD2    C412906   2.721   3.605   0.308 -1.4167 -0.6597 -0.8333
  880MPD2    C512907   2.646   3.703   0.259 -0.5551 -0.5913 -0.4667
  880MPD2     H12908   2.843   3.739   0.579  0.2509 -0.9558 -0.1685
  880MPD2    H112909   2.718   3.509   0.256  0.3993 -0.4088 -1.3913
  880MPD2    H212910   2.581   3.902   0.264 -3.2012 -2.0223 -0.1878
  880MPD2    H312911   2.584   3.688   0.171 -1.2530  0.3069 -0.1369
  880MPD2     N12912   2.876   3.514   0.469 -0.0308 -0.1511  0.0395
  880MPD2    H512913   2.914   3.519   0.563  0.1042 -0.3180 -0.0063
  880MPD2    N112914   2.713   3.977   0.488  0.5131  0.2493  0.0353
  880MPD2    H712915   2.653   4.042   0.438  1.9624 -0.3493 -2.5052
  881MPD2     C12916   2.906   0.007  17.647  0.0842 -0.5003 -0.5100
  881MPD2    C112917   2.981   4.623  17.673  0.1151 -0.3239  0.6591
  881MPD2    C212918   2.961   4.556   0.097 -0.0960 -0.3670 -0.7448
  881MPD2    C312919   2.884   4.611   0.195 -0.7620 -0.2815  0.7303
  881MPD2    C412920   2.814   0.003   0.172  0.1653 -0.2558  0.1568
  881MPD2    C512921   2.825   0.059   0.045 -0.2785 -0.8629 -0.0114
  881MPD2     H12922   3.012   4.465   0.128 -1.2954 -0.5019  0.8193
  881MPD2    H112923   2.740   0.042   0.242  0.1710  0.8697 -0.4663
  881MPD2    H212924   2.927   0.064  17.557 -1.1083 -1.2807 -1.2658
  881MPD2    H312925   2.751   0.128   0.005  0.3368  0.0270  0.4148
  881MPD2     N12926   2.862   4.558   0.322 -0.6070  0.3720 -0.0078
  881MPD2    H512927   2.793   4.611   0.375  0.0067  1.3565 -0.1816
  881MPD2    N112928   3.031   4.559  17.553 -0.0503  0.0486  0.1239
  881MPD2    H712929   3.012   4.609  17.467  0.5245 -2.2606 -1.3259
  882MPD2     C12930   0.999   0.980  13.889  0.3874  0.1557 -0.1444
  882MPD2    C112931   0.991   0.962  14.026  0.4935  0.2721  0.4237
  882MPD2    C212932   0.865   0.957  14.081 -0.4163  0.1700  0.5189
  882MPD2    C312933   0.746   0.977  14.011  0.2313  0.4616 -0.4031
  882MPD2    C412934   0.755   0.993  13.871 -0.8800  1.1235  0.1078
  882MPD2    C512935   0.882   0.995  13.814 -0.2190  0.0392  0.5591
  882MPD2     H12936   0.855   0.942  14.188 -1.5490  3.2153  0.8538
  882MPD2    H112937   0.674   1.017  13.803 -1.7575  0.4053  0.9038
  882MPD2    H212938   1.092   0.983  13.834  0.3465 -0.2646 -0.2349
  882MPD2    H312939   0.889   1.018  13.708 -0.7404  0.5913  0.6470
  882MPD2     N12940   0.621   0.984  14.072 -0.0375  0.3638 -0.2010
  882MPD2    H512941   0.541   0.995  14.010 -2.0079  0.6963  2.4193
  882MPD2    N112942   1.095   0.942  14.115  0.3963  1.2259  0.1867
  882MPD2    H712943   1.070   0.909  14.207  1.8913 -0.9121 -0.1790
  883MPD2     C12944   2.985   0.752  16.198 -0.0739  0.1260 -0.0916
  883MPD2    C112945   3.059   0.812  16.091  0.3060 -0.3626 -0.4336
  883MPD2    C212946   3.145   0.921  16.118 -0.4634 -0.7916  0.0774
  883MPD2    C312947   3.154   0.965  16.248  0.7995  0.4906  1.5332
  883MPD2    C412948   3.073   0.914  16.345  0.0635  0.3182 -0.3490
  883MPD2    C512949   3.001   0.803  16.324 -0.0746  0.6197  0.2025
  883MPD2     H12950   3.205   0.965  16.039 -0.4271 -2.5250 -0.8608
  883MPD2    H112951   3.078   0.941  16.450  3.6756 -2.7999  0.3061
  883MPD2    H212952   2.929   0.662  16.178  0.2196 -0.6369  2.5347
  883MPD2    H312953   2.948   0.760  16.408  1.2273 -0.3462  0.5197
  883MPD2     N12954   3.249   1.072  16.277 -0.5422 -0.0075  0.0167
  883MPD2    H512955   3.308   1.120  16.210  0.6383 -0.4704  0.7060
  883MPD2    N112956   3.070   0.752  15.957  0.2782 -0.4028 -0.3204
  883MPD2    H712957   3.147   0.783  15.899  0.6185 -0.6646 -0.0187
  884MPD2     C12958   0.213   1.366  15.517  0.5002  0.9598 -0.5780
  884MPD2    C112959   0.234   1.475  15.442  0.7292 -0.8180 -0.0502
  884MPD2    C212960   0.130   1.551  15.403 -0.4847 -0.1582 -0.9474
  884MPD2    C312961   0.005   1.529  15.452 -0.8078  0.3383  0.3115
  884MPD2    C412962   4.710   1.419  15.534 -0.0772 -0.2202 -0.0104
  884MPD2    C512963   0.089   1.336  15.567  0.4555  0.3479 -0.6119
  884MPD2     H12964   0.146   1.644  15.350  0.1946 -0.0116 -0.4835
  884MPD2    H112965   4.611   1.395  15.569  0.2185 -3.7062 -1.6218
  884MPD2    H212966   0.293   1.305  15.558 -0.0400 -0.6350 -1.9078
  884MPD2    H312967   0.068   1.252  15.633 -0.6179  0.3414 -0.9511
  884MPD2     N12968   4.628   1.627  15.428  0.3962  0.7155 -0.5350
  884MPD2    H512969   4.630   1.675  15.339 -0.1766  1.6096 -0.0591
  884MPD2    N112970   0.366   1.507  15.404 -0.3333 -0.0127 -0.2155
  884MPD2    H712971   0.379   1.602  15.372  0.8758 -0.2206 -0.3616
  885MPD2     C12972   3.701   2.785   0.453  0.0842  0.3302 -0.8946
  885MPD2    C112973   3.569   2.764   0.482 -0.3193  0.3282  1.1108
  885MPD2    C212974   3.474   2.765   0.380 -0.9365  0.5524 -0.3385
  885MPD2    C312975   3.500   2.795   0.249 -0.6269  0.1877  0.1004
  885MPD2    C412976   3.631   2.836   0.226  0.3117 -1.1976  0.4881
  885MPD2    C512977   3.727   2.831   0.325  0.2548 -0.4082  0.7383
  885MPD2     H12978   3.370   2.740   0.398 -1.4323  0.8304 -2.8998
  885MPD2    H112979   3.663   2.871   0.129  0.1777 -0.9790  0.5219
  885MPD2    H212980   3.773   2.786   0.534  0.0716 -1.5102 -0.8810
  885MPD2    H312981   3.829   2.859   0.298 -0.1609 -0.0627 -0.4750
  885MPD2     N12982   3.407   2.787   0.137 -0.3340 -0.7181  0.0318
  885MPD2    H512983   3.318   2.741   0.152 -0.8984  0.5737  0.6839
  885MPD2    N112984   3.539   2.726   0.612 -0.1394  0.1149 -0.4738
  885MPD2    H712985   3.613   2.741   0.680 -0.0760 -1.0408 -0.2975
  886MPD2     C12986   4.434   0.207  15.760  0.1951 -1.1513 -0.1943
  886MPD2    C112987   4.571   0.205  15.757  0.1558  0.4055  0.0916
  886MPD2    C212988   4.617   0.233  15.630 -0.0637  0.6560 -0.0073
  886MPD2    C312989   4.541   0.257  15.520 -0.0312  0.3272  0.1348
  886MPD2    C412990   4.401   0.255  15.532  0.3533 -0.3648  0.1268
  886MPD2    C512991   4.348   0.224  15.652  0.2002 -0.4329  0.2562
  886MPD2     H12992   0.000   0.233  15.614 -0.1432  3.2245 -0.6485
  886MPD2    H112993   4.343   0.284  15.445  2.2650 -1.3603 -1.4577
  886MPD2    H212994   4.384   0.175  15.850 -0.5055 -0.4024 -0.3200
  886MPD2    H312995   4.241   0.217  15.664  0.3205 -1.0366  1.0493
  886MPD2     N12996   4.610   0.303  15.404 -0.5299  0.2126 -0.7572
  886MPD2    H512997   4.710   0.321  15.403 -0.4746  0.0623  1.1244
  886MPD2    N112998   4.659   0.155  15.859 -0.3032 -0.5379 -0.3820
  886MPD2    H712999   0.031   0.133  15.834 -0.2651 -0.0171 -0.7009
  887MPD2     C13000   0.586   0.263  16.252 -0.0973 -0.1734 -0.2177
  887MPD2    C113001   0.461   0.316  16.210 -0.5711  0.3877 -0.4291
  887MPD2    C213002   0.451   0.456  16.224  0.1305  0.3120 -0.0390
  887MPD2    C313003   0.552   0.538  16.261 -0.0799  0.0887 -0.0269
  887MPD2    C413004   0.673   0.474  16.293 -0.1924 -0.0984  0.2766
  887MPD2    C513005   0.691   0.341  16.290 -0.0217 -0.3147  0.3868
  887MPD2     H13006   0.358   0.507  16.201 -0.9153 -1.3525  0.5729
  887MPD2    H113007   0.756   0.544  16.297 -1.1429  1.2123 -2.2054
  887MPD2    H213008   0.599   0.155  16.248  1.6448  0.0042  0.4169
  887MPD2    H313009   0.788   0.294  16.307  1.1455  1.9959  0.2150
  887MPD2     N13010   0.523   0.680  16.259 -0.1902  0.3047  1.3765
  887MPD2    H513011   0.429   0.706  16.230 -0.2703 -0.2348  1.1524
  887MPD2    N113012   0.346   0.246  16.169  0.1299  0.0212  0.3713
  887MPD2    H713013   0.257   0.293  16.165 -1.1655 -2.5084 -0.2866
  888MPD2     C13014   1.986   0.218  15.146 -0.3541 -0.9200 -0.8041
  888MPD2    C113015   2.029   0.238  15.271 -0.3033 -0.3942 -0.1387
  888MPD2    C213016   2.097   0.359  15.295  0.3303 -0.0112  0.1660
  888MPD2    C313017   2.131   0.448  15.195  0.2358 -1.0990  0.0999
  888MPD2    C413018   2.089   0.421  15.071 -0.0378 -0.4720  0.0567
  888MPD2    C513019   2.016   0.306  15.051  0.1780 -0.4409  0.1791
  888MPD2     H13020   2.129   0.387  15.395 -0.4829  0.3263  0.3302
  888MPD2    H113021   2.101   0.478  14.979 -1.7887 -1.1434 -0.5796
  888MPD2    H213022   1.944   0.124  15.111 -2.1978  0.0277 -1.1671
  888MPD2    H313023   1.985   0.275  14.952 -1.4813 -0.3043  0.6594
  888MPD2     N13024   2.201   0.577  15.212  0.3790 -0.8460  0.0616
  888MPD2    H513025   2.219   0.611  15.306  1.9554  0.9287 -0.8905
  888MPD2    N113026   2.008   0.133  15.370 -0.1875 -1.0287  0.0026
  888MPD2    H713027   2.044   0.147  15.463 -1.4664  0.4666  0.2764
  889MPD2     C13028   1.258   0.432  12.900  0.4618 -0.0996 -0.4914
  889MPD2    C113029   1.321   0.421  13.023  0.1940 -0.4121  0.4619
  889MPD2    C213030   1.421   0.518  13.055 -0.2640  0.6876 -0.2380
  889MPD2    C313031   1.442   0.632  12.979 -0.4417  0.2203  0.4909
  889MPD2    C413032   1.376   0.644  12.858  0.6218 -0.0672 -0.0849
  889MPD2    C513033   1.280   0.543  12.824  0.2592 -0.4318  0.6878
  889MPD2     H13034   1.471   0.504  13.150 -0.2224  0.2462 -0.3230
  889MPD2    H113035   1.391   0.727  12.791 -0.0715  2.3798  2.8162
  889MPD2    H213036   1.179   0.365  12.869 -0.1084 -0.0676  0.9139
  889MPD2    H313037   1.236   0.554  12.726 -0.9477  1.3617  1.4245
  889MPD2     N13038   1.539   0.727  13.021  0.4784 -0.6156 -0.3822
  889MPD2    H513039   1.584   0.701  13.107 -0.2470 -2.8481 -0.6950
  889MPD2    N113040   1.324   0.298  13.104  0.0400 -0.6791 -0.0657
  889MPD2    H713041   1.377   0.302  13.190 -0.3491  1.1490  0.0767
  890MPD2     C13042   0.375   1.751  15.021 -0.2851 -0.3594 -0.2610
  890MPD2    C113043   0.504   1.718  14.988  0.2755 -0.3788 -0.5867
  890MPD2    C213044   0.552   1.592  15.018  0.1772  0.4469 -0.7801
  890MPD2    C313045   0.474   1.500  15.076 -0.0608 -0.0870  0.4351
  890MPD2    C413046   0.344   1.529  15.100  0.2167 -0.0089 -0.0529
  890MPD2    C513047   0.297   1.659  15.081  0.0898  0.2508 -0.1367
  890MPD2     H13048   0.653   1.566  14.989 -0.6954 -1.7401 -1.8364
  890MPD2    H113049   0.276   1.464  15.153  1.2433 -1.7757 -0.9196
  890MPD2    H213050   0.338   1.849  14.995 -3.1802 -0.9549  1.5653
  890MPD2    H313051   0.195   1.681  15.109  0.8398  1.2564  1.7753
  890MPD2     N13052   0.524   1.371  15.089 -0.2144 -0.3565 -0.4947
  890MPD2    H513053   0.623   1.363  15.068 -0.0824  1.5487 -0.5987
  890MPD2    N113054   0.580   1.821  14.926 -0.8180  0.6250  0.1559
  890MPD2    H713055   0.546   1.917  14.929 -1.9414  0.3933 -4.9226
  891MPD2     C13056   3.966   0.639  16.189  0.9612  0.1845 -0.6961
  891MPD2    C113057   3.894   0.621  16.306  0.5008 -0.2526  0.6946
  891MPD2    C213058   3.950   0.655  16.427 -0.3544 -0.1904  0.0888
  891MPD2    C313059   4.083   0.690  16.431 -0.9608  0.5254 -0.8927
  891MPD2    C413060   4.161   0.693  16.319 -0.0980 -0.3670 -0.4320
  891MPD2    C513061   4.102   0.670  16.201 -0.0587  0.6250 -0.1437
  891MPD2     H13062   3.893   0.663  16.519 -3.0525  1.2014 -1.7044
  891MPD2    H113063   4.267   0.713  16.315 -0.1398 -0.4492 -2.1151
  891MPD2    H213064   3.926   0.605  16.094 -1.0200 -0.7097  0.4622
  891MPD2    H313065   4.165   0.680  16.113 -0.8269  0.5237 -0.7074
  891MPD2     N13066   4.131   0.712  16.561  0.2404  0.3216  0.2990
  891MPD2    H513067   4.058   0.696  16.630  1.0657  0.9171  1.3083
  891MPD2    N113068   3.770   0.558  16.292  0.0036  0.4865 -0.2387
  891MPD2    H713069   3.755   0.521  16.198  0.2089 -3.5064  1.3147
  892MPD2     C13070   0.274   0.884  15.012  0.0286  0.3830  0.6142
  892MPD2    C113071   0.176   0.927  14.931  0.1262  0.2303  0.3586
  892MPD2    C213072   0.192   0.908  14.795 -0.3105  0.8656 -0.0098
  892MPD2    C313073   0.312   0.858  14.737 -0.6736  0.5047 -0.2901
  892MPD2    C413074   0.416   0.834  14.824  0.1212  0.2647  0.4934
  892MPD2    C513075   0.396   0.840  14.958  0.3613  0.2587  0.0698
  892MPD2     H13076   0.112   0.939  14.730 -2.1466  1.3810  2.5085
  892MPD2    H113077   0.512   0.808  14.782 -0.2420 -2.6056  1.4371
  892MPD2    H213078   0.264   0.878  15.119  0.8501 -0.0076  0.6679
  892MPD2    H313079   0.463   0.789  15.026 -3.0610 -0.4978  2.8651
  892MPD2     N13080   0.334   0.837  14.601  0.3420  0.5982  0.2750
  892MPD2    H513081   0.432   0.822  14.576  0.1675  0.5536 -0.3989
  892MPD2    N113082   0.056   0.986  14.986 -0.4929 -0.0415 -0.0019
  892MPD2    H713083   4.702   1.007  14.924  0.1462 -1.6646 -1.3441
  893MPD2     C13084   1.312   0.282   1.574  0.3118  0.3325  0.4448
  893MPD2    C113085   1.328   0.177   1.657  0.0160  0.1259  0.5350
  893MPD2    C213086   1.216   0.103   1.695 -0.3726 -0.1689 -0.1515
  893MPD2    C313087   1.088   0.150   1.657  0.3137 -0.2078  0.0736
  893MPD2    C413088   1.073   0.268   1.582  0.0925  0.7425 -0.4114
  893MPD2    C513089   1.189   0.330   1.533  0.0514 -0.7109 -0.0544
  893MPD2     H13090   1.222   0.013   1.755  0.5340 -0.5225 -0.7809
  893MPD2    H113091   0.974   0.309   1.566 -0.3624 -0.5209 -0.7686
  893MPD2    H213092   1.396   0.347   1.554  2.1736 -1.3485  2.7447
  893MPD2    H313093   1.180   0.420   1.474  0.6886 -0.6890 -0.1167
  893MPD2     N13094   0.974   0.082   1.695 -0.2740 -0.1383  0.5931
  893MPD2    H513095   0.889   0.122   1.657  1.0495  0.0616 -2.1750
  893MPD2    N113096   1.465   0.143   1.680  0.1701 -0.2355 -0.1069
  893MPD2    H713097   1.521   0.218   1.639 -0.8195  0.7388  0.3207
  894MPD2     C13098   4.639   2.423   1.175 -1.0633 -0.6139  0.9591
  894MPD2    C113099   4.588   2.482   1.286 -1.0926 -0.0594  0.1150
  894MPD2    C213100   4.595   2.617   1.300 -0.6574  0.5660  0.1453
  894MPD2    C313101   4.655   2.694   1.198  0.2027  0.0344 -0.1337
  894MPD2    C413102   4.691   2.637   1.072 -0.1998  0.1762  0.2251
  894MPD2    C513103   4.670   2.502   1.064  0.1483 -0.6019 -0.2611
  894MPD2     H13104   4.569   2.662   1.395  1.0750 -0.2125  0.9917
  894MPD2    H113105   0.009   2.695   0.990 -1.4512  1.3459  0.4217
  894MPD2    H213106   4.656   2.317   1.158 -0.8013 -0.4266  0.0091
  894MPD2    H313107   4.694   2.460   0.967  1.5327  1.5331 -0.8357
  894MPD2     N13108   4.678   2.832   1.233 -0.0666  0.2953 -0.1288
  894MPD2    H513109   4.664   2.861   1.329 -0.0545  1.5788 -0.5107
  894MPD2    N113110   4.548   2.398   1.390 -0.1903  0.5554 -0.1396
  894MPD2    H713111   4.509   2.447   1.470  1.4873  1.0008  0.4143
  895MPD2     C13112   3.632   0.707  13.419 -0.6015  0.2589 -0.6674
  895MPD2    C113113   3.668   0.707  13.285  0.2234 -0.4912 -0.2537
  895MPD2    C213114   3.787   0.640  13.262 -0.1837 -0.1066  0.2961
  895MPD2    C313115   3.868   0.592  13.363  0.0655  0.3485 -0.0955
  895MPD2    C413116   3.825   0.588  13.490 -0.0513  1.1948  0.9074
  895MPD2    C513117   3.708   0.651  13.519  0.2769  0.1168 -0.0866
  895MPD2     H13118   3.829   0.644  13.162  0.6094  1.6782  0.7104
  895MPD2    H113119   3.871   0.536  13.574  0.1435  1.1684  0.7838
  895MPD2    H213120   3.536   0.742  13.455 -0.4091  1.6314 -1.4956
  895MPD2    H313121   3.664   0.657  13.618 -1.1653 -1.3013 -0.6492
  895MPD2     N13122   3.992   0.528  13.329  0.1861  0.3380 -0.1287
  895MPD2    H513123   4.008   0.529  13.228  1.7931 -0.9166  0.0984
  895MPD2    N113124   3.597   0.775  13.179  0.3286 -0.4681 -0.2163
  895MPD2    H713125   3.509   0.809  13.216 -0.1147 -2.6792  0.7604
  896MPD2     C13126   1.360   3.469   2.198 -0.5230 -0.3099  0.1170
  896MPD2    C113127   1.373   3.457   2.062 -0.0636 -0.4158  0.4671
  896MPD2    C213128   1.255   3.435   1.993 -0.3634  0.1642 -0.2133
  896MPD2    C313129   1.130   3.435   2.062 -0.1975  0.1739  0.4344
  896MPD2    C413130   1.123   3.454   2.196  0.2213 -0.2287 -0.1578
  896MPD2    C513131   1.242   3.463   2.266 -0.3070 -0.1913  0.6373
  896MPD2     H13132   1.252   3.435   1.885 -0.5939  2.9757 -0.2195
  896MPD2    H113133   1.029   3.455   2.249  0.3312  2.5338 -0.0097
  896MPD2    H213134   1.450   3.485   2.255 -0.5494  0.9936 -0.2297
  896MPD2    H313135   1.241   3.470   2.375 -1.3155 -1.9579  0.7348
  896MPD2     N13136   1.019   3.416   1.983 -0.1366 -0.0560 -0.2312
  896MPD2    H513137   1.028   3.404   1.882  1.1684 -3.7576  0.3347
  896MPD2    N113138   1.502   3.464   2.007  0.5805  0.4834  0.3135
  896MPD2    H713139   1.582   3.464   2.070  0.8396 -1.5203 -0.0264
  897MPD2     C13140   2.528   4.639  10.967  0.0223 -0.5450 -0.8463
  897MPD2    C113141   2.461   4.691  10.857 -0.4141 -0.1803 -0.2154
  897MPD2    C213142   2.362   0.070  10.881 -0.2743  0.5174 -0.3075
  897MPD2    C313143   2.332   0.108  11.007  0.6726 -0.0201 -0.0193
  897MPD2    C413144   2.387   0.035  11.109  0.7703  0.1999  0.4464
  897MPD2    C513145   2.498   4.676  11.099 -0.3304 -0.2191  0.3270
  897MPD2     H13146   2.342   0.142  10.802 -2.1521 -0.8751 -1.1082
  897MPD2    H113147   2.339   0.040  11.206  3.6460  1.7934  1.7921
  897MPD2    H213148   2.597   4.557  10.954 -1.4890 -1.6873 -1.6381
  897MPD2    H313149   2.538   4.622  11.184 -0.1088 -0.5643  0.0035
  897MPD2     N13150   2.227   0.200  11.031  0.2862  0.4757 -0.6219
  897MPD2    H513151   2.213   0.221  11.129 -0.2009  1.2929 -0.8650
  897MPD2    N113152   2.505   4.652  10.728  0.3932  0.4075 -0.0191
  897MPD2    H713153   2.599   4.615  10.719  0.6605  1.2300 -0.6017
  898MPD2     C13154   3.953   1.598   0.393 -0.8024  0.1679 -0.2443
  898MPD2    C113155   3.986   1.517   0.285  0.7934  0.4702  0.0632
  898MPD2    C213156   3.966   1.572   0.158  0.2265 -0.8802 -0.2299
  898MPD2    C313157   3.911   1.702   0.143  0.1261 -0.2990 -0.8984
  898MPD2    C413158   3.894   1.785   0.250  1.2478  0.0358  0.2408
  898MPD2    C513159   3.914   1.732   0.378  0.0280  0.5936 -0.0819
  898MPD2     H13160   3.993   1.516   0.069 -1.2090  0.8840 -1.7647
  898MPD2    H113161   3.850   1.884   0.243 -0.6680 -0.7618  1.2177
  898MPD2    H213162   3.961   1.559   0.494  1.0433  0.7923 -0.1460
  898MPD2    H313163   3.899   1.788   0.469 -0.8588 -1.5424  1.1112
  898MPD2     N13164   3.900   1.754   0.012 -0.3556  0.2744 -1.1410
  898MPD2    H513165   3.925   1.691  17.633 -1.0443  1.7750 -2.6467
  898MPD2    N113166   4.050   1.391   0.300  0.0876  0.1534 -0.0994
  898MPD2    H713167   4.059   1.325   0.223  0.5122  2.5157 -2.1088
  899MPD2     C13168   0.827   1.662  17.636 -0.2967 -0.1379  0.3383
  899MPD2    C113169   0.718   1.739  17.596  0.5085  0.1504  0.0875
  899MPD2    C213170   0.594   1.723  17.663  0.5939  0.5291  0.4918
  899MPD2    C313171   0.574   1.617   0.055  0.2154 -0.2587  0.3368
  899MPD2    C413172   0.682   1.540   0.078  0.1342 -0.3080  0.4342
  899MPD2    C513173   0.805   1.556   0.023 -0.1686  0.2949  0.0258
  899MPD2     H13174   0.512   1.788  17.636 -0.4666 -1.6070 -1.4602
  899MPD2    H113175   0.674   1.449   0.137  0.4865 -1.7582 -1.7605
  899MPD2    H213176   0.927   1.671  17.595  0.1497 -2.5647  0.8853
  899MPD2    H313177   0.893   1.494   0.039 -2.2299 -2.2167  1.7306
  899MPD2     N13178   0.461   1.594   0.137  0.0867  0.2998 -0.3952
  899MPD2    H513179   0.466   1.522   0.208 -0.3630  0.6399 -0.0084
  899MPD2    N113180   0.740   1.843  17.504  0.1211 -0.0823  0.3763
  899MPD2    H713181   0.835   1.868  17.477  0.3011 -1.3021 -0.1104
  900MPD2     C13182   0.289   3.312  13.078 -0.5300 -0.1746 -0.4283
  900MPD2    C113183   0.322   3.232  12.974  0.4687  0.0588 -0.0002
  900MPD2    C213184   0.258   3.245  12.850 -0.6978 -0.2978 -1.1397
  900MPD2    C313185   0.145   3.327  12.839  0.4847 -0.0758  0.6353
  900MPD2    C413186   0.099   3.393  12.950 -0.0603  0.1770  0.3680
  900MPD2    C513187   0.176   3.392  13.062  0.1310  0.7067 -0.2829
  900MPD2     H13188   0.292   3.189  12.764  1.6639 -2.4687  1.2271
  900MPD2    H113189   0.012   3.458  12.944 -1.1109 -1.0535  2.3493
  900MPD2    H213190   0.345   3.316  13.171 -0.7617  0.0498 -0.2998
  900MPD2    H313191   0.150   3.455  13.146  1.0742  0.0573  0.5070
  900MPD2     N13192   0.079   3.316  12.716 -0.2956 -0.4921  0.4804
  900MPD2    H513193   0.123   3.251  12.651 -1.0529 -1.0686  0.5426
  900MPD2    N113194   0.434   3.152  12.997 -0.1520 -0.1007  0.5046
  900MPD2    H713195   0.486   3.170  13.082  0.5720 -1.1018  0.2697
  901MPD2     C13196   0.722   2.291  13.454  0.1771 -0.0110  0.0538
  901MPD2    C113197   0.761   2.275  13.319 -0.0369 -0.0819  0.2033
  901MPD2    C213198   0.764   2.389  13.241 -0.4017  0.1146  0.1503
  901MPD2    C313199   0.737   2.508  13.293 -0.1367  0.1357 -0.7031
  901MPD2    C413200   0.712   2.525  13.423 -0.3109 -0.0064  0.2760
  901MPD2    C513201   0.700   2.418  13.503  0.2591  0.0601 -0.4222
  901MPD2     H13202   0.786   2.387  13.135 -1.4518 -2.8655 -0.0093
  901MPD2    H113203   0.673   2.618  13.462 -0.7878  0.0888 -0.4199
  901MPD2    H213204   0.723   2.198  13.510  0.1685  0.5292  0.9560
  901MPD2    H313205   0.685   2.435  13.609  0.1352 -0.2721 -0.3868
  901MPD2     N13206   0.737   2.621  13.195 -0.5785 -0.4708  0.5293
  901MPD2    H513207   0.778   2.589  13.108 -0.6255 -1.5645  0.9049
  901MPD2    N113208   0.770   2.143  13.267 -0.1617  0.0988 -0.1694
  901MPD2    H713209   0.731   2.067  13.322 -2.1535  0.5230 -0.9812
  902MPD2     C13210   4.436   1.517  12.782 -0.3094  0.2422  0.0200
  902MPD2    C113211   4.350   1.410  12.778 -0.4194  0.3348  0.3398
  902MPD2    C213212   4.348   1.331  12.665  0.6377  0.5472 -0.0269
  902MPD2    C313213   4.434   1.366  12.562  0.2690  1.0682 -0.5482
  902MPD2    C413214   4.510   1.479  12.565 -0.3381  0.0239  0.3404
  902MPD2    C513215   4.511   1.554  12.679  0.4051 -1.2308  0.1301
  902MPD2     H13216   4.283   1.244  12.657 -1.7933  2.1045  2.7240
  902MPD2    H113217   4.565   1.516  12.479 -0.3360  0.2129  0.4228
  902MPD2    H213218   4.435   1.578  12.871  1.0756  1.5384 -0.8377
  902MPD2    H313219   4.569   1.646  12.690 -1.8425  0.2121 -0.1423
  902MPD2     N13220   4.462   1.277  12.458 -0.4288 -0.0756  0.5339
  902MPD2    H513221   4.530   1.305  12.389 -1.3302 -1.2288 -0.8162
  902MPD2    N113222   4.257   1.395  12.884 -0.1199 -0.0068  0.0470
  902MPD2    H713223   4.248   1.465  12.956  1.6248  0.4145 -0.1407
  903MPD2     C13224   4.436   1.325  11.718  0.0894 -1.4390  0.0823
  903MPD2    C113225   4.360   1.214  11.761  0.1436  0.1861 -0.1483
  903MPD2    C213226   4.269   1.161  11.671 -0.1643 -0.2139 -0.6135
  903MPD2    C313227   4.269   1.203  11.539 -0.0225  0.3508  0.0267
  903MPD2    C413228   4.342   1.308  11.504 -0.2443  0.1364 -0.9070
  903MPD2    C513229   4.420   1.371  11.594 -0.4896 -0.0098 -0.6111
  903MPD2     H13230   4.212   1.076  11.705  1.3132 -0.1352  2.0812
  903MPD2    H113231   4.337   1.346  11.403 -1.6504 -0.0513 -0.9039
  903MPD2    H213232   4.515   1.371  11.777 -1.2299  0.1819  0.5853
  903MPD2    H313233   4.479   1.453  11.554  1.0342 -0.2895  1.0277
  903MPD2     N13234   4.169   1.144  11.449 -0.2474 -0.2465 -0.3212
  903MPD2    H513235   4.127   1.054  11.467 -0.3928 -0.1928 -0.3931
  903MPD2    N113236   4.376   1.157  11.888  0.2664 -0.7142  0.4243
  903MPD2    H713237   4.317   1.077  11.904  1.4012 -1.5391  0.4672
  904MPD2     C13238   3.722   0.183  13.596  0.3915  0.1203 -0.1019
  904MPD2    C113239   3.636   0.097  13.666 -0.3838  0.4043  0.5654
  904MPD2    C213240   3.679   0.045  13.787 -0.5695 -0.1291 -0.4910
  904MPD2    C313241   3.792   0.103  13.842 -0.4326  0.2677 -0.5831
  904MPD2    C413242   3.860   0.208  13.782  0.4004  0.1294  0.8896
  904MPD2    C513243   3.833   0.235  13.653  0.0600  0.2289 -0.2649
  904MPD2     H13244   3.619   4.695  13.840 -0.2149 -0.9609 -1.2439
  904MPD2    H113245   3.941   0.274  13.812 -0.9031  1.4017  1.6019
  904MPD2    H213246   3.694   0.213  13.495  1.6638 -0.5885 -0.6728
  904MPD2    H313247   3.880   0.320  13.605  0.4062  1.2205  1.8081
  904MPD2     N13248   3.831   0.061  13.975  0.5001  0.4792 -0.7884
  904MPD2    H513249   3.795   4.697  14.011  1.2794 -0.5705 -2.5505
  904MPD2    N113250   3.510   0.065  13.616  0.1007 -0.3462 -0.2487
  904MPD2    H713251   3.446   0.015  13.676  0.6220 -2.5275 -1.5146
  905MPD2     C13252   3.567   0.455  13.021 -0.2717 -0.3688  0.5427
  905MPD2    C113253   3.569   0.363  13.128 -0.4208  0.4597  0.2709
  905MPD2    C213254   3.693   0.295  13.139  0.1077  0.5929 -1.2125
  905MPD2    C313255   3.799   0.322  13.051  0.1930  0.0459  0.2143
  905MPD2    C413256   3.791   0.419  12.952 -0.8508  0.1671 -0.2493
  905MPD2    C513257   3.675   0.488  12.938  0.6572  0.2352  0.6892
  905MPD2     H13258   3.704   0.230  13.225 -1.1123  1.7386 -0.1975
  905MPD2    H113259   3.872   0.453  12.889  0.8481 -2.2698  0.6352
  905MPD2    H213260   3.477   0.515  13.011  1.1281  1.5560 -0.2803
  905MPD2    H313261   3.670   0.576  12.875  0.2815 -0.4539 -0.2381
  905MPD2     N13262   3.914   0.251  13.078 -0.7678  0.1612 -0.9123
  905MPD2    H513263   3.911   0.167  13.134 -0.1421  2.1168  2.0272
  905MPD2    N113264   3.468   0.343  13.225  0.9040  0.0856  0.4794
  905MPD2    H713265   3.490   0.270  13.293 -0.9217 -1.5635 -0.7097
  906MPD2     C13266   0.898   0.260  11.689 -0.4516 -0.2051  0.3575
  906MPD2    C113267   0.845   0.185  11.593  0.1633  0.7430  0.6049
  906MPD2    C213268   0.767   0.076  11.630  0.4926 -0.3608  0.3716
  906MPD2    C313269   0.750   0.045  11.766 -0.4105  0.7119  0.0949
  906MPD2    C413270   0.811   0.126  11.860  0.0225  0.5711  0.0422
  906MPD2    C513271   0.893   0.223  11.818 -0.2959  0.5908 -0.4634
  906MPD2     H13272   0.725   0.012  11.552  1.0956  1.1678 -1.2174
  906MPD2    H113273   0.800   0.106  11.966  0.6179  3.7239  0.7137
  906MPD2    H213274   0.962   0.343  11.664  0.0493 -1.6259 -3.2369
  906MPD2    H313275   0.955   0.287  11.879  0.1216  1.2910 -1.6281
  906MPD2     N13276   0.653   4.681  11.815 -0.1987 -0.0998 -0.0847
  906MPD2    H513277   0.666   4.658  11.913 -2.2111  0.0781  0.2236
  906MPD2    N113278   0.874   0.199  11.453 -0.4918 -0.4579 -0.1380
  906MPD2    H713279   0.840   0.119  11.400  3.1893 -0.8796 -1.7992
  907MPD2     C13280   0.306   3.986  15.499 -0.4666  0.3203 -0.4431
  907MPD2    C113281   0.324   3.855  15.484  0.3474 -0.2905 -0.5322
  907MPD2    C213282   0.363   3.778  15.592 -0.4347  0.6660 -0.4063
  907MPD2    C313283   0.378   3.833  15.718  0.4604 -0.8343  0.7689
  907MPD2    C413284   0.364   3.967  15.724  1.1240 -0.5129 -0.1876
  907MPD2    C513285   0.327   4.044  15.618 -0.4469 -0.4767 -0.0585
  907MPD2     H13286   0.383   3.671  15.587 -0.8208  0.5801 -0.1181
  907MPD2    H113287   0.397   4.019  15.813 -1.2728  2.1831 -0.8789
  907MPD2    H213288   0.269   4.047  15.417  0.8252  1.4764 -0.1633
  907MPD2    H313289   0.312   4.148  15.641  1.4709 -0.0246 -0.8889
  907MPD2     N13290   0.410   3.751  15.830  0.4460  0.0626  1.2535
  907MPD2    H513291   0.437   3.656  15.807  1.8880  1.0490 -1.0853
  907MPD2    N113292   0.313   3.792  15.362 -0.2662 -0.1465 -0.1176
  907MPD2    H713293   0.343   3.695  15.355  0.2648 -0.0846  1.2373
  908MPD2     C13294   3.107   4.367  10.131 -0.5209 -0.0270  0.1773
  908MPD2    C113295   2.985   4.310  10.158  0.5143  0.2847  0.0426
  908MPD2    C213296   2.904   4.374  10.253 -0.0431  0.3457  0.5476
  908MPD2    C313297   2.945   4.487  10.324 -0.4540 -0.1043 -0.6193
  908MPD2    C413298   3.070   4.539  10.292  0.0430  0.2860 -0.2547
  908MPD2    C513299   3.150   4.473  10.206 -0.8405 -0.0713  0.3132
  908MPD2     H13300   2.801   4.343  10.267 -0.8485  3.5274  1.6928
  908MPD2    H113301   3.097   4.637  10.329  1.1040  0.4807 -1.5168
  908MPD2    H213302   3.162   4.354  10.039  0.9466  0.9495  0.9221
  908MPD2    H313303   3.246   4.513  10.176 -1.6868  0.8790 -1.1073
  908MPD2     N13304   2.851   4.552  10.406 -0.1805  0.6558  0.2817
  908MPD2    H513305   2.757   4.513  10.402 -0.3565  1.1324 -0.1050
  908MPD2    N113306   2.944   4.199  10.074 -0.3652  0.5611 -0.2372
  908MPD2    H713307   3.000   4.177   9.992 -2.7304 -1.3227 -1.3350
  909MPD2     C13308   2.908   2.804  12.165  0.3500  0.2025  1.0009
  909MPD2    C113309   2.849   2.864  12.060 -0.4487  0.1092  0.7224
  909MPD2    C213310   2.753   2.961  12.073  0.1354  0.7791 -0.1449
  909MPD2    C313311   2.723   3.007  12.197 -0.1920  0.8264 -0.0351
  909MPD2    C413312   2.776   2.940  12.309  0.1179  0.6755 -0.0151
  909MPD2    C513313   2.880   2.850  12.289  0.0209  0.0029  0.9296
  909MPD2     H13314   2.707   3.000  11.983  0.4584  2.3421  0.3732
  909MPD2    H113315   2.751   2.972  12.409 -1.0653  0.7120 -0.3201
  909MPD2    H213316   2.984   2.728  12.155 -0.0263 -0.1656  0.9399
  909MPD2    H313317   2.926   2.808  12.378 -0.4905 -2.3164  0.1167
  909MPD2     N13318   2.657   3.134  12.215  0.4459  0.0112  0.1461
  909MPD2    H513319   2.638   3.191  12.133  1.0875 -0.1289 -0.0948
  909MPD2    N113320   2.877   2.829  11.923  0.0844  0.1687 -1.2460
  909MPD2    H713321   2.839   2.889  11.851 -0.0387  2.5809  0.8638
  910MPD2     C13322   4.214   4.558  15.951 -0.6629  0.2888  0.6906
  910MPD2    C113323   4.288   4.537  15.834 -0.4721 -0.3678 -0.3469
  910MPD2    C213324   4.246   4.579  15.713 -0.0400 -0.3702 -0.2744
  910MPD2    C313325   4.121   4.640  15.701 -0.6284 -0.0355  0.5097
  910MPD2    C413326   4.045   4.661  15.816 -0.3080  0.3092  0.7291
  910MPD2    C513327   4.092   4.616  15.938  0.1046  0.8702 -0.2491
  910MPD2     H13328   4.317   4.555  15.635  0.3213 -0.5254  0.0997
  910MPD2    H113329   3.948   4.709  15.815  0.6181  2.1701  0.9749
  910MPD2    H213330   4.220   4.496  16.040  0.2814  1.1476  1.2183
  910MPD2    H313331   4.029   4.629  16.026  0.0084 -3.3325  0.3143
  910MPD2     N13332   4.071   4.691  15.582 -0.3266  0.5402 -0.3450
  910MPD2    H513333   3.978   0.008  15.582  0.1934  1.7628  0.4445
  910MPD2    N113334   4.406   4.462  15.840 -0.0511  0.4053  0.1021
  910MPD2    H713335   4.467   4.439  15.761 -1.6921 -0.1536 -0.9966
  911MPD2     C13336   2.182   0.311  16.100  0.3927 -0.1623  0.5961
  911MPD2    C113337   2.252   0.387  16.192  0.4619 -0.4669 -0.5046
  911MPD2    C213338   2.252   0.522  16.179  0.2391  0.1313 -0.5713
  911MPD2    C313339   2.193   0.588  16.074 -0.8190  0.7357 -0.3907
  911MPD2    C413340   2.105   0.513  15.994  0.8907  0.2295 -0.4268
  911MPD2    C513341   2.111   0.372  15.997  0.5970 -0.1806 -0.5975
  911MPD2     H13342   2.318   0.575  16.245 -1.6828 -0.5846  1.9131
  911MPD2    H113343   2.055   0.556  15.908 -0.1093  0.5514  0.3305
  911MPD2    H213344   2.189   0.203  16.098 -1.0090 -0.2578  1.0134
  911MPD2    H313345   2.066   0.306  15.924 -1.9429  1.3448 -0.4117
  911MPD2     N13346   2.189   0.729  16.061 -0.0984 -0.8834  0.3775
  911MPD2    H513347   2.136   0.767  15.984 -1.1345  0.6361  1.8641
  911MPD2    N113348   2.319   0.319  16.296 -0.3589  0.3113  0.3925
  911MPD2    H713349   2.330   0.218  16.288 -4.1060  0.0531 -1.9943
  912MPD2     C13350   1.625   0.802  15.883  0.5320  1.2598 -0.0273
  912MPD2    C113351   1.697   0.815  16.000 -0.5238 -0.6809 -0.2763
  912MPD2    C213352   1.668   0.726  16.104 -0.1546 -0.3475 -0.0925
  912MPD2    C313353   1.583   0.623  16.090 -0.1862  0.1353  0.5289
  912MPD2    C413354   1.509   0.614  15.978 -0.2437  0.3091  0.5761
  912MPD2    C513355   1.531   0.699  15.872 -0.2122  0.4807  0.6717
  912MPD2     H13356   1.723   0.722  16.198 -0.0780 -0.6181 -0.1492
  912MPD2    H113357   1.432   0.538  15.973 -0.5108  0.6423 -0.2704
  912MPD2    H213358   1.624   0.872  15.800  1.7367 -0.1327 -1.2270
  912MPD2    H313359   1.469   0.704  15.783 -0.9196  1.4104  1.2055
  912MPD2     N13360   1.586   0.524  16.192 -0.4057 -0.0825 -0.2405
  912MPD2    H513361   1.655   0.555  16.259  1.3736 -0.4525 -1.9068
  912MPD2    N113362   1.793   0.917  16.018  0.0486  0.8527 -0.0743
  912MPD2    H713363   1.827   0.960  15.933  0.3487  1.7979  0.5224
  913MPD2     C13364   2.539   1.122  10.898  0.1530 -0.3588  0.2869
  913MPD2    C113365   2.522   1.231  10.980 -0.0951  0.0663 -0.0890
  913MPD2    C213366   2.498   1.359  10.923  0.4928 -0.6712 -0.6084
  913MPD2    C313367   2.485   1.365  10.782  0.7589  0.0734 -0.5366
  913MPD2    C413368   2.506   1.256  10.704 -0.2515  0.1051 -0.2506
  913MPD2    C513369   2.536   1.138  10.760 -0.4189  0.0987  0.0523
  913MPD2     H13370   2.476   1.447  10.983  2.0640 -0.3675 -0.4681
  913MPD2    H113371   2.499   1.245  10.597 -0.6232  1.3675 -0.3633
  913MPD2    H213372   2.573   1.021  10.921  0.1635 -0.1052  1.4018
  913MPD2    H313373   2.548   1.050  10.697  0.3837  0.4067 -0.2274
  913MPD2     N13374   2.472   1.485  10.705  0.2791 -0.9561 -0.5174
  913MPD2    H513375   2.476   1.483  10.603  0.7305 -1.6426 -0.4793
  913MPD2    N113376   2.519   1.204  11.123  0.5500  0.0972  0.5069
  913MPD2    H713377   2.522   1.104  11.145  0.8924 -0.3328 -1.5245
  914MPD2     C13378   0.541   2.172  12.362 -0.1056  0.2359 -0.1526
  914MPD2    C113379   0.618   2.250  12.451  0.0445  0.6316 -0.6178
  914MPD2    C213380   0.655   2.182  12.567 -0.1334 -0.3096 -0.5328
  914MPD2    C313381   0.618   2.052  12.593 -0.3483 -0.3702  0.1826
  914MPD2    C413382   0.538   1.983  12.499  0.0700 -0.6342 -0.0487
  914MPD2    C513383   0.489   2.049  12.391  0.0573 -0.7358 -0.0200
  914MPD2     H13384   0.715   2.241  12.636  1.5962 -1.3764 -1.1089
  914MPD2    H113385   0.514   1.879  12.515  0.2589 -0.4921  1.1412
  914MPD2    H213386   0.518   2.220  12.267  0.1665 -0.1502 -0.4123
  914MPD2    H313387   0.441   2.004  12.305 -1.7284  1.0417  0.0704
  914MPD2     N13388   0.663   1.998  12.715  0.3022  0.0450 -1.0218
  914MPD2    H513389   0.718   2.061  12.773  1.6199 -2.6779  0.6585
  914MPD2    N113390   0.660   2.378  12.416  0.3055 -0.5672  0.6568
  914MPD2    H713391   0.639   2.414  12.323  1.0370 -0.0215  0.7029
  915MPD2     C13392   3.482   1.939  16.317 -0.5659 -0.6328  0.2606
  915MPD2    C113393   3.379   1.970  16.234 -0.6400  0.1488  0.6593
  915MPD2    C213394   3.274   2.043  16.287 -1.0024 -0.3478  0.8086
  915MPD2    C313395   3.269   2.085  16.419  0.7910 -0.9285 -0.2957
  915MPD2    C413396   3.369   2.043  16.504  0.1810  0.2611 -0.4732
  915MPD2    C513397   3.474   1.970  16.450  0.1806  0.5443 -0.3397
  915MPD2     H13398   3.196   2.071  16.216 -1.0383 -0.7944  0.6713
  915MPD2    H113399   3.372   2.074  16.608 -1.3388 -1.0917 -0.0276
  915MPD2    H213400   3.567   1.887  16.276  1.2508  2.2590  0.4005
  915MPD2    H313401   3.545   1.925  16.517  0.4277 -0.3520 -1.2078
  915MPD2     N13402   3.167   2.177  16.452 -0.6373  0.0920  0.1685
  915MPD2    H513403   3.101   2.202  16.378  0.1249  1.0725 -0.1764
  915MPD2    N113404   3.386   1.924  16.102  0.5813 -0.5545 -0.2271
  915MPD2    H713405   3.467   1.867  16.077  0.5255 -0.9626  0.5371
  916MPD2     C13406   1.520   4.613  15.685  0.4552 -0.5132  0.2660
  916MPD2    C113407   1.468   4.552  15.793 -0.5527  0.2202  0.0674
  916MPD2    C213408   1.476   4.414  15.793 -0.6257  0.4450  0.1843
  916MPD2    C313409   1.528   4.345  15.688  0.8740  1.0503 -0.0588
  916MPD2    C413410   1.579   4.412  15.581  0.8341  0.1035  0.3045
  916MPD2    C513411   1.571   4.550  15.580 -0.0701 -0.3821 -0.5668
  916MPD2     H13412   1.443   4.358  15.880  1.8767  3.4544  3.0430
  916MPD2    H113413   1.620   4.369  15.489 -1.0441  0.0136 -0.4859
  916MPD2    H213414   1.508   4.720  15.668  0.0702 -0.3144  1.7858
  916MPD2    H313415   1.595   4.606  15.490 -0.1685 -1.8579 -1.5173
  916MPD2     N13416   1.534   4.207  15.699 -1.1449 -0.2230  0.8900
  916MPD2    H513417   1.511   4.169  15.790  0.9385 -0.4904  1.3214
  916MPD2    N113418   1.420   4.627  15.903  0.0788 -0.1884 -0.1302
  916MPD2    H713419   1.422   0.005  15.896  0.5450 -0.2963 -1.5608
  917MPD2     C13420   1.698   2.646  11.216  0.0023 -0.8152 -0.2151
  917MPD2    C113421   1.689   2.733  11.318  0.2836  0.2097  0.3188
  917MPD2    C213422   1.673   2.869  11.292  0.0562 -0.8842 -0.1880
  917MPD2    C313423   1.679   2.913  11.158 -0.3688  0.1622 -0.0338
  917MPD2    C413424   1.693   2.820  11.055 -0.3167  0.7264 -0.0858
  917MPD2    C513425   1.699   2.688  11.084  0.2686 -0.3515 -0.2757
  917MPD2     H13426   1.659   2.938  11.373  0.2984 -1.8171  0.6490
  917MPD2    H113427   1.696   2.858  10.953 -2.4323 -0.8957 -0.7395
  917MPD2    H213428   1.709   2.540  11.234  0.0341 -0.1567  3.6182
  917MPD2    H313429   1.708   2.617  11.002  0.7337  0.3526 -0.8426
  917MPD2     N13430   1.668   3.047  11.117  0.1958 -0.3577  0.2221
  917MPD2    H513431   1.677   3.071  11.019 -2.0714 -0.0628  0.0724
  917MPD2    N113432   1.680   2.677  11.449  0.7781 -0.1020  0.8782
  917MPD2    H713433   1.676   2.575  11.444 -0.7899  0.0803 -1.7010
  918MPD2     C13434   1.986   2.882  12.379 -0.9076 -0.0622  0.4120
  918MPD2    C113435   2.066   2.838  12.269 -0.1570  0.1326  0.0121
  918MPD2    C213436   2.003   2.788  12.160  0.2613  0.3678  0.1104
  918MPD2    C313437   1.865   2.771  12.159  0.8109 -0.2015  0.5894
  918MPD2    C413438   1.788   2.819  12.262 -0.7372 -0.7511  0.0224
  918MPD2    C513439   1.852   2.874  12.371 -0.1565  0.3696 -0.6835
  918MPD2     H13440   2.067   2.754  12.079 -0.1611  1.0272 -0.4980
  918MPD2    H113441   1.681   2.806  12.266 -0.8280  0.1831  0.6396
  918MPD2    H213442   2.028   2.936  12.463  0.3474 -0.2683 -0.0880
  918MPD2    H313443   1.790   2.925  12.444 -0.4862 -0.8323 -0.1371
  918MPD2     N13444   1.807   2.717  12.040 -0.4881  0.6213 -0.7154
  918MPD2    H513445   1.865   2.710  11.958  2.3939 -1.1990  1.4879
  918MPD2    N113446   2.209   2.822  12.276 -0.9059  0.3336 -0.2445
  918MPD2    H713447   2.255   2.785  12.194 -1.6302 -2.4840  0.6195
  919MPD2     C13448   2.244   1.478  11.985 -0.7464  0.2577 -0.1484
  919MPD2    C113449   2.206   1.360  11.931 -0.0794  0.0697  0.1537
  919MPD2    C213450   2.194   1.351  11.793  0.4171 -0.3614 -0.4513
  919MPD2    C313451   2.210   1.461  11.716 -0.2536 -0.0662 -0.3114
  919MPD2    C413452   2.251   1.583  11.769 -0.9983 -0.4469  0.0512
  919MPD2    C513453   2.260   1.588  11.906 -0.0593  0.2070 -0.4666
  919MPD2     H13454   2.165   1.254  11.757 -1.3915 -0.0152  0.0938
  919MPD2    H113455   2.270   1.673  11.712  0.2218 -1.5258 -1.2551
  919MPD2    H213456   2.254   1.479  12.093  1.3467  0.3946 -0.3443
  919MPD2    H313457   2.290   1.682  11.951 -0.4574 -0.2293  0.7223
  919MPD2     N13458   2.189   1.459  11.576  0.2137 -0.0200  0.1285
  919MPD2    H513459   2.180   1.552  11.536 -0.0800 -0.4274 -0.7619
  919MPD2    N113460   2.172   1.241  12.011 -0.2163  0.4755  0.1311
  919MPD2    H713461   2.156   1.159  11.953  1.3496  0.8815 -0.8795
  920MPD2     C13462   2.063   1.941  10.724 -0.2302 -0.9910  0.1002
  920MPD2    C113463   2.015   1.816  10.689 -0.5090  0.2904 -0.4461
  920MPD2    C213464   2.032   1.710  10.778 -0.6902  0.4777  0.1488
  920MPD2    C313465   2.119   1.724  10.884  0.4351 -0.7150  0.3733
  920MPD2    C413466   2.170   1.849  10.919  0.2203 -0.1141 -0.5807
  920MPD2    C513467   2.156   1.951  10.826  0.6318 -0.0195  0.5402
  920MPD2     H13468   1.982   1.617  10.755  0.2108 -0.0298  0.2359
  920MPD2    H113469   2.245   1.870  10.994 -2.0929  0.4133  1.5855
  920MPD2    H213470   2.058   2.017  10.646 -2.2717  1.1751  2.3677
  920MPD2    H313471   2.214   2.042  10.838  1.4766 -0.4349 -0.3347
  920MPD2     N13472   2.132   1.599  10.957  0.1673  0.2037 -0.1718
  920MPD2    H513473   2.091   1.516  10.914  0.6794 -0.7727  1.2170
  920MPD2    N113474   1.927   1.783  10.585 -0.0733 -0.1497 -0.6405
  920MPD2    H713475   1.919   1.685  10.558  0.3506 -0.0156 -1.2658
  921MPD2     C13476   3.085   0.705  16.637  0.0746  0.3712 -0.0357
  921MPD2    C113477   3.097   0.575  16.605 -0.1641  0.5143  1.1311
  921MPD2    C213478   2.992   0.492  16.636  0.3025 -0.3646 -0.5636
  921MPD2    C313479   2.875   0.537  16.686  0.0572 -0.1777 -0.5504
  921MPD2    C413480   2.866   0.665  16.726 -0.0972 -0.0740 -0.6620
  921MPD2    C513481   2.971   0.754  16.701  0.0760  0.3899 -0.2258
  921MPD2     H13482   3.009   0.386  16.622  1.5273 -0.2490  0.1154
  921MPD2    H113483   2.773   0.697  16.771 -0.8018 -2.1756 -0.6315
  921MPD2    H213484   3.169   0.774  16.630  0.7941 -0.4514  0.6099
  921MPD2    H313485   2.954   0.852  16.743  1.1587 -0.0168  1.1722
  921MPD2     N13486   2.758   0.460  16.694 -0.4484 -0.4004  0.3146
  921MPD2    H513487   2.669   0.505  16.714 -0.6146 -0.5155 -0.1774
  921MPD2    N113488   3.209   0.531  16.529  0.5192  0.1459  0.0571
  921MPD2    H713489   3.273   0.606  16.503 -2.4702  2.7536  0.1823
  922MPD2     C13490   4.273   2.973  16.889 -0.1216  0.4747  0.4704
  922MPD2    C113491   4.209   3.073  16.959 -0.9281 -0.2687 -0.5715
  922MPD2    C213492   4.074   3.060  16.992 -0.2003  0.2274  0.0711
  922MPD2    C313493   4.001   2.948  16.953 -1.2616 -0.3038  0.5985
  922MPD2    C413494   4.070   2.848  16.881 -0.2865  0.2320 -0.5939
  922MPD2    C513495   4.205   2.857  16.856 -0.3506 -0.2078 -0.2495
  922MPD2     H13496   4.026   3.135  17.054  1.2605  2.1101 -1.0981
  922MPD2    H113497   4.024   2.755  16.851  0.7449 -0.5292  0.1465
  922MPD2    H213498   4.378   2.983  16.865  0.0262 -0.6183  0.6527
  922MPD2    H313499   4.254   2.778  16.800  1.5451  1.0373 -0.3624
  922MPD2     N13500   3.860   2.933  16.984  0.0701 -0.9162  0.3569
  922MPD2    H513501   3.819   3.018  17.021 -1.6440 -1.2808 -0.7049
  922MPD2    N113502   4.273   3.189  17.006 -0.2977  0.5242  0.6102
  922MPD2    H713503   4.221   3.235  17.081  0.3199  2.3387 -0.0801
  923MPD2     C13504   4.656   4.033   9.644  0.3617 -0.8256 -0.0269
  923MPD2    C113505   4.643   4.172   9.647 -0.2439  0.7396  0.5447
  923MPD2    C213506   0.021   4.238   9.718 -0.9826  0.3349 -0.4385
  923MPD2    C313507   0.131   4.172   9.776  0.0543  0.4491 -0.4909
  923MPD2    C413508   0.137   4.035   9.768  0.3755 -0.0019  0.1077
  923MPD2    C513509   0.034   3.963   9.706  0.5010 -0.1097 -0.1539
  923MPD2     H13510   0.020   4.346   9.708 -1.5508  0.4782  1.2163
  923MPD2    H113511   0.210   3.973   9.817  1.7967  0.0419 -1.9217
  923MPD2    H213512   4.585   3.973   9.587  0.4442 -0.5868 -0.3755
  923MPD2    H313513   0.035   3.855   9.699  3.5866 -0.0059 -1.4308
  923MPD2     N13514   0.230   4.242   9.843 -0.1954 -0.0570 -0.0202
  923MPD2    H513515   0.302   4.189   9.892 -0.7857  0.2405  1.1846
  923MPD2    N113516   4.532   4.238   9.584 -0.5416 -0.3963 -0.3454
  923MPD2    H713517   4.470   4.180   9.528 -0.0806 -0.5950 -0.6485
  924MPD2     C13518   0.627   2.867  15.995  0.0055  0.2879 -0.4850
  924MPD2    C113519   0.546   2.952  15.921 -0.4907 -0.0132  0.7230
  924MPD2    C213520   0.558   3.090  15.941 -0.4131 -0.2234 -0.1913
  924MPD2    C313521   0.651   3.130  16.038  0.3431  0.2624 -0.4007
  924MPD2    C413522   0.732   3.040  16.108  0.1308 -0.3783  0.1998
  924MPD2    C513523   0.718   2.908  16.088  0.3840  0.1754  0.3974
  924MPD2     H13524   0.499   3.153  15.876 -0.7836 -1.2972 -0.9052
  924MPD2    H113525   0.793   3.085  16.185  0.1373 -0.8199  0.4503
  924MPD2    H213526   0.632   2.760  15.979  0.3932  0.2838 -0.3419
  924MPD2    H313527   0.780   2.835  16.139  1.5400  0.0633 -1.1601
  924MPD2     N13528   0.675   3.266  16.066  0.2740 -0.2149 -0.0933
  924MPD2    H513529   0.746   3.290  16.134  2.2732 -0.4133 -2.1245
  924MPD2    N113530   0.461   2.891  15.825 -0.0781 -0.1319  0.3056
  924MPD2    H713531   0.474   2.791  15.813  0.9003  0.0335 -0.0406
  925MPD2     C13532   3.632   1.051  14.130 -0.0575  1.0369 -0.2382
  925MPD2    C113533   3.719   0.973  14.197 -0.3523  0.1878  0.4522
  925MPD2    C213534   3.706   0.936  14.328  0.3401  0.0813  0.5285
  925MPD2    C313535   3.603   0.994  14.401 -0.2068 -0.0095 -0.3765
  925MPD2    C413536   3.514   1.070  14.333 -0.0893  0.1033  0.2911
  925MPD2    C513537   3.523   1.099  14.200 -0.2824 -0.0725  0.7406
  925MPD2     H13538   3.787   0.887  14.380  0.9379  1.0760  0.5276
  925MPD2    H113539   3.429   1.114  14.384 -0.0001  0.8064 -0.1652
  925MPD2    H213540   3.652   1.081  14.027  0.9448  0.3262 -0.2465
  925MPD2    H313541   3.463   1.173  14.147 -1.7681 -2.1484 -0.4824
  925MPD2     N13542   3.588   0.964  14.541  0.1625 -0.3745 -0.4202
  925MPD2    H513543   3.649   0.891  14.575 -2.2918 -2.6854 -1.0564
  925MPD2    N113544   3.834   0.922  14.131 -0.3872 -0.1004  0.6067
  925MPD2    H713545   3.895   0.858  14.181 -1.0401 -0.5953  0.7764
  926MPD2     C13546   2.609   3.710  13.153  0.1766 -0.2374  0.6529
  926MPD2    C113547   2.540   3.824  13.099  0.2656  0.0828 -0.0341
  926MPD2    C213548   2.592   3.887  12.989 -0.4565 -0.1938 -0.0564
  926MPD2    C313549   2.703   3.839  12.922  0.4079  0.5496  0.5671
  926MPD2    C413550   2.750   3.718  12.961 -0.4171 -0.0260 -0.2315
  926MPD2    C513551   2.708   3.652  13.079  0.9056 -0.0587 -0.3010
  926MPD2     H13552   2.556   3.984  12.957 -1.2373 -0.7365 -0.8189
  926MPD2    H113553   2.823   3.664  12.902  0.7562 -0.3010  1.4920
  926MPD2    H213554   2.565   3.644  13.226  0.5837 -1.1558  0.0685
  926MPD2    H313555   2.761   3.563  13.110  0.8094 -0.6001 -1.7096
  926MPD2     N13556   2.757   3.902  12.809  0.3004  0.6464  0.0656
  926MPD2    H513557   2.844   3.868  12.769  0.9473  0.7007  1.4304
  926MPD2    N113558   2.435   3.888  13.168 -0.1459  0.2642 -0.1915
  926MPD2    H713559   2.396   3.967  13.118 -4.7871 -0.0971  2.9031
  927MPD2     C13560   2.349   2.160   0.495  0.0875  0.2549 -0.4874
  927MPD2    C113561   2.394   2.031   0.518  0.2347  0.3003 -0.4837
  927MPD2    C213562   2.521   1.986   0.479  0.7773 -0.4674  0.7213
  927MPD2    C313563   2.602   2.068   0.403  0.3781 -0.7076  0.1102
  927MPD2    C413564   2.559   2.199   0.382 -0.5541 -0.1649  0.3460
  927MPD2    C513565   2.441   2.248   0.432 -0.2156 -0.1956  0.0703
  927MPD2     H13566   2.558   1.893   0.521  0.1011  0.0634  2.5086
  927MPD2    H113567   2.625   2.267   0.328 -3.1590  1.2435 -1.0500
  927MPD2    H213568   2.252   2.192   0.531  0.8813  1.2465  0.7468
  927MPD2    H313569   2.422   2.353   0.411 -2.2910 -0.7941 -1.0529
  927MPD2     N13570   2.732   2.026   0.369  0.2451  1.0592  0.1029
  927MPD2    H513571   2.752   1.931   0.399 -0.2724  0.2807 -2.0170
  927MPD2    N113572   2.312   1.941   0.584 -0.2750  0.7548 -0.4053
  927MPD2    H713573   2.235   1.980   0.638 -0.1620  0.1547  0.1893
  928MPD2     C13574   0.037   4.390   0.844 -0.7454  0.2596  0.7338
  928MPD2    C113575   0.133   4.467   0.908 -0.5731  0.1851  0.5072
  928MPD2    C213576   0.183   4.577   0.842 -0.1351 -0.2908 -0.0603
  928MPD2    C313577   0.124   4.622   0.722 -0.0093  0.4759 -0.6734
  928MPD2    C413578   0.029   4.547   0.660 -0.7222 -0.6236 -0.4032
  928MPD2    C513579   4.713   4.433   0.726  0.2472  0.4984  0.5133
  928MPD2     H13580   0.266   4.632   0.885 -0.5407 -0.4276  0.8993
  928MPD2    H113581   4.711   4.572   0.563  1.3536  2.1037 -0.5730
  928MPD2    H213582   4.723   4.299   0.890 -1.3516 -0.6323 -1.5134
  928MPD2    H313583   4.642   4.377   0.667 -0.5376 -1.0031  2.8892
  928MPD2     N13584   0.180   0.001   0.640 -0.4759 -1.1552 -0.4570
  928MPD2    H513585   0.154   4.723   0.542 -3.3420  0.8932  0.2677
  928MPD2    N113586   0.192   4.420   1.031  0.1025  0.1690 -0.5099
  928MPD2    H713587   0.141   4.342   1.069  0.6410  1.1939  2.3051
  929MPD2     C13588   0.348   4.707  11.371 -0.0389 -0.4728  0.2597
  929MPD2    C113589   0.250   4.683  11.274  0.1795 -0.5339  0.0056
  929MPD2    C213590   0.264   0.018  11.147  0.2403  0.1334  0.1841
  929MPD2    C313591   0.358   0.114  11.126  0.5529  0.4483 -0.2683
  929MPD2    C413592   0.460   0.130  11.220 -0.7346  0.1359 -0.3262
  929MPD2    C513593   0.458   0.062  11.336  0.6333  0.1705  0.0733
  929MPD2     H13594   0.192   4.718  11.070 -0.2776  0.7969  0.4701
  929MPD2    H113595   0.544   0.198  11.207 -0.7659  0.4339  1.0161
  929MPD2    H213596   0.343   4.672  11.473 -1.9070  2.0214  1.0127
  929MPD2    H313597   0.532   0.086  11.412  0.1998  1.7544 -0.0151
  929MPD2     N13598   0.375   0.175  11.004  0.2154  0.3879 -0.2657
  929MPD2    H513599   0.443   0.251  11.002 -0.3142  0.8713  0.1030
  929MPD2    N113600   0.139   4.610  11.313  0.2700 -0.3888  0.2522
  929MPD2    H713601   0.133   4.580  11.410 -0.8441  1.2418  0.6848
  930MPD2     C13602   1.956   2.474  14.767 -0.2989 -0.5999  0.4569
  930MPD2    C113603   2.081   2.446  14.707  0.2711  0.7347 -0.5655
  930MPD2    C213604   2.083   2.358  14.598  0.2003 -0.4394 -0.5805
  930MPD2    C313605   1.965   2.325  14.532 -0.1547  0.2122  0.6286
  930MPD2    C413606   1.842   2.371  14.585 -0.1304  0.0730 -0.8958
  930MPD2    C513607   1.841   2.442  14.700  0.2238 -0.0445 -0.2054
  930MPD2     H13608   2.177   2.339  14.547  1.7245  1.7359  1.4048
  930MPD2    H113609   1.747   2.355  14.536 -1.2678  1.7021  0.8019
  930MPD2    H213610   1.959   2.523  14.863  0.1017  3.5579 -1.6813
  930MPD2    H313611   1.744   2.463  14.744  0.6780  0.2638  0.6721
  930MPD2     N13612   1.954   2.262  14.406  0.6962  0.4671  0.4436
  930MPD2    H513613   1.865   2.263  14.357  1.2086 -0.0353 -0.4882
  930MPD2    N113614   2.195   2.508  14.771 -0.0042 -0.1070  0.4286
  930MPD2    H713615   2.161   2.567  14.846  1.7751  1.6448 -0.1332
  931MPD2     C13616   2.379   1.160   0.810 -0.1226  0.1897 -0.5293
  931MPD2    C113617   2.280   1.219   0.879 -0.1514  0.8496  0.6773
  931MPD2    C213618   2.205   1.142   0.968 -0.2736 -0.5966 -0.2772
  931MPD2    C313619   2.242   1.010   1.002  0.3830 -0.6845 -0.1644
  931MPD2    C413620   2.354   0.955   0.941 -0.4904 -0.1898 -0.2541
  931MPD2    C513621   2.418   1.032   0.848  0.4212  0.3608  0.3260
  931MPD2     H13622   2.137   1.201   1.027 -0.6694 -0.8381 -0.4879
  931MPD2    H113623   2.385   0.855   0.970 -0.0888  1.0026  3.4327
  931MPD2    H213624   2.445   1.210   0.741 -1.7848  2.1355 -0.6970
  931MPD2    H313625   2.502   0.986   0.797  1.0688  0.8124  0.9824
  931MPD2     N13626   2.165   0.925   1.086  0.3211  0.1614 -0.5414
  931MPD2    H513627   2.201   0.831   1.098 -0.2709  0.1491  1.2277
  931MPD2    N113628   2.248   1.352   0.838  0.1920  0.4801  0.1599
  931MPD2    H713629   2.311   1.380   0.764  0.7597 -1.8788 -0.2457
  932MPD2     C13630   3.919   0.863  10.783  0.1439  0.9733 -0.4486
  932MPD2    C113631   4.006   0.916  10.872  0.0254 -0.1999 -0.8184
  932MPD2    C213632   4.064   0.834  10.969  0.2797  0.1337  0.2410
  932MPD2    C313633   4.031   0.703  10.984 -0.0053  0.1963  0.5973
  932MPD2    C413634   3.937   0.658  10.898  0.9737  0.2050  0.1310
  932MPD2    C513635   3.887   0.731  10.795  0.0558  0.3707 -1.0173
  932MPD2     H13636   4.141   0.869  11.036  0.9054  0.8026 -0.8410
  932MPD2    H113637   3.920   0.551  10.902  1.8233  0.0936  0.7615
  932MPD2    H213638   3.873   0.914  10.699 -2.6457 -0.1901  0.3797
  932MPD2    H313639   3.832   0.689  10.711 -3.8837 -0.5610  2.0276
  932MPD2     N13640   4.079   0.612  11.083  0.0617 -0.4718  0.3263
  932MPD2    H513641   4.048   0.515  11.082  1.0697 -0.8183  1.4474
  932MPD2    N113642   4.058   1.046  10.853 -0.1417  0.4399 -0.2338
  932MPD2    H713643   4.134   1.082  10.909 -0.4806  0.9338 -0.0873
  933MPD2     C13644   4.665   4.097   1.611 -0.7436 -0.1189 -0.8049
  933MPD2    C113645   4.684   4.204   1.521  0.0885  0.7774  0.3969
  933MPD2    C213646   4.577   4.295   1.516 -0.2599  0.0531  0.2109
  933MPD2    C313647   4.458   4.282   1.593  0.1163  0.6903 -1.0730
  933MPD2    C413648   4.444   4.169   1.669  0.0424 -0.1400  0.1762
  933MPD2    C513649   4.549   4.078   1.677  0.1536  0.5649 -0.4333
  933MPD2     H13650   4.597   4.385   1.459  1.4127 -0.1081  0.5380
  933MPD2    H113651   4.346   4.142   1.706  0.6520 -1.6407  0.6704
  933MPD2    H213652   0.013   4.016   1.617  0.1277  0.7156  0.1496
  933MPD2    H313653   4.536   3.988   1.735  0.2887  1.3654  0.8363
  933MPD2     N13654   4.357   4.376   1.567 -0.4198  0.3269  0.5113
  933MPD2    H513655   4.380   4.430   1.485  1.8353 -0.4130  0.6538
  933MPD2    N113656   0.070   4.221   1.443 -0.2475 -0.5996  0.3832
  933MPD2    H713657   0.065   4.306   1.388 -1.0984 -1.4072 -0.7812
  934MPD2     C13658   1.287   3.082   2.088 -0.0172 -0.3024 -0.9577
  934MPD2    C113659   1.369   2.984   2.033 -0.3070 -0.4580  0.5779
  934MPD2    C213660   1.301   2.893   1.953  0.0828  0.1596  0.5962
  934MPD2    C313661   1.160   2.886   1.946  0.6753  0.9615 -0.3429
  934MPD2    C413662   1.088   2.981   2.005 -0.2786  0.3626  0.1247
  934MPD2    C513663   1.149   3.078   2.074 -0.0066 -0.2602 -0.5113
  934MPD2     H13664   1.357   2.812   1.907  1.2185  0.0958  2.0873
  934MPD2    H113665   0.980   2.988   2.001 -0.4608 -1.2926  1.8367
  934MPD2    H213666   1.325   3.168   2.142  0.1143 -1.0299  0.1098
  934MPD2    H313667   1.079   3.142   2.126 -1.9255  0.4328 -3.9905
  934MPD2     N13668   1.089   2.805   1.854 -0.1698 -0.5371 -0.5882
  934MPD2    H513669   0.989   2.806   1.873  0.0612 -1.5743  0.6605
  934MPD2    N113670   1.513   2.973   2.050 -0.5032 -0.1948  0.6533
  934MPD2    H713671   1.561   2.907   1.991 -2.6132 -1.6311  0.5490
  935MPD2     C13672   1.358   2.187   1.106  0.3483  0.1094  0.1724
  935MPD2    C113673   1.223   2.174   1.118  0.2469  0.3808 -0.1834
  935MPD2    C213674   1.152   2.280   1.174  0.3094 -0.2546  0.4507
  935MPD2    C313675   1.216   2.381   1.238 -0.3646 -0.5958 -0.3494
  935MPD2    C413676   1.352   2.389   1.237 -0.5650  0.0449  0.3703
  935MPD2    C513677   1.421   2.295   1.167  0.2927 -0.1727  0.1664
  935MPD2     H13678   1.044   2.272   1.184 -0.1452  1.7202 -2.8888
  935MPD2    H113679   1.406   2.470   1.285 -0.6894 -0.9331  2.1414
  935MPD2    H213680   1.422   2.115   1.057 -1.7087 -0.7167 -1.3114
  935MPD2    H313681   1.529   2.304   1.171  0.5774 -2.7004 -2.1751
  935MPD2     N13682   1.149   2.469   1.319 -0.1310 -0.1138 -0.0153
  935MPD2    H513683   1.208   2.542   1.357  0.0172 -0.0579 -0.3509
  935MPD2    N113684   1.154   2.055   1.070  0.8491  0.9376 -0.1431
  935MPD2    H713685   1.053   2.054   1.080  0.7999  1.7354 -0.5521
  936MPD2     C13686   4.304   3.534  13.022 -0.9189 -0.3670  0.5482
  936MPD2    C113687   4.293   3.533  13.158  0.6505 -0.1904  0.9500
  936MPD2    C213688   4.387   3.579  13.244  0.3088 -0.5740 -0.6517
  936MPD2    C313689   4.494   3.645  13.188  0.0598  0.1053  0.0510
  936MPD2    C413690   4.502   3.653  13.046  0.1818 -0.6563 -0.1369
  936MPD2    C513691   4.412   3.586  12.970 -0.2380 -0.3959  0.1934
  936MPD2     H13692   4.358   3.581  13.349 -1.1002  2.2980 -1.1026
  936MPD2    H113693   4.579   3.713  12.998 -1.6309  2.8022  1.2912
  936MPD2    H213694   4.232   3.492  12.952 -0.0355 -2.1594  0.7272
  936MPD2    H313695   4.419   3.587  12.862  1.3787  1.3149  0.3214
  936MPD2     N13696   4.591   3.712  13.256  0.2664  0.4089 -0.0310
  936MPD2    H513697   4.670   3.749  13.205  0.7762  0.5531  0.8542
  936MPD2    N113698   4.166   3.502  13.217 -0.3136  0.2724  0.7325
  936MPD2    H713699   4.152   3.499  13.318 -0.7945 -2.7206  0.5628
  937MPD2     C13700   2.329   0.498  12.014  0.3759 -0.9670  0.1173
  937MPD2    C113701   2.369   0.628  12.001  0.6647  0.6437 -0.1922
  937MPD2    C213702   2.449   0.671  11.895  0.4471  0.1992 -0.2850
  937MPD2    C313703   2.484   0.579  11.797  0.6833 -0.1267 -0.1918
  937MPD2    C413704   2.452   0.446  11.813  0.3192 -0.3722  0.3681
  937MPD2    C513705   2.368   0.414  11.920 -0.0940 -0.3413  0.4327
  937MPD2     H13706   2.482   0.774  11.885  2.4029 -0.4166 -0.2596
  937MPD2    H113707   2.486   0.361  11.755  0.2171 -0.7933  0.9210
  937MPD2    H213708   2.263   0.470  12.095  0.9039  1.1580  1.2525
  937MPD2    H313709   2.353   0.309  11.945  1.4903 -0.8657 -0.8580
  937MPD2     N13710   2.572   0.622  11.694 -0.0811 -0.5723  0.4165
  937MPD2    H513711   2.595   0.721  11.691 -0.6102 -0.4697 -0.2769
  937MPD2    N113712   2.311   0.743  12.066 -0.4339  0.3281  0.4417
  937MPD2    H713713   2.361   0.829  12.050 -3.0994  1.8082  0.0248
  938MPD2     C13714   0.163   2.368   0.779  0.2496 -0.3840  0.9562
  938MPD2    C113715   0.230   2.419   0.893  0.0613 -0.3630 -0.0005
  938MPD2    C213716   0.232   2.345   1.013  0.3664 -0.5086 -0.0160
  938MPD2    C313717   0.177   2.216   1.012 -0.4875  0.0541  0.5844
  938MPD2    C413718   0.122   2.164   0.896 -0.3981 -0.0710  0.9569
  938MPD2    C513719   0.113   2.247   0.785 -0.0144 -0.2734 -0.4105
  938MPD2     H13720   0.263   2.395   1.104  1.1255 -0.3030 -0.3856
  938MPD2    H113721   0.084   2.063   0.886 -1.4702  0.4279  0.1183
  938MPD2    H213722   0.146   2.429   0.692 -1.4853  1.3041  2.4714
  938MPD2    H313723   0.058   2.205   0.701 -0.8760  2.5877 -1.3017
  938MPD2     N13724   0.163   2.126   1.119  0.7444 -0.0443  0.1156
  938MPD2    H513725   0.125   2.034   1.097  3.8599 -0.6216 -2.7825
  938MPD2    N113726   0.296   2.544   0.891 -0.1324  0.0662 -0.4537
  938MPD2    H713727   0.280   2.609   0.815 -1.8209  1.6607  1.2561
  939MPD2     C13728   1.618   3.381   0.927 -0.2987 -0.6820  0.6688
  939MPD2    C113729   1.712   3.444   1.006  0.7683 -0.4107  0.3621
  939MPD2    C213730   1.839   3.461   0.949  0.1285 -0.0083  0.2345
  939MPD2    C313731   1.867   3.425   0.817  0.0516  0.0598  0.5121
  939MPD2    C413732   1.772   3.372   0.736 -0.2390  0.2129  0.0481
  939MPD2    C513733   1.649   3.356   0.797 -0.1758 -0.4397 -0.6884
  939MPD2     H13734   1.928   3.504   0.992  1.1174 -0.0830 -1.7137
  939MPD2    H113735   1.779   3.349   0.631  1.1767  0.5843  0.0555
  939MPD2    H213736   1.516   3.355   0.953  0.1272 -1.7302  1.3187
  939MPD2    H313737   1.570   3.319   0.733 -0.5167 -0.3771 -0.3091
  939MPD2     N13738   1.996   3.455   0.771 -0.3918  0.1612 -0.1718
  939MPD2    H513739   2.060   3.482   0.845 -0.7237  1.5805 -0.4091
  939MPD2    N113740   1.683   3.482   1.139  0.0222  0.5279 -0.4197
  939MPD2    H713741   1.596   3.447   1.179  0.7627 -1.2136 -0.3570
  940MPD2     C13742   0.271   3.750  13.859 -0.0325 -0.1247  0.5221
  940MPD2    C113743   0.404   3.782  13.873  0.5332 -0.2913  0.3555
  940MPD2    C213744   0.491   3.794  13.764  0.7304 -0.4640  0.0997
  940MPD2    C313745   0.433   3.762  13.637  0.0473  0.7761 -0.2669
  940MPD2    C413746   0.299   3.739  13.626 -0.0342  0.7960  0.5923
  940MPD2    C513747   0.221   3.730  13.737  0.0117  0.6471  0.1592
  940MPD2     H13748   0.591   3.832  13.776  0.5670 -0.1210  0.3632
  940MPD2    H113749   0.261   3.709  13.528 -0.6597  1.3974  0.6474
  940MPD2    H213750   0.202   3.716  13.936 -0.9100  0.7945  0.1504
  940MPD2    H313751   0.116   3.704  13.741  0.4757 -1.3029 -0.2247
  940MPD2     N13752   0.499   3.748  13.513  0.5936 -0.0795 -0.0900
  940MPD2    H513753   0.445   3.735  13.429  1.7351  1.6874 -1.0953
  940MPD2    N113754   0.460   3.811  14.001  0.2417  0.3494  0.2890
  940MPD2    H713755   0.558   3.837  14.005  0.0244  1.2572 -0.3349
  941MPD2     C13756   3.749   3.259   9.370 -0.3849 -0.4755 -0.1458
  941MPD2    C113757   3.816   3.195   9.468 -0.3092 -0.4483 -0.5213
  941MPD2    C213758   3.768   3.080   9.517 -0.1736 -0.2187 -0.0093
  941MPD2    C313759   3.660   3.017   9.459 -0.3567  0.7757 -0.3137
  941MPD2    C413760   3.599   3.078   9.355  0.2009 -0.3426  0.2112
  941MPD2    C513761   3.646   3.198   9.307 -0.2030  0.5201  0.1311
  941MPD2     H13762   3.823   3.032   9.597  0.1142 -0.0050 -0.0810
  941MPD2    H113763   3.517   3.032   9.303 -0.0210 -0.7304  0.9061
  941MPD2    H213764   3.792   3.351   9.332 -1.2781  0.7632  1.8116
  941MPD2    H313765   3.597   3.240   9.221  1.3099  0.2403 -0.8636
  941MPD2     N13766   3.605   2.893   9.505  0.0397  0.1603  0.3908
  941MPD2    H513767   3.549   2.838   9.441  1.9977 -0.7016 -0.5862
  941MPD2    N113768   3.939   3.241   9.522 -0.7275 -0.7950 -0.1879
  941MPD2    H713769   3.989   3.185   9.590 -1.1793 -0.0244  0.7739
  942MPD2     C13770   3.113   0.254   9.655 -0.3945 -0.3910  0.1378
  942MPD2    C113771   3.167   0.311   9.775 -0.4753 -0.1336 -0.2499
  942MPD2    C213772   3.307   0.300   9.796 -0.2565 -0.0800 -1.1282
  942MPD2    C313773   3.387   0.217   9.717  0.2306  0.0552  0.1094
  942MPD2    C413774   3.329   0.170   9.599 -0.3635 -0.8917  0.2333
  942MPD2    C513775   3.199   0.195   9.570 -0.3409  0.1258 -0.5675
  942MPD2     H13776   3.349   0.348   9.884 -0.4285  0.3378 -1.2730
  942MPD2    H113777   3.387   0.117   9.524 -0.9854 -0.4581 -0.5469
  942MPD2    H213778   3.010   0.263   9.624 -0.7373 -0.6300  1.2170
  942MPD2    H313779   3.165   0.157   9.474  0.3188 -1.1631 -0.2980
  942MPD2     N13780   3.519   0.180   9.737  0.0435 -0.3835 -0.1342
  942MPD2    H513781   3.557   0.122   9.663  1.6860 -1.4377  1.5489
  942MPD2    N113782   3.105   0.412   9.857 -0.0322 -0.0416 -0.3624
  942MPD2    H713783   3.151   0.434   9.945 -0.7508 -0.1716  0.0423
  943MPD2     C13784   2.595   2.377   9.566  0.3796 -0.4736 -0.4799
  943MPD2    C113785   2.652   2.502   9.574  0.3936 -0.2951 -0.5777
  943MPD2    C213786   2.705   2.564   9.461 -0.8989  0.6605  0.5652
  943MPD2    C313787   2.683   2.503   9.338 -0.7634 -0.3078 -0.4821
  943MPD2    C413788   2.617   2.382   9.331  0.0775  0.1507  0.2395
  943MPD2    C513789   2.574   2.320   9.444 -0.9035  0.0975 -0.5668
  943MPD2     H13790   2.767   2.652   9.469 -0.6219  0.5935 -0.8997
  943MPD2    H113791   2.610   2.341   9.231  1.8569 -0.5640  0.3961
  943MPD2    H213792   2.555   2.321   9.650  1.7915 -3.5293 -1.8330
  943MPD2    H313793   2.523   2.225   9.433 -2.0097  0.4679  1.4389
  943MPD2     N13794   2.716   2.566   9.214  0.0558 -0.4074 -0.0060
  943MPD2    H513795   2.687   2.518   9.129  1.0529 -1.1680  0.0806
  943MPD2    N113796   2.682   2.547   9.705  0.6047  0.6059  0.0467
  943MPD2    H713797   2.640   2.500   9.785 -3.1523 -0.2377 -2.4086
  944MPD2     C13798   2.823   2.733  10.753  0.1615  1.1315  0.1306
  944MPD2    C113799   2.767   2.634  10.830  0.2511 -0.8230  0.6347
  944MPD2    C213800   2.665   2.669  10.914 -0.3572 -0.0888  0.1311
  944MPD2    C313801   2.617   2.794  10.929 -0.1923 -0.1433  1.1178
  944MPD2    C413802   2.655   2.889  10.834 -0.0553  0.3030 -0.3982
  944MPD2    C513803   2.758   2.856  10.755 -0.6453  0.2581  0.6773
  944MPD2     H13804   2.633   2.591  10.983  0.3398 -1.0651 -0.6517
  944MPD2    H113805   2.625   2.992  10.818 -0.9568  0.0336 -0.4431
  944MPD2    H213806   2.902   2.700  10.687 -0.5673 -2.1635  0.8954
  944MPD2    H313807   2.788   2.928  10.679 -0.2724  0.9094  1.4475
  944MPD2     N13808   2.527   2.831  11.027 -0.0089  0.4468 -0.3523
  944MPD2    H513809   2.525   2.763  11.102 -1.3126  1.8066  0.8356
  944MPD2    N113810   2.824   2.504  10.829  0.0710 -0.0325 -0.1160
  944MPD2    H713811   2.906   2.486  10.773  0.7956  4.4988 -0.5286
    1TCq1    O113812   1.563   2.618  14.295  0.0005  0.3706  0.4912
    1TCq1    C113813   1.669   2.630  14.378  1.5040  0.9361 -0.2295
    1TCq1    O213814   1.787   2.615  14.349 -0.5405 -0.2104 -0.2143
    1TCq1    C213815   1.618   2.699  14.498 -0.1136  0.1045  0.5724
    1TCq1    C313816   1.492   2.662  14.538 -0.4649  0.1128  0.0646
    1TCq1    C413817   1.424   2.745  14.619  0.0773 -0.5272  0.3535
    1TCq1    C513818   1.482   2.857  14.660 -0.5812 -0.2439  0.4510
    1TCq1    C613819   1.618   2.878  14.637  0.1767 -0.7792 -0.1043
    1TCq1    C713820   1.691   2.795  14.552  0.0557  0.4389  1.3476
    1TCq1    C813821   1.689   2.981  14.709 -0.4663  0.0716  0.0992
    1TCq1    O413822   1.811   2.979  14.710 -0.5003 -0.3513  0.5748
    1TCq1    C913823   1.287   2.724  14.654  0.0462 -0.1778  0.0145
    1TCq1    O513824   1.243   2.775  14.758  0.1241  0.0717 -0.4823
    1TCq1    O613825   1.217   2.652  14.581  0.5366  0.4508 -0.2641
    1TCq1    H113826   1.475   2.643  14.331 -0.7126 -1.1989 -0.1432
    1TCq1    H213827   1.426   2.586  14.498  0.9091  0.0377 -2.0607
    1TCq1    H313828   1.423   2.915  14.729 -1.9372  1.9105 -2.5297
    1TCq1    H413829   1.790   2.822  14.516  0.3140  0.2599  1.9253
    2MPD2     C13830   1.655   3.298  15.088 -0.3608 -0.2660 -0.1391
    2MPD2    C113831   1.544   3.324  15.012  0.0702 -0.3243 -0.4014
    2MPD2    C213832   1.531   3.241  14.905 -0.2574  0.0837  0.3731
    2MPD2    C313833   1.622   3.142  14.875  0.5555  0.4697  0.3835
    2MPD2    C413834   1.723   3.116  14.959 -0.3461 -0.7195 -0.4999
    2MPD2    C513835   1.739   3.197  15.069  0.1358 -0.5614 -0.2968
    2MPD2     H13836   1.446   3.252  14.839  0.3473 -0.4745 -0.4976
    2MPD2    H113837   1.804   3.044  14.952 -0.3548 -0.3673 -4.3068
    2MPD2    H213838   1.670   3.347  15.184 -1.3616  0.0329 -0.1327
    2MPD2    H313839   1.820   3.180  15.139 -0.5414 -0.6936  0.4642
    2MPD2     N13840   1.600   3.070  14.755  0.0142  0.4264 -0.0923
    2MPD2    H513841   1.514   3.092  14.705  0.3134  2.6931  0.3964
    2MPD2    N113842   1.456   3.432  15.042  0.0132 -0.0243 -0.3848
    2MPD2    H713843   1.487   3.481  15.125  1.7747 -0.0660 -0.9999
    3TMC2    C113844   1.284   3.583  15.029 -0.3117  0.6756 -0.2411
    3TMC2    C213845   1.375   3.683  15.051  0.1307  0.2070  0.4874
    3TMC2    C313846   1.331   3.808  15.016  0.2732 -0.3804 -0.4638
    3TMC2    C413847   1.160   3.606  14.990  0.3594 -0.9670 -0.0325
    3TMC2    C513848   1.135   3.723  14.929  0.2949 -0.2424 -0.4873
    3TMC2    C613849   1.223   3.824  14.933  0.5150 -0.8539  0.1818
    3TMC2     C13850   1.331   3.455  14.985 -0.2585  0.3413  0.4431
    3TMC2     O13851   1.268   3.379  14.919 -0.0178  0.0465  0.0169
    3TMC2     H13852   1.475   3.675  15.092  0.2326  1.3155  0.4511
    3TMC2    H113853   1.107   3.513  14.971  1.3172 -1.8542  1.5958
    3TMC2    H213854   1.196   3.923  14.900  1.4840 -0.7039 -0.1408
    3TMC2    C713855   1.068   3.715  14.798  0.0371  0.0493  0.3512
    3TMC2    C813856   1.410   3.929  15.047 -0.5129  0.2568  1.0815
    3TMC2    O113857   1.058   3.599  14.757  0.5583 -0.5942  0.3337
    3TMC2    O213858   1.416   4.024  14.970  0.3298  0.3325 -0.4910
    3TMC2    O513859   1.490   3.917  15.160 -0.3208  0.1860  0.0667
    3TMC2    H513860   1.450   3.849  15.217  0.1938 -1.7389 -1.8499
    4MPD2     C13861   0.055   4.595  14.292  0.1996 -0.3113 -0.3751
    4MPD2    C113862   0.129   4.618  14.175 -0.2663  0.3225  0.6054
    4MPD2    C213863   0.273   4.603  14.181  0.0037  0.0187  0.4628
    4MPD2    C313864   0.333   4.561  14.293  0.1026  0.0112  0.6628
    4MPD2    C413865   0.256   4.547  14.407  0.4327 -0.5175  0.6737
    4MPD2    C513866   0.121   4.571  14.404 -1.1095  0.5575  0.0067
    4MPD2     H13867   0.332   4.619  14.091  2.1797 -2.7879  1.3604
    4MPD2    H113868   0.307   4.518  14.498  3.1848  1.4960 -0.2226
    4MPD2    H213869   4.671   4.595  14.289  0.2448 -1.6142 -1.7807
    4MPD2    H313870   0.051   4.554  14.485 -2.4771  0.3461 -1.2181
    4MPD2     N13871   0.471   4.546  14.293 -0.7668  0.1653  1.1733
    4MPD2    H513872   0.515   4.575  14.205 -0.3943  0.1750  1.3643
    4MPD2    N113873   0.052   4.646  14.058 -0.1103 -0.3094  0.5467
    4MPD2    H713874   4.676   4.635  14.073 -0.4933  1.2595 -0.8770
    5TCq2    C113875   0.550   4.539  14.399 -0.0520 -0.1784  0.2595
    5TCq2    O213876   0.518   4.535  14.515 -0.1647  0.1854  0.9350
    5TCq2    C213877   0.692   4.533  14.370 -0.2030 -0.1940  0.5102
    5TCq2    C313878   0.734   4.532  14.237  0.7800  0.2157  0.3630
    5TCq2    C413879   0.848   4.471  14.204  0.6077 -0.1171 -0.0897
    5TCq2    C513880   0.922   4.405  14.300  0.2259 -0.2628  0.0402
    5TCq2    C613881   0.879   4.402  14.429 -0.2413 -0.9840  0.6384
    5TCq2    C713882   0.762   4.468  14.468 -0.6027 -0.2428  0.0276
    5TCq2    C813883   0.915   4.271  14.496  0.6516  0.0032 -0.0308
    5TCq2    O413884   0.919   4.275  14.616 -0.9066 -0.4666 -0.5743
    5TCq2    C913885   0.881   4.461  14.067  0.4296  0.4045  1.1343
    5TCq2    O513886   0.804   4.519  13.978 -0.5094 -0.4848  0.1713
    5TCq2    O613887   0.974   4.377  14.046 -0.4630 -0.0306  0.0999
    5TCq2    H213888   0.691   4.598  14.163  1.0268 -0.3652 -0.2970
    5TCq2    H313889   1.020   4.368  14.274 -0.5390  0.0804 -3.2743
    5TCq2    H413890   0.731   4.462  14.572 -2.3980  2.5055 -0.3450
    6MPD1     C13891   1.163   3.903  12.870 -0.5529 -0.5200 -0.7538
    6MPD1    C113892   1.165   4.041  12.887 -0.1656  0.8274  0.1019
    6MPD1    C213893   1.050   4.110  12.918  0.0193 -0.4576  0.2569
    6MPD1    C313894   0.929   4.050  12.937  0.4795  0.0633  1.2390
    6MPD1    C413895   0.927   3.911  12.943  0.1451 -0.3540 -0.6859
    6MPD1    C513896   1.045   3.834  12.898 -0.2809 -0.1291 -0.3456
    6MPD1     H13897   1.053   4.218  12.922  0.3510 -0.4583  0.0165
    6MPD1    H113898   0.831   3.867  12.966  1.0379 -0.7820  2.1827
    6MPD1    H213899   1.249   3.852  12.829 -0.0160  1.2487 -1.8311
    6MPD1    H313900   1.036   3.729  12.873  1.2138  0.1957 -2.2237
    6MPD1     N13901   0.808   4.117  12.968  0.1789 -0.1140  0.1891
    6MPD1    H513902   0.728   4.055  12.968  0.5490 -0.5540  3.4142
    6MPD1    N113903   1.273   4.115  12.842  0.2260  0.0963  0.3517
    6MPD1    H613904   1.279   4.208  12.882  3.9817 -0.4331  0.9635
    6MPD1    H713905   1.364   4.080  12.868 -0.5472 -0.8259  1.8093
    7MPD2     C13906   0.207   0.063  13.010 -0.1965 -0.5117 -0.1788
    7MPD2    C113907   0.239   4.711  13.118 -0.6425 -0.5127 -0.0401
    7MPD2    C213908   0.179   4.722  13.242  0.3982 -0.2642 -0.0637
    7MPD2    C313909   0.073   0.078  13.256 -0.3060 -0.9119  0.2765
    7MPD2    C413910   0.025   0.146  13.145  0.3324 -0.9777 -0.3122
    7MPD2    C513911   0.085   0.129  13.018 -0.2226 -0.5161  0.2170
    7MPD2     H13912   0.214   4.655  13.320 -1.6116  0.1996  1.2415
    7MPD2    H113913   4.662   0.210  13.158  0.1751 -0.8397 -2.0498
    7MPD2    H213914   0.247   0.051  12.910 -0.1584 -1.0491 -0.0968
    7MPD2    H313915   0.032   0.185  12.942  0.3567 -0.3392 -0.0606
    7MPD2     N13916   0.010   0.099  13.381  0.1535  0.0884  0.2762
    7MPD2    H513917   4.633   0.111  13.385  0.5034  2.6409  1.0918
    7MPD2    N113918   0.326   4.601  13.106 -0.4306 -0.0417  0.1661
    7MPD2    H713919   0.322   4.547  13.192 -2.8618 -0.7780 -0.3980
    8TMC3    C113920   4.697   0.049  13.607 -0.2481  0.0272 -0.5992
    8TMC3    C213921   0.042   0.065  13.730 -0.5112 -0.3429  0.0677
    8TMC3    C313922   0.012   4.699  13.830 -0.0348  0.2103 -0.0020
    8TMC3    C413923   4.633   4.661  13.567 -0.2596 -0.4239  0.8190
    8TMC3    C513924   4.639   4.558  13.661 -0.4070 -0.3043  0.4828
    8TMC3    C613925   4.674   4.586  13.791  0.0953 -0.5144 -0.0344
    8TMC3     C13926   0.070   0.086  13.506  0.4230 -0.0401 -0.2993
    8TMC3     O13927   0.186   0.051  13.530 -0.2742  0.2563  0.2251
    8TMC3     H13928   0.090   0.163  13.734  0.7870 -1.0381  1.4982
    8TMC3    H113929   4.591   4.638  13.470  0.7399  0.3621  0.2014
    8TMC3    H213930   4.658   4.514  13.870  0.7301  0.0989  0.6504
    8TMC3    C713931   4.690   4.444  13.597  0.0916 -0.4842  0.3223
    8TMC3    C813932   0.108   4.684  13.937  0.3607  0.2120  0.6705
    8TMC3    O113933   4.658   4.430  13.477  0.0056  0.5710 -0.7528
    8TMC3    O213934   0.209   0.031  13.921 -0.0754  0.5388  0.3380
    9TMC3    C113935   0.648   4.285  13.015  0.1185 -0.3812  0.5174
    9TMC3    C213936   0.598   4.192  13.103 -0.4353 -0.5603  0.1422
    9TMC3    C313937   0.475   4.219  13.150 -0.0540  0.0051  0.6013
    9TMC3    C413938   0.586   4.405  12.974 -0.1756 -0.3251  0.2898
    9TMC3    C513939   0.459   4.418  13.017  0.0904  0.2862 -0.4496
    9TMC3    C613940   0.411   4.336  13.109 -0.6253  0.7062  0.3136
    9TMC3     C13941   0.793   4.255  12.982  0.0564 -0.0756  0.7241
    9TMC3     O13942   0.873   4.351  12.987  0.4160 -0.1089 -0.2431
    9TMC3     H13943   0.638   4.094  13.125  1.6593  0.4174  0.6942
    9TMC3    H113944   0.633   4.468  12.899 -1.7160 -0.9910 -1.2290
    9TMC3    H213945   0.309   4.354  13.141 -1.5442 -1.4241 -1.4062
    9TMC3    C713946   0.391   4.547  12.996 -0.3154 -0.3540  0.2821
    9TMC3    C813947   0.419   4.134  13.258 -0.3626 -0.0269 -0.0479
    9TMC3    O113948   0.423   4.592  12.889  0.7668  0.5930 -0.0903
    9TMC3    O213949   0.472   4.026  13.279 -0.0614  0.3326  0.0953
   10MPD2     C13950   0.183   4.160  13.716  0.5064 -0.5230 -0.3662
   10MPD2    C113951   0.135   4.258  13.635  0.3883 -0.0150  0.7801
   10MPD2    C213952   0.182   4.262  13.508  0.0144  0.9956  0.2138
   10MPD2    C313953   0.275   4.178  13.460  0.3759  0.0113 -0.2480
   10MPD2    C413954   0.325   4.079  13.541  0.0790 -0.1740 -0.3104
   10MPD2    C513955   0.280   4.073  13.669  0.1555  0.7235 -0.4521
   10MPD2     H13956   0.155   4.347  13.445  0.9117  0.5363 -0.7873
   10MPD2    H113957   0.408   4.015  13.512  0.9210  0.4454  0.7078
   10MPD2    H213958   0.137   4.146  13.813 -0.6558  0.9804 -0.7067
   10MPD2    H313959   0.324   3.996  13.732  0.3856 -0.5954 -2.2421
   10MPD2     N13960   0.319   4.201  13.326 -0.0212  0.0950  0.4060
   10MPD2    H513961   0.293   4.292  13.287 -2.0047  0.1146  1.7937
   10MPD2    N113962   0.040   4.363  13.682  0.2133  0.0879 -1.1953
   10MPD2    H713963   0.039   4.370  13.783 -1.5993  0.9090 -1.2758
   11MPD2     C13964   0.988   3.772  14.512  0.0372  0.2854 -0.1342
   11MPD2    C113965   1.017   3.868  14.603  0.2307  0.4635 -0.5006
   11MPD2    C213966   1.003   4.003  14.569 -0.4197  0.2785  0.5505
   11MPD2    C313967   0.967   4.036  14.443 -0.3305  0.0028  0.0180
   11MPD2    C413968   0.944   3.936  14.349 -0.5514 -0.1845  0.6609
   11MPD2    C513969   0.952   3.803  14.385 -0.1557  0.2722  0.2344
   11MPD2     H13970   1.007   4.077  14.648 -0.8322 -0.1224  0.9470
   11MPD2    H113971   0.916   3.968  14.250  1.1837 -1.9453 -0.4067
   11MPD2    H213972   0.993   3.666  14.535  1.1762  0.3944  0.1182
   11MPD2    H313973   0.924   3.720  14.321  0.4878 -0.2717  0.6605
   11MPD2     N13974   0.946   4.174  14.408 -0.8051  0.0396  0.2163
   11MPD2    H513975   0.939   4.200  14.310 -3.8862  0.6694  0.5878
   11MPD2    N113976   1.059   3.834  14.736  0.6491  0.6751  0.4870
   11MPD2    H713977   1.075   3.914  14.797 -1.9988  2.2145 -0.8315
    1MPD1     C13978   2.913   1.282  16.928 -0.6381  0.7681  0.2880
    1MPD1    C113979   3.037   1.320  16.979 -0.0198  0.1223  0.1297
    1MPD1    C213980   3.145   1.236  16.947 -0.5908 -0.6143  0.5369
    1MPD1    C313981   3.155   1.159  16.838  0.8746 -0.8041 -0.2080
    1MPD1    C413982   3.035   1.141  16.772 -0.5734  0.1033 -0.2017
    1MPD1    C513983   2.915   1.190  16.825 -1.0540  0.7944 -0.2106
    1MPD1     H13984   3.237   1.260  16.999 -0.0796 -0.4286 -0.4716
    1MPD1    H113985   3.034   1.087  16.678  1.5504 -0.4315  0.0776
    1MPD1    H213986   2.817   1.325  16.956 -0.6578  1.0140 -0.1649
    1MPD1    H313987   2.828   1.153  16.772  0.2892 -0.4964 -1.5040
    1MPD1     N13988   3.269   1.096  16.790  0.0078  0.4059 -0.4889
    1MPD1    H513989   3.256   1.053  16.699 -0.6554 -2.0775  0.7731
    1MPD1    N113990   3.047   1.401  17.096 -0.5614 -0.1651 -0.2076
    1MPD1    H613991   3.139   1.434  17.125 -0.6608  0.1905 -0.2996
    1MPD1    H713992   2.969   1.467  17.095  0.8666  1.5241  0.1342
    2MPD1     C13993   4.250   1.261  16.888 -0.1332  0.3642  1.0408
    2MPD1    C113994   4.134   1.320  16.939 -0.5536 -0.4004  0.4134
    2MPD1    C213995   4.007   1.270  16.910 -0.5859 -0.1817 -0.1265
    2MPD1    C313996   3.999   1.170  16.818  0.5740  0.5984  0.0799
    2MPD1    C413997   4.111   1.110  16.766  0.2364  0.3139 -0.0989
    2MPD1    C513998   4.235   1.154  16.798 -0.3275 -0.2998 -0.4681
    2MPD1     H13999   3.919   1.321  16.945 -0.1641 -0.0969  0.8234
    2MPD1    H114000   4.109   1.046  16.678  0.0526  1.2729 -0.7922
    2MPD1    H214001   4.350   1.295  16.912 -0.1856  2.1927 -1.3341
    2MPD1    H314002   4.320   1.106  16.751  0.9074  2.4248 -0.9827
    2MPD1     N14003   3.870   1.124  16.788 -0.2268 -0.7061  0.5021
    2MPD1    H514004   3.792   1.172  16.833 -0.3871  1.0129 -1.5981
    2MPD1    N114005   4.143   1.419  17.037  0.6638 -0.4248  0.1047
    2MPD1    H614006   4.071   1.490  17.029  1.5387  0.1536 -2.5618
    2MPD1    H714007   4.233   1.465  17.038  0.3213  0.2096  0.9142
    3TMC3    C114008   3.694   0.985  16.707 -0.0168 -0.4197 -0.5647
    3TMC3    C214009   3.664   0.910  16.596  0.6964 -0.0053 -0.2405
    3TMC3    C314010   3.531   0.884  16.588 -0.1716 -0.4678 -0.0622
    3TMC3    C414011   3.611   1.037  16.806 -0.3027  0.4065  0.0110
    3TMC3    C514012   3.482   1.007  16.783 -0.3380  0.7064 -0.5581
    3TMC3    C614013   3.441   0.922  16.683  0.1869 -0.1132 -0.5231
    3TMC3     C14014   3.839   1.014  16.715  0.1547 -0.0605 -0.4440
    3TMC3     O14015   3.912   0.935  16.657  0.2969  0.2761  0.2302
    3TMC3     H14016   3.739   0.873  16.528 -0.1169 -0.2464 -1.0044
    3TMC3    H114017   3.643   1.092  16.894 -1.8180  0.7384  0.3400
    3TMC3    H214018   3.336   0.900  16.672  0.2295 -0.6266  0.1070
    3TMC3    C714019   3.385   1.084  16.856 -0.2006  0.6393 -0.0796
    3TMC3    C814020   3.479   0.820  16.474  0.3424 -0.3819  0.6912
    3TMC3    O114021   3.413   1.110  16.974 -0.0775  0.0508 -0.4458
    3TMC3    O214022   3.373   0.758  16.484  0.2821  0.0457 -0.0317
    4MPD1     C14023   3.534   0.673  15.986  0.7274 -0.2728  0.4010
    4MPD1    C114024   3.643   0.746  16.020  0.2798  0.9348  0.4319
    4MPD1    C214025   3.645   0.804  16.147 -0.4680  0.9477 -0.1809
    4MPD1    C314026   3.538   0.788  16.243  0.1304 -0.3539  0.7284
    4MPD1    C414027   3.423   0.721  16.201 -0.4365 -0.5442  0.6530
    4MPD1    C514028   3.435   0.658  16.075 -0.1491  0.2006 -0.4214
    4MPD1     H14029   3.729   0.866  16.173  0.7008 -0.9099  0.4593
    4MPD1    H114030   3.330   0.706  16.255 -0.9487  0.7472  0.1243
    4MPD1    H214031   3.528   0.622  15.891  0.6254 -0.6090  0.5880
    4MPD1    H314032   3.352   0.596  16.044 -1.0715  1.4592 -0.4865
    4MPD1     N14033   3.558   0.845  16.367 -0.3463  0.3541  0.1309
    4MPD1    H514034   3.639   0.906  16.375 -1.0157  1.3401 -0.4752
    4MPD1    N114035   3.731   0.801  15.923 -0.1032 -0.6310 -0.1202
    4MPD1    H614036   3.822   0.832  15.955  0.3295 -1.1716 -0.8437
    4MPD1    H714037   3.751   0.747  15.840 -0.1389  0.7121 -1.0044
    1TCq1    O114038   0.481   0.724  12.637  0.3884 -0.8003 -0.1398
    1TCq1    C114039   0.428   0.826  12.566  0.5577 -0.5626 -0.2425
    1TCq1    O214040   0.462   0.945  12.566 -0.1430  0.0658 -0.2332
    1TCq1    C214041   0.340   0.765  12.465  0.8011  0.2746 -1.0623
    1TCq1    C314042   0.273   0.654  12.503  0.3149 -0.2275  0.5423
    1TCq1    C414043   0.179   0.595  12.425 -0.0009  0.6510 -0.0853
    1TCq1    C514044   0.153   0.654  12.300 -0.4021 -0.6143 -0.5957
    1TCq1    C614045   0.219   0.771  12.266 -0.0480 -0.1044  0.4440
    1TCq1    C714046   0.305   0.836  12.354 -0.9774  0.1794  0.0538
    1TCq1    C814047   0.181   0.859  12.155 -0.2041 -0.1296  0.0612
    1TCq1    O414048   0.208   0.974  12.181  0.3404  0.4195 -0.0499
    1TCq1    C914049   0.059   0.554  12.496 -0.1823  0.2412 -0.4284
    1TCq1    O514050   0.049   0.589  12.618  0.1555 -0.2218  0.2048
    1TCq1    O614051   4.704   0.476  12.434  0.0212 -0.5609  0.4327
    1TCq1    H114052   0.468   0.642  12.585 -0.5000 -1.3670  0.9560
    1TCq1    H214053   0.265   0.632  12.609  2.2815  1.8432  1.1280
    1TCq1    H314054   0.058   0.629  12.254 -0.9995 -1.0102  0.8347
    1TCq1    H414055   0.362   0.922  12.322 -1.4940 -0.6207 -3.0517
    2MPD1     C14056   4.616   0.976  11.752  0.1592  0.2450  0.3908
    2MPD1    C114057   4.605   0.842  11.776 -0.0047 -0.6764  0.2134
    2MPD1    C214058   4.684   0.784  11.870  0.8073 -0.4878  0.3932
    2MPD1    C314059   0.035   0.861  11.954 -0.1796  0.2776  0.1329
    2MPD1    C414060   0.044   1.001  11.938  0.0795  0.0446 -0.6390
    2MPD1    C514061   4.698   1.054  11.831 -0.4937  0.1801 -0.1166
    2MPD1     H14062   4.686   0.676  11.880 -0.8376 -0.4018  1.6350
    2MPD1    H114063   0.091   1.072  12.005  0.6085  0.0538 -1.0159
    2MPD1    H214064   4.569   1.035  11.675  0.5874  0.6239  0.4130
    2MPD1    H314065   4.702   1.161  11.814  0.9495  0.0094 -0.8793
    2MPD1     N14066   0.114   0.798  12.056  0.1308 -0.0825 -0.2826
    2MPD1    H514067   0.108   0.697  12.052 -2.8122  0.0254  1.2227
    2MPD1    N114068   4.553   0.755  11.677  0.0995  0.2716 -0.6889
    2MPD1    H614069   4.482   0.810  11.629  0.1222 -0.4540 -1.5720
    2MPD1    H714070   4.510   0.668  11.707 -1.5332  1.2631 -0.1655
    1TCq1    O114071   4.282   2.682   1.214  0.0224 -0.2778 -0.0781
    1TCq1    C114072   4.306   2.759   1.103  0.7492  0.5887  0.6340
    1TCq1    O214073   4.373   2.731   1.005 -0.1100 -0.0301  0.3734
    1TCq1    C214074   4.308   2.896   1.161 -0.3642  0.3749  0.2079
    1TCq1    C314075   4.325   2.921   1.301 -0.3976 -1.4773  0.1202
    1TCq1    C414076   4.300   3.044   1.347  0.3069 -0.1140  0.3546
    1TCq1    C514077   4.237   3.132   1.268  0.4111  0.2184 -0.1919
    1TCq1    C614078   4.234   3.110   1.132 -0.7596 -0.0258  0.5143
    1TCq1    C714079   4.247   2.988   1.079  0.6805 -0.5865 -0.1585
    1TCq1    C814080   4.146   3.197   1.056 -0.0780  0.0088  0.3301
    1TCq1    O414081   4.088   3.279   1.126 -0.4632  0.9223  0.0503
    1TCq1    C914082   4.298   3.071   1.490  0.1998 -0.8024  0.3127
    1TCq1    O514083   4.243   3.181   1.522 -0.3122 -0.2084 -0.0259
    1TCq1    O614084   4.384   3.008   1.560  0.2009 -0.1485  0.8271
    1TCq1    H114085   4.215   2.719   1.275  0.2448  1.8217 -1.1134
    1TCq1    H214086   4.369   2.845   1.364  0.0919 -2.0440 -0.9095
    1TCq1    H314087   4.204   3.225   1.312  0.7033  0.4125 -0.3801
    1TCq1    H414088   4.197   2.955   0.989  1.6617 -2.8299  0.1090
    2MPD1     C14089   3.915   3.393   0.655 -0.1237  0.3141  0.9713
    2MPD1    C114090   4.008   3.301   0.605 -0.6371 -0.3803 -0.1765
    2MPD1    C214091   4.092   3.243   0.700  0.3493 -0.5195 -0.1631
    2MPD1    C314092   4.078   3.267   0.839  0.9550  0.0465 -0.4862
    2MPD1    C414093   3.977   3.354   0.877 -0.0351  0.1939 -0.3438
    2MPD1    C514094   3.897   3.418   0.790  0.4178  0.1647  0.9337
    2MPD1     H14095   4.175   3.175   0.682  1.2117  0.7914 -1.1213
    2MPD1    H114096   3.954   3.365   0.982  0.6288  0.2535 -0.2082
    2MPD1    H214097   3.852   3.445   0.583 -3.4506  0.2652  3.8531
    2MPD1    H314098   3.818   3.482   0.826 -0.3731  1.1999 -2.5740
    2MPD1     N14099   4.160   3.195   0.927 -0.2588  0.1519 -0.4137
    2MPD1    H514100   4.227   3.133   0.884 -2.1057 -1.3523 -1.1363
    2MPD1    N114101   4.041   3.287   0.469 -0.3178  0.6055  0.2796
    2MPD1    H614102   3.966   3.317   0.407 -1.1648 -0.2826  0.8941
    2MPD1    H714103   4.075   3.195   0.444  1.1227  0.7064  1.8902
    1MPD1     C14104   0.568   1.565  12.031 -0.1175  0.4414 -0.2035
    1MPD1    C114105   0.629   1.571  12.151  0.7312  0.6095  0.0140
    1MPD1    C214106   0.708   1.462  12.191  0.0194 -0.4401 -0.1705
    1MPD1    C314107   0.730   1.362  12.101 -0.4699  0.3418  0.3292
    1MPD1    C414108   0.680   1.368  11.968  0.8871 -0.1252 -0.1465
    1MPD1    C514109   0.588   1.463  11.947  0.0053 -0.2915  0.2583
    1MPD1     H14110   0.739   1.462  12.295 -0.1049 -1.0924 -0.1342
    1MPD1    H114111   0.681   1.280  11.904  0.4138  1.2692 -2.0654
    1MPD1    H214112   0.494   1.642  12.011 -1.6237 -0.2788  2.5118
    1MPD1    H314113   0.541   1.463  11.850  1.8890 -1.2346 -0.6716
    1MPD1     N14114   0.823   1.256  12.141  0.1011  0.6011 -0.2863
    1MPD1    H514115   0.860   1.265  12.235  0.8199 -1.1209 -0.4041
    1MPD1    N114116   0.600   1.675  12.240 -0.1620 -0.0503  0.8401
    1MPD1    H614117   0.616   1.762  12.190 -2.2317  0.3364  0.8668
    1MPD1    H714118   0.658   1.660  12.322  0.4047  0.1892  0.4807
    2MPD1     C14119   1.446   2.310  11.003 -0.3241  0.1904  0.0750
    2MPD1    C114120   1.549   2.250  11.067  1.1533  0.6153 -0.0809
    2MPD1    C214121   1.528   2.120  11.113 -0.4321 -0.9201 -0.7499
    2MPD1    C314122   1.410   2.053  11.090  0.2541 -0.5289 -0.0414
    2MPD1    C414123   1.305   2.118  11.028  0.4679  0.5748  0.0218
    2MPD1    C514124   1.326   2.252  10.982  0.0440  0.1059  0.3627
    2MPD1     H14125   1.612   2.078  11.166 -0.3233 -1.3158 -1.2437
    2MPD1    H114126   1.206   2.076  11.015  2.0525 -3.4507  1.0978
    2MPD1    H214127   1.469   2.410  10.967 -2.2085  0.4601 -0.3609
    2MPD1    H314128   1.236   2.296  10.938 -0.7526  1.2591  3.1403
    2MPD1     N14129   1.389   1.915  11.119 -0.1132  0.6867  0.1552
    2MPD1    H514130   1.302   1.882  11.078 -0.3324  0.1685  1.0431
    2MPD1    N114131   1.655   2.332  11.106  0.6426  0.3145  0.2211
    2MPD1    H614132   1.678   2.408  11.042  2.3499 -0.3012  0.0926
    2MPD1    H714133   1.744   2.284  11.116 -0.8709 -3.1937 -3.1211
    3MPD1     C14134   0.843   1.357  11.623  0.6599  0.3134  0.2960
    3MPD1    C114135   0.967   1.297  11.632  0.0622  0.5854 -0.5357
    3MPD1    C214136   1.053   1.315  11.532 -0.2101  0.8834  0.0238
    3MPD1    C314137   1.033   1.417  11.440 -0.4354 -0.2213 -0.1682
    3MPD1    C414138   0.913   1.483  11.440 -0.4396  0.4413  0.9427
    3MPD1    C514139   0.813   1.443  11.524  0.1144  0.7319 -0.0640
    3MPD1     H14140   1.154   1.277  11.543  0.2793  1.0336 -3.9173
    3MPD1    H114141   0.894   1.571  11.380 -2.0103 -1.0421 -0.7384
    3MPD1    H214142   0.766   1.338  11.698  1.4771  0.4347  1.1665
    3MPD1    H314143   0.726   1.507  11.536  0.2659  1.4293 -2.6543
    3MPD1     N14144   1.133   1.446  11.350  0.3156  0.2763 -1.0484
    3MPD1    H514145   1.227   1.412  11.369  0.2924  1.2486  0.7569
    3MPD1    N114146   1.002   1.227  11.748  0.9859 -0.7354  0.0235
    3MPD1    H614147   1.072   1.157  11.726  2.1869  1.5263 -3.2918
    3MPD1    H714148   0.918   1.195  11.797  1.3708  0.6935  1.6316
    4MPD2     C14149   1.560   1.206  12.251 -0.4479 -0.3499  0.0410
    4MPD2    C114150   1.502   1.096  12.207  0.2364  0.3245 -0.1043
    4MPD2    C214151   1.577   1.015  12.128  0.0681  0.1392  0.2913
    4MPD2    C314152   1.710   1.031  12.091 -0.7991 -0.3021  0.2035
    4MPD2    C414153   1.764   1.148  12.129 -0.2938  0.1266  0.0781
    4MPD2    C514154   1.688   1.239  12.208  0.6006  0.3498 -0.1180
    4MPD2     H14155   1.535   0.928  12.078  0.3820 -0.5136  1.1729
    4MPD2    H114156   1.862   1.182  12.096 -0.2588  1.4118  1.5321
    4MPD2    H214157   1.503   1.262  12.323 -0.2141 -0.1027  0.0352
    4MPD2    H314158   1.741   1.320  12.256  0.7317  0.1364  0.0990
    4MPD2     N14159   1.768   0.947  11.990 -0.3019  0.2074  0.0716
    4MPD2    H514160   1.715   0.870  11.949  2.0829 -2.4232  1.9099
    4MPD2    N114161   1.364   1.060  12.227  0.0124 -0.0402  0.2577
    4MPD2    H714162   1.337   0.971  12.188 -2.9654  0.3635  1.3868
    5TMC3    C114163   1.141   1.057  12.265  0.9003 -0.7368 -0.1671
    5TMC3    C214164   1.049   1.134  12.210 -0.4611 -0.3365 -0.4281
    5TMC3    C314165   0.965   1.072  12.120 -0.1042 -0.4357 -0.3453
    5TMC3    C414166   1.165   0.928  12.235  0.9838 -0.2439  0.9489
    5TMC3    C514167   1.093   0.882  12.133  0.5257 -0.5312 -0.0582
    5TMC3    C614168   0.990   0.951  12.077  0.1775 -0.0805  0.1708
    5TMC3     C14169   1.264   1.125  12.296  0.0374 -0.1983  0.7163
    5TMC3     O14170   1.257   1.241  12.343  0.4558 -0.0663 -0.4882
    5TMC3     H14171   1.037   1.239  12.236  1.4157 -0.1861 -0.1422
    5TMC3    H114172   1.232   0.872  12.299  0.1088  0.3072  2.3517
    5TMC3    H214173   0.921   0.899  12.011  1.0317 -0.7483 -0.1843
    5TMC3    C714174   1.185   0.808  12.041  0.5609  0.4591  0.3108
    5TMC3    C814175   0.851   1.147  12.071  0.5672 -0.1043 -0.0182
    5TMC3    O114176   1.296   0.800  12.089 -0.0359 -0.0335 -0.1581
    5TMC3    O214177   0.821   1.121  11.956  0.2681 -0.8275  0.1259
    6TMC3    C114178   1.424   1.689  11.187  0.0644  0.2814  0.9363
    6TMC3    C214179   1.291   1.668  11.163 -0.0393 -0.6841 -0.1825
    6TMC3    C314180   1.251   1.541  11.172  0.3444 -0.5904 -0.0599
    6TMC3    C414181   1.513   1.598  11.215 -0.5685 -0.4363  0.4695
    6TMC3    C514182   1.472   1.468  11.220  0.7577 -0.3563 -0.0859
    6TMC3    C614183   1.342   1.438  11.191 -0.3447  0.0046  0.7473
    6TMC3     C14184   1.469   1.827  11.191  0.7282 -0.6654 -0.9041
    6TMC3     O14185   1.580   1.852  11.235 -0.1595  0.2053  0.3495
    6TMC3     H14186   1.221   1.751  11.164 -0.5344 -1.1046  0.1995
    6TMC3    H114187   1.619   1.614  11.232 -0.3236 -1.4683 -0.0956
    6TMC3    H214188   1.301   1.338  11.199 -1.3995  0.3437 -0.3538
    6TMC3    C714189   1.580   1.371  11.211 -0.0040  0.1478 -0.2086
    6TMC3    C814190   1.121   1.529  11.242 -0.5854 -0.1025  0.2791
    6TMC3    O114191   1.697   1.397  11.246 -0.0605  0.5249  0.3613
    6TMC3    O214192   1.024   1.593  11.199  0.1909 -0.0834  0.4693
    7MPD2     C14193   1.320   0.638  11.571  0.2339  0.0633  0.1998
    7MPD2    C114194   1.395   0.682  11.682 -0.0792 -0.1160 -0.0522
    7MPD2    C214195   1.330   0.715  11.803  0.0106  0.4315 -0.1107
    7MPD2    C314196   1.194   0.707  11.810 -0.3508 -0.6314  0.0052
    7MPD2    C414197   1.127   0.640  11.708 -0.2604 -0.0900  0.4868
    7MPD2    C514198   1.188   0.615  11.593 -0.1145  0.7389 -0.4831
    7MPD2     H14199   1.392   0.765  11.876  1.4445 -1.0390 -0.3346
    7MPD2    H114200   1.019   0.635  11.701 -0.3840  2.0268  0.8742
    7MPD2    H214201   1.357   0.605  11.475  1.3803  0.9482  0.3453
    7MPD2    H314202   1.123   0.583  11.513 -0.7499 -0.1651  0.3964
    7MPD2     N14203   1.124   0.760  11.921 -0.1054  0.4346 -0.1914
    7MPD2    H514204   1.026   0.761  11.896  0.9008  0.4872 -4.1539
    7MPD2    N114205   1.535   0.700  11.663 -0.3890 -0.1465 -0.6516
    7MPD2    H714206   1.574   0.673  11.572 -0.5055 -2.5944  0.0176
    8TMC3    C114207   1.768   0.741  11.726 -0.0693  0.7626 -0.3814
    8TMC3    C214208   1.790   0.787  11.601  0.1544 -0.0534 -0.1013
    8TMC3    C314209   1.878   0.894  11.591  0.8578  0.0735 -0.4666
    8TMC3    C414210   1.840   0.779  11.838  0.4538  0.2486 -0.5331
    8TMC3    C514211   1.919   0.890  11.826 -0.3582  0.0037 -0.1205
    8TMC3    C614212   1.929   0.957  11.707  0.1835  0.0467 -0.2491
    8TMC3     C14213   1.629   0.717  11.759  0.1649  1.3518  0.2293
    8TMC3     O14214   1.611   0.710  11.880  0.3881  0.6137 -0.0754
    8TMC3     H14215   1.734   0.752  11.514  0.6156  0.4463 -0.6031
    8TMC3    H114216   1.824   0.723  11.930  0.5490 -0.6267 -1.0582
    8TMC3    H214217   1.994   1.044  11.700  2.8072 -1.9090 -0.2250
    8TMC3    C714218   1.890   0.979  11.932  0.1828  0.1752  0.3268
    8TMC3    C814219   1.856   0.986  11.481 -0.0676 -0.1679 -0.0834
    8TMC3    O114220   1.975   1.070  11.946 -0.2036 -0.1497  0.1740
    8TMC3    O214221   1.841   1.102  11.514  0.4784 -0.3214 -0.0530
    9MPD2     C14222   1.685   0.873  11.172  0.0825 -0.7440  0.1437
    9MPD2    C114223   1.725   0.964  11.262  0.4627 -0.2657 -0.1820
    9MPD2    C214224   1.680   1.097  11.255 -0.3510  1.1243 -0.1009
    9MPD2    C314225   1.592   1.133  11.155 -0.4553 -0.5275 -0.8435
    9MPD2    C414226   1.555   1.035  11.059 -0.4485 -0.2189  0.4591
    9MPD2    C514227   1.600   0.902  11.073  0.0510 -0.2100  0.1914
    9MPD2     H14228   1.697   1.175  11.328  1.4025 -0.4178  1.1602
    9MPD2    H114229   1.480   1.054  10.983  0.4178 -0.7067 -0.5265
    9MPD2    H214230   1.702   0.767  11.186  2.0307 -0.2709  1.4276
    9MPD2    H314231   1.570   0.828  11.000  0.7668  0.6589 -0.9824
    9MPD2     N14232   1.536   1.258  11.146  0.0652 -0.2308  0.6155
    9MPD2    H514233   1.460   1.274  11.081  0.4466  2.2218  0.7878
    9MPD2    N114234   1.809   0.915  11.369 -0.8973 -0.4630 -0.5855
    9MPD2    H714235   1.838   0.819  11.357 -0.2597 -0.1198 -1.7996
    1MPD1     C14236   3.235   0.729  17.621  0.6160 -1.0243 -0.0384
    1MPD1    C114237   3.200   0.658   0.039 -0.5379 -0.0305  0.6532
    1MPD1    C214238   3.070   0.602   0.043  0.5226 -0.0080 -0.0742
    1MPD1    C314239   2.971   0.640  17.653 -0.3487 -0.9274  0.3613
    1MPD1    C414240   3.002   0.727  17.551 -0.4368  0.1281  0.1218
    1MPD1    C514241   3.135   0.759  17.531  0.2174 -0.4962  0.4948
    1MPD1     H14242   3.053   0.532   0.124 -1.5217  1.3306  0.6398
    1MPD1    H114243   2.934   0.758  17.473 -1.3060  2.8210  1.9549
    1MPD1    H214244   3.333   0.774  17.612  0.0278 -0.4095 -3.2739
    1MPD1    H314245   3.157   0.818  17.443 -1.7552  0.8354  0.9014
    1MPD1     N14246   2.845   0.585  17.652  0.5431  0.0876 -0.7818
    1MPD1    H514247   2.782   0.606  17.575 -0.4676  2.2885  0.6394
    1MPD1    N114248   3.292   0.624   0.137  0.1788 -0.0051 -0.0557
    1MPD1    H614249   3.369   0.690   0.144 -0.4153  0.5022  1.6438
    1MPD1    H714250   3.244   0.622   0.227  1.1204 -2.2053  0.3813
    2MPD1     C14251   1.972   0.101   0.261 -0.1212  0.1655 -0.0987
    2MPD1    C114252   1.957   0.194   0.157 -0.2898 -0.0849 -0.0636
    2MPD1    C214253   2.067   0.244   0.091 -0.2613  0.6138 -0.3270
    2MPD1    C314254   2.192   0.191   0.110 -0.6651 -0.1161 -0.2781
    2MPD1    C414255   2.198   0.095   0.211 -0.0805 -0.0413 -0.1541
    2MPD1    C514256   2.095   0.054   0.284  0.1949 -0.1459  0.2928
    2MPD1     H14257   2.066   0.332   0.028  0.1335 -0.4295 -1.8156
    2MPD1    H114258   2.283   0.028   0.219 -1.0394 -1.2935 -0.5534
    2MPD1    H214259   1.884   0.068   0.314  2.1710 -1.2256  2.8764
    2MPD1    H314260   2.115   4.684   0.335 -0.6039 -1.4602 -1.8191
    2MPD1     N14261   2.299   0.240   0.038 -0.1778 -0.4181  0.0004
    2MPD1    H514262   2.286   0.305  17.657  0.3512 -0.1617  0.1217
    2MPD1    N114263   1.838   0.265   0.152  0.0798 -0.4691 -0.5106
    2MPD1    H614264   1.761   0.203   0.179  1.2218 -2.3098 -1.4804
    2MPD1    H714265   1.823   0.294   0.056 -0.2251 -0.2320 -0.3912
    3TCq2    C114266   2.430   0.204   0.049  0.2745 -0.1690  0.3898
    3TCq2    O214267   2.478   0.139   0.141 -0.2888 -0.1553 -0.9554
    3TCq2    C214268   2.513   0.278  17.655 -0.0559  0.1011  0.2809
    3TCq2    C314269   2.476   0.312  17.531  0.1454 -0.5817 -0.6892
    3TCq2    C414270   2.542   0.414  17.470  0.8363  0.1411 -0.0541
    3TCq2    C514271   2.657   0.473  17.525 -0.1074  0.2536  0.6409
    3TCq2    C614272   2.693   0.424  17.651 -0.5640  0.2808  0.3416
    3TCq2    C714273   2.619   0.329   0.023  0.1278 -0.3998  0.4455
    3TCq2    C814274   2.806   0.473   0.019 -0.2753  0.2298 -0.1569
    3TCq2    O414275   2.855   0.404   0.108 -0.2530  0.4031 -0.3322
    3TCq2    C914276   2.508   0.447  17.340  0.4122 -0.4018  0.5147
    3TCq2    O514277   2.444   0.364  17.269  0.0174 -0.1956 -0.6365
    3TCq2    O614278   2.563   0.548  17.285 -0.0857  0.5792 -0.0528
    3TCq2    H214279   2.378   0.284  17.493  0.2692 -0.5521 -1.0246
    3TCq2    H314280   2.720   0.531  17.458  0.8092 -1.0104  0.3931
    3TCq2    H414281   2.652   0.326   0.126 -1.9284  2.1210  1.1774
    1TCq1    O114282   0.136   1.989  13.645  0.5064 -0.6181  0.0422
    1TCq1    C114283   0.218   2.056  13.723 -0.5136 -0.6000  0.2265
    1TCq1    O214284   0.339   2.075  13.708  0.6691  0.2472  0.5881
    1TCq1    C214285   0.144   2.097  13.844 -0.2493  0.6157 -0.0535
    1TCq1    C314286   0.177   2.214  13.906  0.1778  0.4364 -0.6314
    1TCq1    C414287   0.081   2.268  13.990  0.0580 -0.3750  0.5532
    1TCq1    C514288   4.701   2.191  14.032  0.2138  0.0187  0.2173
    1TCq1    C614289   4.670   2.079  13.965 -0.1836 -0.4078  0.2961
    1TCq1    C714290   0.033   2.026  13.875  0.6402 -0.2793 -0.0039
    1TCq1    C814291   4.542   2.024  13.964 -0.7192 -0.6381 -1.1620
    1TCq1    O414292   4.535   1.909  13.921  0.3963 -0.1032  0.3802
    1TCq1    C914293   0.101   2.405  14.051  0.2847 -1.3306  0.1164
    1TCq1    O514294   0.221   2.450  14.034  0.1489 -0.1352 -0.0837
    1TCq1    O614295   0.003   2.459  14.107  0.1200 -0.5867  0.2587
    1TCq1    H114296   0.040   2.004  13.660  0.1264 -2.7190 -0.2282
    1TCq1    H214297   0.274   2.256  13.886  1.2537 -1.7839 -0.1564
    1TCq1    H314298   4.641   2.232  14.113 -0.3837 -1.0259  0.3025
    1TCq1    H414299   0.021   1.923  13.842 -0.0116  0.5614 -2.3794
    2MPD2     C14300   4.248   1.983  13.940 -0.2031 -0.0605  0.5237
    2MPD2    C114301   4.305   2.108  13.965  0.1785  0.0533  0.0014
    2MPD2    C214302   4.230   2.224  13.946  0.3005  0.0772  0.0767
    2MPD2    C314303   4.104   2.206  13.886 -0.0942  0.1584  0.6693
    2MPD2    C414304   4.051   2.081  13.869  0.2206  0.3763  0.4595
    2MPD2    C514305   4.119   1.969  13.895  0.1187 -0.8331 -0.2206
    2MPD2     H14306   4.269   2.324  13.953 -0.6965  0.5967 -1.6779
    2MPD2    H114307   3.950   2.074  13.832  1.3657 -1.4283 -2.2925
    2MPD2    H214308   4.300   1.890  13.959  0.5127  0.6547  2.0351
    2MPD2    H314309   4.076   1.872  13.877  0.9277 -0.2827 -5.1683
    2MPD2     N14310   4.046   2.325  13.831 -0.2715 -0.2291  0.5503
    2MPD2    H514311   4.083   2.417  13.851 -0.1182 -0.0429 -0.6005
    2MPD2    N114312   4.445   2.120  13.987 -0.4993  0.1148  0.0245
    2MPD2    H714313   4.480   2.214  13.999 -0.5749  0.1622 -0.1198
    3TCq1    O114314   3.753   2.619  13.412  0.1188  0.2795 -0.5501
    3TCq1    C114315   3.662   2.558  13.480  0.0954  0.0332 -0.3471
    3TCq1    O214316   3.607   2.456  13.449 -0.5229 -0.4020 -0.3113
    3TCq1    C214317   3.726   2.569  13.608 -0.1020  0.0143  0.4091
    3TCq1    C314318   3.790   2.689  13.635 -0.1768 -0.2337 -0.4167
    3TCq1    C414319   3.889   2.689  13.722  0.4021  0.7754  0.2539
    3TCq1    C514320   3.939   2.568  13.773  0.0541 -0.0334  0.2535
    3TCq1    C614321   3.868   2.451  13.740 -0.5029  0.9640 -0.6736
    3TCq1    C714322   3.756   2.454  13.665  0.0160 -0.1644  0.4054
    3TCq1    C814323   3.933   2.321  13.753 -0.3586 -0.8311 -0.0921
    3TCq1    O414324   3.884   2.231  13.683  0.1431  0.2501 -0.2283
    3TCq1    C914325   3.961   2.811  13.752 -0.3587 -0.4704 -0.2348
    3TCq1    O514326   3.914   2.911  13.689 -0.6225  0.5207  0.1063
    3TCq1    O614327   4.032   2.806  13.853 -0.2336  0.0915 -0.2348
    3TCq1    H114328   3.813   2.667  13.472 -1.5369  1.0718  0.4903
    3TCq1    H214329   3.762   2.782  13.585  0.4030  0.2653  0.1991
    3TCq1    H314330   4.036   2.579  13.819 -0.3407  1.1293  0.7996
    3TCq1    H414331   3.710   2.366  13.621 -0.6100  0.4381 -0.1355
    1MPD2     C14332   3.968   4.584  14.807  0.2035  0.9351  0.0680
    1MPD2    C114333   3.921   4.534  14.925  0.2591  0.3616  0.8818
    1MPD2    C214334   4.015   4.500  15.019 -0.1884  0.1031  0.2723
    1MPD2    C314335   4.147   4.541  14.999  0.0197 -0.8602  0.4526
    1MPD2    C414336   4.186   4.605  14.884 -0.0863 -0.0733 -0.1055
    1MPD2    C514337   4.100   4.622  14.779 -0.4591  0.3057 -0.7852
    1MPD2     H14338   3.980   4.434  15.097  1.3015  0.6577  1.4280
    1MPD2    H114339   4.285   4.649  14.881 -0.1028 -0.0318 -0.0270
    1MPD2    H214340   3.900   4.610  14.726  0.0749  0.2099 -0.0601
    1MPD2    H314341   4.128   4.667  14.685  2.9323  0.9699  0.5481
    1MPD2     N14342   4.246   4.518  15.095  0.3717  1.3392 -0.7390
    1MPD2    H514343   4.340   4.549  15.073  0.4573  0.7479 -1.2005
    1MPD2    N114344   3.782   4.507  14.947 -0.1756  0.4083 -0.1632
    1MPD2    H714345   3.727   4.532  14.866 -1.6032 -0.1387  0.6383
    2TMC3    C114346   3.583   4.447  15.066 -0.7403 -0.1981 -0.2857
    2TMC3    C214347   3.553   4.400  15.188  0.1651  0.0539  0.4281
    2TMC3    C314348   3.470   4.289  15.194  0.6276  0.2889 -0.1675
    2TMC3    C414349   3.530   4.411  14.944  0.2562  1.3397 -0.2634
    2TMC3    C514350   3.434   4.311  14.959 -0.1726  1.0636  0.0163
    2TMC3    C614351   3.411   4.243  15.079 -0.2561 -0.5774  0.3562
    2TMC3     C14352   3.728   4.466  15.066  0.6279 -0.2906 -0.2147
    2TMC3     O14353   3.783   4.434  15.173 -0.1283 -0.0357  0.1808
    2TMC3     H14354   3.596   4.438  15.280 -0.2493 -1.3349  1.1913
    2TMC3    H114355   3.541   4.476  14.859  0.4286  1.0581 -0.4583
    2TMC3    H214356   3.357   4.148  15.083  0.0218 -0.7317  0.4542
    2TMC3    C714357   3.351   4.269  14.852 -0.5609 -0.2983 -0.7176
    2TMC3    C814358   3.531   4.186  15.280 -0.5041  0.4758 -0.1138
    2TMC3    O114359   3.267   4.178  14.862  0.1709 -1.2742 -0.0119
    2TMC3    O214360   3.465   4.096  15.331  0.1149 -0.5106  0.1997
    3TCq1    O114361   3.096   4.679  13.656  0.0576 -0.1105  0.6018
    3TCq1    C114362   3.165   4.691  13.767 -0.7618 -0.1931 -0.1925
    3TCq1    O214363   3.265   0.036  13.774 -0.3434  0.0160  0.1277
    3TCq1    C214364   3.152   4.570  13.837  0.1246 -0.3343 -0.9094
    3TCq1    C314365   3.263   4.497  13.811 -0.0523 -0.0782 -0.3331
    3TCq1    C414366   3.338   4.444  13.909 -0.6845  0.2357  0.1934
    3TCq1    C514367   3.291   4.447  14.032 -0.8381  0.3208 -0.2070
    3TCq1    C614368   3.183   4.519  14.061 -0.6864 -0.7744  0.4010
    3TCq1    C714369   3.100   4.574  13.966 -0.4423 -0.0267 -0.2410
    3TCq1    C814370   3.124   4.502  14.194 -0.1181  0.2798 -0.2149
    3TCq1    O414371   3.004   4.516  14.201  0.6729  0.2184  0.3084
    3TCq1    C914372   3.453   4.363  13.877  0.5223 -0.2786  0.3538
    3TCq1    O514373   3.475   4.342  13.757 -0.1349  0.0278  0.2045
    3TCq1    O614374   3.522   4.317  13.974 -0.4252  0.0242  0.2532
    3TCq1    H114375   3.023   4.616  13.675  2.0123 -1.9314  1.9319
    3TCq1    H214376   3.313   4.505  13.715  0.6985  2.8236  0.3127
    3TCq1    H314377   3.352   4.399  14.107  2.7998  4.1486 -0.7006
    3TCq1    H414378   3.012   4.633  13.991  0.1000  0.2788  0.9329
    4MPD2     C14379   3.052   4.393  14.466 -0.1530 -0.1632 -0.5175
    4MPD2    C114380   3.180   4.430  14.427  0.3535 -0.0968 -0.7753
    4MPD2    C214381   3.277   4.418  14.525  0.8053 -0.0805  0.2184
    4MPD2    C314382   3.257   4.364  14.646  0.2625  0.7123 -0.1838
    4MPD2    C414383   3.130   4.315  14.673 -0.3134  0.0789 -0.0484
    4MPD2    C514384   3.033   4.325  14.578  0.2740  0.2091  0.8321
    4MPD2     H14385   3.378   4.452  14.504  0.0873 -0.7283 -4.3166
    4MPD2    H114386   3.102   4.274  14.769 -0.6833 -0.4059 -0.3612
    4MPD2    H214387   2.971   4.403  14.395 -0.4871  1.1408  0.0525
    4MPD2    H314388   2.933   4.295  14.606  0.9867 -1.9863  1.0662
    4MPD2     N14389   3.356   4.358  14.747  0.3120  0.0143 -1.3289
    4MPD2    H514390   3.432   4.425  14.736 -1.4874  2.5726  2.1998
    4MPD2    N114391   3.213   4.472  14.296  0.3041  0.0408  0.0714
    4MPD2    H714392   3.310   4.494  14.276 -0.2677  0.2814 -2.4005
    5TMC2    C114393   4.356   4.219  15.409 -0.4380  0.4776 -0.3556
    5TMC2    C214394   4.459   4.175  15.331  0.2712  0.2322 -0.4611
    5TMC2    C314395   4.507   4.248  15.232  0.1324 -0.0989 -0.5876
    5TMC2    C414396   4.308   4.343  15.389 -0.1655  0.3548 -0.4784
    5TMC2    C514397   4.349   4.411  15.277  0.3181  0.0218  0.7203
    5TMC2    C614398   4.448   4.368  15.197  0.6929  0.1883  0.5619
    5TMC2     C14399   4.256   4.115  15.438  0.4311 -0.1076 -0.5287
    5TMC2     O14400   4.292   4.011  15.480  0.2608  0.3095  0.6126
    5TMC2     H14401   4.506   4.084  15.365 -1.7422 -0.1562  1.2489
    5TMC2    H114402   4.235   4.383  15.459 -0.4906 -1.8318  0.4448
    5TMC2    H214403   4.469   4.410  15.099 -1.4633 -2.7943 -1.1879
    5TMC2    C714404   4.223   4.460  15.213  0.2765 -0.2511  0.2101
    5TMC2    C814405   4.619   4.216  15.145 -0.5357  0.9118 -0.0338
    5TMC2    O114406   4.127   4.417  15.276  0.2042 -0.1751 -0.1719
    5TMC2    O214407   4.680   4.301  15.085  0.1211  0.8904  0.6751
    5TMC2    O514408   4.666   4.094  15.176  0.0202 -0.3283 -0.0739
    5TMC2    H514409   4.593   4.034  15.203 -0.4024  0.2146 -0.0052
    6MPD2     C14410   3.752   4.000  15.396  0.1738  0.2360 -0.2840
    6MPD2    C114411   3.768   4.127  15.341 -0.2532 -0.4972  0.0232
    6MPD2    C214412   3.898   4.180  15.343 -0.3863  0.5629  0.0685
    6MPD2    C314413   4.008   4.104  15.390 -0.1678 -0.1470 -0.0875
    6MPD2    C414414   3.985   3.973  15.427  0.2650  0.2518 -0.1843
    6MPD2    C514415   3.858   3.916  15.437  0.1466 -0.9151  0.7440
    6MPD2     H14416   3.922   4.276  15.299  0.2929  0.7979  0.9467
    6MPD2    H114417   4.060   3.902  15.460  1.0657  0.3748 -1.7531
    6MPD2    H214418   3.650   3.968  15.414 -0.1139  1.3649  0.0731
    6MPD2    H314419   3.851   3.817  15.480 -0.2803 -1.1952  0.0319
    6MPD2     N14420   4.135   4.165  15.388 -0.1532  0.2398  0.3559
    6MPD2    H514421   4.131   4.262  15.360 -0.5222 -0.8410 -3.2780
    6MPD2    N114422   3.668   4.217  15.292 -1.0971  0.1280 -0.6400
    6MPD2    H714423   3.702   4.298  15.241 -0.9820 -0.0551 -0.8552
  945NH4     N114424   3.879   3.874   3.862 -0.0477 -0.2113  0.0768
  945NH4     H214425   3.862   3.772   3.856  0.5779 -0.1854 -2.1245
  945NH4     H314426   3.980   3.889   3.840  0.2677  1.9203  2.9643
  945NH4     H414427   3.874   3.922   3.954 -3.5529  0.1888 -0.3471
  945NH4     H514428   3.827   3.915   3.782 -0.7029 -1.0330  0.0917
  946SOD     NA14429   3.506   2.766  10.278  0.3669 -0.0096  0.1989
  947SOD     NA14430   1.169   2.977   2.792 -0.2181  0.1511  0.0298
  948SOD     NA14431   4.429   3.548  12.001  0.1105 -0.4832  0.2501
  949SOD     NA14432   0.313   2.870  17.425  0.3847 -0.2456  0.2350
  950SOD     NA14433   1.266   2.600   0.678  0.5002 -0.3009 -0.2070
  951SOD     NA14434   2.777   0.692   1.378 -0.2622  0.2679 -0.3490
  952SOD     NA14435   0.200   3.220  15.362 -0.1609 -0.0685  0.5005
  953SOD     NA14436   0.991   2.641  14.571 -0.4971  0.1314  0.5474
  954SOD     NA14437   3.565   3.022  12.759  0.3429  0.1293 -0.3566
  955SOD     NA14438   2.843   3.966   8.220  0.1761 -0.3622 -0.3803
  956SOD     NA14439   0.409   2.844  12.659  0.1388 -0.2638  0.4478
  957SOD     NA14440   2.179   2.076  13.585  0.8444  0.0466  0.1709
  958SOD     NA14441   3.056   2.131  15.523 -0.0365 -0.3890 -0.0648
  959SOD     NA14442   4.314   1.620  13.259 -0.2272 -0.2597  0.8099
  960SOD     NA14443   1.660   3.997  13.556  0.4927 -0.1286 -0.3345
  961SOD     NA14444   4.327   0.035   0.599  0.1117 -0.8018 -0.2148
  962SOD     NA14445   4.570   2.048   2.317 -0.4619  0.4978  0.4625
  963SOD     NA14446   1.418   1.598   1.324  0.3420 -0.1133  0.0724
  964SOD     NA14447   1.351   1.418  11.938 -0.2215  0.1516  0.0655
  965SOD     NA14448   2.637   1.981  11.155 -0.0295 -0.2474  0.2425
  966SOD     NA14449   3.310   2.500  10.382 -0.4673  0.0030 -0.0798
  967SOD     NA14450   3.492   1.089  12.093 -0.3584 -0.2194 -0.0284
  968SOD     NA14451   2.935   4.042   2.557 -0.1471  0.0531 -0.2166
  969SOD     NA14452   2.246   2.939  12.716 -0.1140  0.4275  0.0752
  970SOD     NA14453   2.076   3.412   3.286 -0.1061  0.1328 -0.2472
  971SOD     NA14454   0.952   3.904   9.211  0.7466  0.2654  0.1413
  972SOD     NA14455   0.062   4.440  14.953  0.4244  0.0063  0.6775
  973SOD     NA14456   2.029   3.625  10.974  0.4523 -0.4815  0.1253
  974SOD     NA14457   4.531   1.260  17.267  0.4622 -0.0873 -0.0310
  975SOD     NA14458   2.908   1.794  11.182 -0.5589  0.5063 -0.5521
  976SOD     NA14459   3.089   2.752  10.374 -0.2487  0.5184 -0.1434
  977SOD     NA14460   0.981   3.684  15.812 -0.3823 -0.2616  0.4125
  978SOD     NA14461   0.554   3.739  11.966 -0.2980 -0.1318  0.0837
  979SOD     NA14462   4.676   3.343   2.178  0.5324 -0.2114 -0.0686
  980SOD     NA14463   0.410   3.030  14.843  0.2200  0.0242 -0.0798
  981SOD     NA14464   0.642   3.874   0.392  0.6870 -0.0852  0.0387
  982SOD     NA14465   1.393   4.665  17.007  0.0778 -0.7677 -0.0197
  983SOD     NA14466   0.211   0.241   1.972 -0.4731 -0.2145 -0.0027
  984SOD     NA14467   3.493   3.645  10.362  0.7405 -0.0081  0.0968
  985SOD     NA14468   2.949   4.328  10.937  0.3997 -0.0698  0.1089
  986SOD     NA14469   1.923   4.198  15.170  0.4013 -0.4576 -0.2509
  987SOD     NA14470   1.573   4.151  15.111 -0.0040  0.2176  0.0938
  988SOD     NA14471   2.326   3.478   1.105 -0.0771  0.6806 -0.4859
  989SOD     NA14472   3.979   0.451   0.671  0.3162 -0.1693 -0.6187
  990SOD     NA14473   4.208   3.373  12.070 -0.5106 -0.4420  0.0638
  991SOD     NA14474   4.676   2.934   0.749 -0.0982  0.0284  0.3724
  992SOD     NA14475   1.427   1.455  15.024 -0.2040 -0.2844 -0.1222
  993SOD     NA14476   0.631   2.869  13.517  0.0158  0.4429 -0.2367
  994SOD     NA14477   3.411   0.147  15.138  0.0804 -0.1903 -0.0411
  995SOD     NA14478   2.614   3.629   1.034 -0.1528 -0.0210 -0.0428
  996SOD     NA14479   1.494   2.885  14.113 -0.1493 -0.1577 -0.5060
  997SOD     NA14480   1.229   2.909   0.769 -0.3037  0.5141 -0.0733
  998SOD     NA14481   4.309   3.725  12.234 -0.5365  0.2425 -0.3105
  999SOD     NA14482   4.475   0.520  12.399  0.0316 -0.5278  0.2365
 1000SOD     NA14483   2.705   4.135  10.864 -0.2087  0.2250  0.1197
 1001SOD     NA14484   3.523   4.175  14.127  0.0160  0.1409  0.2972
 1002SOD     NA14485   3.448   0.363   9.038 -0.5535 -0.1976  0.1533
 1003SOD     NA14486   1.674   2.377   7.213 -0.2487 -0.1397  0.5524
 1004SOD     NA14487   0.374   4.073  16.179  0.4238  0.0268  0.0432
 1005SOD     NA14488   1.952   2.455   9.287 -0.3799 -0.3910 -0.0421
 1006SOD     NA14489   1.079   2.490  14.262 -0.1958  0.6859 -0.0507
 1007SOD     NA14490   1.241   0.769   3.217  0.0233 -0.1309  0.0910
 1008SOD     NA14491   3.851   2.796  10.535  0.3449  0.4073  0.4767
 1009SOD     NA14492   0.612   4.541  11.070 -0.0228  0.2429  0.5053
 1010SOD     NA14493   2.095   1.792   2.220  0.0584  0.2148  0.4732
 1011SOL     OW14494   0.722   0.944   8.830 -0.1099 -0.3263 -0.9813
 1011SOL    HW114495   0.701   0.895   8.909  2.8190 -0.9387 -0.5704
 1011SOL    HW214496   0.816   0.925   8.821 -0.4185 -1.4789 -1.6708
 1012SOL     OW14497   3.159   4.676   4.534 -0.0678  0.5153 -0.3212
 1012SOL    HW114498   3.211   4.666   4.455  1.9104 -1.1021  1.1935
 1012SOL    HW214499   3.230   4.680   4.599 -1.4249 -1.4455  1.2801
 1013SOL     OW14500   4.429   2.386   4.850  0.5797  0.1637  0.4715
 1013SOL    HW114501   4.347   2.356   4.810  2.5516 -0.6100 -2.9957
 1013SOL    HW214502   4.437   2.477   4.823  1.6313 -0.6772 -2.0634
 1014SOL     OW14503   1.158   3.080   0.644  0.6532 -0.2384 -0.4387
 1014SOL    HW114504   1.186   3.124   0.564 -3.4697 -0.8281 -2.2159
 1014SOL    HW214505   1.065   3.103   0.654  0.2525 -2.0038 -0.0871
 1015SOL     OW14506   1.478   3.488   3.586  0.0042 -0.4274  0.2713
 1015SOL    HW114507   1.570   3.512   3.576  0.4561 -2.1553  0.3125
 1015SOL    HW214508   1.498   3.402   3.623  0.4013 -1.3170 -2.0171
 1016SOL     OW14509   0.322   0.765   7.340 -0.1439 -0.1071  0.5586
 1016SOL    HW114510   0.232   0.756   7.309 -0.6935  1.3876  1.6765
 1016SOL    HW214511   0.310   0.788   7.432 -0.6896 -1.0287  0.7149
 1017SOL     OW14512   1.677   0.805   7.731  0.2653 -0.4105  0.2831
 1017SOL    HW114513   1.599   0.839   7.774  0.4519 -0.3203  0.5522
 1017SOL    HW214514   1.746   0.792   7.797 -3.0380 -3.9975  2.9962
 1018SOL     OW14515   1.936   2.271  10.438  0.5613 -0.0485 -0.3054
 1018SOL    HW114516   1.951   2.178  10.459  0.9478  0.3542  1.1653
 1018SOL    HW214517   2.020   2.301  10.473  0.0854 -1.0392  1.6806
 1019SOL     OW14518   0.909   2.749  11.640 -0.8041 -0.1539 -0.0789
 1019SOL    HW114519   0.821   2.730  11.673 -0.5786 -0.4541  0.3469
 1019SOL    HW214520   0.907   2.845  11.650 -4.2425 -0.1801 -0.2960
 1020SOL     OW14521   4.140   3.624   7.938  0.1339 -0.3710  0.2269
 1020SOL    HW114522   4.143   3.552   8.001  2.2014  0.0730  0.6575
 1020SOL    HW214523   4.049   3.631   7.912  0.2090 -0.6219 -0.1114
 1021SOL     OW14524   1.036   3.354   3.147  0.2939 -0.6091 -0.1875
 1021SOL    HW114525   1.047   3.356   3.242  0.0146  1.8311 -0.2024
 1021SOL    HW214526   1.050   3.261   3.130 -1.4570 -0.6770 -1.1767
 1022SOL     OW14527   1.832   2.236   9.677 -0.2158  0.1036  0.0479
 1022SOL    HW114528   1.782   2.263   9.754  1.1697 -0.1945  1.0365
 1022SOL    HW214529   1.754   2.208   9.628 -0.5594  1.5608 -0.2654
 1023SOL     OW14530   1.722   0.112   2.178 -0.3578  1.1372  0.4344
 1023SOL    HW114531   1.660   0.042   2.157  2.1481 -0.7879 -0.5882
 1023SOL    HW214532   1.724   0.095   2.273 -1.9653  0.2284  0.3142
 1024SOL     OW14533   3.760   3.646   2.612 -0.3345 -0.6245 -0.6556
 1024SOL    HW114534   3.684   3.672   2.665  0.4141 -3.3615  1.7492
 1024SOL    HW214535   3.818   3.606   2.676 -1.4357  1.8644  1.8931
 1025SOL     OW14536   2.001   3.456   2.557  0.0275  0.0435 -0.1359
 1025SOL    HW114537   2.001   3.491   2.468 -1.3167  1.0921  0.2784
 1025SOL    HW214538   2.037   3.372   2.531 -0.6975  0.0739 -1.2625
 1026SOL     OW14539   1.574   3.545   8.356  0.2408  0.5616 -0.0033
 1026SOL    HW114540   1.499   3.533   8.415  0.0550  1.0057 -0.1537
 1026SOL    HW214541   1.563   3.638   8.339  0.8496  0.9318  1.6217
 1027SOL     OW14542   0.282   1.979  17.009  0.5226  0.3823  0.1800
 1027SOL    HW114543   0.360   1.939  16.969 -0.1121  1.3849 -2.0449
 1027SOL    HW214544   0.312   2.047  17.069 -0.5553  0.3574  0.7449
 1028SOL     OW14545   3.084   2.690  13.380  0.3744  0.5986  0.2874
 1028SOL    HW114546   3.083   2.675  13.285  0.9498  0.4143  0.3126
 1028SOL    HW214547   3.147   2.621  13.400  0.7580  1.1953  1.1543
 1029SOL     OW14548   1.575   1.104  17.183 -0.5101  0.5965  0.3985
 1029SOL    HW114549   1.656   1.147  17.158 -1.3063  0.3529 -2.5393
 1029SOL    HW214550   1.508   1.172  17.192 -0.2534  0.6585  1.8319
 1030SOL     OW14551   4.433   1.993   3.140  0.0928  0.0940 -0.1267
 1030SOL    HW114552   4.511   2.045   3.156  0.0579 -0.2425  1.1596
 1030SOL    HW214553   4.425   1.984   3.045  0.7990  0.8799 -0.2556
 1031SOL     OW14554   1.257   1.769   9.937 -0.0560 -0.0938 -0.2620
 1031SOL    HW114555   1.264   1.813   9.853 -1.0966 -2.4426 -1.5804
 1031SOL    HW214556   1.349   1.749   9.956 -0.2826 -3.2522 -2.3756
 1032SOL     OW14557   0.589   4.007  12.813 -0.3235  0.8128  0.0671
 1032SOL    HW114558   0.596   4.084  12.756 -0.9777  0.6251 -0.2709
 1032SOL    HW214559   0.559   3.943  12.748 -1.2824 -0.8055  2.1151
 1033SOL     OW14560   0.558   4.420   4.065 -0.6975  0.2148  0.0449
 1033SOL    HW114561   0.484   4.386   4.016  0.6226 -0.4760 -1.4743
 1033SOL    HW214562   0.600   4.485   4.008 -0.0790  0.8006  1.1620
 1034SOL     OW14563   4.474   1.504   6.859 -0.2530 -0.0442  0.3071
 1034SOL    HW114564   4.460   1.524   6.952  0.3919 -1.6100  0.7591
 1034SOL    HW214565   4.463   1.409   6.864  0.4808 -0.2246 -1.4464
 1035SOL     OW14566   4.427   2.569   4.238 -0.1140 -0.2546  0.4571
 1035SOL    HW114567   4.372   2.604   4.308 -2.1816  1.0207 -1.8016
 1035SOL    HW214568   4.438   2.482   4.276  0.9180 -0.2687  0.1308
 1036SOL     OW14569   1.905   0.398   5.919 -0.7063 -0.2877 -0.4775
 1036SOL    HW114570   1.928   0.313   5.883  1.9836 -0.2345  1.1039
 1036SOL    HW214571   1.978   0.425   5.975 -1.3905  1.2705 -0.3210
 1037SOL     OW14572   4.685   4.489   4.054 -0.0525 -0.1758 -0.3091
 1037SOL    HW114573   4.650   4.578   4.049 -2.8800 -1.3183 -1.1374
 1037SOL    HW214574   4.650   4.457   4.137  0.7821 -1.3700 -0.4173
 1038SOL     OW14575   2.001   2.712   9.594  0.2881 -0.5498  0.0468
 1038SOL    HW114576   2.069   2.776   9.577 -0.7835  0.2537 -1.2040
 1038SOL    HW214577   1.953   2.726   9.675 -0.3298 -2.3693  0.0010
 1039SOL     OW14578   2.841   2.112   7.985 -0.0501 -0.0905 -0.6273
 1039SOL    HW114579   2.815   2.142   8.072 -0.3840 -3.9533  0.6060
 1039SOL    HW214580   2.821   2.194   7.939 -0.2252  0.8465  1.1536
 1040SOL     OW14581   3.223   1.571   0.016  0.2196  0.5376  0.3968
 1040SOL    HW114582   3.192   1.638   0.077  0.5791  1.7396 -0.7418
 1040SOL    HW214583   3.213   1.491   0.068  1.2155  0.8750  1.1080
 1041SOL     OW14584   3.678   2.644  10.466 -0.1181 -0.1043  0.4296
 1041SOL    HW114585   3.583   2.648  10.474 -0.1277 -2.4555  1.5118
 1041SOL    HW214586   3.676   2.566  10.410 -0.8050 -0.5382  1.0578
 1042SOL     OW14587   3.049   2.925  15.782  0.4783  0.6270  0.0876
 1042SOL    HW114588   3.020   2.855  15.841  1.0110  0.9917  0.7860
 1042SOL    HW214589   3.103   2.876  15.719 -0.7377  0.9422 -1.1793
 1043SOL     OW14590   2.835   2.099  14.009  0.1123  0.1148 -0.1141
 1043SOL    HW114591   2.770   2.154  14.052 -0.6980 -0.2134 -0.9120
 1043SOL    HW214592   2.803   2.019  14.050 -1.7675  1.1432  0.4324
 1044SOL     OW14593   0.313   3.298   2.510  0.4391  0.1420  0.5991
 1044SOL    HW114594   0.335   3.369   2.450 -0.1272 -0.5975 -0.4751
 1044SOL    HW214595   0.223   3.321   2.532  0.7929  0.9845  1.2051
 1045SOL     OW14596   4.559   4.231   5.371 -0.6447 -0.3413  0.9502
 1045SOL    HW114597   4.594   4.153   5.414  0.5538 -0.4001 -0.1232
 1045SOL    HW214598   4.611   4.302   5.408  1.3530 -0.8774 -0.8276
 1046SOL     OW14599   3.717   0.756   9.016  0.0491 -0.4097 -0.1635
 1046SOL    HW114600   3.796   0.761   8.961  0.8784  0.2372  1.0954
 1046SOL    HW214601   3.674   0.837   8.990 -1.4430 -1.0258  0.4253
 1047SOL     OW14602   3.812   3.071   4.543 -0.4065 -0.2585  0.5170
 1047SOL    HW114603   3.797   2.992   4.491  1.8903 -0.2463 -0.1268
 1047SOL    HW214604   3.781   3.037   4.627 -1.2000 -0.1860  0.2539
 1048SOL     OW14605   4.303   0.083  16.210  0.0612  0.4192 -0.4399
 1048SOL    HW114606   4.376   0.094  16.150 -0.6137  1.2299 -1.1142
 1048SOL    HW214607   4.238   0.144  16.175 -1.0652 -1.4543 -1.5872
 1049SOL     OW14608   4.041   3.545   8.794 -0.1585  0.4282  0.2942
 1049SOL    HW114609   4.061   3.635   8.820 -2.2621  0.9652  0.0032
 1049SOL    HW214610   4.031   3.507   8.882 -0.9182 -1.9787 -0.8221
 1050SOL     OW14611   0.560   3.187   2.326 -0.4857 -0.0341 -0.1355
 1050SOL    HW114612   0.551   3.140   2.408  0.4099  2.7224  1.5448
 1050SOL    HW214613   0.549   3.277   2.357  2.3226 -0.8666  3.1649
 1051SOL     OW14614   1.757   0.734   7.056  0.4522 -0.7015 -0.1060
 1051SOL    HW114615   1.723   0.773   6.976  0.5141 -0.5936 -0.0788
 1051SOL    HW214616   1.849   0.757   7.048  0.3602  0.0920  1.1955
 1052SOL     OW14617   3.772   0.220  11.883  1.0774  0.0636 -0.3768
 1052SOL    HW114618   3.714   0.238  11.810  1.3031 -0.3927 -0.6691
 1052SOL    HW214619   3.736   0.138  11.915  0.3713 -0.4272 -2.4505
 1053SOL     OW14620   1.075   2.358   8.510  0.3759  0.9870  0.6960
 1053SOL    HW114621   0.984   2.346   8.538  0.2498  1.4134  0.4623
 1053SOL    HW214622   1.106   2.267   8.515  2.0325  1.4377 -1.2197
 1054SOL     OW14623   0.473   1.130   4.537 -0.0571 -0.3618 -0.2193
 1054SOL    HW114624   0.457   1.153   4.628  2.3379  0.4011  0.0166
 1054SOL    HW214625   0.566   1.118   4.556 -0.0794 -0.4340 -0.1570
 1055SOL     OW14626   3.735   4.414   5.291  0.8048 -0.1919  0.0155
 1055SOL    HW114627   3.772   4.438   5.376  0.9878  1.9131 -0.6605
 1055SOL    HW214628   3.805   4.457   5.242 -1.4228  2.1898 -1.0558
 1056SOL     OW14629   3.154   1.662   3.085  0.2672  0.3954 -0.5487
 1056SOL    HW114630   3.238   1.657   3.039 -0.0740 -3.5043 -0.7196
 1056SOL    HW214631   3.191   1.633   3.168 -0.1691  1.2079 -0.0645
 1057SOL     OW14632   2.082   2.344   5.023 -0.2914 -0.0971  0.2056
 1057SOL    HW114633   2.174   2.354   4.998 -0.0088 -1.0815  0.8712
 1057SOL    HW214634   2.051   2.300   4.944  1.1678 -0.5427 -0.1210
 1058SOL     OW14635   2.719   4.032   4.354  0.1223 -0.4231  0.4045
 1058SOL    HW114636   2.806   4.062   4.381 -0.8933  3.5475 -0.6924
 1058SOL    HW214637   2.653   4.045   4.422  0.6774  0.1880  0.8230
 1059SOL     OW14638   4.255   2.723   4.411 -0.2399 -0.2659 -0.6919
 1059SOL    HW114639   4.166   2.689   4.407 -0.8653  1.3723 -0.9984
 1059SOL    HW214640   4.259   2.788   4.481  2.5380 -1.9592  0.7407
 1060SOL     OW14641   2.757   3.239   4.923  0.0457  0.0215 -0.0764
 1060SOL    HW114642   2.829   3.291   4.888 -0.6497  0.2462 -1.1805
 1060SOL    HW214643   2.739   3.195   4.840 -2.5379 -1.5159  1.2796
 1061SOL     OW14644   3.205   2.015   7.216 -0.0203 -0.2424  0.4413
 1061SOL    HW114645   3.237   2.028   7.127  0.0875 -0.8510  0.3936
 1061SOL    HW214646   3.112   2.035   7.208  0.7814  2.6861 -1.1776
 1062SOL     OW14647   2.609   1.848  11.351 -0.0686  0.2441 -0.0229
 1062SOL    HW114648   2.569   1.766  11.380  0.3322 -0.3140 -1.0069
 1062SOL    HW214649   2.547   1.907  11.393 -0.8416  1.2255 -2.5522
 1063SOL     OW14650   1.086   3.772   7.701 -0.6099 -0.3702  0.2116
 1063SOL    HW114651   1.052   3.861   7.693 -0.4541 -0.4316 -1.0963
 1063SOL    HW214652   1.074   3.722   7.621 -1.4514  1.9990 -1.1548
 1064SOL     OW14653   0.006   2.227   6.560  0.7268 -0.2810  0.0754
 1064SOL    HW114654   4.650   2.278   6.547 -0.0321 -1.3015  0.7488
 1064SOL    HW214655   4.716   2.181   6.643 -2.1811  2.7020  1.2426
 1065SOL     OW14656   3.348   0.610   2.927  0.4045 -0.4578 -0.2420
 1065SOL    HW114657   3.262   0.634   2.892  1.7587  2.1273 -1.7670
 1065SOL    HW214658   3.350   0.514   2.928 -0.7412 -0.5026 -2.7632
 1066SOL     OW14659   3.000   2.107  17.313 -0.1215  0.4595 -0.1542
 1066SOL    HW114660   2.993   2.130  17.406  2.5100  1.9982 -0.3461
 1066SOL    HW214661   3.050   2.182  17.281  1.6213  0.1693  1.9203
 1067SOL     OW14662   3.624   0.966   5.742  0.2890  0.0742  0.4781
 1067SOL    HW114663   3.688   0.948   5.811 -0.1661  0.1755  0.9301
 1067SOL    HW214664   3.596   1.052   5.774 -0.6143  0.3879 -1.1275
 1068SOL     OW14665   2.525   2.945   9.060 -0.3237 -0.0602 -0.2611
 1068SOL    HW114666   2.578   3.023   9.040 -0.5308  0.0215 -0.4969
 1068SOL    HW214667   2.549   2.891   8.984 -0.4004 -1.8091  0.9693
 1069SOL     OW14668   1.056   4.531   6.121  0.1626 -0.1380  0.2820
 1069SOL    HW114669   1.077   4.563   6.034  0.0028  0.5663  0.5019
 1069SOL    HW214670   1.078   4.437   6.123 -1.7780 -0.5559  2.2391
 1070SOL     OW14671   2.745   1.459   3.564  0.5541 -0.1820  0.3153
 1070SOL    HW114672   2.652   1.459   3.540  0.2143 -1.1063  1.6060
 1070SOL    HW214673   2.767   1.366   3.561 -0.8575 -0.5067  0.0286
 1071SOL     OW14674   3.556   2.985  13.205  0.6260 -0.4098  0.4317
 1071SOL    HW114675   3.649   2.968  13.220  0.3182 -1.8671  0.7647
 1071SOL    HW214676   3.525   2.908  13.157 -1.8236  0.6628  0.3123
 1072SOL     OW14677   3.691   3.770   3.659  0.1082 -1.0994  0.1062
 1072SOL    HW114678   3.709   3.731   3.573  3.6345  0.3983  0.1596
 1072SOL    HW214679   3.684   3.691   3.712 -2.4467  0.0251  1.4139
 1073SOL     OW14680   1.797   0.239  13.621 -0.3990 -0.0125 -0.4527
 1073SOL    HW114681   1.881   0.262  13.582  0.0042 -0.0290  0.4145
 1073SOL    HW214682   1.813   0.166  13.681 -0.4687  1.5225  1.4191
 1074SOL     OW14683   1.070   1.589  15.451 -0.3551 -0.2369  0.3116
 1074SOL    HW114684   1.122   1.516  15.484  0.8337  0.4684  0.0188
 1074SOL    HW214685   1.039   1.627  15.533  2.0292  1.9251  0.2013
 1075SOL     OW14686   4.372   4.071   8.597  0.2802 -0.0599  0.4303
 1075SOL    HW114687   4.328   4.140   8.646  0.1517  0.1776 -0.0233
 1075SOL    HW214688   4.458   4.072   8.639  0.6502 -3.7610 -0.1860
 1076SOL     OW14689   0.952   2.331   8.110  0.1805 -0.1756 -0.3933
 1076SOL    HW114690   0.920   2.247   8.079  0.8835 -0.2708 -0.8602
 1076SOL    HW214691   1.041   2.303   8.128 -0.0076 -0.4050  0.1689
 1077SOL     OW14692   0.939   2.816   8.197 -0.3045  0.2339  0.4614
 1077SOL    HW114693   0.980   2.742   8.242  0.3608  1.1074  1.3079
 1077SOL    HW214694   1.006   2.883   8.181  0.6706 -0.3169  2.2168
 1078SOL     OW14695   0.889   1.551   7.281 -0.8873 -0.5439 -0.3194
 1078SOL    HW114696   0.914   1.521   7.368  1.2092 -0.1878 -0.7958
 1078SOL    HW214697   0.966   1.529   7.228 -1.7961 -0.3241 -1.7308
 1079SOL     OW14698   0.372   0.538   6.138 -0.3938 -0.7791 -0.2234
 1079SOL    HW114699   0.314   0.504   6.071 -1.5536  2.3475 -0.7880
 1079SOL    HW214700   0.327   0.514   6.219  0.4045 -0.5124  0.3003
 1080SOL     OW14701   1.031   2.200   4.805  0.2041 -0.0773  0.0753
 1080SOL    HW114702   0.987   2.213   4.721  0.0206 -0.6376  0.0875
 1080SOL    HW214703   0.989   2.120   4.834 -1.0098 -0.0725 -1.6867
 1081SOL     OW14704   2.478   2.591   4.087  0.4552  0.1520  0.6256
 1081SOL    HW114705   2.489   2.522   4.021  0.2736 -0.0981  0.8583
 1081SOL    HW214706   2.460   2.540   4.166  0.3741 -1.9827 -0.7793
 1082SOL     OW14707   2.785   3.909  11.552  0.2051 -0.4204 -0.1940
 1082SOL    HW114708   2.842   3.862  11.492 -0.1609 -0.7646 -0.2721
 1082SOL    HW214709   2.824   3.996  11.563  0.2198 -0.5473  0.7108
 1083SOL     OW14710   3.113   2.293   3.706 -0.4389  0.6611 -0.0028
 1083SOL    HW114711   3.072   2.225   3.759  0.1249  0.8235  0.6429
 1083SOL    HW214712   3.208   2.284   3.719 -1.1135 -4.1472  1.6708
 1084SOL     OW14713   1.152   3.115   8.852 -0.2527  0.1489  0.1578
 1084SOL    HW114714   1.119   3.205   8.850  0.6176  0.4377 -1.3057
 1084SOL    HW214715   1.071   3.066   8.864 -0.7842  0.9609 -0.0887
 1085SOL     OW14716   2.006   3.228   8.849 -0.3450 -0.4087 -0.0269
 1085SOL    HW114717   1.923   3.238   8.896 -0.2006  0.3318  0.0799
 1085SOL    HW214718   2.066   3.189   8.912 -0.6956 -2.2351 -0.8361
 1086SOL     OW14719   4.529   1.907   7.943  0.1826  0.4666 -0.4984
 1086SOL    HW114720   4.449   1.855   7.932  1.8319 -1.5790 -2.7986
 1086SOL    HW214721   4.585   1.864   7.878 -0.5474 -1.2930  0.0336
 1087SOL     OW14722   1.406   4.253  12.624 -0.1548 -1.0801 -0.2598
 1087SOL    HW114723   1.469   4.183  12.606  0.9941 -0.1124  0.0110
 1087SOL    HW214724   1.346   4.221  12.691 -0.1706  0.6437  0.5198
 1088SOL     OW14725   4.638   1.212   6.587  0.3699 -0.6903 -0.0534
 1088SOL    HW114726   4.722   1.246   6.556 -0.0666 -2.4366 -3.1796
 1088SOL    HW214727   4.592   1.294   6.604  0.6577 -0.4603 -0.3966
 1089SOL     OW14728   2.908   3.030   8.087  0.4363 -0.2238 -0.3227
 1089SOL    HW114729   2.952   3.020   8.002  1.9574  1.6376  0.2501
 1089SOL    HW214730   2.815   3.027   8.064  0.6413  3.0512 -1.4876
 1090SOL     OW14731   3.077   3.695   0.738  0.7697  0.0537 -0.4205
 1090SOL    HW114732   3.060   3.783   0.705 -0.3043 -0.5413 -1.4867
 1090SOL    HW214733   3.052   3.709   0.829 -1.2553  0.4985 -1.0471
 1091SOL     OW14734   3.197   1.773   8.482 -0.3397  0.8294  0.1114
 1091SOL    HW114735   3.161   1.804   8.399 -0.2395 -2.8808 -1.3182
 1091SOL    HW214736   3.205   1.844   8.546  1.0316 -0.2947  1.1972
 1092SOL     OW14737   3.002   1.276   3.325  0.1135  0.0310  0.2333
 1092SOL    HW114738   2.929   1.300   3.269  0.6733 -1.2567 -1.0325
 1092SOL    HW214739   3.000   1.363   3.366  2.6013  0.2965 -0.1753
 1093SOL     OW14740   4.436   0.964   3.106 -0.2147  0.0043 -0.2894
 1093SOL    HW114741   4.381   0.931   3.035 -2.0620  1.9511  0.2075
 1093SOL    HW214742   4.503   1.009   3.054 -2.0939 -1.2376 -3.7849
 1094SOL     OW14743   2.542   3.107  17.292  0.2804  0.4268 -0.2464
 1094SOL    HW114744   2.519   3.017  17.315 -1.5333  1.3694  1.5310
 1094SOL    HW214745   2.465   3.156  17.319 -0.8981 -1.3675 -0.3963
 1095SOL     OW14746   0.224   1.048   2.632 -0.0187 -0.4326  0.4096
 1095SOL    HW114747   0.150   1.033   2.573 -0.5025 -2.3943  1.5007
 1095SOL    HW214748   0.291   1.062   2.566 -1.3395  0.4966 -0.7527
 1096SOL     OW14749   3.497   1.834  14.700 -0.3693  0.8700  0.3911
 1096SOL    HW114750   3.591   1.832  14.685 -0.7153 -2.6132 -1.3523
 1096SOL    HW214751   3.496   1.799  14.790  1.9280 -1.0612 -0.3442
 1097SOL     OW14752   4.723   3.680  10.980  0.1818  0.1914 -0.0461
 1097SOL    HW114753   4.645   3.625  10.975  0.2487  0.0805  0.1634
 1097SOL    HW214754   0.074   3.622  10.962  0.1966  0.8262 -2.0378
 1098SOL     OW14755   4.108   0.859  11.565 -0.1053  0.2224  0.3034
 1098SOL    HW114756   4.135   0.768  11.570 -1.4388 -0.2327 -0.5758
 1098SOL    HW214757   4.026   0.863  11.515  0.8846 -2.1958 -1.5094
 1099SOL     OW14758   4.235   4.369   8.274 -0.8779  0.4186 -0.5032
 1099SOL    HW114759   4.259   4.279   8.295 -3.0062  0.2994  1.4101
 1099SOL    HW214760   4.186   4.351   8.193 -0.1866 -1.5512 -0.5027
 1100SOL     OW14761   0.506   4.027   3.393 -0.5590  0.1559  0.2464
 1100SOL    HW114762   0.458   4.011   3.475 -0.2344 -0.7932  0.2476
 1100SOL    HW214763   0.437   4.064   3.338  1.5000  0.3536 -2.1966
 1101SOL     OW14764   1.611   4.014  10.100 -0.3806  0.0128  0.0333
 1101SOL    HW114765   1.662   4.047  10.174  0.6740 -0.8645 -0.3118
 1101SOL    HW214766   1.667   3.954  10.051 -0.4961  0.0674 -0.1658
 1102SOL     OW14767   3.638   3.750   5.401  0.4248 -0.6428 -0.8712
 1102SOL    HW114768   3.591   3.793   5.330 -0.7390 -0.2634  0.1294
 1102SOL    HW214769   3.599   3.664   5.386 -2.1375  0.0709  1.5620
 1103SOL     OW14770   2.395   0.606   6.415 -0.5326 -0.4312  0.4800
 1103SOL    HW114771   2.307   0.571   6.409 -0.4195 -0.2558 -2.1987
 1103SOL    HW214772   2.405   0.641   6.327 -2.6508 -3.4371 -0.9643
 1104SOL     OW14773   3.628   0.628  10.302  0.3448 -0.0146  0.2319
 1104SOL    HW114774   3.628   0.675  10.219  2.5418  1.3829  1.0121
 1104SOL    HW214775   3.623   0.704  10.360 -0.5067  0.8642 -1.0092
 1105SOL     OW14776   3.805   3.263   5.634 -0.2621  0.2494  0.0391
 1105SOL    HW114777   3.787   3.354   5.659  0.8102  0.2345  0.8834
 1105SOL    HW214778   3.738   3.218   5.685 -0.0983  2.2297  2.0345
 1106SOL     OW14779   0.501   1.515  12.764 -0.4850  0.5439  0.3993
 1106SOL    HW114780   0.520   1.608  12.775  1.2739  0.0227  1.8115
 1106SOL    HW214781   0.452   1.507  12.682 -1.2972  0.4489  0.8965
 1107SOL     OW14782   1.400   4.511   6.134  1.2610 -0.2808 -0.3993
 1107SOL    HW114783   1.482   4.474   6.099  0.7254 -0.4748 -1.4499
 1107SOL    HW214784   1.434   4.567   6.204 -2.4298  1.7616 -0.2801
 1108SOL     OW14785   0.372   4.502  16.509 -0.5706  0.2944 -0.0734
 1108SOL    HW114786   0.467   4.496  16.514 -0.7323 -1.2455  0.9215
 1108SOL    HW214787   0.354   4.414  16.541  0.0842 -0.2737 -1.2653
 1109SOL     OW14788   1.998   2.716   0.745  0.5443 -0.2704 -0.6225
 1109SOL    HW114789   2.087   2.737   0.717  0.8611 -1.0630 -0.2230
 1109SOL    HW214790   2.001   2.685   0.836  0.5376 -1.0794 -0.8952
 1110SOL     OW14791   2.960   4.317   3.835 -0.1271  0.9569  0.1003
 1110SOL    HW114792   2.892   4.359   3.783  0.2569  1.0188 -0.3604
 1110SOL    HW214793   2.961   4.228   3.798 -0.4697  1.1814 -0.4470
 1111SOL     OW14794   4.393   1.889   6.561 -0.1418 -1.0809  0.0960
 1111SOL    HW114795   4.339   1.812   6.581 -2.0911 -0.0921 -1.2757
 1111SOL    HW214796   4.450   1.888   6.637 -0.5289 -0.9758  0.3905
 1112SOL     OW14797   4.115   0.574  14.994  0.0355  0.2444  0.2417
 1112SOL    HW114798   4.069   0.617  14.921  0.7300 -0.1442 -0.4288
 1112SOL    HW214799   4.208   0.569  14.970 -0.8371  2.4603 -3.5278
 1113SOL     OW14800   4.387   1.646  13.835 -0.9186  0.1359  0.2412
 1113SOL    HW114801   4.371   1.559  13.870 -2.5630 -0.7107 -2.6636
 1113SOL    HW214802   4.297   1.668  13.813 -1.3379 -3.0411 -1.0843
 1114SOL     OW14803   3.603   3.814   5.656  0.0219 -0.2664 -0.2225
 1114SOL    HW114804   3.521   3.863   5.662  0.5813  0.4898  1.4405
 1114SOL    HW214805   3.611   3.820   5.561 -0.0538  0.2879 -0.1938
 1115SOL     OW14806   0.349   0.473   2.854  0.0561  0.5752 -0.6682
 1115SOL    HW114807   0.379   0.560   2.829  0.8920  0.0539 -1.4500
 1115SOL    HW214808   0.328   0.483   2.947 -2.2971  1.1777 -1.2553
 1116SOL     OW14809   1.938   1.306   2.415 -0.6863  0.0666 -0.1607
 1116SOL    HW114810   2.025   1.327   2.448 -1.1328  4.5300 -1.8822
 1116SOL    HW214811   1.960   1.238   2.351  1.7124 -0.6314  1.4082
 1117SOL     OW14812   4.351   1.270   7.568 -0.0956  0.1635  0.1604
 1117SOL    HW114813   4.424   1.222   7.531 -1.8906 -0.8301 -2.1332
 1117SOL    HW214814   4.355   1.254   7.662  0.0016  1.0068  0.3033
 1118SOL     OW14815   4.385   3.364  16.615  0.4381  0.4166  0.5433
 1118SOL    HW114816   4.385   3.348  16.709 -0.6204  0.1705  0.4953
 1118SOL    HW214817   4.481   3.370  16.611  0.5237 -0.7296  0.8789
 1119SOL     OW14818   3.451   3.106  12.580  0.4734  0.5740  0.0836
 1119SOL    HW114819   3.511   3.122  12.507  1.6662 -0.3143  0.8791
 1119SOL    HW214820   3.385   3.063  12.527  0.3734  1.2706 -0.3529
 1120SOL     OW14821   2.103   3.070   4.882  0.4083  0.5848 -0.2067
 1120SOL    HW114822   2.151   3.055   4.800 -0.5451  2.7683 -1.1481
 1120SOL    HW214823   2.149   3.005   4.935  0.5161  0.0671 -0.9336
 1121SOL     OW14824   4.722   3.600   6.860 -0.0107  0.0488  0.1545
 1121SOL    HW114825   4.713   3.688   6.824  2.0708  0.2825  0.2451
 1121SOL    HW214826   0.059   3.621   6.930 -0.2010  0.2268  0.2654
 1122SOL     OW14827   4.021   4.277   5.615 -0.4251 -0.4810 -0.0710
 1122SOL    HW114828   4.038   4.218   5.542 -2.1446 -2.2480  0.9438
 1122SOL    HW214829   4.095   4.262   5.673 -0.6182 -0.7506  0.1091
 1123SOL     OW14830   1.391   3.599   5.786  0.1336 -0.0576  0.7083
 1123SOL    HW114831   1.354   3.513   5.808  2.3970 -0.5580  2.5093
 1123SOL    HW214832   1.312   3.649   5.767 -0.1188 -0.7948 -0.2081
 1124SOL     OW14833   0.053   2.150   6.880  0.4586  0.1458 -0.0334
 1124SOL    HW114834   0.039   2.203   6.958  1.2988 -0.9556  0.8588
 1124SOL    HW214835   0.097   2.070   6.909 -0.1274  0.7907  2.5938
 1125SOL     OW14836   3.370   3.360   8.461  0.1465 -0.1208  0.0040
 1125SOL    HW114837   3.406   3.449   8.465 -0.4442  0.1818 -1.1587
 1125SOL    HW214838   3.289   3.369   8.512  1.3070 -1.6908  2.0962
 1126SOL     OW14839   3.758   0.824   4.721  0.8995 -0.2722  0.1330
 1126SOL    HW114840   3.730   0.737   4.750  0.6305 -0.0282  0.6089
 1126SOL    HW214841   3.711   0.885   4.778  0.7562 -2.0368  1.8731
 1127SOL     OW14842   0.526   3.576   8.963 -0.3796 -0.2149  0.0825
 1127SOL    HW114843   0.591   3.512   8.989  0.2263 -0.1544 -1.3116
 1127SOL    HW214844   0.468   3.507   8.931  0.6842 -0.4977 -1.2372
 1128SOL     OW14845   4.558   1.750  10.002 -0.4800  0.1799  0.1308
 1128SOL    HW114846   4.493   1.820   9.994 -0.5924  0.0387 -0.2368
 1128SOL    HW214847   4.505   1.681  10.043  1.3407  0.1085  2.3339
 1129SOL     OW14848   0.993   4.602  13.539  0.0305 -0.6309 -0.5141
 1129SOL    HW114849   0.905   4.634  13.519 -1.0216 -1.2007  3.1274
 1129SOL    HW214850   1.014   4.570  13.452  0.0721 -0.8794 -0.4121
 1130SOL     OW14851   3.868   4.102   1.465  0.7537 -0.4635 -0.3619
 1130SOL    HW114852   3.938   4.110   1.530 -1.0130  2.1901  1.2559
 1130SOL    HW214853   3.804   4.051   1.515  0.4560 -1.8167 -2.1217
 1131SOL     OW14854   3.804   3.788  12.918 -0.0596  0.3863  0.0232
 1131SOL    HW114855   3.876   3.740  12.876 -0.4475 -1.6848  1.7468
 1131SOL    HW214856   3.735   3.723  12.910  1.5783 -1.5905  1.9923
 1132SOL     OW14857   1.137   3.118   7.522 -0.0520  0.1277  0.2978
 1132SOL    HW114858   1.051   3.121   7.481 -0.8630  1.7857  2.1276
 1132SOL    HW214859   1.174   3.199   7.486 -1.0186  0.2399 -0.4261
 1133SOL     OW14860   0.029   0.891   0.177  0.2106  0.7996  0.4395
 1133SOL    HW114861   0.033   0.796   0.180 -2.3096  0.6893  0.1922
 1133SOL    HW214862   4.708   0.906   0.261  0.2728 -1.6158  0.8853
 1134SOL     OW14863   2.868   3.846   8.652  0.1064 -0.0883  0.5588
 1134SOL    HW114864   2.807   3.873   8.721 -2.6121 -0.9971 -1.5120
 1134SOL    HW214865   2.823   3.769   8.619  3.0211 -1.8305  0.7047
 1135SOL     OW14866   0.735   3.025   6.203  0.3791 -0.0452  0.2323
 1135SOL    HW114867   0.680   3.039   6.126  1.8648  0.2907 -0.7755
 1135SOL    HW214868   0.671   3.005   6.271  1.9389  2.1289  2.3615
 1136SOL     OW14869   2.332   3.655   8.893 -0.3080 -0.0164 -0.4183
 1136SOL    HW114870   2.333   3.566   8.928  0.4261  0.0363 -0.3185
 1136SOL    HW214871   2.352   3.646   8.800 -1.6768 -0.6712 -0.6562
 1137SOL     OW14872   2.565   1.490  15.152  0.0644 -0.4745 -0.8380
 1137SOL    HW114873   2.606   1.506  15.237  0.1662  0.0587 -0.9826
 1137SOL    HW214874   2.640   1.490  15.093  0.9807  0.4892  0.3084
 1138SOL     OW14875   3.879   1.296   8.121  0.1965 -0.2451  0.6173
 1138SOL    HW114876   3.940   1.328   8.054  0.3990  2.5096  2.1130
 1138SOL    HW214877   3.869   1.209   8.082 -0.0260 -1.1428  2.7150
 1139SOL     OW14878   0.542   2.351   4.368  0.1550  0.5040  0.0605
 1139SOL    HW114879   0.540   2.386   4.279  0.1669  1.2202  0.3417
 1139SOL    HW214880   0.527   2.433   4.415 -2.1319  1.0649 -1.6388
 1140SOL     OW14881   1.760   1.739   5.632 -0.1130 -0.0768  0.2581
 1140SOL    HW114882   1.846   1.776   5.653 -0.0524  0.4761 -0.9651
 1140SOL    HW214883   1.739   1.685   5.709  0.3050 -0.7471 -0.0970
 1141SOL     OW14884   4.407   4.681   5.990  0.0462 -0.1269  0.0421
 1141SOL    HW114885   4.496   4.685   6.025  0.0100 -1.7899  0.3507
 1141SOL    HW214886   4.363   4.622   6.051  1.9048 -1.1614  0.3870
 1142SOL     OW14887   3.724   0.803   6.074 -0.3247 -0.5618 -0.1270
 1142SOL    HW114888   3.779   0.847   6.009  1.3601 -1.7059  0.5031
 1142SOL    HW214889   3.679   0.877   6.114 -0.9384 -1.1645  0.3031
 1143SOL     OW14890   2.689   0.525   3.897  0.5935 -0.3370 -0.0501
 1143SOL    HW114891   2.602   0.538   3.860  1.2391  0.0395 -1.4517
 1143SOL    HW214892   2.748   0.597   3.876  0.6516  0.0219  1.3674
 1144SOL     OW14893   0.795   0.604  10.155  0.2038  0.2747  0.1871
 1144SOL    HW114894   0.751   0.541  10.212 -1.6414  0.5158 -0.9695
 1144SOL    HW214895   0.863   0.629  10.217 -0.2039  0.8562  0.4011
 1145SOL     OW14896   3.882   2.255   6.478  0.5720 -0.7617  0.5358
 1145SOL    HW114897   3.806   2.277   6.426  1.2652 -1.1988 -0.6713
 1145SOL    HW214898   3.895   2.167   6.442  1.3910 -0.9975  1.3887
 1146SOL     OW14899   1.407   2.768   4.020 -0.7095 -0.0459  0.0244
 1146SOL    HW114900   1.342   2.700   4.001 -0.5014 -0.3991  0.5675
 1146SOL    HW214901   1.374   2.799   4.105 -2.8182 -0.9483 -0.4769
 1147SOL     OW14902   1.171   3.006   0.964 -0.0723  0.2471 -0.0651
 1147SOL    HW114903   1.184   2.940   1.032  2.2258  0.6330 -0.1261
 1147SOL    HW214904   1.110   3.057   1.016  0.5084  1.0434 -0.1489
 1148SOL     OW14905   3.927   3.155   7.088 -0.5862 -0.0261 -0.4129
 1148SOL    HW114906   4.009   3.115   7.117 -0.4444  0.0386 -0.7256
 1148SOL    HW214907   3.904   3.112   7.006  1.3861 -0.6306 -0.6391
 1149SOL     OW14908   4.217   3.089   3.327 -0.0133 -0.0003 -0.0018
 1149SOL    HW114909   4.125   3.076   3.349  0.2592 -1.8892  0.0504
 1149SOL    HW214910   4.211   3.149   3.252  1.0765 -1.3378 -1.1581
 1150SOL     OW14911   3.214   0.238   4.691 -0.6065 -0.2558 -0.4188
 1150SOL    HW114912   3.130   0.216   4.651 -2.1416  0.6424  2.2950
 1150SOL    HW214913   3.194   0.283   4.773 -2.1132 -0.1543 -0.8437
 1151SOL     OW14914   3.883   2.367  15.923 -0.1524  0.7482  0.6275
 1151SOL    HW114915   3.960   2.408  15.964  0.2765 -0.3220  0.8857
 1151SOL    HW214916   3.875   2.297  15.987 -0.4556  1.1719  1.0451
 1152SOL     OW14917   4.608   4.042   8.150 -0.4615 -0.1130 -0.1388
 1152SOL    HW114918   4.546   3.969   8.151 -1.3434  0.6309 -3.0597
 1152SOL    HW214919   4.560   4.114   8.111  0.3356  0.4774 -0.0227
 1153SOL     OW14920   3.744   2.040   5.844 -0.1199 -0.1632  0.1793
 1153SOL    HW114921   3.656   2.038   5.807 -0.5849  0.7159  1.2415
 1153SOL    HW214922   3.734   1.985   5.922 -0.0630 -0.7150 -0.1983
 1154SOL     OW14923   1.028   1.728   6.980  0.2364 -0.6847  0.7504
 1154SOL    HW114924   1.028   1.641   7.021 -1.4213 -0.1552  1.8485
 1154SOL    HW214925   1.029   1.698   6.889  0.1954 -0.5300  0.6998
 1155SOL     OW14926   3.441   2.858  12.064  0.2732 -0.1285 -0.0648
 1155SOL    HW114927   3.409   2.885  11.978  0.6433  0.8301  0.0994
 1155SOL    HW214928   3.363   2.812  12.094  1.0916 -2.7793 -1.9599
 1156SOL     OW14929   1.004   4.396   3.067  0.3310 -0.3974  0.5810
 1156SOL    HW114930   1.006   4.301   3.054 -0.5915  0.1081 -3.2398
 1156SOL    HW214931   0.911   4.416   3.060  0.3594  0.1480  1.7915
 1157SOL     OW14932   1.085   1.152   5.605  0.8008  0.3061  0.6695
 1157SOL    HW114933   0.999   1.119   5.630  1.1218 -0.1600  1.1771
 1157SOL    HW214934   1.115   1.203   5.681  2.9127  2.0660 -1.3424
 1158SOL     OW14935   3.984   1.517  10.252 -0.2024  0.2597  0.6356
 1158SOL    HW114936   3.970   1.427  10.226  0.1676  0.0512  1.1478
 1158SOL    HW214937   3.906   1.560  10.217  0.6470  0.4387 -1.0356
 1159SOL     OW14938   1.199   0.563   3.131  0.0670 -0.1567 -0.6944
 1159SOL    HW114939   1.199   0.470   3.154 -3.7339  0.0430  0.0678
 1159SOL    HW214940   1.137   0.562   3.058 -0.8019  0.0933  0.0416
 1160SOL     OW14941   2.299   1.065   4.438 -0.9785  0.2745  0.5876
 1160SOL    HW114942   2.230   1.013   4.398 -2.3384  2.5287 -0.0181
 1160SOL    HW214943   2.343   0.985   4.466 -1.4369 -0.6560 -1.3817
 1161SOL     OW14944   2.887   3.794   3.696  0.2634 -0.2256 -0.0403
 1161SOL    HW114945   2.935   3.710   3.693 -0.5111 -0.5922 -2.4113
 1161SOL    HW214946   2.795   3.775   3.677  0.2149  0.8657 -0.8576
 1162SOL     OW14947   4.119   1.715   8.789  0.1027 -0.1492  0.3580
 1162SOL    HW114948   4.119   1.711   8.693 -0.3092 -0.4764  0.3688
 1162SOL    HW214949   4.211   1.738   8.797  0.5100 -1.4172 -0.6078
 1163SOL     OW14950   2.169   0.498   3.933  0.3640  0.7045  0.5199
 1163SOL    HW114951   2.172   0.525   3.841 -0.8100 -0.4471  0.1467
 1163SOL    HW214952   2.220   0.570   3.971  0.9167 -0.4540  1.9555
 1164SOL     OW14953   2.491   2.968   6.283  0.1714  0.0005  0.2829
 1164SOL    HW114954   2.442   2.943   6.361 -0.1871  0.7174  0.2895
 1164SOL    HW214955   2.565   2.908   6.294  0.9441  1.1084  1.1493
 1165SOL     OW14956   4.483   2.148  12.741 -0.5480  0.5780  0.0074
 1165SOL    HW114957   4.510   2.167  12.831  1.0959 -2.9367  0.2464
 1165SOL    HW214958   4.395   2.184  12.748 -0.5142  0.3490  1.6648
 1166SOL     OW14959   4.386   0.611   1.944  0.8748  0.2953  0.0068
 1166SOL    HW114960   4.318   0.639   1.883 -0.1971 -1.6175  0.3107
 1166SOL    HW214961   4.361   0.520   1.960 -1.1121  0.9030  0.4492
 1167SOL     OW14962   0.591   2.614  15.755  0.9513 -0.4378 -0.4545
 1167SOL    HW114963   0.663   2.558  15.782  1.6239  0.8913  0.4837
 1167SOL    HW214964   0.506   2.594  15.794 -0.1531  0.9811 -2.1223
 1168SOL     OW14965   2.891   2.022   5.005 -0.0095 -0.7294  0.0400
 1168SOL    HW114966   2.857   1.995   5.090  1.4956 -0.8617  0.6050
 1168SOL    HW214967   2.985   2.007   5.016 -0.1948 -0.1136  2.3539
 1169SOL     OW14968   3.141   1.485   3.888 -0.2518 -0.1314  0.3698
 1169SOL    HW114969   3.103   1.398   3.903  0.6882 -0.6229 -0.0862
 1169SOL    HW214970   3.064   1.530   3.852  1.3262  1.9120 -0.3954
 1170SOL     OW14971   1.576   0.585   9.860 -0.3034 -0.0006  0.3230
 1170SOL    HW114972   1.602   0.668   9.820  0.5119 -0.2750  0.2860
 1170SOL    HW214973   1.589   0.529   9.783  0.0496  0.3675  0.1150
 1171SOL     OW14974   0.956   0.036   1.001  0.0464 -0.0122 -0.6218
 1171SOL    HW114975   0.983   4.670   1.022 -1.1878  0.2412  2.0225
 1171SOL    HW214976   0.861   0.031   1.011  0.2521 -1.0287  0.8062
 1172SOL     OW14977   3.005   2.394  17.226 -0.0351  0.3122 -0.8382
 1172SOL    HW114978   3.006   2.406  17.131  1.3582 -1.8407 -1.0664
 1172SOL    HW214979   3.083   2.441  17.256 -2.1311  2.1577  1.7978
 1173SOL     OW14980   3.754   1.396   1.531 -0.4465 -0.2955  0.1283
 1173SOL    HW114981   3.736   1.352   1.447 -4.1423  0.1791  0.6828
 1173SOL    HW214982   3.835   1.355   1.561  0.9010  1.5914 -0.9511
 1174SOL     OW14983   2.393   3.237   8.479 -0.5865  0.1033  0.2134
 1174SOL    HW114984   2.359   3.148   8.474  2.0087 -0.8996  0.5329
 1174SOL    HW214985   2.318   3.280   8.521 -1.2690  1.2047 -2.1443
 1175SOL     OW14986   2.684   4.693  12.376 -0.2117  0.3246  0.1207
 1175SOL    HW114987   2.635   4.690  12.458 -0.4285  0.1600 -0.0155
 1175SOL    HW214988   2.669   0.060  12.350 -1.5625  0.2707  0.6869
 1176SOL     OW14989   1.296   4.084   6.463  0.1126  1.0100  0.0489
 1176SOL    HW114990   1.346   4.004   6.452  0.0327  1.1480 -1.3799
 1176SOL    HW214991   1.315   4.138   6.386 -1.3054 -1.5165 -2.0845
 1177SOL     OW14992   3.600   0.639   8.101  0.6952  0.3467  0.6312
 1177SOL    HW114993   3.520   0.606   8.061 -0.2430  3.4161 -0.0274
 1177SOL    HW214994   3.667   0.575   8.076 -0.7990 -0.9149 -0.1125
 1178SOL     OW14995   1.363   0.419  13.842 -0.6454  0.1800  0.0239
 1178SOL    HW114996   1.306   0.493  13.864 -0.5927 -0.2606  1.5887
 1178SOL    HW214997   1.310   0.365  13.784 -0.7780  0.0295  0.2895
 1179SOL     OW14998   1.328   3.974   8.982 -0.5869 -0.9486 -0.0566
 1179SOL    HW114999   1.331   4.067   9.004  3.1085 -1.2376  0.6684
 1179SOL    HW215000   1.240   3.943   9.001  0.0761 -1.5255  2.0636
 1180SOL     OW15001   2.057   3.023   9.231  0.0493  0.2483  0.8311
 1180SOL    HW115002   1.969   3.043   9.264 -0.1968 -1.0793  0.9855
 1180SOL    HW215003   2.116   3.049   9.301 -0.6931 -0.6624  1.7912
 1181SOL     OW15004   1.366   2.606   9.811  0.3458 -0.3423  0.2053
 1181SOL    HW115005   1.306   2.588   9.884 -1.6830 -0.6810 -1.5349
 1181SOL    HW215006   1.311   2.566   9.743 -0.7524  2.1451 -0.4191
 1182SOL     OW15007   1.410   1.245  15.152  0.5163  0.7198 -0.5760
 1182SOL    HW115008   1.492   1.241  15.200 -0.1121 -1.8587  0.2840
 1182SOL    HW215009   1.355   1.272  15.226  1.1306 -0.7103  0.4059
 1183SOL     OW15010   1.161   0.155   3.422  0.8922  0.5464 -0.1893
 1183SOL    HW115011   1.073   0.170   3.389  1.3723 -0.0556 -1.7472
 1183SOL    HW215012   1.167   0.187   3.512  0.5078  0.0291  0.0227
 1184SOL     OW15013   4.560   0.993   4.977  0.3797  0.4207 -0.1937
 1184SOL    HW115014   4.505   1.059   5.019 -0.9518 -0.6934 -0.2157
 1184SOL    HW215015   4.639   1.040   4.949  0.0357  2.4152  2.1177
 1185SOL     OW15016   0.815   0.854   3.403  0.2905  1.0098  0.0542
 1185SOL    HW115017   0.747   0.793   3.373  0.4875  0.5389  0.5549
 1185SOL    HW215018   0.831   0.896   3.319 -2.4112 -0.7998 -1.3654
 1186SOL     OW15019   4.616   2.821   5.043  0.5491  0.0440  0.1552
 1186SOL    HW115020   4.581   2.871   5.117  0.8692 -0.2875  0.5319
 1186SOL    HW215021   4.632   2.735   5.081 -1.3742 -1.1595 -1.6949
 1187SOL     OW15022   4.663   3.528   2.055 -0.3005  0.8859 -0.8184
 1187SOL    HW115023   4.612   3.566   1.983 -2.0977  2.4913  1.3013
 1187SOL    HW215024   0.022   3.551   2.011 -1.3277 -1.3915 -3.9214
 1188SOL     OW15025   1.628   2.865   8.685 -0.3549 -0.9065 -0.2202
 1188SOL    HW115026   1.573   2.813   8.627 -1.9678  0.0042  0.4938
 1188SOL    HW215027   1.669   2.932   8.631 -0.1199 -0.1493  0.8938
 1189SOL     OW15028   2.376   4.510  11.481  0.3645 -0.2285  0.1662
 1189SOL    HW115029   2.324   4.580  11.443 -0.5009 -0.5638  0.7333
 1189SOL    HW215030   2.362   4.436  11.422  0.4594  2.1023 -2.7441
 1190SOL     OW15031   2.295   3.732   5.017  0.1322 -0.0553  0.4343
 1190SOL    HW115032   2.276   3.819   5.050  1.6175 -0.8681  3.4180
 1190SOL    HW215033   2.234   3.735   4.943  0.1059 -0.8440  0.4245
 1191SOL     OW15034   1.407   0.538   4.348  0.8312  1.0038  0.4883
 1191SOL    HW115035   1.468   0.606   4.321  2.6650 -0.2324  1.5248
 1191SOL    HW215036   1.333   0.594   4.374  1.6835  2.1121  0.4892
 1192SOL     OW15037   3.178   1.676   5.628  0.0413  0.1562  0.6897
 1192SOL    HW115038   3.238   1.721   5.686  0.1737 -0.2663  0.8792
 1192SOL    HW215039   3.172   1.592   5.674 -1.4901  0.0694  0.3485
 1193SOL     OW15040   4.116   1.731   6.609 -0.1626  0.2610  0.0980
 1193SOL    HW115041   4.124   1.689   6.523  0.3839 -0.7656  0.6569
 1193SOL    HW215042   4.022   1.750   6.614  0.1981  1.7770  0.8577
 1194SOL     OW15043   2.326   4.705   2.977 -0.5663  0.3217 -0.1656
 1194SOL    HW115044   2.264   0.030   2.923  0.3184  1.6195 -0.0245
 1194SOL    HW215045   2.287   4.703   3.064 -0.3317 -2.0386 -0.1139
 1195SOL     OW15046   3.750   1.039   2.081 -0.6328  0.5867 -0.0344
 1195SOL    HW115047   3.752   0.944   2.068 -1.0773  0.5647  0.0729
 1195SOL    HW215048   3.712   1.076   2.002  0.2746 -0.9702 -1.1951
 1196SOL     OW15049   4.609   1.893  14.297 -0.1695  0.2728 -0.0218
 1196SOL    HW115050   4.587   1.831  14.227  0.8211 -0.5215  0.3733
 1196SOL    HW215051   4.529   1.945  14.296  0.9877  2.0677  3.4640
 1197SOL     OW15052   2.838   1.276   7.973  0.0108 -0.0105 -0.5718
 1197SOL    HW115053   2.784   1.290   8.050 -0.6339 -0.5097 -0.9271
 1197SOL    HW215054   2.824   1.185   7.946 -2.4393  0.4284 -0.7944
 1198SOL     OW15055   2.459   0.928   2.611 -0.4121  0.3248  0.3463
 1198SOL    HW115056   2.376   0.975   2.610  0.0035  1.0716 -0.1837
 1198SOL    HW215057   2.482   0.909   2.702  0.1905 -3.9151 -0.6863
 1199SOL     OW15058   2.043   0.909   8.384 -1.0989 -0.0779 -0.2210
 1199SOL    HW115059   2.114   0.849   8.405 -0.3667  1.1277  0.7915
 1199SOL    HW215060   2.061   0.977   8.449  2.7340 -0.1249 -1.2288
 1200SOL     OW15061   0.591   2.861   0.098  0.4025  0.3425 -0.6416
 1200SOL    HW115062   0.642   2.940   0.113  1.9145 -0.8653  0.5544
 1200SOL    HW215063   0.641   2.800   0.044  1.7574  0.2244  0.7590
 1201SOL     OW15064   0.646   0.859   9.800  0.0747 -0.1298 -0.0557
 1201SOL    HW115065   0.741   0.850   9.809  0.4499  2.7728 -1.1560
 1201SOL    HW215066   0.612   0.866   9.889 -0.3668 -0.4155 -0.2055
 1202SOL     OW15067   0.324   1.027   4.818 -0.5021  0.0825  0.5073
 1202SOL    HW115068   0.365   1.111   4.839  1.4750 -0.5016 -0.9557
 1202SOL    HW215069   0.279   1.015   4.901  0.2111  0.0664  0.8930
 1203SOL     OW15070   0.300   0.063   2.096  0.0253  0.1984 -0.7134
 1203SOL    HW115071   0.366   0.121   2.133 -0.1376 -0.5941  0.7945
 1203SOL    HW215072   0.357   4.710   2.099  0.7825  0.6830 -2.5728
 1204SOL     OW15073   0.697   0.610   7.320 -0.3262  0.1834  0.2728
 1204SOL    HW115074   0.660   0.524   7.340  1.9287 -0.4316  1.7969
 1204SOL    HW215075   0.639   0.645   7.253  1.2455  0.5814 -0.8705
 1205SOL     OW15076   0.191   3.953   4.421  0.1643 -0.1488 -0.6067
 1205SOL    HW115077   0.158   3.983   4.336 -0.5800 -2.1806 -1.0176
 1205SOL    HW215078   0.258   4.022   4.425  2.6102 -2.4071 -3.1322
 1206SOL     OW15079   2.358   2.409  13.090  0.1745  0.7656 -0.5123
 1206SOL    HW115080   2.451   2.395  13.105 -0.4267 -0.4674  2.1186
 1206SOL    HW215081   2.328   2.430  13.179 -0.6232 -1.4423 -0.2572
 1207SOL     OW15082   0.290   2.781   8.455  0.5207 -0.3909 -0.0259
 1207SOL    HW115083   0.213   2.827   8.487  0.3852 -0.8131  0.2553
 1207SOL    HW215084   0.345   2.782   8.533  0.8602 -2.0531 -0.2462
 1208SOL     OW15085   1.347   0.909   9.206 -0.0008  0.3833 -0.0993
 1208SOL    HW115086   1.359   0.951   9.292  1.4327  0.8673 -0.5393
 1208SOL    HW215087   1.397   0.828   9.216 -1.2731 -0.3863 -0.0107
 1209SOL     OW15088   2.927   2.562  10.398  0.2510 -0.0477  0.2060
 1209SOL    HW115089   2.843   2.565  10.442  1.6676  2.4461  2.7358
 1209SOL    HW215090   2.962   2.476  10.421 -0.4874 -0.1597  0.8958
 1210SOL     OW15091   0.018   0.029   0.381  0.7161 -0.7388  0.1451
 1210SOL    HW115092   4.700   4.705   0.309 -2.7579  2.1353  0.2420
 1210SOL    HW215093   4.719   0.121   0.364  1.0596 -0.4714  1.1648
 1211SOL     OW15094   0.472   4.181   0.191  0.2436 -0.3869 -0.0991
 1211SOL    HW115095   0.467   4.096   0.146 -2.0898  0.2699 -1.0859
 1211SOL    HW215096   0.450   4.247   0.126  0.9330  2.2879  2.3769
 1212SOL     OW15097   2.574   3.624   1.534 -0.2721 -0.1111  0.5992
 1212SOL    HW115098   2.518   3.625   1.612 -0.5786  1.7846  0.3511
 1212SOL    HW215099   2.576   3.530   1.519 -1.1841  0.6801 -4.4973
 1213SOL     OW15100   3.393   3.369   6.270 -0.4358 -0.2212  0.6482
 1213SOL    HW115101   3.482   3.370   6.306 -0.0400 -0.3867 -0.3153
 1213SOL    HW215102   3.389   3.273   6.269  1.2505 -0.2970  0.7039
 1214SOL     OW15103   0.569   2.102   4.486 -0.1689  0.5346  0.5474
 1214SOL    HW115104   0.542   2.044   4.415 -0.4651  0.6422  0.5725
 1214SOL    HW215105   0.554   2.187   4.446 -0.7119 -0.4784 -1.4081
 1215SOL     OW15106   1.330   3.260  11.733  0.0773  0.2600 -0.3949
 1215SOL    HW115107   1.358   3.200  11.664  1.4040 -0.2740  0.5955
 1215SOL    HW215108   1.405   3.318  11.750 -1.9005  1.7094  3.4949
 1216SOL     OW15109   4.259   0.867   5.177  0.0136 -0.1173 -0.7373
 1216SOL    HW115110   4.169   0.845   5.199  0.3481  0.8702  1.6394
 1216SOL    HW215111   4.291   0.786   5.138  2.3633  1.5301 -2.2224
 1217SOL     OW15112   4.239   2.796   2.164  0.5099 -0.5838  0.0825
 1217SOL    HW115113   4.155   2.789   2.119  0.3425 -0.2882  0.3529
 1217SOL    HW215114   4.233   2.873   2.221 -1.7227 -0.6055 -0.1070
 1218SOL     OW15115   1.357   0.829   2.566 -0.4879  0.7827  0.4244
 1218SOL    HW115116   1.300   0.754   2.552  1.6952 -0.6515 -0.9347
 1218SOL    HW215117   1.413   0.812   2.490  1.9913 -0.5206  2.5285
 1219SOL     OW15118   0.146   0.847   4.197 -0.1495  0.0497  0.4756
 1219SOL    HW115119   0.195   0.765   4.191 -0.2637  0.1045 -1.2398
 1219SOL    HW215120   0.112   0.850   4.107 -0.3694 -3.5923  0.4516
 1220SOL     OW15121   3.038   0.800   5.808 -0.2443  0.1267 -0.0128
 1220SOL    HW115122   3.115   0.745   5.795  0.2535  1.2842 -2.0403
 1220SOL    HW215123   3.075   0.888   5.820  1.9616 -0.7792 -0.2725
 1221SOL     OW15124   0.163   3.608   8.967 -0.3345 -0.0594 -0.5382
 1221SOL    HW115125   0.184   3.523   8.928 -1.4371 -1.2935  1.6157
 1221SOL    HW215126   0.239   3.622   9.023 -0.5982  3.0971 -0.9541
 1222SOL     OW15127   0.773   4.587   9.912  0.3748 -0.2151 -0.0796
 1222SOL    HW115128   0.748   4.503   9.873 -2.2300  0.0604  1.0159
 1222SOL    HW215129   0.827   4.547   9.980  1.4260 -0.3899 -1.0129
 1223SOL     OW15130   0.204   2.145   5.583 -0.3314  0.7367  0.2521
 1223SOL    HW115131   0.109   2.145   5.591 -0.1952 -0.3133  1.8825
 1223SOL    HW215132   0.227   2.095   5.662  1.5334  2.1448  0.6057
 1224SOL     OW15133   1.249   0.468   4.016  0.1986 -0.0237  0.6398
 1224SOL    HW115134   1.230   0.465   3.923  0.7858 -1.7213  0.5638
 1224SOL    HW215135   1.328   0.520   4.019  0.2151 -0.0576  0.8020
 1225SOL     OW15136   4.573   1.578  12.084 -1.0686 -0.0418  0.2418
 1225SOL    HW115137   4.484   1.608  12.065 -1.1523 -0.9163 -0.7785
 1225SOL    HW215138   4.557   1.484  12.073 -0.4740 -0.0605 -0.4202
 1226SOL     OW15139   2.090   4.713   4.343 -0.6033  0.6007 -0.2766
 1226SOL    HW115140   2.081   0.019   4.433  0.3233  1.7716 -0.5654
 1226SOL    HW215141   2.011   0.030   4.307 -1.3017  0.2229  0.8423
 1227SOL     OW15142   3.174   2.931   3.541 -0.7521  0.6110  0.1034
 1227SOL    HW115143   3.109   2.998   3.559 -0.9509 -0.0066  1.6848
 1227SOL    HW215144   3.119   2.884   3.478  0.8158  0.5968 -1.2571
 1228SOL     OW15145   0.472   1.911   5.865  0.1904 -0.0300  0.5126
 1228SOL    HW115146   0.463   1.986   5.924 -2.4674  0.9807 -1.1541
 1228SOL    HW215147   0.538   1.947   5.806  0.9953 -0.8100  0.9386
 1229SOL     OW15148   3.674   2.412   7.602  0.1014 -0.1562  0.6911
 1229SOL    HW115149   3.694   2.504   7.618  2.8411 -0.5718 -0.4456
 1229SOL    HW215150   3.587   2.407   7.643 -0.6977 -1.8300 -1.1857
 1230SOL     OW15151   1.655   3.706   7.707 -0.2880  0.5326  0.5510
 1230SOL    HW115152   1.667   3.798   7.730  0.1553  0.2874  1.2969
 1230SOL    HW215153   1.627   3.719   7.617  3.0564  1.3930 -0.3501
 1231SOL     OW15154   1.367   4.201   7.163  0.0087 -0.2779  0.4007
 1231SOL    HW115155   1.296   4.206   7.098 -0.5469 -3.9637  0.7479
 1231SOL    HW215156   1.311   4.176   7.236 -0.3433  0.1405  0.2785
 1232SOL     OW15157   4.158   3.558   1.026 -0.1004  0.0505 -0.0102
 1232SOL    HW115158   4.233   3.520   0.981  0.1028 -0.8082  1.0466
 1232SOL    HW215159   4.101   3.489   1.059  1.5973 -0.9481  0.8233
 1233SOL     OW15160   4.243   3.548   0.746 -0.3603  0.5778 -0.0272
 1233SOL    HW115161   4.215   3.638   0.757 -0.7735  0.0107  3.3810
 1233SOL    HW215162   4.156   3.507   0.752 -0.6838  1.1223 -0.9384
 1234SOL     OW15163   1.347   2.177   6.717  0.3938 -0.7099  0.3246
 1234SOL    HW115164   1.279   2.112   6.701  0.3626 -0.3500 -1.0660
 1234SOL    HW215165   1.353   2.215   6.629 -0.0025  0.8390  0.9669
 1235SOL     OW15166   3.780   2.380   7.946 -0.5983  0.2419  0.5901
 1235SOL    HW115167   3.728   2.451   7.983 -1.3298  0.1158 -0.1791
 1235SOL    HW215168   3.839   2.364   8.020 -2.7149  1.1099  2.4610
 1236SOL     OW15169   4.116   3.817   2.258  0.6183 -0.1835 -0.0422
 1236SOL    HW115170   4.148   3.879   2.192 -1.4497  1.4551  0.4864
 1236SOL    HW215171   4.136   3.734   2.215 -4.2983 -0.0426 -2.5848
 1237SOL     OW15172   2.257   2.856  16.871 -0.3950 -0.0673 -0.4017
 1237SOL    HW115173   2.205   2.879  16.948 -1.0735 -0.7077 -0.6648
 1237SOL    HW215174   2.258   2.761  16.884 -0.4738 -0.4054 -2.7952
 1238SOL     OW15175   2.635   0.288   4.977  0.0056  0.1649  0.1424
 1238SOL    HW115176   2.635   0.294   5.073  3.3925  2.1877  0.0189
 1238SOL    HW215177   2.685   0.208   4.960 -0.5571  0.1486 -1.3856
 1239SOL     OW15178   1.753   4.219  13.576  0.4315  0.0692 -0.6242
 1239SOL    HW115179   1.697   4.286  13.615 -0.3747 -0.6764 -0.4979
 1239SOL    HW215180   1.749   4.228  13.480 -2.0688 -2.2178 -0.7168
 1240SOL     OW15181   0.669   2.749  11.934 -0.7363  0.0091  0.1007
 1240SOL    HW115182   0.650   2.655  11.927 -1.6659  0.2629 -0.7626
 1240SOL    HW215183   0.759   2.742  11.965 -0.6562 -0.7812 -0.2856
 1241SOL     OW15184   4.614   1.176   4.345  0.1152 -0.1809  0.0835
 1241SOL    HW115185   4.650   1.140   4.264  0.6954 -0.7647  0.6003
 1241SOL    HW215186   4.683   1.142   4.403  1.4439  0.4926 -1.0933
 1242SOL     OW15187   0.791   2.954   2.727  0.2657  0.4517  0.6695
 1242SOL    HW115188   0.860   3.008   2.767  1.7537 -1.0046  0.0659
 1242SOL    HW215189   0.731   2.927   2.796  0.3042  1.2740  1.0288
 1243SOL     OW15190   3.397   0.364   2.452 -0.3150  0.6578 -0.1158
 1243SOL    HW115191   3.397   0.331   2.542  0.3542  2.7396  0.6534
 1243SOL    HW215192   3.491   0.348   2.439  0.1435  3.0303  0.2316
 1244SOL     OW15193   3.420   2.446   5.044 -0.0296  0.0763 -0.2660
 1244SOL    HW115194   3.460   2.527   5.014  1.2229 -0.2857  0.4419
 1244SOL    HW215195   3.476   2.441   5.122 -2.0775  0.0643  1.2114
 1245SOL     OW15196   2.707   1.193   2.820 -0.1516 -0.2078  0.3214
 1245SOL    HW115197   2.749   1.276   2.841 -0.4825  0.5073 -1.7488
 1245SOL    HW215198   2.712   1.188   2.724 -1.1869 -0.0397  0.2600
 1246SOL     OW15199   3.798   0.726   6.879 -0.5846 -0.7502 -0.1793
 1246SOL    HW115200   3.843   0.765   6.954 -2.6870  1.5898 -0.0968
 1246SOL    HW215201   3.743   0.659   6.919  2.4954 -1.2529  3.1641
 1247SOL     OW15202   4.054   2.688   7.626  0.8175 -0.6193  0.8393
 1247SOL    HW115203   4.127   2.628   7.634 -0.3800 -1.9520  1.7098
 1247SOL    HW215204   4.081   2.764   7.678  0.0804  0.8471 -0.8821
 1248SOL     OW15205   0.790   0.078   2.794 -0.6122  0.3063 -1.1927
 1248SOL    HW115206   0.819   0.100   2.706  0.5110  1.3295 -0.5668
 1248SOL    HW215207   0.811   4.710   2.809  1.2507  0.7827 -0.9405
 1249SOL     OW15208   2.992   3.512   2.515 -0.4037  0.0120 -0.2212
 1249SOL    HW115209   2.986   3.563   2.435  2.0963 -2.0246 -1.7117
 1249SOL    HW215210   3.054   3.559   2.570 -2.1010  2.6576 -0.5722
 1250SOL     OW15211   0.909   3.553  14.111  0.0131 -0.3317  0.2299
 1250SOL    HW115212   0.876   3.641  14.096 -1.4547 -0.8220  0.5071
 1250SOL    HW215213   1.002   3.568  14.093  0.2609 -2.8403 -0.6249
 1251SOL     OW15214   2.069   1.320  13.587 -0.1737  0.1984 -0.0184
 1251SOL    HW115215   2.033   1.310  13.499  0.2582 -0.6399 -0.0990
 1251SOL    HW215216   2.002   1.280  13.642  0.1551 -0.5530 -0.1646
 1252SOL     OW15217   1.468   4.410   4.952  0.1047  0.4131  0.1883
 1252SOL    HW115218   1.394   4.351   4.965 -0.9725  2.4974  3.1595
 1252SOL    HW215219   1.423   4.493   4.940  1.7112  1.3857  1.0014
 1253SOL     OW15220   1.605   3.715  10.795  0.2463 -0.0044 -0.8585
 1253SOL    HW115221   1.559   3.799  10.791 -1.5762 -0.8887  1.1173
 1253SOL    HW215222   1.684   3.741  10.841  0.7983  0.0518 -1.8364
 1254SOL     OW15223   1.154   4.646   4.325  0.7839  0.2687  0.0108
 1254SOL    HW115224   1.079   4.616   4.274  0.6700 -0.3261  0.5216
 1254SOL    HW215225   1.203   4.699   4.263  0.7131 -0.6891 -0.8727
 1255SOL     OW15226   1.599   1.367   1.847  0.1049  0.4703 -0.3443
 1255SOL    HW115227   1.660   1.317   1.902  1.3334  2.7051  0.3460
 1255SOL    HW215228   1.654   1.413   1.784 -1.0627  0.5876 -1.2671
 1256SOL     OW15229   4.222   1.551   8.212  0.3457  0.1371 -0.2374
 1256SOL    HW115230   4.270   1.574   8.291 -0.5379 -0.0155  0.3355
 1256SOL    HW215231   4.138   1.534   8.254  0.5189 -1.5444 -0.5895
 1257SOL     OW15232   0.725   0.557   9.250 -0.0786  0.3276 -0.1496
 1257SOL    HW115233   0.759   0.573   9.338  0.2646 -2.3517  0.1961
 1257SOL    HW215234   0.662   0.486   9.263  0.7658 -0.6550 -1.5195
 1258SOL     OW15235   4.121   4.545  10.735  0.0550 -0.3424 -1.6289
 1258SOL    HW115236   4.210   4.512  10.741 -0.3031 -0.6125  2.3679
 1258SOL    HW215237   4.104   4.578  10.823  1.1626 -2.5124 -0.6220
 1259SOL     OW15238   3.030   4.556  11.495 -0.0880 -0.3407 -0.4743
 1259SOL    HW115239   3.014   4.618  11.566  0.7945 -0.0445 -0.5310
 1259SOL    HW215240   3.103   4.506  11.532  0.7742  1.3412  0.1112
 1260SOL     OW15241   1.910   3.761  13.262 -0.3534  0.2945 -0.1702
 1260SOL    HW115242   1.830   3.809  13.282 -0.4695 -0.3053  0.8018
 1260SOL    HW215243   1.925   3.808  13.180  0.5641 -1.8620 -1.2563
 1261SOL     OW15244   0.516   0.392   9.170  0.9047 -0.8510  0.1322
 1261SOL    HW115245   0.475   0.458   9.115  1.8277 -0.0731  0.3693
 1261SOL    HW215246   0.441   0.348   9.210  1.9887 -2.5954  0.2375
 1262SOL     OW15247   0.146   3.137   6.517 -0.1070  0.1724  0.5300
 1262SOL    HW115248   0.226   3.167   6.560  0.9737 -1.5354 -0.2652
 1262SOL    HW215249   0.102   3.220   6.500 -1.4018 -1.0647 -2.1886
 1263SOL     OW15250   3.117   0.338   7.784  0.3973  0.1530 -0.2518
 1263SOL    HW115251   3.164   0.419   7.767 -0.2700  0.4695 -0.5972
 1263SOL    HW215252   3.088   0.354   7.874  1.9688  2.3812 -0.1350
 1264SOL     OW15253   2.739   2.517   2.094  0.1963  0.2468  0.4176
 1264SOL    HW115254   2.790   2.455   2.042 -0.9021 -0.1460 -0.1974
 1264SOL    HW215255   2.811   2.541   2.152  1.0686 -1.5647  0.0755
 1265SOL     OW15256   0.820   1.404   2.460  0.0482  0.0300  0.5291
 1265SOL    HW115257   0.781   1.474   2.513 -0.7714 -0.7222  0.9331
 1265SOL    HW215258   0.883   1.440   2.397 -1.0309  0.6331 -0.2006
 1266SOL     OW15259   3.555   1.653   4.905  0.3472 -0.0656  0.0642
 1266SOL    HW115260   3.580   1.724   4.965  0.1566 -0.8506  1.0711
 1266SOL    HW215261   3.616   1.582   4.926 -2.1160 -2.0599  0.4174
 1267SOL     OW15262   3.531   4.405   4.943 -0.4866  0.1816 -0.2253
 1267SOL    HW115263   3.548   4.499   4.939 -2.8781  0.4997 -2.5877
 1267SOL    HW215264   3.510   4.397   4.850  0.6767  0.8472 -0.5407
 1268SOL     OW15265   0.826   0.548   4.277  0.6059 -0.1018  0.0907
 1268SOL    HW115266   0.919   0.559   4.298  0.7152 -0.1195 -0.3802
 1268SOL    HW215267   0.780   0.577   4.355 -0.0531 -0.4257 -0.1766
 1269SOL     OW15268   2.965   0.714   6.067  0.5315  0.6099  0.4054
 1269SOL    HW115269   3.006   0.749   5.988  0.9824  1.6948  1.1160
 1269SOL    HW215270   2.970   0.795   6.118 -1.7026  0.4885  0.8206
 1270SOL     OW15271   1.065   4.691   7.666  0.1425 -0.2478 -0.3482
 1270SOL    HW115272   1.062   4.610   7.717  0.5825  1.6278  2.6745
 1270SOL    HW215273   1.157   4.711   7.679  0.4161  0.4801 -3.5468
 1271SOL     OW15274   0.052   2.403   5.420  0.2817 -0.0608 -0.4050
 1271SOL    HW115275   0.117   2.411   5.490  1.2090 -1.3965 -1.1269
 1271SOL    HW215276   0.104   2.364   5.350 -1.4143  0.5020 -1.9651
 1272SOL     OW15277   2.066   4.470   2.744 -0.0911  1.0605  0.3374
 1272SOL    HW115278   1.998   4.512   2.798 -0.8559 -0.3235  0.4480
 1272SOL    HW215279   2.011   4.442   2.671  0.9616 -0.3637  0.0994
 1273SOL     OW15280   1.344   3.453   8.483  0.3097 -0.2556  0.6011
 1273SOL    HW115281   1.384   3.434   8.568 -1.6496  0.5609  1.7062
 1273SOL    HW215282   1.316   3.364   8.462 -0.6521  0.0519  0.5850
 1274SOL     OW15283   0.006   3.238   2.888  0.1888  0.3134 -0.4864
 1274SOL    HW115284   4.681   3.309   2.930  3.3858  2.8465 -1.1361
 1274SOL    HW215285   4.688   3.241   2.802 -0.4918 -0.3746 -0.1875
 1275SOL     OW15286   1.243   2.966   3.731 -0.4141 -0.5362 -0.2889
 1275SOL    HW115287   1.254   2.871   3.734  1.5358 -0.2822  0.7044
 1275SOL    HW215288   1.161   2.978   3.778  0.9727 -0.2422  2.0654
 1276SOL     OW15289   4.706   3.070   3.959  0.2728 -0.6138 -0.1415
 1276SOL    HW115290   0.013   3.130   4.028  1.3580  0.4782 -1.5696
 1276SOL    HW215291   4.694   2.989   4.009 -0.1940 -0.7282 -0.4401
 1277SOL     OW15292   1.171   0.518   7.005  0.2870 -0.1415 -0.2305
 1277SOL    HW115293   1.132   0.445   7.053  0.9265 -0.1074  0.3399
 1277SOL    HW215294   1.253   0.511   7.053  0.1924 -0.5127 -0.1213
 1278SOL     OW15295   0.753   0.582  14.223 -0.0760  0.7421 -0.0847
 1278SOL    HW115296   0.723   0.501  14.183  0.3345  0.3750  0.3524
 1278SOL    HW215297   0.703   0.572  14.304 -0.8333  2.1963 -0.3641
 1279SOL     OW15298   1.613   1.681   1.240 -0.9186 -0.2430 -0.3907
 1279SOL    HW115299   1.692   1.701   1.289 -2.5646  3.0903  0.9908
 1279SOL    HW215300   1.611   1.743   1.167  0.4997  0.2532  0.0086
 1280SOL     OW15301   4.441   0.883   9.776  1.1101 -0.1471  0.2751
 1280SOL    HW115302   4.488   0.934   9.710  0.3001 -0.5998 -0.6448
 1280SOL    HW215303   4.498   0.897   9.852 -1.4177 -1.5280  2.4583
 1281SOL     OW15304   1.067   3.891   9.010 -0.7146  0.2041  0.2008
 1281SOL    HW115305   1.042   3.820   8.952 -0.5695 -1.3102  2.0128
 1281SOL    HW215306   1.050   3.963   8.948 -2.0856  0.2562  0.6451
 1282SOL     OW15307   4.041   0.423   6.531  0.5494 -0.1918 -0.9017
 1282SOL    HW115308   4.052   0.417   6.626 -0.5815 -0.5940 -0.7938
 1282SOL    HW215309   3.983   0.348   6.514  0.0994 -0.1117  0.3135
 1283SOL     OW15310   4.538   1.207  13.012  0.1947  0.4130 -0.2093
 1283SOL    HW115311   4.460   1.194  12.957  0.8351 -0.5695 -0.8807
 1283SOL    HW215312   4.515   1.167  13.096 -0.0373  2.5569  0.7435
 1284SOL     OW15313   2.420   4.672   3.908  0.3952  0.4685 -0.3083
 1284SOL    HW115314   2.461   4.589   3.932 -0.4118  0.3363  0.6246
 1284SOL    HW215315   2.351   4.674   3.975 -0.0498  0.3251 -0.7598
 1285SOL     OW15316   3.735   3.919   0.025  0.4291  0.6778  0.8924
 1285SOL    HW115317   3.724   3.933  17.627  0.8924  0.0509  0.7492
 1285SOL    HW215318   3.677   3.847   0.049 -0.3689  1.4228  1.1970
 1286SOL     OW15319   1.895   1.395   8.561  0.3612 -0.2391 -0.0350
 1286SOL    HW115320   1.809   1.427   8.536  1.8055  2.3798 -1.6887
 1286SOL    HW215321   1.897   1.451   8.639  0.1268  0.2363 -0.3733
 1287SOL     OW15322   3.709   0.104   9.471  0.2254  0.1752  0.1668
 1287SOL    HW115323   3.680   0.094   9.381  1.6962 -0.4050 -0.2284
 1287SOL    HW215324   3.787   0.050   9.462 -1.4645 -2.5848  1.9321
 1288SOL     OW15325   0.877   1.086   9.229 -0.0754 -0.5651 -0.0135
 1288SOL    HW115326   0.846   1.025   9.296 -0.3167  0.1641  0.5294
 1288SOL    HW215327   0.939   1.034   9.177  0.4054 -0.7052  0.6985
 1289SOL     OW15328   0.652   3.734   2.111 -0.2247 -0.2999 -0.0027
 1289SOL    HW115329   0.746   3.741   2.093 -0.3972  3.6470  0.7899
 1289SOL    HW215330   0.631   3.827   2.116 -0.6366 -0.4682  1.2324
 1290SOL     OW15331   3.298   4.040   8.474  0.3784  0.1665  0.0167
 1290SOL    HW115332   3.313   4.117   8.529 -1.0027 -1.1068  2.1909
 1290SOL    HW215333   3.230   3.992   8.522 -0.5834  1.3833 -0.1304
 1291SOL     OW15334   4.639   3.882   6.043 -0.0233  0.2068  0.1335
 1291SOL    HW115335   4.618   3.793   6.017  2.3372 -0.3299  0.0727
 1291SOL    HW215336   4.548   3.910   6.042  0.5593  2.1746  2.4160
 1292SOL     OW15337   1.092   4.539   7.222 -0.7845  0.1299 -0.6040
 1292SOL    HW115338   1.054   4.583   7.298 -1.8374 -0.5018 -0.7585
 1292SOL    HW215339   1.092   4.449   7.255  3.3279 -0.1378 -1.3175
 1293SOL     OW15340   4.227   3.254   7.354  0.1483  0.0533  0.7426
 1293SOL    HW115341   4.223   3.202   7.273 -0.3794  3.8806 -1.6562
 1293SOL    HW215342   4.202   3.186   7.418 -0.0693 -1.2455 -0.7216
 1294SOL     OW15343   1.465   1.753   1.512  0.3084  0.1511 -0.2068
 1294SOL    HW115344   1.429   1.811   1.445 -0.4957  0.7254  0.7227
 1294SOL    HW215345   1.431   1.795   1.590  1.0512  1.0001 -0.3460
 1295SOL     OW15346   1.808   1.356   7.789  0.3893  0.3462 -0.1960
 1295SOL    HW115347   1.821   1.444   7.824  2.7248  0.6694 -1.8970
 1295SOL    HW215348   1.721   1.334   7.821  1.7929 -2.5727  1.6551
 1296SOL     OW15349   4.210   0.912   2.709  0.0159 -0.0516  0.2228
 1296SOL    HW115350   4.157   0.844   2.666  1.9757 -1.1769 -0.3969
 1296SOL    HW215351   4.184   0.993   2.664  0.1079 -0.1185  0.0503
 1297SOL     OW15352   2.184   3.102   9.002 -0.8540  0.2325 -0.0796
 1297SOL    HW115353   2.133   3.066   9.074 -0.1301 -0.4695  0.0824
 1297SOL    HW215354   2.268   3.078   9.040 -0.4756  2.6760  0.6035
 1298SOL     OW15355   0.336   3.619  13.309 -0.8255 -0.5045 -0.1723
 1298SOL    HW115356   0.290   3.648  13.230  1.5504  0.9974 -1.0130
 1298SOL    HW215357   0.306   3.528  13.315 -0.4434 -0.7814 -2.6092
 1299SOL     OW15358   3.123   3.290   4.531 -0.5194  0.1418  0.2550
 1299SOL    HW115359   3.067   3.217   4.503 -0.4021  0.2395 -0.2408
 1299SOL    HW215360   3.203   3.246   4.560  0.0226  0.7446 -0.3438
 1300SOL     OW15361   3.871   2.602   8.343 -0.0159  0.0538 -0.5533
 1300SOL    HW115362   3.958   2.592   8.302 -0.5489 -1.2748 -1.3747
 1300SOL    HW215363   3.829   2.518   8.325  1.7171 -0.7561 -0.8052
 1301SOL     OW15364   1.539   3.470   4.705  0.0988 -0.4282  0.3524
 1301SOL    HW115365   1.532   3.507   4.793  0.1563  1.5810 -0.4794
 1301SOL    HW215366   1.632   3.471   4.682 -0.1511 -0.4690 -0.6878
 1302SOL     OW15367   2.723   1.421   9.622  0.1221  0.5974 -0.2323
 1302SOL    HW115368   2.762   1.498   9.581  1.1092  1.4384  2.2853
 1302SOL    HW215369   2.770   1.417   9.705  1.7351  1.3733 -1.0949
 1303SOL     OW15370   2.051   2.437   8.736 -0.0669 -0.7023 -0.2711
 1303SOL    HW115371   2.012   2.387   8.808 -0.1130 -0.0476  0.1582
 1303SOL    HW215372   2.145   2.445   8.752 -0.3793  0.8496  0.7372
 1304SOL     OW15373   2.316   2.025   1.812  0.4930 -0.4005 -0.6414
 1304SOL    HW115374   2.331   2.033   1.906 -0.4826 -1.7944 -0.3561
 1304SOL    HW215375   2.242   2.085   1.808 -0.3965 -1.5901 -1.9957
 1305SOL     OW15376   2.127   2.738   5.203  0.4832 -0.6162  0.2019
 1305SOL    HW115377   2.165   2.687   5.275  0.3173 -0.2454  0.5510
 1305SOL    HW215378   2.071   2.673   5.160  0.6914  0.1652 -1.2313
 1306SOL     OW15379   2.311   3.338   4.752 -0.0889  0.1111 -0.0698
 1306SOL    HW115380   2.404   3.318   4.759 -0.0746  0.7405  1.5186
 1306SOL    HW215381   2.275   3.331   4.840 -0.0597  1.1765  0.0304
 1307SOL     OW15382   2.607   1.268   7.198 -0.1861  0.3462  0.1388
 1307SOL    HW115383   2.568   1.311   7.121  1.2589  0.0891 -0.7464
 1307SOL    HW215384   2.532   1.247   7.253 -0.2062  0.6286  0.2202
 1308SOL     OW15385   1.858   0.061  12.471 -0.2030 -0.9759 -0.1453
 1308SOL    HW115386   1.878   4.695  12.445 -0.4135 -0.7807 -1.0057
 1308SOL    HW215387   1.919   0.073  12.543 -0.7051  0.1556  0.0976
 1309SOL     OW15388   3.162   1.453   1.760 -0.2342 -0.1998 -0.0849
 1309SOL    HW115389   3.212   1.442   1.679  0.8648 -2.4448  0.8974
 1309SOL    HW215390   3.231   1.428   1.821  1.3969  3.1742 -0.5571
 1310SOL     OW15391   3.064   1.695  15.997  0.3613  0.0457 -0.2347
 1310SOL    HW115392   2.971   1.689  15.972  0.0086  1.1179  0.8171
 1310SOL    HW215393   3.049   1.750  16.074  0.4594  0.7224 -0.7014
 1311SOL     OW15394   0.812   0.102  12.667 -0.4991 -0.4578  0.4452
 1311SOL    HW115395   0.772   0.039  12.607  0.1431  0.1303 -0.6060
 1311SOL    HW215396   0.778   0.075  12.752  1.7985 -0.8182  1.2294
 1312SOL     OW15397   1.605   2.834   7.669 -0.0960  0.3280 -0.7733
 1312SOL    HW115398   1.524   2.884   7.658 -0.0739  0.5355  0.0328
 1312SOL    HW215399   1.650   2.852   7.586  1.0146 -0.9755 -0.4618
 1313SOL     OW15400   3.672   2.285   1.622 -0.8898  0.1983 -0.1202
 1313SOL    HW115401   3.648   2.221   1.556  0.1515  0.6133 -0.9023
 1313SOL    HW215402   3.761   2.257   1.644 -0.2359  1.2846 -1.4517
 1314SOL     OW15403   0.309   4.069  11.764 -0.0027 -0.1842  0.1609
 1314SOL    HW115404   0.241   4.117  11.717  1.3376 -0.8160 -2.4398
 1314SOL    HW215405   0.303   3.990  11.710  5.3466 -0.8315  0.4812
 1315SOL     OW15406   4.547   3.722   4.308  0.0069 -0.2064  0.0113
 1315SOL    HW115407   4.589   3.775   4.240 -0.4427 -0.6803 -0.6343
 1315SOL    HW215408   4.537   3.634   4.272  0.0206 -0.3644  0.3968
 1316SOL     OW15409   1.123   3.996   9.288 -0.0614 -0.7237  0.1669
 1316SOL    HW115410   1.168   4.073   9.323  1.8036 -1.1892 -1.1571
 1316SOL    HW215411   1.197   3.935   9.291  0.7166  0.2409  0.7521
 1317SOL     OW15412   2.501   4.368  12.251  0.4993  0.0736 -0.0453
 1317SOL    HW115413   2.479   4.337  12.163 -1.3606 -0.0099  0.4459
 1317SOL    HW215414   2.584   4.320  12.250  1.1717  1.2643 -0.5124
 1318SOL     OW15415   1.840   3.272   8.620  0.3791  0.3111  0.5063
 1318SOL    HW115416   1.832   3.180   8.596  0.4912  1.0350 -2.2129
 1318SOL    HW215417   1.927   3.283   8.659  1.2144 -0.5769 -1.1190
 1319SOL     OW15418   1.522   1.199   3.980 -0.1069  0.0113 -0.3854
 1319SOL    HW115419   1.579   1.167   3.911  1.5545  0.4182  0.7875
 1319SOL    HW215420   1.443   1.211   3.928  0.0393  1.3386 -0.2996
 1320SOL     OW15421   0.741   2.405   3.499 -0.4608 -0.5687  0.0104
 1320SOL    HW115422   0.835   2.400   3.481 -0.5914 -2.2827 -0.1907
 1320SOL    HW215423   0.737   2.477   3.562 -0.9674  0.0806 -0.7572
 1321SOL     OW15424   3.079   1.784   6.322  0.5474 -0.2230 -0.1225
 1321SOL    HW115425   3.074   1.855   6.386  1.3663 -1.1608  0.9894
 1321SOL    HW215426   3.140   1.724   6.366  0.4259  1.2017  2.0076
 1322SOL     OW15427   3.552   0.274  14.975 -0.0509  0.0840  0.1161
 1322SOL    HW115428   3.628   0.297  14.921  0.2689  2.0114  1.3885
 1322SOL    HW215429   3.594   0.218  15.040  0.7571 -0.5089 -0.9191
 1323SOL     OW15430   1.308   2.836   4.271 -0.4669  0.8441  0.4245
 1323SOL    HW115431   1.349   2.836   4.358  0.7369 -0.2558 -0.1502
 1323SOL    HW215432   1.248   2.908   4.291 -1.2727 -0.6956  3.5495
 1324SOL     OW15433   2.049   3.537   8.581  0.0989  0.2780  0.3967
 1324SOL    HW115434   2.027   3.557   8.672 -0.1498  0.6672  0.2529
 1324SOL    HW215435   1.966   3.563   8.540  0.6747  0.2127 -0.8011
 1325SOL     OW15436   4.689   0.876   5.806 -0.0607 -0.0484  0.3860
 1325SOL    HW115437   4.667   0.968   5.820 -0.9892 -0.3888  1.1936
 1325SOL    HW215438   4.702   0.890   5.712 -2.7221 -0.3373 -0.0455
 1326SOL     OW15439   2.202   0.035  17.122  0.7395 -0.5893  0.2046
 1326SOL    HW115440   2.222   0.126  17.146 -3.1434  0.1073  0.8728
 1326SOL    HW215441   2.289   4.719  17.115  1.5083  0.9859  0.9794
 1327SOL     OW15442   1.637   2.368  11.404  0.1006  0.2944 -0.5860
 1327SOL    HW115443   1.631   2.368  11.308  0.0133  0.5021 -0.5798
 1327SOL    HW215444   1.662   2.275  11.408  0.3437  0.3955  0.2354
 1328SOL     OW15445   0.216   0.773   9.965  0.8624  0.2809 -0.2693
 1328SOL    HW115446   0.289   0.711   9.956 -0.9746 -2.0974  1.2832
 1328SOL    HW215447   0.173   0.733  10.040  0.0661  1.2272 -0.2331
 1329SOL     OW15448   3.332   3.323  12.672 -0.2239  0.3752 -0.0714
 1329SOL    HW115449   3.376   3.243  12.643  0.0153  1.4443 -2.6687
 1329SOL    HW215450   3.267   3.278  12.725 -0.7431  0.0994 -0.9432
 1330SOL     OW15451   4.574   0.260  17.432  0.3117 -0.4029  0.4875
 1330SOL    HW115452   4.638   0.317  17.474  0.6781 -1.6059  1.5662
 1330SOL    HW215453   4.618   0.243  17.348 -1.7010  1.2975 -0.9337
 1331SOL     OW15454   0.767   0.977   4.003  0.4145 -0.4816  0.1143
 1331SOL    HW115455   0.712   0.899   4.009  2.8651 -2.2783 -0.8808
 1331SOL    HW215456   0.855   0.941   3.993 -0.7289 -2.5640 -2.1680
 1332SOL     OW15457   4.417   1.678   5.945 -0.4643  0.0792  0.7549
 1332SOL    HW115458   4.415   1.774   5.942  1.7548  0.0922 -0.1703
 1332SOL    HW215459   4.510   1.659   5.935 -0.3152  1.3267 -0.3358
 1333SOL     OW15460   0.864   3.478   7.430 -0.1170  0.0900  0.3807
 1333SOL    HW115461   0.873   3.402   7.373 -1.2787 -0.1069  0.4643
 1333SOL    HW215462   0.948   3.523   7.438  0.4375 -0.9389  0.2998
 1334SOL     OW15463   1.412   1.586   2.972 -0.2737 -0.6622 -0.1232
 1334SOL    HW115464   1.339   1.608   2.914 -1.4973  0.0284  1.6822
 1334SOL    HW215465   1.468   1.527   2.922  0.0061 -0.1548 -0.4085
 1335SOL     OW15466   0.291   2.138   4.959  0.3791  0.0738  0.0911
 1335SOL    HW115467   0.212   2.184   4.929  0.8627 -0.6661 -2.3158
 1335SOL    HW215468   0.322   2.111   4.873  1.0788  1.3730 -0.0727
 1336SOL     OW15469   0.029   1.872   5.824 -0.3200  0.1140 -0.1710
 1336SOL    HW115470   4.666   1.876   5.783 -1.4042  0.4678  2.1349
 1336SOL    HW215471   0.024   1.786   5.866  0.4014  1.1872  2.1482
 1337SOL     OW15472   1.962   0.188  17.319  0.3859  0.4526  0.3078
 1337SOL    HW115473   1.967   0.282  17.337  1.1660  0.2866  0.9599
 1337SOL    HW215474   2.052   0.172  17.289  1.1946  1.7381  2.0619
 1338SOL     OW15475   0.306   2.768   6.304  0.2380  0.0959  0.0965
 1338SOL    HW115476   0.236   2.767   6.369  1.0989  1.5082  1.0492
 1338SOL    HW215477   0.258   2.707   6.248 -1.1758  0.6227  0.7475
 1339SOL     OW15478   3.701   2.607  16.185 -0.5131 -0.1416  0.3524
 1339SOL    HW115479   3.752   2.538  16.229  1.1559 -0.7363 -2.4764
 1339SOL    HW215480   3.653   2.644  16.259 -1.0994 -1.1377  0.4675
 1340SOL     OW15481   4.509   3.054   4.491  0.5356  0.3592  0.2068
 1340SOL    HW115482   4.423   3.076   4.528  0.7829  0.8723  0.4679
 1340SOL    HW215483   4.564   3.093   4.558  0.3962  1.4021 -0.2837
 1341SOL     OW15484   2.465   2.799   9.572 -0.2266 -0.5165 -0.2387
 1341SOL    HW115485   2.518   2.843   9.639 -0.2453  1.2200 -1.3834
 1341SOL    HW215486   2.501   2.838   9.492 -0.5853 -0.7521 -0.5131
 1342SOL     OW15487   0.383   2.619   5.467  0.6989  0.9150 -0.1331
 1342SOL    HW115488   0.478   2.613   5.474  0.8927  2.6814 -1.2787
 1342SOL    HW215489   0.358   2.647   5.555 -2.3816  0.5667 -0.8951
 1343SOL     OW15490   1.551   2.733   6.543 -0.3167 -0.7736 -0.1092
 1343SOL    HW115491   1.622   2.752   6.482  0.7856 -0.9940  1.1145
 1343SOL    HW215492   1.514   2.651   6.513 -1.5281  0.4515 -1.9158
 1344SOL     OW15493   3.528   3.991   1.369  0.2952  0.8057  0.3003
 1344SOL    HW115494   3.582   3.976   1.447 -0.1301 -0.6655  0.3052
 1344SOL    HW215495   3.518   4.086   1.364 -1.9999  0.5636  0.7601
 1345SOL     OW15496   1.017   1.767   6.019 -0.5107  0.5387  0.2259
 1345SOL    HW115497   0.967   1.801   5.945  0.4724 -1.3263 -1.2846
 1345SOL    HW215498   1.033   1.854   6.055 -3.7512  2.6953 -3.5420
 1346SOL     OW15499   1.911   1.886   5.208  0.7969  0.6555 -0.1871
 1346SOL    HW115500   1.822   1.891   5.174  1.1258  0.5060 -1.0588
 1346SOL    HW215501   1.956   1.928   5.135 -1.3508 -0.0517 -1.9110
 1347SOL     OW15502   2.641   3.649   8.780  0.0329 -0.2797  0.0570
 1347SOL    HW115503   2.705   3.607   8.723 -0.2331 -1.6248  0.7718
 1347SOL    HW215504   2.647   3.588   8.853 -0.9370  1.3589  1.5045
 1348SOL     OW15505   1.768   2.881   7.440 -0.3759 -0.3705  0.3476
 1348SOL    HW115506   1.802   2.794   7.460  1.2495  0.2531  0.3225
 1348SOL    HW215507   1.799   2.880   7.349 -0.6173  0.8438  0.2524
 1349SOL     OW15508   3.324   0.605  15.115 -0.4683 -0.4358 -0.1810
 1349SOL    HW115509   3.265   0.662  15.066 -0.8349 -3.4062 -3.2262
 1349SOL    HW215510   3.345   0.670  15.182 -0.3539  1.4711 -2.0819
 1350SOL     OW15511   2.713   0.954   8.627  0.0397 -0.0793  0.0765
 1350SOL    HW115512   2.745   0.913   8.708 -0.8646 -0.2274  0.3528
 1350SOL    HW215513   2.671   0.881   8.581 -2.0270  2.0870 -1.4217
 1351SOL     OW15514   4.331   1.580   8.482 -0.4068 -0.1501 -0.3261
 1351SOL    HW115515   4.374   1.517   8.540 -4.0075 -0.7711  1.6849
 1351SOL    HW215516   4.353   1.661   8.527 -1.1203 -0.4891  0.6408
 1352SOL     OW15517   3.451   1.121   6.577 -0.1425 -0.0764  0.5901
 1352SOL    HW115518   3.452   1.064   6.654 -0.7057 -2.0426 -0.8554
 1352SOL    HW215519   3.520   1.182   6.602 -1.4031  1.6677 -0.2601
 1353SOL     OW15520   3.663   2.996   1.793  0.3237 -0.1718  0.3158
 1353SOL    HW115521   3.580   2.955   1.818 -0.6745  2.4411  1.2267
 1353SOL    HW215522   3.657   3.072   1.850 -3.7210  0.0008 -0.3383
 1354SOL     OW15523   2.175   0.621   6.648  0.2641  0.3686  0.5669
 1354SOL    HW115524   2.115   0.571   6.704 -0.4582  0.1464 -0.4088
 1354SOL    HW215525   2.173   0.559   6.575 -0.4461 -0.0320  0.9207
 1355SOL     OW15526   1.957   0.376  15.692 -0.2658 -0.5298 -0.4287
 1355SOL    HW115527   1.946   0.411  15.780 -2.0392  0.8589 -1.1866
 1355SOL    HW215528   1.864   0.373  15.670 -0.3676 -1.8292  0.1981
 1356SOL     OW15529   2.352   0.214   2.167  0.1867  0.1047 -0.3266
 1356SOL    HW115530   2.264   0.242   2.196  0.3558 -0.4459  0.7008
 1356SOL    HW215531   2.356   0.129   2.211  0.9999 -0.2204 -1.0560
 1357SOL     OW15532   0.227   3.536  16.823 -0.0420 -0.3183  0.4628
 1357SOL    HW115533   0.213   3.468  16.890 -1.8497 -0.0127  0.3677
 1357SOL    HW215534   0.232   3.481  16.745 -0.9412  2.4749 -1.5715
 1358SOL     OW15535   4.201   3.022   9.676  0.1157 -0.3419 -0.5426
 1358SOL    HW115536   4.258   2.964   9.726  1.0007  0.4348 -0.6657
 1358SOL    HW215537   4.261   3.079   9.627 -0.3991 -0.4304 -1.2887
 1359SOL     OW15538   3.295   2.614   7.850  0.6601  0.0962 -0.3387
 1359SOL    HW115539   3.312   2.638   7.941 -1.1337  0.1708 -0.0284
 1359SOL    HW215540   3.201   2.603   7.846  0.8921 -2.4243  0.9411
 1360SOL     OW15541   3.537   1.553  13.199 -0.3488  0.3351 -0.0374
 1360SOL    HW115542   3.524   1.567  13.105 -0.4609 -0.3327 -0.1170
 1360SOL    HW215543   3.527   1.459  13.214 -0.1657  0.2939 -0.1805
 1361SOL     OW15544   1.705   0.225  11.928  0.2016 -0.3134 -0.4823
 1361SOL    HW115545   1.626   0.272  11.900 -0.5425 -0.7791  0.7853
 1361SOL    HW215546   1.695   0.233  12.023 -4.4747  0.7515 -1.0274
 1362SOL     OW15547   0.924   0.388  13.323 -0.0315 -0.4634  0.4327
 1362SOL    HW115548   0.906   0.294  13.321  5.4880 -1.5102  1.2045
 1362SOL    HW215549   0.975   0.386  13.404 -1.2237  0.4804  1.2085
 1363SOL     OW15550   2.010   2.623   2.299 -0.0097 -0.4232  0.6106
 1363SOL    HW115551   2.063   2.673   2.236  0.1250 -2.4615 -0.8978
 1363SOL    HW215552   2.035   2.669   2.379 -0.5449  0.0899  0.4805
 1364SOL     OW15553   2.463   2.765  17.571  0.4027  0.0763  0.2864
 1364SOL    HW115554   2.452   2.675  17.539  2.3532  0.3048 -1.0512
 1364SOL    HW215555   2.407   2.815  17.511 -0.2677  1.0859  1.7599
 1365SOL     OW15556   2.554   1.976   8.457 -0.1834 -0.0483 -0.1862
 1365SOL    HW115557   2.527   1.958   8.547  1.3259  1.1128  0.4933
 1365SOL    HW215558   2.550   2.072   8.461 -0.7558 -0.0550 -0.5406
 1366SOL     OW15559   0.184   1.256   6.976  0.0878  0.3444 -0.0744
 1366SOL    HW115560   0.172   1.310   7.054  2.7381  1.0304 -0.1407
 1366SOL    HW215561   0.187   1.315   6.901 -1.3403  0.3180 -0.1574
 1367SOL     OW15562   1.615   2.106   4.907  0.1760 -0.0227  0.2149
 1367SOL    HW115563   1.672   2.177   4.878 -1.7137  1.4139 -0.0268
 1367SOL    HW215564   1.583   2.153   4.983 -2.0204 -1.6415  0.2960
 1368SOL     OW15565   2.964   0.636  13.748  0.2553 -0.1158 -0.6692
 1368SOL    HW115566   2.916   0.695  13.689 -0.3587  2.6967  2.6313
 1368SOL    HW215567   2.976   0.558  13.694  1.8188  0.7946 -1.6200
 1369SOL     OW15568   4.535   2.216   5.968 -0.0964 -0.4319  0.0021
 1369SOL    HW115569   4.439   2.219   5.959 -0.1115 -3.1287 -0.7941
 1369SOL    HW215570   4.559   2.264   5.888  0.5511 -1.0135 -0.1540
 1370SOL     OW15571   2.540   1.311   9.312  0.5572  0.8857 -0.1807
 1370SOL    HW115572   2.606   1.376   9.336  1.4757  0.3676 -1.3030
 1370SOL    HW215573   2.462   1.352   9.350  0.1463  0.6703 -0.7854
 1371SOL     OW15574   4.440   2.890   4.275  0.4805  0.5044 -0.3428
 1371SOL    HW115575   4.370   2.832   4.304  0.0297  0.7523 -0.9087
 1371SOL    HW215576   4.474   2.931   4.354 -1.3063 -3.0693  2.2298
 1372SOL     OW15577   3.342   0.431   8.326  0.0627  0.7171  0.0959
 1372SOL    HW115578   3.405   0.464   8.262  0.3401  1.4328  0.7367
 1372SOL    HW215579   3.357   0.337   8.319  0.6885  0.6275  2.7076
 1373SOL     OW15580   3.959   4.348   8.979  0.0261  0.0146 -0.2420
 1373SOL    HW115581   3.979   4.422   9.037  0.0631 -1.2349  1.3303
 1373SOL    HW215582   3.920   4.401   8.909 -0.7405  0.5415  0.5955
 1374SOL     OW15583   0.529   0.832   4.812 -0.3557 -0.0070 -0.0011
 1374SOL    HW115584   0.598   0.886   4.851  1.5734 -2.6099  0.1849
 1374SOL    HW215585   0.459   0.891   4.840  0.3799 -0.6227  3.1574
 1375SOL     OW15586   4.135   1.576   3.860  0.3295  0.0696 -0.0232
 1375SOL    HW115587   4.049   1.579   3.901  1.3013  0.7585  1.9892
 1375SOL    HW215588   4.170   1.494   3.895  2.2544  1.3458  1.0414
 1376SOL     OW15589   0.041   4.296   7.821 -0.3281  0.5040  0.1873
 1376SOL    HW115590   0.020   4.363   7.756  1.9345  0.0604 -0.9960
 1376SOL    HW215591   0.095   4.342   7.885 -0.9617  0.3380  0.8373
 1377SOL     OW15592   2.662   4.550  16.775 -0.0351 -0.4694 -1.2492
 1377SOL    HW115593   2.665   4.462  16.813  1.6992  0.5213  0.9098
 1377SOL    HW215594   2.692   4.606  16.847  0.9623  0.4277 -2.3749
 1378SOL     OW15595   3.922   0.372   4.132 -0.3505  0.6520  0.7507
 1378SOL    HW115596   3.846   0.337   4.086  1.0126 -0.2149 -0.8367
 1378SOL    HW215597   3.976   0.295   4.151 -0.8380 -0.1780 -1.2134
 1379SOL     OW15598   4.628   3.682   2.576 -0.0480  1.0063 -0.3962
 1379SOL    HW115599   4.653   3.740   2.504 -0.2197  0.8517 -0.5788
 1379SOL    HW215600   4.710   3.671   2.625 -0.3143 -1.5221 -0.5305
 1380SOL     OW15601   0.399   0.485   6.611 -0.6405  0.4268 -0.0208
 1380SOL    HW115602   0.342   0.554   6.647  0.8111  1.8909 -0.5089
 1380SOL    HW215603   0.337   0.419   6.582 -1.6932  1.6350 -0.5462
 1381SOL     OW15604   2.595   1.512   2.730  0.2058  0.2370  0.4275
 1381SOL    HW115605   2.688   1.491   2.740  0.7056  1.5534 -1.2903
 1381SOL    HW215606   2.599   1.608   2.726 -1.3889  0.1947 -2.3226
 1382SOL     OW15607   3.215   0.035   8.583  0.1611  0.7889  0.8828
 1382SOL    HW115608   3.143   0.089   8.549  0.2194 -0.0887 -0.6637
 1382SOL    HW215609   3.170   4.685   8.625 -0.7356 -0.5598 -2.4066
 1383SOL     OW15610   0.234   0.999   5.422  0.5895 -0.6933  0.0868
 1383SOL    HW115611   0.257   0.925   5.478 -0.5799 -1.0995  0.0477
 1383SOL    HW215612   0.209   1.068   5.484  1.7697 -0.7167  0.5866
 1384SOL     OW15613   2.119   0.223   5.858 -0.8137 -0.2514 -0.6680
 1384SOL    HW115614   2.100   0.240   5.765  0.4197 -0.6833 -0.9920
 1384SOL    HW215615   2.210   0.211   5.834 -0.8140  1.3632 -1.4940
 1385SOL     OW15616   3.134   1.209   8.348  0.0916  0.5138  0.1065
 1385SOL    HW115617   3.106   1.168   8.429  2.4045 -2.1510 -0.4473
 1385SOL    HW215618   3.083   1.181   8.272  0.6856  0.8140 -0.4062
 1386SOL     OW15619   3.343   4.191  15.817 -0.2940 -0.4434 -0.0514
 1386SOL    HW115620   3.325   4.187  15.911  2.0468  1.0833  0.4467
 1386SOL    HW215621   3.258   4.164  15.783 -0.8054 -0.8944  1.6102
 1387SOL     OW15622   2.828   2.880   4.330 -0.0676  0.4999 -1.2171
 1387SOL    HW115623   2.741   2.883   4.370  0.6812 -2.5001  0.6592
 1387SOL    HW215624   2.843   2.786   4.320  1.4242  0.4638  1.4689
 1388SOL     OW15625   2.245   1.649   6.347  0.4097  0.1479 -0.1726
 1388SOL    HW115626   2.326   1.656   6.397  1.5561 -3.8354 -1.5050
 1388SOL    HW215627   2.252   1.720   6.283 -0.0778 -1.5635 -2.1223
 1389SOL     OW15628   4.045   4.637   2.654  0.7031 -0.3971 -0.2599
 1389SOL    HW115629   4.009   4.619   2.740  0.4390 -0.6411 -0.4191
 1389SOL    HW215630   3.978   4.598   2.597 -0.9533  2.7527 -0.4283
 1390SOL     OW15631   2.643   3.019   7.126  0.7752  0.0161 -0.4966
 1390SOL    HW115632   2.623   3.013   7.033 -0.1842  0.1277 -0.2945
 1390SOL    HW215633   2.731   3.057   7.129  1.5772 -1.7436 -1.8260
 1391SOL     OW15634   3.490   3.485   6.853 -0.5759  0.0800 -0.4390
 1391SOL    HW115635   3.564   3.515   6.907  1.0677  0.8978 -3.1216
 1391SOL    HW215636   3.456   3.411   6.903  2.8205 -0.8206  0.5221
 1392SOL     OW15637   1.120   3.172  15.782 -0.5829 -0.1155  0.5981
 1392SOL    HW115638   1.119   3.262  15.750 -0.9978 -0.4544 -0.3263
 1392SOL    HW215639   1.065   3.132  15.714  1.0855  0.5602 -1.1600
 1393SOL     OW15640   1.607   1.936  13.726  0.2157 -0.4818  0.0875
 1393SOL    HW115641   1.523   1.891  13.735  0.1643 -0.7296 -1.5506
 1393SOL    HW215642   1.615   1.917  13.632 -2.8683 -0.6204 -0.1638
 1394SOL     OW15643   2.537   1.194   4.429  0.1114  0.6849 -0.3430
 1394SOL    HW115644   2.474   1.265   4.442  0.3082  1.1553 -1.9432
 1394SOL    HW215645   2.475   1.122   4.420 -0.4260  1.3309 -1.8588
 1395SOL     OW15646   1.139   1.443  11.877 -0.0161  0.3290 -0.5991
 1395SOL    HW115647   1.108   1.366  11.829  1.3942 -1.3219  1.1491
 1395SOL    HW215648   1.061   1.486  11.912  0.1501 -0.0557  0.2309
 1396SOL     OW15649   2.039   0.203   4.784  0.1765 -0.2480  0.1975
 1396SOL    HW115650   2.089   0.130   4.819  0.5826 -0.1991 -0.2738
 1396SOL    HW215651   2.008   0.253   4.860 -1.9685 -0.0671 -0.7940
 1397SOL     OW15652   0.804   3.698   9.908  0.4128  0.3211  0.3600
 1397SOL    HW115653   0.722   3.656   9.934 -0.1878  0.4361 -1.3455
 1397SOL    HW215654   0.826   3.747   9.987  1.4536  2.8112 -1.4940
 1398SOL     OW15655   0.573   1.875   4.808  0.1831  0.3686  0.0720
 1398SOL    HW115656   0.488   1.916   4.794 -0.5431 -0.8554  0.9800
 1398SOL    HW215657   0.547   1.783   4.813 -0.9679  0.6239 -1.2853
 1399SOL     OW15658   4.652   3.694   8.541 -0.6212 -0.0748 -0.2634
 1399SOL    HW115659   4.677   3.617   8.591 -1.2059 -0.6251 -0.8241
 1399SOL    HW215660   4.564   3.715   8.574  0.1893  3.2769 -0.2074
 1400SOL     OW15661   2.240   0.572  10.483  0.7255 -0.0970  0.0738
 1400SOL    HW115662   2.216   0.613  10.399  2.8016 -1.2367 -1.0776
 1400SOL    HW215663   2.312   0.513  10.464  0.8199 -0.7450  2.4612
 1401SOL     OW15664   2.926   2.815   7.343 -0.2388  0.0171  0.2694
 1401SOL    HW115665   2.907   2.894   7.392  0.8393  0.0437  0.6567
 1401SOL    HW215666   2.949   2.847   7.255  0.0568 -0.4640  0.1681
 1402SOL     OW15667   0.333   0.892   9.733 -0.5801 -0.7354 -0.2953
 1402SOL    HW115668   0.298   0.862   9.817 -0.0883  1.3885  0.6844
 1402SOL    HW215669   0.427   0.886   9.750 -0.0447  1.3398 -2.4111
 1403SOL     OW15670   4.400   1.010   0.143  0.0081  0.1221  0.1755
 1403SOL    HW115671   4.316   1.001   0.098 -0.0260  0.7094  0.1255
 1403SOL    HW215672   4.442   1.092   0.116  1.5250 -1.3185 -1.8964
 1404SOL     OW15673   4.370   0.435  12.645  0.2936 -0.3748  0.1069
 1404SOL    HW115674   4.431   0.362  12.642 -1.2591 -1.5684 -2.5443
 1404SOL    HW215675   4.297   0.390  12.688 -2.0404  1.2289 -2.1152
 1405SOL     OW15676   1.364   3.497   0.095  0.3610 -0.1288 -0.1198
 1405SOL    HW115677   1.305   3.529   0.164  1.6218  1.6635  0.1340
 1405SOL    HW215678   1.361   3.406   0.122 -0.6870  0.2198  0.9654
 1406SOL     OW15679   2.388   2.822   7.771 -0.4831 -0.0226  0.0612
 1406SOL    HW115680   2.478   2.792   7.758 -0.5730  0.8924 -2.7463
 1406SOL    HW215681   2.342   2.771   7.838 -3.0924 -1.2184 -2.6379
 1407SOL     OW15682   1.160   2.400  11.954  0.4592 -0.4471  0.1054
 1407SOL    HW115683   1.161   2.415  12.049 -0.0467  0.8691 -0.1117
 1407SOL    HW215684   1.252   2.383  11.933 -0.1151  0.5300 -3.1366
 1408SOL     OW15685   2.732   3.469   6.371 -0.4160 -0.4269  0.2127
 1408SOL    HW115686   2.815   3.425   6.387 -0.4061 -0.9218 -1.1921
 1408SOL    HW215687   2.721   3.457   6.277  0.8757 -1.0516  0.1453
 1409SOL     OW15688   3.286   0.304  14.752  0.4256 -0.5361 -0.3331
 1409SOL    HW115689   3.368   0.353  14.743  0.3173 -0.4337 -0.7857
 1409SOL    HW215690   3.228   0.369  14.792 -0.1667 -2.4037  1.8442
 1410SOL     OW15691   4.175   2.293   8.658  0.1106  0.9548 -0.1239
 1410SOL    HW115692   4.079   2.303   8.660  0.5311  4.8388 -0.2432
 1410SOL    HW215693   4.191   2.337   8.574 -0.1790 -0.9389 -1.1851
 1411SOL     OW15694   3.521   3.817   5.169  0.0909 -0.3161 -0.2498
 1411SOL    HW115695   3.561   3.783   5.089 -1.7030 -0.5132 -1.0600
 1411SOL    HW215696   3.566   3.901   5.171  0.0214 -0.2704 -0.7724
 1412SOL     OW15697   2.488   1.762   3.275 -0.3284  0.1681  0.4472
 1412SOL    HW115698   2.556   1.717   3.224 -0.8432 -0.9490  0.7376
 1412SOL    HW215699   2.402   1.735   3.243 -0.8742  2.4780 -0.0194
 1413SOL     OW15700   2.064   2.706   5.558 -0.7156  0.1175 -0.8395
 1413SOL    HW115701   2.059   2.771   5.489  0.3565  1.1693  0.0659
 1413SOL    HW215702   2.122   2.643   5.515 -0.3321  0.6274 -1.0631
 1414SOL     OW15703   4.163   0.043   5.035 -0.2497  0.4514 -0.2096
 1414SOL    HW115704   4.225   0.072   4.968 -0.8444 -0.5365 -1.1803
 1414SOL    HW215705   4.213   4.697   5.078  0.8230  0.7790 -0.8960
 1415SOL     OW15706   2.316   0.727   2.271 -0.4160 -0.4613  0.2453
 1415SOL    HW115707   2.335   0.821   2.269 -0.5704 -0.4473 -0.5921
 1415SOL    HW215708   2.303   0.702   2.362 -0.7444  1.4924  0.7299
 1416SOL     OW15709   2.036   0.043   2.561  0.0971 -0.1533 -0.1345
 1416SOL    HW115710   2.020   4.714   2.483  1.8991 -1.7352  0.5420
 1416SOL    HW215711   1.947   0.070   2.585  1.0897  1.2689  1.9621
 1417SOL     OW15712   1.341   4.442   8.742 -0.3383  0.1052 -0.0753
 1417SOL    HW115713   1.257   4.480   8.766 -0.9000 -1.5402  0.5375
 1417SOL    HW215714   1.400   4.489   8.801  2.5634 -2.6751 -0.7369
 1418SOL     OW15715   1.476   1.236   6.551  0.6023  0.0486  0.5067
 1418SOL    HW115716   1.556   1.182   6.544 -0.1295 -1.0827  0.8336
 1418SOL    HW215717   1.494   1.305   6.487  1.0262  0.8699  1.5171
 1419SOL     OW15718   0.048   4.056   6.209 -0.8038 -0.1729  0.8298
 1419SOL    HW115719   0.004   3.994   6.151  0.4234  0.2039 -0.4862
 1419SOL    HW215720   0.074   4.003   6.285 -2.2064  1.1555  2.2466
 1420SOL     OW15721   4.072   0.731   5.860 -0.0582  0.5091  0.9914
 1420SOL    HW115722   4.152   0.680   5.850 -0.6070 -0.6916  2.7570
 1420SOL    HW215723   4.052   0.709   5.951  1.4384  1.1420  1.4570
 1421SOL     OW15724   4.161   1.587   4.195 -0.1005 -0.3763  0.4946
 1421SOL    HW115725   4.084   1.609   4.143  0.9831 -2.0948 -1.7814
 1421SOL    HW215726   4.130   1.505   4.234  0.1088 -0.9968 -0.6651
 1422SOL     OW15727   3.096   2.161   3.444 -0.1719 -0.4536 -0.2559
 1422SOL    HW115728   3.048   2.197   3.518 -1.2787 -3.3697  0.4624
 1422SOL    HW215729   3.137   2.240   3.411  0.9531  0.7374  3.9785
 1423SOL     OW15730   1.896   0.578  12.307  0.4747 -0.6061 -0.1933
 1423SOL    HW115731   1.988   0.573  12.281  0.4363  1.9679 -0.8296
 1423SOL    HW215732   1.861   0.511  12.249  0.8339 -0.4214 -0.6277
 1424SOL     OW15733   0.456   3.573   4.639 -0.1375  0.2454 -0.3754
 1424SOL    HW115734   0.531   3.555   4.583 -0.0802  2.5820 -1.0282
 1424SOL    HW215735   0.395   3.611   4.576  2.0314  0.4455 -2.3454
 1425SOL     OW15736   2.813   1.910   3.004 -0.0259 -0.4873 -0.3163
 1425SOL    HW115737   2.741   1.956   2.961 -0.0606  0.2559  0.5183
 1425SOL    HW215738   2.889   1.923   2.947 -0.1011 -1.2812 -0.5947
 1426SOL     OW15739   3.917   3.411   6.953  0.3484 -0.0108  0.3294
 1426SOL    HW115740   3.910   3.322   6.988  2.9282 -1.7497 -3.6040
 1426SOL    HW215741   3.992   3.449   6.996  0.1026  3.3864 -2.2108
 1427SOL     OW15742   2.450   0.014  17.384  0.8094 -0.0405  0.5590
 1427SOL    HW115743   2.445   4.646  17.355  1.8900  0.3156 -0.7572
 1427SOL    HW215744   2.366   0.033  17.425  0.1830 -3.5680  0.9587
 1428SOL     OW15745   1.072   3.249  16.066  0.1204  0.3696  0.0548
 1428SOL    HW115746   1.073   3.215  15.977  0.6558  1.7206 -0.4491
 1428SOL    HW215747   1.147   3.203  16.104  0.0390 -0.8836 -1.3314
 1429SOL     OW15748   1.102   4.459  12.831  0.3756 -0.0981 -0.3578
 1429SOL    HW115749   1.016   4.431  12.860 -0.2672  0.7099 -1.5025
 1429SOL    HW215750   1.077   4.544  12.794 -2.5909 -0.1544  1.5239
 1430SOL     OW15751   0.865   4.163   3.232  0.0245 -0.1150 -0.3890
 1430SOL    HW115752   0.877   4.186   3.325 -0.8991 -0.0481 -0.2935
 1430SOL    HW215753   0.817   4.236   3.193  2.8354  1.2697 -1.2482
 1431SOL     OW15754   0.648   3.124   6.708  0.1186 -0.7431 -0.5695
 1431SOL    HW115755   0.682   3.213   6.714 -0.0497 -0.6522 -0.9422
 1431SOL    HW215756   0.727   3.079   6.736  0.6645  0.8704  0.4766
 1432SOL     OW15757   1.427   3.029  15.246 -0.4595 -0.4132  0.1704
 1432SOL    HW115758   1.394   3.089  15.179 -1.4872  0.2212  1.2656
 1432SOL    HW215759   1.471   2.959  15.197  0.0029  1.4313 -2.0443
 1433SOL     OW15760   1.147   2.858   9.365 -0.2122  0.5180  0.4912
 1433SOL    HW115761   1.066   2.821   9.400  1.5982 -1.7478  2.2780
 1433SOL    HW215762   1.142   2.844   9.270  0.4458  4.4312 -0.1036
 1434SOL     OW15763   1.790   3.276   3.508  0.3619 -0.1516  0.0226
 1434SOL    HW115764   1.712   3.228   3.482  1.9405 -2.1560 -1.0036
 1434SOL    HW215765   1.854   3.208   3.532  0.5379 -0.6499 -1.8851
 1435SOL     OW15766   2.358   4.396   8.003  0.1585 -0.4880  0.0783
 1435SOL    HW115767   2.320   4.320   7.959 -0.0400 -0.6528  0.5387
 1435SOL    HW215768   2.444   4.365   8.032  1.5123  1.8820 -1.4023
 1436SOL     OW15769   2.737   3.938   3.254  0.4417  0.1378  0.1650
 1436SOL    HW115770   2.798   3.984   3.311  2.8445 -3.1843  0.1994
 1436SOL    HW215771   2.784   3.856   3.262 -0.1449  0.0486  2.6880
 1437SOL     OW15772   0.573   2.462   6.429  0.0394 -0.3415 -0.1070
 1437SOL    HW115773   0.509   2.522   6.466 -2.0633 -1.8049 -1.3854
 1437SOL    HW215774   0.643   2.462   6.495  0.9790  1.9695 -1.1201
 1438SOL     OW15775   1.721   3.854   2.976 -0.1692  0.2954  0.2569
 1438SOL    HW115776   1.678   3.773   3.005  0.8402 -0.0321  0.8261
 1438SOL    HW215777   1.707   3.908   3.054 -1.7975 -0.5101  0.5364
 1439SOL     OW15778   0.784   3.886  11.698 -0.1076 -0.3492 -0.6899
 1439SOL    HW115779   0.858   3.826  11.706  0.2845  0.1940 -0.2724
 1439SOL    HW215780   0.764   3.894  11.605  1.4222 -1.3232 -1.0952
 1440SOL     OW15781   4.612   0.548   0.430  0.2237  1.0427  0.4423
 1440SOL    HW115782   4.690   0.582   0.387  0.7622 -0.1260  0.4852
 1440SOL    HW215783   4.601   0.589   0.516  1.8729 -0.1962  1.2469
 1441SOL     OW15784   2.024   1.261  10.545 -0.1288 -0.1808 -0.1834
 1441SOL    HW115785   2.114   1.270  10.514  1.3983 -3.9944  3.1651
 1441SOL    HW215786   2.001   1.169  10.532  3.0324 -1.1011  0.8494
 1442SOL     OW15787   4.382   2.194   9.267  0.4657  0.3771 -0.4012
 1442SOL    HW115788   4.315   2.125   9.269 -0.2475  1.1991  3.7734
 1442SOL    HW215789   4.328   2.264   9.230 -0.0239 -0.4062 -1.2055
 1443SOL     OW15790   4.101   4.096  12.919  0.0244  0.4689 -0.3797
 1443SOL    HW115791   4.046   4.068  12.847 -0.4284  0.9171 -0.2090
 1443SOL    HW215792   4.037   4.159  12.951 -0.1816 -0.7423  1.5952
 1444SOL     OW15793   1.954   3.100   5.257  0.0797  0.5092 -0.1113
 1444SOL    HW115794   2.029   3.133   5.207  0.9475 -1.6038 -0.2190
 1444SOL    HW215795   1.887   3.167   5.242 -0.0612  0.8349  2.0785
 1445SOL     OW15796   4.345   3.037   3.923  0.1709  0.2449  0.1189
 1445SOL    HW115797   4.422   3.007   3.970  0.4708  1.2978  0.3005
 1445SOL    HW215798   4.272   2.984   3.954  0.4793 -1.4320 -1.9954
 1446SOL     OW15799   3.016   1.882   1.101 -0.1988 -0.1593  0.2548
 1446SOL    HW115800   3.007   1.805   1.156  0.6836 -0.7365 -0.4117
 1446SOL    HW215801   3.016   1.955   1.163 -0.1776 -0.0703  0.1495
 1447SOL     OW15802   2.044   2.111   0.395  0.4573 -0.0437 -0.1330
 1447SOL    HW115803   2.062   2.201   0.369  1.1557  0.8303  3.4789
 1447SOL    HW215804   1.951   2.109   0.418  0.3934 -4.1526 -0.7020
 1448SOL     OW15805   4.230   3.254   4.013  0.1316 -0.4460 -0.1422
 1448SOL    HW115806   4.282   3.185   3.972 -0.3006  1.0457 -3.2596
 1448SOL    HW215807   4.179   3.273   3.934  1.6071 -0.3859 -1.0960
 1449SOL     OW15808   4.447   0.348   2.201 -0.3594  0.5159  0.0217
 1449SOL    HW115809   4.366   0.298   2.210 -0.2713  0.6507  1.4764
 1449SOL    HW215810   4.425   0.399   2.123 -1.8265  1.6025  1.1688
 1450SOL     OW15811   0.207   0.529   0.041  0.6231 -0.7963  0.0434
 1450SOL    HW115812   0.205   0.440   0.008  0.6964 -0.9389  0.4244
 1450SOL    HW215813   0.255   0.557  17.659 -0.9982 -1.8822 -1.3463
 1451SOL     OW15814   0.355   0.613  10.243 -0.5637  0.6098  0.3188
 1451SOL    HW115815   0.321   0.532  10.280 -1.9418  1.4947  0.9948
 1451SOL    HW215816   0.416   0.578  10.179  0.2422  1.8530  0.3951
 1452SOL     OW15817   3.485   3.613   8.438 -0.2908  0.7142  0.6652
 1452SOL    HW115818   3.444   3.656   8.514  0.8969 -0.0422  1.7240
 1452SOL    HW215819   3.484   3.690   8.381 -1.1540  1.0044  1.0630
 1453SOL     OW15820   1.587   0.279   0.669 -0.3971 -0.2125  0.4472
 1453SOL    HW115821   1.635   0.241   0.743  1.7600  0.5313 -0.5780
 1453SOL    HW215822   1.531   0.202   0.663 -1.1729  0.2648  1.4549
 1454SOL     OW15823   2.211   3.977   6.058 -0.0973  0.0147 -0.0898
 1454SOL    HW115824   2.153   3.912   6.019 -1.0455 -0.8984  2.8402
 1454SOL    HW215825   2.255   4.016   5.982 -0.6259  1.6074  0.4210
 1455SOL     OW15826   1.123   3.839  10.540  0.2034  0.2027 -0.4553
 1455SOL    HW115827   1.062   3.850  10.613  0.5032 -0.0552 -0.1646
 1455SOL    HW215828   1.175   3.919  10.552 -1.3731  1.3403 -1.1837
 1456SOL     OW15829   4.006   2.721   2.022  0.3460 -1.0653 -0.5559
 1456SOL    HW115830   3.993   2.634   1.984 -2.6969 -1.1779  0.7310
 1456SOL    HW215831   3.919   2.729   2.061  1.1633 -2.0315  1.4707
 1457SOL     OW15832   2.514   1.612   9.281 -0.7313 -0.5503 -0.0031
 1457SOL    HW115833   2.546   1.656   9.203 -1.2226 -1.1909 -0.5570
 1457SOL    HW215834   2.588   1.642   9.335 -0.4254 -1.0105 -0.1684
 1458SOL     OW15835   4.530   2.009   5.783 -0.1379  0.4172  0.3549
 1458SOL    HW115836   4.460   1.952   5.815 -0.5400  0.3507 -0.6452
 1458SOL    HW215837   4.563   2.047   5.864 -0.5501 -0.0920  0.7657
 1459SOL     OW15838   2.957   1.687   8.597  0.0736 -0.4579 -0.2137
 1459SOL    HW115839   2.936   1.771   8.556  0.8931 -1.0866 -1.9313
 1459SOL    HW215840   3.035   1.659   8.549 -0.0102  0.5103 -0.9002
 1460SOL     OW15841   0.383   2.871   5.072 -0.1964 -0.0029 -0.0943
 1460SOL    HW115842   0.460   2.867   5.128  0.7546  0.7643 -1.3543
 1460SOL    HW215843   0.325   2.929   5.122  1.1336  2.2044 -1.1387
 1461SOL     OW15844   1.923   0.370  11.817 -0.1898 -0.1113 -0.1304
 1461SOL    HW115845   1.872   0.293  11.845  1.0244 -0.3649  1.3810
 1461SOL    HW215846   1.854   0.424  11.780 -0.3541 -0.1086  0.1742
 1462SOL     OW15847   0.382   2.282   6.887  0.0974  0.3047  0.4140
 1462SOL    HW115848   0.436   2.321   6.956 -1.0775  0.2693  1.3649
 1462SOL    HW215849   0.330   2.221   6.940 -0.6186  0.0445 -0.5953
 1463SOL     OW15850   3.125   4.435   4.011  0.1343  0.0712 -0.0390
 1463SOL    HW115851   3.091   4.523   3.992 -0.1293 -0.0899 -0.3094
 1463SOL    HW215852   3.064   4.383   3.959 -0.7408  0.3721  0.6998
 1464SOL     OW15853   0.602   3.098   7.009 -0.6195  1.0496  0.4151
 1464SOL    HW115854   0.523   3.140   6.974 -1.1563 -0.5404 -0.3161
 1464SOL    HW215855   0.671   3.156   6.976  1.2118 -2.0681 -1.2290
 1465SOL     OW15856   0.955   1.192   3.484  0.0348  0.8383  0.0639
 1465SOL    HW115857   0.869   1.206   3.524 -0.5788 -0.3373 -0.8526
 1465SOL    HW215858   0.982   1.284   3.477  0.0161  0.7887 -0.6742
 1466SOL     OW15859   3.527   3.537  10.145 -0.2010  0.2703 -0.6959
 1466SOL    HW115860   3.536   3.518  10.052 -1.6152  0.2255 -0.8252
 1466SOL    HW215861   3.434   3.559  10.150 -0.5178 -1.5655  1.6990
 1467SOL     OW15862   0.434   3.204  15.464 -1.1750 -0.3687  0.5076
 1467SOL    HW115863   0.491   3.130  15.443 -1.1756 -0.3973  0.6085
 1467SOL    HW215864   0.499   3.269  15.490 -0.2049 -1.4115  0.6656
 1468SOL     OW15865   3.806   2.157   7.433  0.4945 -0.0230 -0.1128
 1468SOL    HW115866   3.860   2.149   7.354  0.2402 -1.0338 -0.1907
 1468SOL    HW215867   3.863   2.212   7.487 -0.2105  0.2234  0.3755
 1469SOL     OW15868   0.512   3.573   5.814 -0.0581  0.3195  0.3874
 1469SOL    HW115869   0.491   3.482   5.795 -1.3981  0.3700  1.6330
 1469SOL    HW215870   0.577   3.585   5.745 -0.4761 -3.0751 -0.5827
 1470SOL     OW15871   1.129   4.409   6.370 -0.0534  0.3943  0.1954
 1470SOL    HW115872   1.147   4.500   6.347  0.3735  0.6428  1.5647
 1470SOL    HW215873   1.217   4.381   6.391 -0.5748 -0.5322  1.1144
 1471SOL     OW15874   1.664   2.016   4.650  0.4161 -0.0062  0.3188
 1471SOL    HW115875   1.590   2.075   4.660 -1.0799 -1.6247 -1.0837
 1471SOL    HW215876   1.638   1.944   4.707 -0.9086  0.4540  0.2999
 1472SOL     OW15877   0.259   3.316   7.628 -0.3938 -0.4609  0.1426
 1472SOL    HW115878   0.348   3.305   7.659  0.2769 -1.7122 -2.2428
 1472SOL    HW215879   0.210   3.243   7.665 -0.2655 -1.0101 -0.7655
 1473SOL     OW15880   1.532   3.855   3.409 -0.0577 -0.1330  0.0264
 1473SOL    HW115881   1.488   3.878   3.491  0.0966  0.2012  0.0167
 1473SOL    HW215882   1.473   3.787   3.377  1.5833 -1.9984  0.9733
 1474SOL     OW15883   0.741   4.393   3.135  1.0688 -0.5355  0.2971
 1474SOL    HW115884   0.716   4.486   3.140 -0.7498 -0.9255 -1.2019
 1474SOL    HW215885   0.677   4.358   3.073  0.6249  2.6809 -1.0929
 1475SOL     OW15886   3.130   0.218   6.506 -0.2098 -0.1812  0.6100
 1475SOL    HW115887   3.096   0.242   6.420  2.9480  0.6908 -0.4054
 1475SOL    HW215888   3.127   0.307   6.542  2.4522 -0.3685  1.2949
 1476SOL     OW15889   2.015   1.889   5.689  0.4987  0.1818  0.1315
 1476SOL    HW115890   2.023   1.917   5.598 -0.7790  1.3038  0.3713
 1476SOL    HW215891   2.104   1.904   5.722  1.4207  0.0953 -2.3262
 1477SOL     OW15892   3.246   2.485  13.313  0.0586 -0.6405  0.0810
 1477SOL    HW115893   3.319   2.424  13.300 -0.3136 -0.6029 -2.3130
 1477SOL    HW215894   3.172   2.433  13.282  0.5942  0.6635 -3.4288
 1478SOL     OW15895   1.938   2.171  16.309  0.8319 -0.0998 -0.7014
 1478SOL    HW115896   1.987   2.230  16.252 -0.5781  2.2273  0.4911
 1478SOL    HW215897   1.982   2.198  16.390 -1.8186 -0.7880  0.9712
 1479SOL     OW15898   0.913   4.257   7.420 -0.1936  0.0737  0.4151
 1479SOL    HW115899   1.004   4.286   7.418  0.5032 -2.0296  1.0229
 1479SOL    HW215900   0.919   4.190   7.352 -1.5209 -0.0267  0.4014
 1480SOL     OW15901   1.396   1.974  11.628  0.1399  0.1859 -0.3668
 1480SOL    HW115902   1.363   1.999  11.713  0.2956  0.4385 -0.3815
 1480SOL    HW215903   1.361   2.054  11.590 -0.4049 -0.6611 -1.6536
 1481SOL     OW15904   2.874   3.356   8.438  0.1503 -0.0159  0.2537
 1481SOL    HW115905   2.878   3.261   8.438 -3.9702 -0.1933  1.7185
 1481SOL    HW215906   2.804   3.376   8.375  0.5449 -2.0671 -0.8227
 1482SOL     OW15907   2.045   0.341  13.564  0.6375  0.4558 -0.0280
 1482SOL    HW115908   2.065   0.332  13.471 -1.1321 -0.3787 -0.3264
 1482SOL    HW215909   2.118   0.296  13.605 -0.0767 -0.6984 -0.0241
 1483SOL     OW15910   2.673   2.649   4.444 -0.7365 -0.1755  0.0452
 1483SOL    HW115911   2.725   2.600   4.380  2.0444  0.1716  2.0198
 1483SOL    HW215912   2.741   2.673   4.507  1.1683  0.3163 -2.2175
 1484SOL     OW15913   4.238   3.462   3.565  0.2706  0.1528 -0.2381
 1484SOL    HW115914   4.188   3.383   3.544 -1.0818  1.5689 -2.3160
 1484SOL    HW215915   4.248   3.511   3.483 -1.5313  0.9612  0.0409
 1485SOL     OW15916   3.367   1.583   9.118  0.0344 -0.0531 -0.3071
 1485SOL    HW115917   3.347   1.667   9.077 -2.1150 -1.1396 -1.4658
 1485SOL    HW215918   3.295   1.527   9.092  0.2237 -0.4378 -0.0049
 1486SOL     OW15919   0.300   1.447   6.798  0.1764 -0.6606 -0.4642
 1486SOL    HW115920   0.336   1.489   6.720  1.5745 -0.1188  0.4691
 1486SOL    HW215921   0.370   1.435   6.862  1.6022  1.3647 -1.6567
 1487SOL     OW15922   1.551   1.182  15.962  0.1466  0.0929 -0.2976
 1487SOL    HW115923   1.519   1.136  15.884  1.0465 -0.9585 -0.0493
 1487SOL    HW215924   1.504   1.137  16.033  0.8547 -3.3644 -2.0159
 1488SOL     OW15925   0.892   3.170  12.400  0.1307  0.5472 -0.0120
 1488SOL    HW115926   0.881   3.154  12.494  0.1238 -2.2275 -0.4838
 1488SOL    HW215927   0.941   3.252  12.402  1.2122 -0.1409  1.1675
 1489SOL     OW15928   1.345   0.812   8.055  0.1201  0.2419  0.0350
 1489SOL    HW115929   1.268   0.772   8.015  0.5323 -3.3091  2.7597
 1489SOL    HW215930   1.395   0.734   8.077  1.9180  0.9842 -1.4178
 1490SOL     OW15931   1.883   3.010   7.053  0.1190 -0.1702  0.4148
 1490SOL    HW115932   1.917   3.038   6.968 -0.8698 -1.2319 -0.3295
 1490SOL    HW215933   1.878   3.101   7.084  0.1759 -0.1370  0.3276
 1491SOL     OW15934   3.385   4.700   4.717  0.8132  0.3162  0.1577
 1491SOL    HW115935   3.455   4.688   4.782  0.1909  1.3990  1.0439
 1491SOL    HW215936   3.341   0.058   4.744 -1.2938 -0.0799 -2.0967
 1492SOL     OW15937   4.292   2.629  16.425  0.1215  0.5881  0.0022
 1492SOL    HW115938   4.196   2.623  16.417  0.1736  1.7385 -1.4645
 1492SOL    HW215939   4.304   2.716  16.387  0.2781 -0.1124 -1.5737
 1493SOL     OW15940   3.927   4.529   5.149 -0.0568  0.1901  0.6434
 1493SOL    HW115941   4.013   4.571   5.152 -0.5695  1.2006  1.4807
 1493SOL    HW215942   3.879   4.576   5.081 -0.2971 -1.6811 -0.4832
 1494SOL     OW15943   0.448   0.471   5.738  0.0354  0.1925 -0.2479
 1494SOL    HW115944   0.475   0.401   5.797 -0.0980 -2.4840 -3.3945
 1494SOL    HW215945   0.369   0.507   5.778 -0.7478 -0.0811 -1.5752
 1495SOL     OW15946   3.105   3.847   4.805  0.6157 -0.2312 -0.5328
 1495SOL    HW115947   3.164   3.773   4.810  1.0888  0.3278  1.8959
 1495SOL    HW215948   3.022   3.800   4.810 -0.5778  2.1219  1.7230
 1496SOL     OW15949   2.841   2.300  12.923 -0.3191  0.2033 -0.6511
 1496SOL    HW115950   2.851   2.275  13.015  1.2724 -2.2820 -1.4859
 1496SOL    HW215951   2.785   2.228  12.894 -1.2060  0.9977 -0.9047
 1497SOL     OW15952   2.431   3.505   7.251  0.1029  0.1591  0.0203
 1497SOL    HW115953   2.441   3.427   7.197 -2.5270  1.4162 -2.2822
 1497SOL    HW215954   2.524   3.527   7.257 -0.2753  1.3637  1.4291
 1498SOL     OW15955   1.641   1.367   7.398 -0.1203  0.3043 -0.2806
 1498SOL    HW115956   1.573   1.398   7.458 -0.5720 -1.1380 -0.0458
 1498SOL    HW215957   1.709   1.331   7.454 -1.1976  0.2244  0.9821
 1499SOL     OW15958   1.409   2.245   0.403  0.3659  0.2174  0.1120
 1499SOL    HW115959   1.482   2.210   0.353 -1.2023  0.0396 -2.0392
 1499SOL    HW215960   1.364   2.161   0.409  0.4235  0.1021 -1.1896
 1500SOL     OW15961   1.804   3.543   4.670  0.1669 -0.3122  0.1464
 1500SOL    HW115962   1.800   3.622   4.616  1.2229 -0.0593  0.4473
 1500SOL    HW215963   1.876   3.493   4.632  0.8919  0.5972  0.3445
 1501SOL     OW15964   2.455   2.294   2.937  0.2120  0.2117  0.0449
 1501SOL    HW115965   2.428   2.270   2.848  1.0159 -0.4871 -0.0071
 1501SOL    HW215966   2.397   2.368   2.959 -0.8215 -0.4521 -0.4442
 1502SOL     OW15967   1.813   3.763   5.998  0.6202 -0.2181 -0.3508
 1502SOL    HW115968   1.730   3.717   5.986  0.5423  0.3421 -1.8832
 1502SOL    HW215969   1.795   3.817   6.075 -0.8983 -0.9134 -0.2214
 1503SOL     OW15970   2.826   1.941  15.883 -0.6360 -0.6241 -0.6538
 1503SOL    HW115971   2.868   1.984  15.808  0.2619  0.0933  0.2604
 1503SOL    HW215972   2.894   1.900  15.937  0.5507 -0.5174 -2.0396
 1504SOL     OW15973   0.640   2.015   5.161 -0.2262  0.0241 -0.2866
 1504SOL    HW115974   0.689   2.013   5.243 -0.4656 -1.4239 -0.1777
 1504SOL    HW215975   0.671   1.935   5.118  0.2822  0.4835 -0.7722
 1505SOL     OW15976   2.829   1.428   9.036 -0.1180 -0.3546  0.2495
 1505SOL    HW115977   2.858   1.449   8.947  1.3398  0.1865  0.8636
 1505SOL    HW215978   2.875   1.347   9.054 -0.7433 -0.9572 -0.8300
 1506SOL     OW15979   1.165   2.837  15.915 -0.0726 -0.4001  0.4359
 1506SOL    HW115980   1.209   2.772  15.861  1.7528  2.1713 -1.2160
 1506SOL    HW215981   1.236   2.868  15.971  0.7146  0.7035 -1.1576
 1507SOL     OW15982   4.670   1.065   2.972 -0.0064 -0.5024 -0.7358
 1507SOL    HW115983   4.704   0.984   2.935 -0.4267 -1.3494  0.7431
 1507SOL    HW215984   4.688   1.135   2.909 -0.6586  1.4336  1.2013
 1508SOL     OW15985   1.981   2.001   8.082 -0.5531  0.2998  0.4514
 1508SOL    HW115986   1.991   2.093   8.103 -1.5062  0.4806  0.0864
 1508SOL    HW215987   2.072   1.976   8.100 -0.5432  0.6387  0.8725
 1509SOL     OW15988   2.128   4.285  12.928  0.0382  0.1691  0.4438
 1509SOL    HW115989   2.044   4.324  12.904  1.1742  0.9469 -2.2391
 1509SOL    HW215990   2.102   4.193  12.939  1.0392 -0.4876 -2.7665
 1510SOL     OW15991   4.165   2.568  17.421  0.2021  0.1253 -0.3772
 1510SOL    HW115992   4.245   2.557  17.473  1.2893  0.9877 -1.8635
 1510SOL    HW215993   4.110   2.509  17.472  1.8478  0.2284  1.4968
 1511SOL     OW15994   1.907   1.821  14.657  0.2463 -0.4367  0.0411
 1511SOL    HW115995   1.852   1.791  14.585 -1.1088  0.0848  0.8422
 1511SOL    HW215996   1.986   1.863  14.624 -2.4406  2.6082 -2.4904
 1512SOL     OW15997   0.224   0.005  15.314  0.1901  0.1847 -0.8546
 1512SOL    HW115998   0.282   0.016  15.390 -1.2294  0.3235  0.2181
 1512SOL    HW215999   0.153   4.691  15.366 -0.9761 -0.6884 -3.0741
 1513SOL     OW16000   2.137   3.274   6.634 -0.2815  0.1877 -0.1663
 1513SOL    HW116001   2.222   3.235   6.654  0.0171  1.5145  1.1653
 1513SOL    HW216002   2.154   3.363   6.603  1.0732 -1.2531 -3.5883
 1514SOL     OW16003   2.104   0.276  10.548 -0.0620 -0.0317 -0.3455
 1514SOL    HW116004   2.055   0.357  10.564  1.0312 -0.0445  2.9590
 1514SOL    HW216005   2.132   0.253  10.636 -1.6954 -0.1162  0.1589
 1515SOL     OW16006   2.617   2.897  13.789 -0.3961 -0.2137 -0.3526
 1515SOL    HW116007   2.608   2.831  13.720 -0.9238 -0.9373  0.4054
 1515SOL    HW216008   2.711   2.910  13.777 -0.7780  2.5601 -0.2793
 1516SOL     OW16009   0.877   2.205   9.154 -0.2568 -0.3325 -0.5249
 1516SOL    HW116010   0.937   2.131   9.164 -0.1993 -0.0611  1.2246
 1516SOL    HW216011   0.936   2.261   9.104 -1.1143 -1.2070 -2.5038
 1517SOL     OW16012   1.598   2.687   2.062 -0.1351  0.7502  0.0650
 1517SOL    HW116013   1.647   2.662   2.140  1.7209 -0.6559 -1.5601
 1517SOL    HW216014   1.544   2.610   2.044 -0.2201  0.9691 -0.5983
 1518SOL     OW16015   1.026   2.635   9.751 -0.0020 -0.0594  0.1291
 1518SOL    HW116016   1.066   2.721   9.742  0.3764 -0.1555  0.8494
 1518SOL    HW216017   1.021   2.629   9.847 -1.5222 -0.4657  0.0174
 1519SOL     OW16018   0.984   4.146   4.039  0.0710  0.1680  0.2993
 1519SOL    HW116019   0.968   4.115   3.950  2.3831  0.0148 -0.0553
 1519SOL    HW216020   0.901   4.183   4.070  0.0880  0.4819 -0.0333
 1520SOL     OW16021   2.596   3.432   3.653 -0.3613 -0.7140  0.3527
 1520SOL    HW116022   2.624   3.451   3.742 -0.4223  2.0243 -0.2097
 1520SOL    HW216023   2.627   3.505   3.600 -0.3313 -0.0676  1.2681
 1521SOL     OW16024   2.428   0.113   8.091 -0.2816  0.1702  0.3947
 1521SOL    HW116025   2.496   0.048   8.111 -0.2370  0.6110  1.6898
 1521SOL    HW216026   2.438   0.169   8.167 -2.2726  2.3625 -0.9742
 1522SOL     OW16027   0.505   3.962  11.920 -0.5417  0.4812  0.2814
 1522SOL    HW116028   0.422   3.987  11.880 -0.1946 -0.4874 -1.0684
 1522SOL    HW216029   0.527   4.048  11.955  1.4109 -0.4374  1.2945
 1523SOL     OW16030   0.451   4.470   4.961 -0.2047  0.2612 -0.0492
 1523SOL    HW116031   0.366   4.484   4.919 -1.4869 -2.7488  1.5428
 1523SOL    HW216032   0.471   4.557   4.995 -2.0988  0.5755  0.2629
 1524SOL     OW16033   2.573   3.734   5.366 -0.0335  0.0187 -0.3737
 1524SOL    HW116034   2.664   3.749   5.392 -0.2156 -1.6229  1.1943
 1524SOL    HW216035   2.526   3.804   5.412  0.9667  0.7025 -0.3880
 1525SOL     OW16036   0.471   2.633  16.279 -0.0179 -0.6346  0.6063
 1525SOL    HW116037   0.561   2.662  16.295  0.1138 -0.2267 -0.8645
 1525SOL    HW216038   0.480   2.546  16.238  1.0562  0.0318 -0.5763
 1526SOL     OW16039   3.344   1.627   6.373 -0.4748 -0.7594  0.1736
 1526SOL    HW116040   3.405   1.687   6.417 -0.4348 -0.2124 -0.6192
 1526SOL    HW216041   3.399   1.550   6.385  2.2330  1.0596 -0.4611
 1527SOL     OW16042   0.155   1.118   9.966 -0.0240 -0.1335 -0.2305
 1527SOL    HW116043   0.135   1.190   9.906 -0.3965 -0.5155 -0.5661
 1527SOL    HW216044   0.249   1.102   9.956 -0.0079  0.9982 -1.9430
 1528SOL     OW16045   4.205   0.992   8.242  0.7112 -0.1325 -0.2347
 1528SOL    HW116046   4.242   0.912   8.280 -0.1047  0.1959  1.2477
 1528SOL    HW216047   4.128   1.010   8.296  0.5828 -2.8686  0.4958
 1529SOL     OW16048   3.615   0.963   6.308 -0.5390  0.2029 -0.0114
 1529SOL    HW116049   3.586   0.872   6.323  0.1796  0.0172  0.2555
 1529SOL    HW216050   3.609   0.981   6.402 -1.1801  0.8787 -0.1837
 1530SOL     OW16051   3.210   0.932  13.801  0.2841 -0.5440  0.3562
 1530SOL    HW116052   3.151   0.858  13.818 -1.4046  0.6988 -0.1799
 1530SOL    HW216053   3.221   0.967  13.889  0.5393  1.9727 -0.6740
 1531SOL     OW16054   0.911   2.706   3.823  0.0186  0.0062 -0.1946
 1531SOL    HW116055   0.911   2.777   3.758 -1.2556 -0.3185 -0.5488
 1531SOL    HW216056   0.893   2.758   3.901 -1.7408 -0.1444 -0.5098
 1532SOL     OW16057   1.049   3.175   1.133 -0.4231  0.2115  0.2418
 1532SOL    HW116058   0.971   3.150   1.182 -0.0846 -0.4892  0.4185
 1532SOL    HW216059   1.088   3.240   1.192  0.5472 -1.8922  1.8981
 1533SOL     OW16060   4.475   0.467   5.822  0.0653  0.1591 -0.3023
 1533SOL    HW116061   4.408   0.494   5.885  0.2401 -1.4463  0.5641
 1533SOL    HW216062   4.552   0.489   5.875 -0.8671  0.0821  1.0862
 1534SOL     OW16063   0.193   3.710   5.162 -0.1111 -0.2228 -0.0061
 1534SOL    HW116064   0.103   3.724   5.133 -0.5149 -2.3460  0.1851
 1534SOL    HW216065   0.251   3.709   5.086  0.7741 -0.6291  0.6637
 1535SOL     OW16066   1.739   4.351   6.657 -0.6058 -0.1813 -0.2784
 1535SOL    HW116067   1.667   4.288   6.657  0.9482 -1.9414  1.3446
 1535SOL    HW216068   1.789   4.305   6.725  0.1633 -0.5303 -1.0876
 1536SOL     OW16069   3.281   1.054  15.852 -0.1744 -0.1165 -0.7475
 1536SOL    HW116070   3.327   0.972  15.834 -0.9559 -0.9079  0.8830
 1536SOL    HW216071   3.195   1.049  15.809 -0.1954 -0.2450 -0.6883
 1537SOL     OW16072   1.160   0.620  13.603 -0.2585  0.3681  0.4088
 1537SOL    HW116073   1.142   0.528  13.585  0.1777  0.0035  1.7850
 1537SOL    HW216074   1.175   0.622  13.698  3.5372 -0.1169 -0.1690
 1538SOL     OW16075   1.724   4.295   1.715 -0.0856 -0.2864 -0.5460
 1538SOL    HW116076   1.774   4.214   1.722 -1.5761 -1.1047  0.6848
 1538SOL    HW216077   1.704   4.311   1.807  0.4480 -2.7642 -0.0079
 1539SOL     OW16078   2.282   0.837   8.705 -0.3667 -0.5638 -0.4799
 1539SOL    HW116079   2.245   0.811   8.790  2.7872  1.1403  1.4405
 1539SOL    HW216080   2.237   0.920   8.691 -0.2489 -0.8054 -2.2136
 1540SOL     OW16081   3.592   1.939   7.587 -0.3786 -0.4373  0.0856
 1540SOL    HW116082   3.508   1.975   7.555  0.8881  1.7365 -0.8001
 1540SOL    HW216083   3.648   2.010   7.555  0.1408  0.5866  3.3693
 1541SOL     OW16084   0.766   4.178  16.014  0.5420 -0.8961 -0.1943
 1541SOL    HW116085   0.741   4.251  16.070 -1.3191 -0.7159 -1.2659
 1541SOL    HW216086   0.846   4.215  15.976  0.7605 -2.8393 -1.6010
 1542SOL     OW16087   1.960   4.166   6.201  0.2188  0.3146 -0.5958
 1542SOL    HW116088   2.046   4.128   6.184 -0.4712 -1.4406 -0.1627
 1542SOL    HW216089   1.968   4.166   6.296 -2.1248  0.9919 -0.3981
 1543SOL     OW16090   0.326   4.540   5.513 -0.1756 -0.0734 -0.2308
 1543SOL    HW116091   0.286   4.469   5.462  1.5259 -2.1402  1.3010
 1543SOL    HW216092   0.295   4.518   5.601 -0.7053  0.1690 -0.3550
 1544SOL     OW16093   2.614   4.666   8.161 -0.2742 -0.1684  0.5580
 1544SOL    HW116094   2.644   4.584   8.123 -2.3300  0.1081 -1.6347
 1544SOL    HW216095   2.639   4.653   8.253 -3.3347  0.9994  1.5390
 1545SOL     OW16096   0.051   0.390   1.606  0.6461  0.5353  0.2009
 1545SOL    HW116097   0.136   0.361   1.574  0.9794 -0.4187  1.9479
 1545SOL    HW216098   0.001   0.368   1.527 -0.2164  0.4637  0.7617
 1546SOL     OW16099   2.684   3.096  11.216 -0.2405 -0.9316  0.0239
 1546SOL    HW116100   2.758   3.060  11.167 -2.5637 -0.6853 -3.6852
 1546SOL    HW216101   2.647   3.154  11.149 -0.2258 -1.8182 -0.7509
 1547SOL     OW16102   1.855   3.457   3.328  0.4960 -0.4564  0.3266
 1547SOL    HW116103   1.781   3.459   3.267  0.7077  0.7359  0.1043
 1547SOL    HW216104   1.830   3.414   3.410  0.1457  0.8668  0.9234
 1548SOL     OW16105   0.550   3.044   3.762  0.3788 -0.1558 -0.2741
 1548SOL    HW116106   0.468   3.044   3.811 -0.2125  1.0891 -1.2611
 1548SOL    HW216107   0.564   2.951   3.743  0.8051 -0.5403  1.9676
 1549SOL     OW16108   0.058   0.230  17.240  0.7236 -0.0757  0.1100
 1549SOL    HW116109   0.086   0.320  17.223 -1.7227  0.4795 -1.0062
 1549SOL    HW216110   0.010   0.210  17.159  0.3606  0.9770  0.0670
 1550SOL     OW16111   1.406   0.985   9.457  0.2272  0.2341  0.2267
 1550SOL    HW116112   1.501   0.989   9.442 -0.1660  1.4774 -1.9112
 1550SOL    HW216113   1.401   1.032   9.540  0.0821 -0.7820  0.7942
 1551SOL     OW16114   4.645   4.015   8.429 -0.0055 -0.3582 -0.6694
 1551SOL    HW116115   4.682   3.927   8.430  1.1200  0.0962 -1.4359
 1551SOL    HW216116   4.635   4.039   8.337  3.6813 -2.2073 -1.5440
 1552SOL     OW16117   0.858   0.249   5.156 -0.6147 -0.2489  0.5700
 1552SOL    HW116118   0.920   0.251   5.229 -0.0856 -0.3617  0.1279
 1552SOL    HW216119   0.883   0.322   5.098  1.8680 -2.0832 -0.6815
 1553SOL     OW16120   4.304   0.282   2.563 -0.3658 -0.1747 -0.5340
 1553SOL    HW116121   4.226   0.338   2.566 -0.2322  0.0155 -0.6633
 1553SOL    HW216122   4.297   0.264   2.469  0.6968  0.6555 -0.7666
 1554SOL     OW16123   4.300   2.085   6.445 -0.0504 -0.2018 -0.2681
 1554SOL    HW116124   4.341   2.020   6.502 -1.0570 -0.6356 -0.0469
 1554SOL    HW216125   4.217   2.091   6.491 -0.0089 -1.7885  0.0231
 1555SOL     OW16126   4.416   4.368  16.321  0.0971  0.0212  0.0082
 1555SOL    HW116127   4.427   4.387  16.227 -1.9258  0.8621 -0.0620
 1555SOL    HW216128   4.463   4.444  16.356  2.6809 -0.2494 -2.8120
 1556SOL     OW16129   2.507   0.168   7.293  0.1949 -0.1405  0.2089
 1556SOL    HW116130   2.526   0.175   7.200  2.6739 -1.8820  0.6103
 1556SOL    HW216131   2.573   0.233   7.316 -0.5343  0.5474  0.3595
 1557SOL     OW16132   0.028   1.611   6.700  0.1594 -0.1590 -0.1942
 1557SOL    HW116133   0.066   1.571   6.778 -0.2156  0.3928  0.2721
 1557SOL    HW216134   0.103   1.661   6.669  0.5750 -0.1894  0.7728
 1558SOL     OW16135   0.961   2.932   9.917  0.2004 -0.0017  0.0784
 1558SOL    HW116136   0.915   2.874   9.977  0.0562  1.1629  1.1003
 1558SOL    HW216137   0.950   2.890   9.832 -1.3233  1.3709 -0.3993
 1559SOL     OW16138   3.843   3.354   7.680 -0.4278 -0.3462 -0.1228
 1559SOL    HW116139   3.772   3.413   7.658  1.3955  1.8386 -0.0955
 1559SOL    HW216140   3.912   3.420   7.683 -1.5852  0.9298 -1.8361
 1560SOL     OW16141   4.286   0.447   7.027 -0.4493 -0.2615  0.2406
 1560SOL    HW116142   4.297   0.540   7.045  2.4893 -0.5740  0.0821
 1560SOL    HW216143   4.360   0.422   7.083 -0.5125 -0.4149  0.2570
 1561SOL     OW16144   1.614   1.699   5.415 -0.6043 -0.0840 -0.1121
 1561SOL    HW116145   1.691   1.663   5.370  1.5819  1.8113  2.1285
 1561SOL    HW216146   1.664   1.711   5.496 -1.1245 -1.4530  0.4167
 1562SOL     OW16147   1.166   2.523  16.024  0.0046  0.3650 -0.4713
 1562SOL    HW116148   1.198   2.500  15.937 -0.3405  1.6100 -0.9322
 1562SOL    HW216149   1.142   2.433  16.042 -0.7229  0.7933  0.7137
 1563SOL     OW16150   2.863   0.423  12.532  0.4705 -0.1666 -0.3325
 1563SOL    HW116151   2.877   0.329  12.522 -0.8498 -0.3799 -0.1774
 1563SOL    HW216152   2.862   0.456  12.442 -1.1373  0.2026 -0.1737
 1564SOL     OW16153   0.309   0.335   7.954 -0.2636 -0.0194 -0.0444
 1564SOL    HW116154   0.353   0.332   8.039  1.4935 -0.4788 -0.9825
 1564SOL    HW216155   0.227   0.378   7.980  0.6614  1.8995 -0.3184
 1565SOL     OW16156   3.039   3.738  12.730  0.5771  0.5818 -0.0099
 1565SOL    HW116157   3.097   3.665  12.752 -1.0318 -1.0296 -1.1725
 1565SOL    HW216158   3.101   3.808  12.752 -0.9762  2.4590 -1.6810
 1566SOL     OW16159   4.528   4.267   5.685 -0.2889  0.6682  0.0745
 1566SOL    HW116160   4.500   4.349   5.726 -2.4749 -0.0440 -0.0202
 1566SOL    HW216161   4.609   4.295   5.642  0.6290 -0.6589  0.9149
 1567SOL     OW16162   4.156   2.373  15.971 -0.5043 -0.0300  0.5854
 1567SOL    HW116163   4.163   2.312  15.898  0.2318  0.1594  0.4953
 1567SOL    HW216164   4.195   2.451  15.931 -1.2429 -0.8191 -1.6584
 1568SOL     OW16165   3.520   1.808   8.544 -0.4076 -0.1528  0.6067
 1568SOL    HW116166   3.444   1.753   8.525  2.1008 -3.0337 -1.1750
 1568SOL    HW216167   3.488   1.898   8.538 -1.9315 -0.7117  0.5041
 1569SOL     OW16168   3.262   3.838   3.380  0.5325  0.0984  0.4539
 1569SOL    HW116169   3.210   3.856   3.301  1.9171  2.0314 -0.0376
 1569SOL    HW216170   3.263   3.928   3.414 -2.4186  0.3332 -0.0886
 1570SOL     OW16171   2.280   2.056   7.482 -0.2566  0.1473  0.0995
 1570SOL    HW116172   2.347   2.069   7.549 -0.0150  0.9631 -0.3006
 1570SOL    HW216173   2.299   2.132   7.426  2.6543 -0.4715  0.2406
 1571SOL     OW16174   1.585   3.889   3.987  0.0605 -0.1954 -0.1862
 1571SOL    HW116175   1.627   3.885   4.072 -0.0804 -0.0254 -0.1091
 1571SOL    HW216176   1.511   3.948   4.000  1.1256  1.0290  0.2064
 1572SOL     OW16177   3.463   1.538   7.064  0.3481 -1.0051  0.0867
 1572SOL    HW116178   3.525   1.490   7.008 -0.1481  0.2733 -1.5429
 1572SOL    HW216179   3.413   1.461   7.092 -3.5503  2.1692  1.7747
 1573SOL     OW16180   3.559   2.629   9.069 -0.2944  0.1689  0.0080
 1573SOL    HW116181   3.516   2.559   9.020 -1.4310  1.5814 -1.0283
 1573SOL    HW216182   3.579   2.573   9.144  1.3161  1.4855  0.5552
 1574SOL     OW16183   1.743   4.000   1.736  0.2022 -0.1094  0.5455
 1574SOL    HW116184   1.693   4.033   1.810  0.2309  2.0355 -0.3919
 1574SOL    HW216185   1.760   3.908   1.757 -0.2328 -0.4255 -0.4890
 1575SOL     OW16186   4.521   1.485  10.248 -0.2431  0.3803 -0.3906
 1575SOL    HW116187   4.438   1.439  10.248  0.2643 -0.5383 -1.3694
 1575SOL    HW216188   4.516   1.533  10.331  1.7033  0.0814 -0.0868
 1576SOL     OW16189   0.106   0.565   8.138  0.1221  0.4758  0.4581
 1576SOL    HW116190   0.066   0.525   8.215 -0.4912  1.4999  0.6811
 1576SOL    HW216191   0.044   0.535   8.071  1.8976  2.5906 -2.1334
 1577SOL     OW16192   1.609   3.611   0.016 -0.1866  0.0937 -0.6036
 1577SOL    HW116193   1.643   3.633   0.103  1.3651  0.6593 -1.3667
 1577SOL    HW216194   1.518   3.603   0.047  0.1052 -0.6970  0.0607
 1578SOL     OW16195   3.694   2.134  14.783  0.0962  0.0504  0.4281
 1578SOL    HW116196   3.772   2.176  14.747 -0.8172  0.2801 -1.2781
 1578SOL    HW216197   3.632   2.206  14.774  1.0835  0.9271  0.7124
 1579SOL     OW16198   3.656   1.532   3.975 -0.1666 -0.2236  0.0739
 1579SOL    HW116199   3.675   1.501   4.064  0.8990  0.8943  0.2312
 1579SOL    HW216200   3.561   1.520   3.969 -0.3003  1.6788 -1.3084
 1580SOL     OW16201   2.449   0.264   2.762  0.3280 -0.4409 -0.2031
 1580SOL    HW116202   2.371   0.238   2.714  0.2292 -1.7136  0.6315
 1580SOL    HW216203   2.506   0.314   2.704  2.5959 -2.5307  0.2050
 1581SOL     OW16204   1.186   4.601  16.997  0.0421  0.0838 -0.2274
 1581SOL    HW116205   1.162   4.548  16.921 -1.0981  3.2629 -2.0664
 1581SOL    HW216206   1.118   4.667  17.011 -1.3462 -1.2020 -0.8839
 1582SOL     OW16207   1.004   0.762   7.384 -0.4428 -0.3684  0.0158
 1582SOL    HW116208   0.958   0.813   7.318  1.4202  0.0572 -0.9307
 1582SOL    HW216209   0.933   0.744   7.446  0.8004 -0.6252  1.3548
 1583SOL     OW16210   1.281   2.447   7.123  0.5704 -0.1479  0.3665
 1583SOL    HW116211   1.284   2.445   7.028  0.3907 -1.4411  0.3888
 1583SOL    HW216212   1.354   2.389   7.144  1.0089  0.3366  0.1851
 1584SOL     OW16213   2.892   1.196   9.479  0.1479  0.2313  0.1821
 1584SOL    HW116214   2.859   1.286   9.475  1.6286  0.7517 -0.3767
 1584SOL    HW216215   2.879   1.174   9.387 -0.3932  0.2289  0.2624
 1585SOL     OW16216   0.731   3.494   3.633  0.6497  1.0698 -0.0904
 1585SOL    HW116217   0.744   3.412   3.682 -1.6883 -0.3840 -1.9275
 1585SOL    HW216218   0.725   3.561   3.701 -0.9726 -0.1033  0.9218
 1586SOL     OW16219   4.178   4.619  17.567  0.2323 -0.1079  0.6597
 1586SOL    HW116220   4.133   4.622  17.651  0.2042 -0.7643  0.6649
 1586SOL    HW216221   4.262   4.582  17.594  0.3790 -2.2814 -2.8392
 1587SOL     OW16222   2.921   3.260   2.475 -0.3635 -0.8218  0.7666
 1587SOL    HW116223   2.947   3.351   2.488  1.2947 -0.8800 -2.2256
 1587SOL    HW216224   2.944   3.253   2.382 -1.8314 -1.3314  0.4438
 1588SOL     OW16225   4.610   1.364   6.015 -0.2190  0.1132 -0.0950
 1588SOL    HW116226   4.543   1.327   6.071  1.1724 -2.3602 -0.0603
 1588SOL    HW216227   4.679   1.382   6.079 -0.9773  2.0309  0.1794
 1589SOL     OW16228   2.226   4.342   8.265  0.3966  0.3739  0.7056
 1589SOL    HW116229   2.159   4.333   8.197  0.7663 -1.6564  0.6237
 1589SOL    HW216230   2.296   4.372   8.208 -0.5502  3.7853  1.3087
 1590SOL     OW16231   4.238   3.453   1.936 -0.0891  0.1754  0.0260
 1590SOL    HW116232   4.253   3.526   1.875 -0.1591  1.8172  1.9570
 1590SOL    HW216233   4.255   3.385   1.871  3.0504  0.0622  0.9158
 1591SOL     OW16234   0.814   3.891   8.491 -0.5027 -0.3316 -0.4507
 1591SOL    HW116235   0.814   3.893   8.395  0.8402 -1.3492 -0.4777
 1591SOL    HW216236   0.848   3.803   8.507  0.7154  0.1548 -0.3672
 1592SOL     OW16237   2.326   3.908   9.024  0.4033 -0.4030  0.7408
 1592SOL    HW116238   2.298   3.828   8.978 -0.8015 -0.5123  1.6789
 1592SOL    HW216239   2.263   3.974   8.996 -1.6994 -2.4753  0.6118
 1593SOL     OW16240   4.383   2.130  11.477  0.5813 -0.4207  0.4233
 1593SOL    HW116241   4.343   2.202  11.429 -1.4589 -1.4923  0.5169
 1593SOL    HW216242   4.343   2.054  11.435  0.6962 -1.0228  1.3923
 1594SOL     OW16243   1.376   3.936   8.132 -0.2072 -0.3350 -0.4544
 1594SOL    HW116244   1.372   3.936   8.036 -0.4225  0.5747 -0.4528
 1594SOL    HW216245   1.458   3.892   8.151  0.4956  1.4651  0.6588
 1595SOL     OW16246   0.741   0.047   4.093  0.5702  0.6012 -0.2683
 1595SOL    HW116247   0.795   0.126   4.105  0.7055  0.2460  1.4562
 1595SOL    HW216248   0.809   4.704   4.105 -0.6616 -0.5525  0.2629
 1596SOL     OW16249   1.060   2.329   3.087  0.3192  0.2380 -0.8887
 1596SOL    HW116250   1.070   2.340   2.992 -1.8232 -1.9668 -1.3825
 1596SOL    HW216251   0.971   2.297   3.101  1.3175 -1.8165  0.5691
 1597SOL     OW16252   4.288   2.902   3.090  0.3521 -0.3388  0.3775
 1597SOL    HW116253   4.273   2.944   3.175 -0.7711 -1.3322  0.6626
 1597SOL    HW216254   4.329   2.820   3.118 -3.7527 -2.4903  0.0824
 1598SOL     OW16255   0.288   3.780   8.053 -0.3646 -0.2092  0.3073
 1598SOL    HW116256   0.298   3.872   8.032  0.7109 -0.3597  0.1823
 1598SOL    HW216257   0.287   3.787   8.149  1.8986 -0.9831  0.3826
 1599SOL     OW16258   3.790   0.738  14.578 -0.4857 -0.2706  0.0400
 1599SOL    HW116259   3.796   0.679  14.503  2.2892 -0.3050  0.2636
 1599SOL    HW216260   3.810   0.670  14.642 -1.0583 -1.0672 -0.6170
 1600SOL     OW16261   2.131   3.312   7.486 -0.4763 -0.1141 -0.0896
 1600SOL    HW116262   2.069   3.239   7.486 -1.6186  0.8659  2.4459
 1600SOL    HW216263   2.150   3.314   7.579  0.0214 -1.4362 -0.1680
 1601SOL     OW16264   1.586   3.623   3.065 -0.1022 -0.6644 -0.0006
 1601SOL    HW116265   1.587   3.537   3.107 -1.3675 -0.4863  0.3907
 1601SOL    HW216266   1.499   3.619   3.026 -1.2139  0.0831  2.3941
 1602SOL     OW16267   3.744   4.072   1.811 -0.5431 -0.2367 -0.0477
 1602SOL    HW116268   3.669   4.109   1.858 -1.6057 -0.6242 -1.4443
 1602SOL    HW216269   3.787   4.056   1.895 -0.3860  0.3103 -0.0265
 1603SOL     OW16270   0.740   2.096   4.731 -0.2774 -0.4383  0.0230
 1603SOL    HW116271   0.704   2.010   4.755  0.7468 -1.6108 -2.6526
 1603SOL    HW216272   0.692   2.108   4.649 -3.1754  0.5764  1.8668
 1604SOL     OW16273   0.559   0.585   3.784 -0.1818  0.0058  0.8835
 1604SOL    HW116274   0.584   0.509   3.837  0.2699 -2.0786 -2.3805
 1604SOL    HW216275   0.641   0.608   3.739  0.6433  0.4261  2.5903
 1605SOL     OW16276   2.704   1.923   4.519  0.3012 -0.7628  0.3117
 1605SOL    HW116277   2.744   1.894   4.602 -0.9928 -2.2511  0.4085
 1605SOL    HW216278   2.757   1.896   4.445 -1.2533  2.1797 -1.8546
 1606SOL     OW16279   2.273   0.724   7.724  0.0822 -0.3938  0.0670
 1606SOL    HW116280   2.207   0.720   7.655  0.4576  1.6829 -0.4236
 1606SOL    HW216281   2.282   0.818   7.739  0.8297 -0.2699 -1.1099
 1607SOL     OW16282   3.361   3.996   9.429  0.1727 -0.0719  0.0621
 1607SOL    HW116283   3.454   3.984   9.446  0.7432 -1.4002 -3.8936
 1607SOL    HW216284   3.326   3.914   9.464 -0.7332  0.8009  1.2284
 1608SOL     OW16285   0.147   0.164   3.859  0.2964 -0.5295 -0.6698
 1608SOL    HW116286   0.056   0.142   3.838  0.9696 -2.2036 -1.7781
 1608SOL    HW216287   0.201   0.092   3.827 -0.8454 -0.7731 -2.0503
 1609SOL     OW16288   0.700   1.961   7.593 -0.3037  0.2798  0.2298
 1609SOL    HW116289   0.710   1.867   7.604 -2.9300  0.1036  1.0745
 1609SOL    HW216290   0.786   1.987   7.560 -0.4965  1.7955  0.9043
 1610SOL     OW16291   2.866   0.004   5.835 -0.4081 -0.2701  0.1974
 1610SOL    HW116292   2.948   4.703   5.877  0.5647  0.5006 -1.2258
 1610SOL    HW216293   2.803   4.675   5.884  0.8019 -1.6407  0.2782
 1611SOL     OW16294   0.531   0.941  15.463  0.1342 -0.3521  0.0917
 1611SOL    HW116295   0.537   0.888  15.383 -1.0721 -1.2319  0.5795
 1611SOL    HW216296   0.459   1.000  15.442  0.2196 -1.5950 -3.6774
 1612SOL     OW16297   0.399   2.677   8.195  0.2019  0.6041 -0.1940
 1612SOL    HW116298   0.328   2.696   8.256 -0.3567  1.5205 -1.1373
 1612SOL    HW216299   0.409   2.766   8.161  1.6241  0.8729  0.9268
 1613SOL     OW16300   2.195   2.393   1.578  0.1330  0.3043 -0.3469
 1613SOL    HW116301   2.107   2.423   1.602  0.0282  0.2214 -0.6343
 1613SOL    HW216302   2.182   2.314   1.526  1.1996 -2.0887  3.0078
 1614SOL     OW16303   3.840   1.403   5.962 -0.2743 -0.1068  0.1207
 1614SOL    HW116304   3.927   1.414   5.999 -0.9967  0.7107  1.5819
 1614SOL    HW216305   3.805   1.492   5.956 -0.0826 -0.0125  0.3837
 1615SOL     OW16306   3.473   1.835   2.255 -0.1730 -0.0318  0.4106
 1615SOL    HW116307   3.411   1.902   2.285 -1.6865 -0.4042 -1.8763
 1615SOL    HW216308   3.505   1.809   2.341  0.3702  2.7804  1.0318
 1616SOL     OW16309   2.286   1.843   7.012  0.1246  0.0829  0.2638
 1616SOL    HW116310   2.194   1.833   6.985  0.6367 -1.2807 -0.9755
 1616SOL    HW216311   2.311   1.751   7.022 -1.0229 -0.1300  1.3180
 1617SOL     OW16312   3.386   2.646   4.190 -0.7351  0.3184 -0.1425
 1617SOL    HW116313   3.291   2.656   4.189 -0.9372 -1.6720 -1.1466
 1617SOL    HW216314   3.403   2.576   4.253 -0.4055 -0.3273 -0.9553
 1618SOL     OW16315   1.774   2.113   2.164  0.5358 -0.8797 -0.0505
 1618SOL    HW116316   1.697   2.135   2.216  0.7535 -0.9391  0.2957
 1618SOL    HW216317   1.786   2.197   2.119  2.1357 -1.6774 -1.0990
 1619SOL     OW16318   2.801   1.081   6.372 -0.5934 -0.1545 -0.0068
 1619SOL    HW116319   2.749   1.103   6.294 -0.5187  2.4653  0.6743
 1619SOL    HW216320   2.880   1.134   6.360  0.2845 -1.6651 -0.9921
 1620SOL     OW16321   0.760   0.005   6.449  0.6742  0.3823  0.7325
 1620SOL    HW116322   0.715   0.057   6.515  1.1028 -0.2545  1.5281
 1620SOL    HW216323   0.852   0.014   6.473  0.7547 -1.6082  1.1386
 1621SOL     OW16324   3.607   4.038   8.001 -0.1514  0.4729  0.4415
 1621SOL    HW116325   3.654   4.046   8.084  1.5175 -2.4830 -0.1781
 1621SOL    HW216326   3.550   3.963   8.017  1.7611 -1.0387  0.2193
 1622SOL     OW16327   1.299   4.249   2.441  0.1879 -0.0473  0.4157
 1622SOL    HW116328   1.303   4.339   2.473  0.7394  0.0537  0.0673
 1622SOL    HW216329   1.374   4.211   2.488  0.6329 -0.3622 -0.5463
 1623SOL     OW16330   0.536   2.580   9.407  0.0693  0.2357 -0.1360
 1623SOL    HW116331   0.556   2.523   9.333  2.1064  1.3791 -0.4922
 1623SOL    HW216332   0.562   2.530   9.484  0.3502  0.5446 -0.0283
 1624SOL     OW16333   1.660   2.718   2.749 -0.2636  0.3862 -0.1207
 1624SOL    HW116334   1.594   2.717   2.680  0.5596 -3.2054 -0.8307
 1624SOL    HW216335   1.736   2.756   2.704 -0.1281 -0.8379 -0.9001
 1625SOL     OW16336   3.946   0.473   5.434 -0.0703  0.3609 -0.6568
 1625SOL    HW116337   4.029   0.434   5.465  0.3068  1.9662  0.3737
 1625SOL    HW216338   3.972   0.501   5.346 -1.9428  0.1708 -1.2537
 1626SOL     OW16339   3.151   0.906   8.376  0.3767  0.1765 -0.4609
 1626SOL    HW116340   3.107   0.969   8.433  1.0215 -1.5141  1.9147
 1626SOL    HW216341   3.165   0.834   8.438 -1.1977 -0.2371 -0.5901
 1627SOL     OW16342   4.030   3.791  14.818  0.6458  0.1074  0.5730
 1627SOL    HW116343   4.013   3.786  14.912  3.5022  0.6335  1.1234
 1627SOL    HW216344   4.098   3.724  14.821  0.4837 -0.0623  0.4647
 1628SOL     OW16345   4.041   4.503   3.112  0.0191  0.0669 -0.1022
 1628SOL    HW116346   4.020   4.554   3.190  0.3649  1.3502 -0.8471
 1628SOL    HW216347   4.014   4.416   3.141 -2.2015  0.5751 -0.6131
 1629SOL     OW16348   2.118   4.295   9.191  0.2630  0.0499 -0.6482
 1629SOL    HW116349   2.053   4.365   9.193 -0.3108 -0.4721 -1.0114
 1629SOL    HW216350   2.198   4.340   9.162  0.8973 -0.7463 -0.1518
 1630SOL     OW16351   1.674   0.312   3.645  0.4008 -0.0455 -0.0495
 1630SOL    HW116352   1.705   0.382   3.702  0.3613  0.8904 -1.1863
 1630SOL    HW216353   1.741   0.244   3.657  0.0317 -0.1585  1.4236
 1631SOL     OW16354   1.789   1.304  15.988  0.1368 -0.1321  0.1361
 1631SOL    HW116355   1.759   1.342  16.070  0.7082  0.3396  0.1226
 1631SOL    HW216356   1.711   1.250  15.974  1.0589 -1.3779 -0.2305
 1632SOL     OW16357   1.611   2.389  13.093  0.0849 -0.5042 -0.7319
 1632SOL    HW116358   1.516   2.383  13.090  0.1255 -1.6438  0.2101
 1632SOL    HW216359   1.638   2.313  13.041 -2.3529 -0.4360 -2.0958
 1633SOL     OW16360   0.682   0.057   4.437  0.0295  0.3547  0.2222
 1633SOL    HW116361   0.636   0.076   4.356  0.4649  0.4910  0.0055
 1633SOL    HW216362   0.766   0.094   4.409  0.5150 -1.2058 -0.4065
 1634SOL     OW16363   0.570   3.891   7.969  0.2755  0.2868  0.3677
 1634SOL    HW116364   0.526   3.813   7.936  2.5806 -1.6628  1.8481
 1634SOL    HW216365   0.503   3.955   7.949  0.2065  0.3778  0.8820
 1635SOL     OW16366   3.199   1.035   7.387 -0.3747 -0.6092 -0.0017
 1635SOL    HW116367   3.256   1.078   7.450 -2.1058 -0.2161  1.2870
 1635SOL    HW216368   3.179   1.116   7.339  0.8905  0.4631  1.2922
 1636SOL     OW16369   1.736   0.625   9.318 -0.3810 -0.1329 -0.8084
 1636SOL    HW116370   1.714   0.547   9.266  0.8254 -0.7338 -0.4183
 1636SOL    HW216371   1.777   0.585   9.394 -0.8069 -0.1191 -0.5706
 1637SOL     OW16372   4.317   2.798  14.382  0.0797 -0.8663 -0.0094
 1637SOL    HW116373   4.268   2.794  14.464 -1.6194 -1.5993 -1.0448
 1637SOL    HW216374   4.375   2.874  14.387  0.2280 -1.0286  0.7248
 1638SOL     OW16375   0.053   4.155   7.076 -0.3309  0.2875 -0.0730
 1638SOL    HW116376   4.696   4.103   7.073 -0.6651  0.8536 -0.8753
 1638SOL    HW216377   0.020   4.213   7.145 -1.2461  0.1004 -0.3494
 1639SOL     OW16378   4.370   3.875  17.546  0.9951 -0.0857 -0.4023
 1639SOL    HW116379   4.440   3.860  17.610 -1.1278  2.5114  2.5465
 1639SOL    HW216380   4.369   3.795  17.494 -0.2182 -1.4590  1.7388
 1640SOL     OW16381   2.324   3.638   2.209 -0.4186 -0.6385  0.1418
 1640SOL    HW116382   2.397   3.665   2.265 -1.2057  1.5800  0.0965
 1640SOL    HW216383   2.312   3.549   2.240 -1.9726  0.0707  1.5017
 1641SOL     OW16384   1.600   0.939   6.943 -0.5049  0.4552  0.3967
 1641SOL    HW116385   1.651   1.020   6.933 -0.8159  0.5769 -0.2287
 1641SOL    HW216386   1.573   0.956   7.033  1.7204 -0.4833  1.2457
 1642SOL     OW16387   4.365   3.846   6.868  0.0069 -0.1553  0.7425
 1642SOL    HW116388   4.376   3.760   6.828 -0.7574  0.3330 -0.5422
 1642SOL    HW216389   4.331   3.892   6.791  2.1268  0.6180  0.2451
 1643SOL     OW16390   3.614   3.485   7.643 -0.7016 -0.0208 -0.3151
 1643SOL    HW116391   3.636   3.578   7.647  1.4571 -0.5555  0.1381
 1643SOL    HW216392   3.556   3.473   7.719  0.1662  2.2451  0.7052
 1644SOL     OW16393   4.242   0.349   8.431  0.2319 -0.0266 -0.6413
 1644SOL    HW116394   4.184   0.298   8.374 -1.1655  0.1065  0.6473
 1644SOL    HW216395   4.176   0.359   8.500  0.9010 -2.2112  0.3036
 1645SOL     OW16396   2.273   1.805   3.887 -0.6938  0.2549  0.3556
 1645SOL    HW116397   2.185   1.791   3.850 -1.5296  2.9174  1.3330
 1645SOL    HW216398   2.264   1.824   3.980  2.7505 -0.3459  0.7997
 1646SOL     OW16399   0.128   3.890   8.693 -0.5764  0.0810 -0.0986
 1646SOL    HW116400   0.156   3.798   8.687 -0.5714  0.1609 -1.3197
 1646SOL    HW216401   0.202   3.931   8.737 -0.9434  0.3891  0.2306
 1647SOL     OW16402   3.582   2.924  14.087 -0.0312 -0.0489 -0.1267
 1647SOL    HW116403   3.610   3.001  14.037 -0.6941  0.3729  0.1392
 1647SOL    HW216404   3.645   2.854  14.073  0.4981  0.4665 -0.3017
 1648SOL     OW16405   4.393   4.419   4.644  0.2398 -0.1232 -0.0820
 1648SOL    HW116406   4.320   4.373   4.686  0.1830 -0.7368 -0.8588
 1648SOL    HW216407   4.334   4.436   4.570  0.5697  0.3075 -0.2459
 1649SOL     OW16408   3.375   4.360   0.886 -0.8217 -0.3896  0.5133
 1649SOL    HW116409   3.386   4.336   0.794  0.3166  1.0714  0.2611
 1649SOL    HW216410   3.380   4.454   0.871 -1.6703 -0.6280 -1.2843
 1650SOL     OW16411   2.060   1.445   3.370 -0.8738 -0.0694  0.2083
 1650SOL    HW116412   2.014   1.363   3.353  1.8587 -1.6896  0.6422
 1650SOL    HW216413   1.997   1.491   3.426 -1.5568  0.4278 -0.9600
 1651SOL     OW16414   0.244   3.106  14.489  0.2599 -0.5485 -0.0386
 1651SOL    HW116415   0.318   3.047  14.502  1.2182  0.9585  1.2361
 1651SOL    HW216416   0.183   3.040  14.455  0.4811 -0.8042  0.0623
 1652SOL     OW16417   2.531   2.193  11.828  0.6261  0.3100 -0.5285
 1652SOL    HW116418   2.533   2.191  11.924 -1.1422  2.1929 -0.4533
 1652SOL    HW216419   2.620   2.162  11.813  1.1059  0.9572  0.9222
 1653SOL     OW16420   0.452   1.971   0.289  0.2816  0.0359  0.5175
 1653SOL    HW116421   0.518   1.901   0.293 -0.4050 -0.5457  1.6701
 1653SOL    HW216422   0.421   1.973   0.198 -1.3324  0.1139  1.0739
 1654SOL     OW16423   2.786   4.600   4.563  0.0870  0.0865 -0.1866
 1654SOL    HW116424   2.758   4.664   4.629 -0.5465 -1.1622  0.7577
 1654SOL    HW216425   2.707   4.548   4.551 -2.1221  3.2922  0.4301
 1655SOL     OW16426   2.458   2.328   1.444  0.1331 -0.7399  0.4272
 1655SOL    HW116427   2.403   2.381   1.501  0.1896  1.5866 -1.6478
 1655SOL    HW216428   2.445   2.242   1.484 -0.1664 -0.2583  1.3566
 1656SOL     OW16429   1.690   3.371   2.257  0.1744 -0.2564  0.5462
 1656SOL    HW116430   1.744   3.327   2.323 -0.9531  0.8081  2.1909
 1656SOL    HW216431   1.650   3.290   2.226 -0.0099  0.3480 -0.7677
 1657SOL     OW16432   2.242   3.258   3.740 -0.0355 -0.4963 -0.2887
 1657SOL    HW116433   2.311   3.269   3.806  1.7553 -1.8212 -1.9159
 1657SOL    HW216434   2.213   3.169   3.759 -0.9747 -0.4368 -1.4630
 1658SOL     OW16435   0.752   1.989   5.412  0.7768 -0.4113  0.3566
 1658SOL    HW116436   0.799   1.907   5.426  0.1363 -0.7255  0.6821
 1658SOL    HW216437   0.709   2.007   5.496  0.0746  2.5559 -0.6478
 1659SOL     OW16438   2.595   4.314  10.490  0.1477  0.0096 -0.1318
 1659SOL    HW116439   2.540   4.298  10.567 -1.4791  1.1387 -1.0658
 1659SOL    HW216440   2.640   4.230  10.502  2.4815  1.2436 -0.2313
 1660SOL     OW16441   0.444   0.852   6.447 -0.0785  0.0024 -0.0549
 1660SOL    HW116442   0.366   0.894   6.484 -0.1354  0.1658 -0.3608
 1660SOL    HW216443   0.451   0.785   6.515 -1.3294 -1.2667 -1.1983
 1661SOL     OW16444   4.405   0.662   0.012  0.2571  0.0953  0.5639
 1661SOL    HW116445   4.429   0.702   0.096  0.4656 -2.4113  1.7101
 1661SOL    HW216446   4.309   0.656   0.013  0.2142  0.8830  2.7744
 1662SOL     OW16447   2.951   0.025   7.713 -0.5119 -0.0526  0.7044
 1662SOL    HW116448   2.914   0.069   7.790 -1.6484  0.7759 -0.3128
 1662SOL    HW216449   2.988   4.669   7.752 -0.8062 -0.5918 -0.1351
 1663SOL     OW16450   0.270   0.886  13.215  0.3755  0.3569 -0.2157
 1663SOL    HW116451   0.253   0.976  13.243 -0.6760  0.3314 -0.7795
 1663SOL    HW216452   0.214   0.865  13.141  0.8624 -0.1999 -0.4355
 1664SOL     OW16453   2.102   4.138   4.453 -0.0630  0.4090  0.0366
 1664SOL    HW116454   2.078   4.110   4.541  2.1371 -0.3476  0.4006
 1664SOL    HW216455   2.190   4.173   4.464  0.1589  0.1117 -0.8245
 1665SOL     OW16456   3.820   1.057   4.943 -0.1858  0.1266  0.3202
 1665SOL    HW116457   3.735   1.048   4.901  1.5525 -0.4864 -3.0683
 1665SOL    HW216458   3.806   1.050   5.038  1.9704 -1.0230  0.5671
 1666SOL     OW16459   2.833   1.198  12.094  0.0917  0.1880 -0.3264
 1666SOL    HW116460   2.765   1.260  12.068 -0.4561 -1.4026 -2.7084
 1666SOL    HW216461   2.842   1.146  12.014  1.5963  3.0060 -1.9908
 1667SOL     OW16462   3.472   0.149   7.272  0.2097 -0.0823  0.0354
 1667SOL    HW116463   3.530   0.175   7.200 -0.9222  0.5869 -0.6565
 1667SOL    HW216464   3.383   0.148   7.236  0.0738  1.3480  0.3266
 1668SOL     OW16465   1.022   1.886   8.409 -0.0721 -0.0681  0.0529
 1668SOL    HW116466   0.952   1.819   8.410 -0.2023  0.0618 -0.3209
 1668SOL    HW216467   0.987   1.935   8.483 -0.0646  0.9100 -0.5833
 1669SOL     OW16468   4.175   0.208   8.199  0.2643 -0.4877  0.2418
 1669SOL    HW116469   4.237   0.230   8.129  1.1444 -0.7640  0.9454
 1669SOL    HW216470   4.095   0.205   8.147  0.3110  0.7855  0.0805
 1670SOL     OW16471   1.298   3.982  14.649 -0.2841  0.0673 -0.3534
 1670SOL    HW116472   1.364   3.918  14.678  1.2030  1.7706 -0.0131
 1670SOL    HW216473   1.226   3.921  14.634 -0.8144  0.5875  0.1054
 1671SOL     OW16474   4.605   3.489   7.192 -0.2495 -0.1831 -0.1943
 1671SOL    HW116475   4.683   3.436   7.177  0.6404  1.0024  0.1877
 1671SOL    HW216476   4.541   3.456   7.129 -1.5084  0.7427  0.6018
 1672SOL     OW16477   3.422   1.057   6.131 -0.6906  0.0443 -0.0289
 1672SOL    HW116478   3.478   1.127   6.096  2.0842 -2.3141 -0.3632
 1672SOL    HW216479   3.489   1.015   6.184  0.0164 -0.0193 -0.9590
 1673SOL     OW16480   2.852   3.728   8.184  0.3028 -0.3766  0.3786
 1673SOL    HW116481   2.897   3.655   8.227 -1.6399 -0.9930  1.3924
 1673SOL    HW216482   2.792   3.687   8.121  0.3453  0.5046 -0.2301
 1674SOL     OW16483   1.249   3.257   9.233  0.0687  0.3623 -0.3367
 1674SOL    HW116484   1.325   3.286   9.284 -0.3850 -1.3794  1.3192
 1674SOL    HW216485   1.297   3.191   9.184 -1.2856 -0.1559 -0.9547
 1675SOL     OW16486   3.447   0.417   3.571 -0.2590 -0.2253  0.1868
 1675SOL    HW116487   3.386   0.487   3.546 -1.0665 -1.3822 -1.0462
 1675SOL    HW216488   3.449   0.434   3.665 -0.7858 -1.0976  0.3507
 1676SOL     OW16489   1.435   4.168   3.607 -0.9015  0.0530 -0.0464
 1676SOL    HW116490   1.433   4.085   3.655  1.2529 -0.4851 -0.9219
 1676SOL    HW216491   1.469   4.235   3.667 -1.1913 -0.8914  1.1840
 1677SOL     OW16492   2.504   3.830   7.076  0.1604  0.0216 -0.1821
 1677SOL    HW116493   2.510   3.893   7.148  0.9816 -0.4310  0.1480
 1677SOL    HW216494   2.585   3.783   7.099 -0.6614 -1.9504 -1.3100
 1678SOL     OW16495   4.605   2.690   2.686  0.8048 -0.0788  0.4105
 1678SOL    HW116496   4.608   2.777   2.725 -2.2073 -0.1176  0.7767
 1678SOL    HW216497   4.592   2.714   2.594  1.5270  0.0008  0.3288
 1679SOL     OW16498   0.653   2.085   8.192  0.2750 -0.1100  0.6152
 1679SOL    HW116499   0.717   2.025   8.155  1.0621  1.5830 -0.7817
 1679SOL    HW216500   0.582   2.023   8.209 -0.3128  0.6937  1.1437
 1680SOL     OW16501   2.723   3.497   2.280 -0.7267  0.0138  0.0980
 1680SOL    HW116502   2.715   3.591   2.261  1.0898  0.0175 -0.7325
 1680SOL    HW216503   2.695   3.450   2.202  2.6439 -1.2675 -0.3583
 1681SOL     OW16504   1.721   4.277   7.479 -0.0359  0.2386  0.1585
 1681SOL    HW116505   1.765   4.335   7.416  0.5099 -1.1666 -0.7346
 1681SOL    HW216506   1.788   4.282   7.548 -0.9971  1.5424  1.0018
 1682SOL     OW16507   1.938   2.324  17.614 -0.2449 -0.3083  0.4400
 1682SOL    HW116508   1.982   2.239  17.614 -0.1692 -0.2690  0.3437
 1682SOL    HW216509   1.991   2.372  17.550  0.3390 -1.3438  0.1553
 1683SOL     OW16510   3.990   0.209   5.199  0.0141  0.5223  0.3366
 1683SOL    HW116511   4.037   0.159   5.132 -1.8130 -0.8958  0.1253
 1683SOL    HW216512   3.983   0.297   5.163 -1.3013  0.4925  0.5297
 1684SOL     OW16513   0.039   1.861   7.295 -0.0956 -0.1647 -0.3653
 1684SOL    HW116514   4.693   1.800   7.272  0.5698 -0.2532 -2.1371
 1684SOL    HW216515   0.090   1.802   7.351 -1.6717  1.3497  2.6893
 1685SOL     OW16516   2.863   3.722  15.461 -0.2950 -1.0314 -0.2512
 1685SOL    HW116517   2.900   3.637  15.485 -1.4135 -1.9406 -1.7439
 1685SOL    HW216518   2.792   3.691  15.405 -0.2594  0.5236 -1.1460
 1686SOL     OW16519   1.326   1.389   9.006 -0.0164  0.0836 -0.0827
 1686SOL    HW116520   1.234   1.383   8.978  0.8757  1.7149 -3.3889
 1686SOL    HW216521   1.326   1.483   9.023  1.0232  0.4192 -1.9985
 1687SOL     OW16522   3.328   3.631   5.928 -0.3801 -0.3162  0.7343
 1687SOL    HW116523   3.246   3.655   5.885  0.0322 -1.1640 -0.5169
 1687SOL    HW216524   3.375   3.714   5.920 -0.1626 -0.4778  0.3912
 1688SOL     OW16525   0.294   3.306   5.390 -0.8931  0.6292 -0.1742
 1688SOL    HW116526   0.208   3.278   5.360  0.0544 -1.5503 -0.8248
 1688SOL    HW216527   0.310   3.391   5.347  3.1360  0.6733  1.4560
 1689SOL     OW16528   1.467   4.149   5.676  0.2217 -0.2277 -0.0241
 1689SOL    HW116529   1.553   4.176   5.708  0.8954 -0.0467 -1.9786
 1689SOL    HW216530   1.431   4.120   5.760  1.1228  1.1696  0.8355
 1690SOL     OW16531   2.616   0.058   4.701 -0.3060 -0.0209  0.9439
 1690SOL    HW116532   2.566   0.122   4.752 -0.0154  1.1870 -0.3011
 1690SOL    HW216533   2.560   0.067   4.624  0.8708 -1.0732 -0.0482
 1691SOL     OW16534   0.442   2.647   7.473  0.1383  0.0123  0.1991
 1691SOL    HW116535   0.387   2.574   7.502  1.4916 -0.8391  0.5990
 1691SOL    HW216536   0.531   2.635   7.504  0.6170  1.5387 -0.5660
 1692SOL     OW16537   0.327   1.382   5.887 -0.3943  0.2719 -0.1843
 1692SOL    HW116538   0.241   1.339   5.889 -0.1049 -0.2873  0.0874
 1692SOL    HW216539   0.379   1.325   5.944 -1.8420 -0.6076  0.2835
 1693SOL     OW16540   4.275   0.824   6.655 -0.0540  0.0573  0.5319
 1693SOL    HW116541   4.225   0.801   6.733  0.3632 -1.7037  0.2786
 1693SOL    HW216542   4.300   0.737   6.623  0.7027  0.6871 -0.6243
 1694SOL     OW16543   4.419   3.508   2.514 -0.4476  0.0006  0.5149
 1694SOL    HW116544   4.492   3.569   2.521 -0.6562  0.3033  0.0734
 1694SOL    HW216545   4.423   3.468   2.600 -1.2785  0.1612  0.6305
 1695SOL     OW16546   4.138   2.938  10.436 -0.3452 -0.0079 -0.1821
 1695SOL    HW116547   4.102   2.946  10.347  1.4533  0.6646 -0.8567
 1695SOL    HW216548   4.062   2.970  10.484  0.2596  1.7914 -0.4228
 1696SOL     OW16549   4.195   1.941  15.494  0.2851  0.0219 -0.2101
 1696SOL    HW116550   4.130   1.934  15.423  1.7344 -4.1335 -1.1405
 1696SOL    HW216551   4.257   1.993  15.444  1.2769  1.4494  2.5352
 1697SOL     OW16552   1.029   1.158   6.528 -0.7620  0.2008  0.2641
 1697SOL    HW116553   1.007   1.068   6.501  0.7024 -0.6454  1.8498
 1697SOL    HW216554   1.074   1.178   6.446  1.7890 -2.2309  1.0824
 1698SOL     OW16555   0.404   3.425   8.253  0.1039 -0.0051 -0.1992
 1698SOL    HW116556   0.462   3.447   8.326  0.1547  2.1771 -0.9077
 1698SOL    HW216557   0.318   3.435   8.293 -0.3649 -0.6458 -1.0445
 1699SOL     OW16558   0.598   1.181   9.133  0.1799  0.3401  0.0416
 1699SOL    HW116559   0.684   1.152   9.164 -0.2348  0.9692  1.8001
 1699SOL    HW216560   0.551   1.223   9.206 -3.0363  0.3360 -2.0462
 1700SOL     OW16561   1.954   2.462   1.760 -0.4876 -0.9201  0.7161
 1700SOL    HW116562   2.007   2.472   1.839 -0.0921  1.5708  0.1412
 1700SOL    HW216563   1.880   2.412   1.796 -1.3474  1.0846  1.7349
 1701SOL     OW16564   3.219   0.437   2.734 -0.1850 -0.3299  0.0860
 1701SOL    HW116565   3.279   0.385   2.788 -1.4880  0.4452  2.3088
 1701SOL    HW216566   3.143   0.380   2.722 -0.3297 -0.3925  1.2439
 1702SOL     OW16567   4.307   2.664   2.694  0.3881  0.2293 -0.2194
 1702SOL    HW116568   4.389   2.711   2.708 -1.0739  2.1150  2.1132
 1702SOL    HW216569   4.311   2.655   2.599  0.5598  3.3059 -0.4910
 1703SOL     OW16570   4.096   3.172   8.808  0.0222 -0.2988 -0.3546
 1703SOL    HW116571   4.048   3.096   8.840  0.7986  0.3106  2.1897
 1703SOL    HW216572   4.040   3.198   8.734 -0.8172  0.2705  0.4766
 1704SOL     OW16573   4.090   3.102  15.850 -0.1893 -0.4288  0.1268
 1704SOL    HW116574   4.184   3.081  15.851 -0.4113 -1.3901  0.7696
 1704SOL    HW216575   4.043   3.019  15.857  0.2431 -0.8298 -1.9488
 1705SOL     OW16576   1.938   0.604   5.721  0.4151 -0.3339 -1.0391
 1705SOL    HW116577   1.950   0.669   5.791 -0.2250 -0.1452 -1.1035
 1705SOL    HW216578   1.935   0.522   5.771  0.5929  1.3751  1.8203
 1706SOL     OW16579   3.215   3.179  14.220 -0.3330  0.7760 -0.3055
 1706SOL    HW116580   3.252   3.253  14.269 -0.8894 -0.7068  2.3597
 1706SOL    HW216581   3.141   3.219  14.176 -1.0498 -0.4572 -0.2183
 1707SOL     OW16582   4.384   4.463   1.289 -0.1491 -0.4217 -0.3333
 1707SOL    HW116583   4.415   4.530   1.229 -3.8679 -0.0942 -1.8816
 1707SOL    HW216584   4.432   4.394   1.242 -1.2864 -0.5783 -1.2587
 1708SOL     OW16585   3.112   2.270  15.978 -0.1969  0.3838  0.4075
 1708SOL    HW116586   3.034   2.253  16.031 -0.2642  1.3592  0.6122
 1708SOL    HW216587   3.155   2.188  16.004  0.1178  1.0079  1.8660
 1709SOL     OW16588   2.856   0.008  17.323  0.2125  0.2705 -0.4538
 1709SOL    HW116589   2.761   4.722  17.317  0.4930 -0.7098 -3.1591
 1709SOL    HW216590   2.881   0.096  17.295  0.2884 -0.7056 -3.4131
 1710SOL     OW16591   2.632   3.177  16.596  0.1312 -0.0231 -0.2712
 1710SOL    HW116592   2.703   3.189  16.534  0.4339 -0.0575  0.0675
 1710SOL    HW216593   2.646   3.243  16.664 -3.0393 -1.1881  1.5390
 1711SOL     OW16594   1.618   0.397   5.769 -1.0304 -0.3075  0.0572
 1711SOL    HW116595   1.580   0.315   5.801  0.6541 -1.0067  0.2357
 1711SOL    HW216596   1.706   0.382   5.802 -0.3398  1.0147 -1.1805
 1712SOL     OW16597   1.389   0.272   2.900  0.2938 -0.0778 -0.6180
 1712SOL    HW116598   1.443   0.275   2.821  1.5071  0.5037  0.2294
 1712SOL    HW216599   1.453   0.288   2.969  1.4182  0.3014 -1.7383
 1713SOL     OW16600   0.773   3.386   9.602  0.1402 -0.7395  0.2283
 1713SOL    HW116601   0.804   3.296   9.598 -3.7030 -2.0112 -0.6947
 1713SOL    HW216602   0.767   3.389   9.698 -1.3876 -1.2730  0.1398
 1714SOL     OW16603   2.269   3.696   5.484  0.3538 -0.3434  0.4244
 1714SOL    HW116604   2.194   3.694   5.542 -1.5581  0.3702 -2.0014
 1714SOL    HW216605   2.346   3.703   5.539  0.9754 -2.9291 -0.0669
 1715SOL     OW16606   3.386   0.301   1.973 -0.6971 -0.7085 -0.3121
 1715SOL    HW116607   3.318   0.362   2.005 -0.3291 -0.7856  0.6273
 1715SOL    HW216608   3.349   0.280   1.888  0.0287 -0.5861 -0.6553
 1716SOL     OW16609   3.005   1.329  13.195 -0.1814  0.0017  0.1526
 1716SOL    HW116610   3.093   1.365  13.180 -0.3859  0.3618 -0.2061
 1716SOL    HW216611   2.995   1.252  13.139  0.9809  0.9548 -1.3616
 1717SOL     OW16612   1.219   3.510   8.066 -0.3195  0.1637 -0.1932
 1717SOL    HW116613   1.158   3.527   8.138 -1.1034 -1.3429 -0.4995
 1717SOL    HW216614   1.290   3.463   8.109 -1.3354 -3.4972 -2.4762
 1718SOL     OW16615   2.881   3.068   8.462 -0.4935  0.1374 -0.1684
 1718SOL    HW116616   2.925   2.990   8.496 -1.5376 -0.7489 -0.8691
 1718SOL    HW216617   2.873   3.049   8.369 -2.0859  2.6237 -0.5366
 1719SOL     OW16618   3.177   2.708   5.931  0.2742  0.0948  0.1083
 1719SOL    HW116619   3.203   2.710   6.023  0.5133  0.2131  0.0397
 1719SOL    HW216620   3.096   2.758   5.931 -0.1573 -0.6043 -1.3438
 1720SOL     OW16621   3.945   0.310   8.475  0.1226  0.1606  0.2416
 1720SOL    HW116622   3.937   0.214   8.480 -1.1859  0.2497 -0.0500
 1720SOL    HW216623   3.923   0.335   8.564  0.8558 -0.0395  0.4739
 1721SOL     OW16624   0.047   2.602   3.842 -0.2993 -0.6180  0.7381
 1721SOL    HW116625   0.117   2.536   3.847  0.4212  0.1359  0.6256
 1721SOL    HW216626   4.716   2.579   3.918  1.1126  1.7734  2.4666
 1722SOL     OW16627   2.849   0.953  12.276  0.1149  0.2702  0.4570
 1722SOL    HW116628   2.935   0.983  12.306  0.7676 -1.3650  0.2357
 1722SOL    HW216629   2.834   1.017  12.206 -0.6253 -0.3647  0.0335
 1723SOL     OW16630   4.262   4.214   6.260 -0.1354 -0.0828 -0.5419
 1723SOL    HW116631   4.210   4.177   6.331 -1.5682  0.0832 -1.4812
 1723SOL    HW216632   4.231   4.179   6.176 -1.5409 -0.2026  0.0294
 1724SOL     OW16633   1.810   1.473  16.984  0.0788 -0.5312  0.1056
 1724SOL    HW116634   1.737   1.522  16.948 -1.4932 -0.3558  3.5391
 1724SOL    HW216635   1.862   1.484  16.904 -0.7570 -0.5901 -0.4424
 1725SOL     OW16636   2.856   0.347  11.215 -0.5320  0.0560  0.2688
 1725SOL    HW116637   2.845   0.359  11.310 -0.8655 -0.3111  0.2738
 1725SOL    HW216638   2.770   0.326  11.181  0.3728 -2.7406 -0.2449
 1726SOL     OW16639   2.503   2.747   2.588 -0.0879 -0.2030  0.2211
 1726SOL    HW116640   2.588   2.761   2.630 -0.8119  1.2453  1.2511
 1726SOL    HW216641   2.483   2.832   2.548 -1.6265 -0.1354  1.0933
 1727SOL     OW16642   2.326   1.583   9.633  0.0205  0.1677  0.3041
 1727SOL    HW116643   2.364   1.638   9.702  0.4945  0.0890  0.1109
 1727SOL    HW216644   2.238   1.568   9.667 -0.4291  0.3396 -0.7787
 1728SOL     OW16645   1.524   4.048  12.943  0.3679  0.2147  0.0351
 1728SOL    HW116646   1.568   3.964  12.956 -0.2754 -0.1638 -0.2386
 1728SOL    HW216647   1.528   4.083  13.032 -0.2214  1.8143 -0.5755
 1729SOL     OW16648   3.649   0.794  10.968  0.2442  0.3269 -0.2941
 1729SOL    HW116649   3.629   0.860  10.901 -0.2715 -0.3419 -0.7983
 1729SOL    HW216650   3.656   0.715  10.915  0.5325  0.4006 -0.3656
 1730SOL     OW16651   1.996   0.613   9.111  0.2452 -0.3939  0.1066
 1730SOL    HW116652   1.964   0.655   9.191  0.9458 -0.3717  0.3775
 1730SOL    HW216653   2.041   0.537   9.149 -1.0667 -1.1525  0.1478
 1731SOL     OW16654   2.316   2.067   4.832 -0.3422  0.3705  0.1264
 1731SOL    HW116655   2.315   2.160   4.812  0.3807  0.8806  2.4628
 1731SOL    HW216656   2.400   2.041   4.794 -1.1418 -0.8262 -0.8518
 1732SOL     OW16657   0.149   3.030   9.758  0.1350  0.2387 -0.2094
 1732SOL    HW116658   0.068   3.027   9.708  0.1862  1.9549 -0.3760
 1732SOL    HW216659   0.113   2.993   9.838 -0.5597 -1.5145 -1.3368
 1733SOL     OW16660   1.070   0.879   3.741 -0.0119  0.0609  0.1617
 1733SOL    HW116661   0.975   0.879   3.727 -0.1163 -0.8554  0.8371
 1733SOL    HW216662   1.106   0.936   3.674  1.3329  0.2442  1.0366
 1734SOL     OW16663   2.838   3.559   4.442  0.1408  0.1930  0.5718
 1734SOL    HW116664   2.906   3.620   4.470  0.6423 -0.6201  1.1422
 1734SOL    HW216665   2.876   3.511   4.368 -0.9334 -1.4957  1.1159
 1735SOL     OW16666   4.667   2.128  17.187 -0.0001  0.2308 -0.2707
 1735SOL    HW116667   4.705   2.051  17.230 -2.1248 -1.4966 -1.4764
 1735SOL    HW216668   4.707   2.136  17.101 -0.8514 -2.2711 -0.8897
 1736SOL     OW16669   2.308   2.558   9.591 -0.0250  0.1872  0.2675
 1736SOL    HW116670   2.375   2.626   9.585  0.3703 -0.4922 -2.7908
 1736SOL    HW216671   2.317   2.541   9.685 -0.0504  0.2030  0.2728
 1737SOL     OW16672   3.131   3.916   8.655 -0.1656 -0.6126 -0.0326
 1737SOL    HW116673   3.036   3.909   8.662 -0.1831 -0.8494 -0.5388
 1737SOL    HW216674   3.167   3.922   8.744 -2.6042  0.8591  0.8456
 1738SOL     OW16675   1.781   4.637   6.719  0.3005 -0.3165 -0.4567
 1738SOL    HW116676   1.714   4.684   6.669  0.7605  0.6215 -0.1872
 1738SOL    HW216677   1.753   4.546   6.706  0.7340 -0.4520 -0.4308
 1739SOL     OW16678   1.965   3.683  14.258 -0.6816  0.1823 -0.3900
 1739SOL    HW116679   2.009   3.611  14.303 -0.6328  0.8480  0.6256
 1739SOL    HW216680   1.979   3.754  14.321 -0.4633  1.6753 -2.1081
 1740SOL     OW16681   1.836   4.417   8.516  0.4349  0.2727  0.1158
 1740SOL    HW116682   1.763   4.452   8.567  1.6679  0.5051  1.7323
 1740SOL    HW216683   1.895   4.492   8.521  1.2324 -0.2649 -1.0445
 1741SOL     OW16684   3.912   2.236   4.085 -0.6674  0.6462 -0.1696
 1741SOL    HW116685   3.974   2.163   4.074  0.0966  0.9256  2.1218
 1741SOL    HW216686   3.972   2.306   4.060 -0.1919 -0.2179 -1.4754
 1742SOL     OW16687   4.066   1.086   8.747 -0.7844 -0.1147 -0.6627
 1742SOL    HW116688   4.022   1.136   8.678  0.6961  1.2485 -0.5881
 1742SOL    HW216689   4.121   1.156   8.781 -0.8218  0.0393 -0.9198
 1743SOL     OW16690   0.579   1.282   9.706  0.1544 -0.3621  0.3331
 1743SOL    HW116691   0.571   1.305   9.799 -0.2120  0.4341  0.1077
 1743SOL    HW216692   0.654   1.334   9.676  0.2848  0.2218  1.6401
 1744SOL     OW16693   4.035   3.985   9.109  0.1421  0.0801 -0.5339
 1744SOL    HW116694   4.020   3.902   9.153  2.6725  1.1106  2.2844
 1744SOL    HW216695   4.120   4.001   9.151 -1.9410  1.5399  3.1597
 1745SOL     OW16696   1.180   3.501   4.092 -0.5065  0.0461  0.1772
 1745SOL    HW116697   1.190   3.532   4.002 -1.0334 -0.3250 -0.0066
 1745SOL    HW216698   1.241   3.552   4.145 -0.2105  1.7673 -1.8108
 1746SOL     OW16699   4.545   0.700  10.082  0.1337 -0.0700 -0.5522
 1746SOL    HW116700   4.589   0.781  10.056 -1.1774  0.6368 -0.5844
 1746SOL    HW216701   4.623   0.665  10.124  0.7508 -1.6544 -3.0587
 1747SOL     OW16702   4.276   0.030  17.080 -0.0393  0.0746  0.3941
 1747SOL    HW116703   4.235   0.109  17.114  0.0453  0.2295  0.1352
 1747SOL    HW216704   4.204   4.723  17.024  0.1179  0.6395 -0.1125
 1748SOL     OW16705   0.436   4.608   6.617  0.6366 -0.1536 -0.4525
 1748SOL    HW116706   0.525   4.629   6.645  0.4723 -0.7145  0.4677
 1748SOL    HW216707   0.389   4.691   6.622  1.3037  0.2576 -1.0111
 1749SOL     OW16708   2.610   1.704   5.099 -0.3652  0.4229 -0.0628
 1749SOL    HW116709   2.641   1.652   5.173  0.9731 -0.8488 -1.5293
 1749SOL    HW216710   2.565   1.773   5.148 -2.4914 -1.1887  0.2294
 1750SOL     OW16711   4.481   2.396  14.172  0.1108 -0.4011 -0.1665
 1750SOL    HW116712   4.444   2.485  14.171 -0.3829 -0.5962  1.5333
 1750SOL    HW216713   4.572   2.423  14.160 -0.0369  0.5329  0.8239
 1751SOL     OW16714   3.843   3.717   1.590  0.7332 -0.2655 -0.1157
 1751SOL    HW116715   3.902   3.765   1.648  0.8010 -0.4182 -0.0596
 1751SOL    HW216716   3.836   3.635   1.639 -1.1726  1.2150  2.0776
 1752SOL     OW16717   0.730   4.521   8.257 -0.3761  0.2330 -0.1734
 1752SOL    HW116718   0.666   4.518   8.328  0.1026  2.7094  0.3698
 1752SOL    HW216719   0.802   4.469   8.293  0.4134  2.1298  0.9829
 1753SOL     OW16720   2.011   4.459   4.615 -0.7906  0.0751  0.0420
 1753SOL    HW116721   1.991   4.553   4.612  1.7743  0.6009 -0.6669
 1753SOL    HW216722   1.930   4.433   4.658 -1.0447 -0.8682 -1.0063
 1754SOL     OW16723   2.170   4.439  15.849  0.4977  0.4248 -0.9121
 1754SOL    HW116724   2.229   4.384  15.796  0.7576 -0.9081  0.7559
 1754SOL    HW216725   2.224   4.518  15.851 -0.7570  1.2790 -1.2630
 1755SOL     OW16726   1.123   4.568   8.501  0.6629 -0.3756  0.1416
 1755SOL    HW116727   1.168   4.492   8.464  0.7315  0.5063 -1.5745
 1755SOL    HW216728   1.190   4.634   8.483  1.3704 -0.5995  1.9853
 1756SOL     OW16729   1.200   1.583   5.948 -0.3263  0.0713  0.0106
 1756SOL    HW116730   1.127   1.644   5.961 -1.9540 -2.2288  1.6534
 1756SOL    HW216731   1.248   1.629   5.880  0.6990  1.4381  1.6800
 1757SOL     OW16732   0.709   2.631   2.399 -0.5209  0.1901 -0.5160
 1757SOL    HW116733   0.733   2.703   2.341  1.0846  0.1065  0.0327
 1757SOL    HW216734   0.796   2.610   2.432  0.3749  1.2092 -2.2393
 1758SOL     OW16735   4.467   2.815   0.786 -0.2261  0.1031 -0.3198
 1758SOL    HW116736   4.444   2.769   0.866  0.5841  0.1262 -0.0749
 1758SOL    HW216737   4.477   2.742   0.724  0.4583  0.1687 -0.2944
 1759SOL     OW16738   3.710   3.025   5.384  0.4407 -0.0389  0.3870
 1759SOL    HW116739   3.684   3.035   5.476 -0.8030 -0.3799  0.0690
 1759SOL    HW216740   3.786   3.083   5.383 -1.1437  2.0868  1.0759
 1760SOL     OW16741   2.713   3.057   3.764  0.1206 -0.1353  0.6546
 1760SOL    HW116742   2.730   3.004   3.686  1.0696  2.0573 -0.6222
 1760SOL    HW216743   2.643   3.109   3.724 -0.7596 -1.2684  0.7142
 1761SOL     OW16744   0.375   1.799   2.499 -0.2282  0.3829 -0.1998
 1761SOL    HW116745   0.343   1.868   2.557  1.0702  1.3816 -0.6570
 1761SOL    HW216746   0.294   1.751   2.486  0.3375 -0.2485 -1.3439
 1762SOL     OW16747   2.219   1.354   8.639  0.1473  0.3678  0.0948
 1762SOL    HW116748   2.151   1.409   8.600 -1.3108 -1.6914 -0.2510
 1762SOL    HW216749   2.282   1.423   8.659 -1.5172  1.5300  1.2991
 1763SOL     OW16750   2.591   1.073   5.892 -0.0343 -0.3305  0.3162
 1763SOL    HW116751   2.578   1.168   5.887 -1.1695 -0.4262  1.5045
 1763SOL    HW216752   2.649   1.065   5.817 -0.2905 -0.8780  0.1797
 1764SOL     OW16753   2.823   2.637   5.990  0.1843  0.0460  0.4759
 1764SOL    HW116754   2.861   2.551   5.971 -0.2797 -0.1646  0.5201
 1764SOL    HW216755   2.730   2.623   6.003 -0.3192  2.1420 -0.9974
 1765SOL     OW16756   1.074   0.591  12.288 -0.4326 -0.3181  0.5950
 1765SOL    HW116757   0.999   0.556  12.240 -0.0747 -3.2976  2.1982
 1765SOL    HW216758   1.141   0.523  12.286 -2.7747 -2.5692 -1.6516
 1766SOL     OW16759   2.933   3.115   3.914 -0.5429  0.5990  0.5633
 1766SOL    HW116760   2.859   3.061   3.885 -1.0603  1.6486 -0.0570
 1766SOL    HW216761   2.972   3.150   3.834 -1.2563  0.2089  0.0389
 1767SOL     OW16762   1.843   1.140  17.500  0.0000  0.8096  0.3753
 1767SOL    HW116763   1.890   1.206  17.551  0.7165 -1.2671  2.4287
 1767SOL    HW216764   1.910   1.087  17.458 -0.1494 -0.8053  2.1829
 1768SOL     OW16765   2.441   3.051  15.073 -0.4995  0.0870 -1.1469
 1768SOL    HW116766   2.435   3.138  15.113  0.3343 -0.4100  0.0566
 1768SOL    HW216767   2.507   3.065  15.004  0.5687 -0.0395 -0.1592
 1769SOL     OW16768   3.852   3.087   3.070  0.2454  0.6197 -0.5668
 1769SOL    HW116769   3.918   3.155   3.057 -1.0819  1.6903 -1.7746
 1769SOL    HW216770   3.893   3.014   3.023 -3.2552 -1.7286  0.0762
 1770SOL     OW16771   3.660   3.308   4.565 -0.1126 -0.0527 -0.0452
 1770SOL    HW116772   3.709   3.353   4.634  0.4141 -0.6058 -0.0562
 1770SOL    HW216773   3.714   3.232   4.545  1.0376  0.7528 -0.0224
 1771SOL     OW16774   3.619   2.721   5.915  0.0578  0.0104  0.3160
 1771SOL    HW116775   3.557   2.652   5.890  0.3091  0.6534 -1.9926
 1771SOL    HW216776   3.557   2.791   5.934 -0.0024  0.4129 -1.4314
 1772SOL     OW16777   4.455   3.566   6.279 -0.1144 -0.1924 -0.1683
 1772SOL    HW116778   4.421   3.606   6.199  2.6292 -0.7665 -1.6015
 1772SOL    HW216779   4.472   3.482   6.237  4.3358  0.2665  0.7151
 1773SOL     OW16780   4.701   1.820  12.506  0.1306 -0.0303 -0.4336
 1773SOL    HW116781   4.693   1.799  12.414 -2.9202 -1.1001  0.0858
 1773SOL    HW216782   0.071   1.813  12.524 -0.2318  0.2972  1.6526
 1774SOL     OW16783   0.301   1.687  11.774  0.4009  0.3399  0.0570
 1774SOL    HW116784   0.287   1.740  11.852  2.1744 -0.2535  0.7816
 1774SOL    HW216785   0.227   1.626  11.772  0.5179  0.1530  1.6141
 1775SOL     OW16786   1.203   2.902   8.241  0.3161 -0.7655  0.0544
 1775SOL    HW116787   1.287   2.923   8.199  0.0332 -0.5991 -0.4256
 1775SOL    HW216788   1.223   2.892   8.334 -0.4422 -3.2079 -0.0622
 1776SOL     OW16789   0.390   3.428   7.135 -0.0008 -0.0889 -0.3053
 1776SOL    HW116790   0.426   3.433   7.047  1.4747 -0.3136  0.2721
 1776SOL    HW216791   0.464   3.455   7.190 -0.6547 -0.6936  0.8925
 1777SOL     OW16792   3.256   1.824   7.925 -0.4252  0.1852 -0.1938
 1777SOL    HW116793   3.347   1.813   7.895 -0.7063  0.8169 -1.2806
 1777SOL    HW216794   3.226   1.733   7.917  0.3699  0.0283 -1.4784
 1778SOL     OW16795   3.650   1.479  17.424  0.0362 -0.3410  0.1977
 1778SOL    HW116796   3.619   1.416  17.489  1.6727 -1.0010  0.3289
 1778SOL    HW216797   3.639   1.430  17.342 -0.1784  0.9388 -0.5404
 1779SOL     OW16798   3.139   3.403   3.929  0.1800  0.7239  0.5935
 1779SOL    HW116799   3.226   3.415   3.967 -0.8390 -3.0315  4.0282
 1779SOL    HW216800   3.100   3.489   3.942 -0.4161 -0.0489  3.8179
 1780SOL     OW16801   1.573   1.253   0.377  0.2338  0.1363  0.2776
 1780SOL    HW116802   1.577   1.162   0.407 -1.3280  1.3450  4.2017
 1780SOL    HW216803   1.648   1.273   0.321 -0.0613  1.8517  0.4825
 1781SOL     OW16804   3.397   3.285   4.616 -0.5579  0.1022 -0.5540
 1781SOL    HW116805   3.490   3.269   4.596 -1.4418 -1.5400 -3.4149
 1781SOL    HW216806   3.405   3.378   4.635  1.6186  0.0303 -1.0734
 1782SOL     OW16807   0.139   3.138  10.923 -0.3796 -0.0270  0.1660
 1782SOL    HW116808   0.164   3.104  11.008  0.2344 -0.8414 -0.3425
 1782SOL    HW216809   0.087   3.207  10.964 -1.4416  0.9500 -2.7534
 1783SOL     OW16810   4.354   1.814   5.420  0.3867 -0.2296 -0.3560
 1783SOL    HW116811   4.302   1.893   5.437  1.2968  1.0325 -3.3363
 1783SOL    HW216812   4.315   1.753   5.483 -0.7325  0.2651 -0.5747
 1784SOL     OW16813   3.958   2.186   4.477 -0.1300  0.1091  0.1561
 1784SOL    HW116814   3.898   2.215   4.408  0.9219  1.8639 -0.0507
 1784SOL    HW216815   3.996   2.104   4.446 -1.5102 -0.4365 -0.0790
 1785SOL     OW16816   1.413   2.080   5.827  0.3806  0.0603 -0.1700
 1785SOL    HW116817   1.395   1.994   5.865 -0.3282 -0.4645 -1.6928
 1785SOL    HW216818   1.407   2.054   5.735  2.3945 -0.4507 -0.1492
 1786SOL     OW16819   3.798   3.546   0.139 -0.5224  0.0856  0.3171
 1786SOL    HW116820   3.727   3.611   0.137  0.5473  1.2618  0.1372
 1786SOL    HW216821   3.828   3.547   0.048  0.0142 -2.4694  0.4751
 1787SOL     OW16822   1.343   4.199   4.680 -0.1197 -0.5708  0.0134
 1787SOL    HW116823   1.265   4.223   4.730 -0.4247 -0.4722 -0.5096
 1787SOL    HW216824   1.355   4.107   4.658  2.8180 -0.4983  1.2639
 1788SOL     OW16825   3.830   4.714  13.124  0.1626  0.2478 -0.2292
 1788SOL    HW116826   3.743   4.680  13.107 -0.8174  2.1264  1.1169
 1788SOL    HW216827   3.888   4.666  13.064  0.5635 -0.3769  0.6689
 1789SOL     OW16828   2.683   0.721   6.294 -0.5229 -0.1394 -0.0845
 1789SOL    HW116829   2.778   0.724   6.284 -0.6692  2.2306 -0.8182
 1789SOL    HW216830   2.664   0.679   6.378 -1.0444  1.9757  0.8712
 1790SOL     OW16831   4.164   0.306   9.181 -0.0528 -0.4802 -0.1193
 1790SOL    HW116832   4.238   0.248   9.202  0.0291 -0.5117 -0.4904
 1790SOL    HW216833   4.191   0.347   9.099 -1.1653 -2.2301 -1.3592
 1791SOL     OW16834   1.050   0.903   6.452  0.1570 -0.1495  0.7059
 1791SOL    HW116835   0.979   0.839   6.455 -0.9244  0.9567 -1.1909
 1791SOL    HW216836   1.124   0.851   6.482  1.3510  1.3609  0.3627
 1792SOL     OW16837   0.545   0.196   6.199  0.1324  0.4877 -0.1234
 1792SOL    HW116838   0.459   0.181   6.240  0.7619 -0.1614  0.9741
 1792SOL    HW216839   0.574   0.106   6.186 -1.7515 -0.1105 -0.1715
 1793SOL     OW16840   1.860   3.137  11.998 -0.1701  0.0515  0.0431
 1793SOL    HW116841   1.888   3.084  11.924 -1.3388  0.5100 -0.7292
 1793SOL    HW216842   1.767   3.133  11.976  0.5902  0.6196 -3.2456
 1794SOL     OW16843   3.724   0.855   8.287 -0.5545 -0.5528 -0.2823
 1794SOL    HW116844   3.711   0.798   8.363 -2.4400  0.0025 -0.1717
 1794SOL    HW216845   3.643   0.846   8.237 -1.3292 -1.2720  1.0991
 1795SOL     OW16846   2.837   2.352   1.891 -0.5380  0.0854  0.1765
 1795SOL    HW116847   2.750   2.327   1.860  0.1535  0.1325 -1.8391
 1795SOL    HW216848   2.891   2.375   1.815 -2.0869  3.5802  0.1067
 1796SOL     OW16849   0.518   0.605   8.398  0.0173 -0.0417  0.8464
 1796SOL    HW116850   0.596   0.651   8.367  0.7187 -0.3510  2.1406
 1796SOL    HW216851   0.516   0.663   8.474 -0.5028  0.0774  0.7407
 1797SOL     OW16852   2.617   2.178   4.947  0.5877 -0.3027 -0.0661
 1797SOL    HW116853   2.708   2.158   4.968  0.9617 -0.8531 -2.2003
 1797SOL    HW216854   2.621   2.138   4.860  1.2963 -0.8837  0.2304
 1798SOL     OW16855   2.657   4.196  14.956  0.3049  0.2976  0.0912
 1798SOL    HW116856   2.653   4.222  14.864 -0.6619  0.7786  0.2712
 1798SOL    HW216857   2.753   4.193  14.956  0.3425  1.1028  2.6913
 1799SOL     OW16858   2.898   3.616  15.870 -0.0510 -0.0645 -0.1078
 1799SOL    HW116859   2.948   3.581  15.796  0.2205 -0.6415  0.3552
 1799SOL    HW216860   2.835   3.546  15.883  0.6601 -0.9579 -1.3521
 1800SOL     OW16861   4.211   2.134   2.081  0.2265 -0.3093  0.0862
 1800SOL    HW116862   4.140   2.084   2.039  0.7602 -0.7754 -0.2616
 1800SOL    HW216863   4.174   2.221   2.071  0.1631 -0.3360  0.0875
 1801SOL     OW16864   2.129   2.713   4.813 -0.7883  0.7242 -0.2688
 1801SOL    HW116865   2.186   2.637   4.796 -2.4167 -0.6716  0.5004
 1801SOL    HW216866   2.182   2.793   4.811 -0.8502  0.7290 -1.6190
 1802SOL     OW16867   3.322   0.892   2.751  0.4871  0.5342  0.5265
 1802SOL    HW116868   3.285   0.981   2.750  1.7298  1.0422 -1.0524
 1802SOL    HW216869   3.294   0.859   2.836 -0.4284  0.5360  0.2252
 1803SOL     OW16870   3.400   2.296   4.681  0.4160  0.2805  0.2048
 1803SOL    HW116871   3.337   2.252   4.624 -0.2378 -0.0829  1.2022
 1803SOL    HW216872   3.385   2.272   4.773 -3.5193  1.7023 -0.0931
 1804SOL     OW16873   2.510   2.610   3.705  0.2922  0.1198  0.4814
 1804SOL    HW116874   2.421   2.581   3.723  0.3217 -1.3089 -1.6656
 1804SOL    HW216875   2.496   2.704   3.716 -1.0264 -0.0580  0.2967
 1805SOL     OW16876   0.423   1.232  15.739  0.0227 -0.4857 -0.0482
 1805SOL    HW116877   0.419   1.137  15.746  1.2659 -0.5746 -0.4753
 1805SOL    HW216878   0.444   1.242  15.646  0.1520  1.0624  0.1433
 1806SOL     OW16879   3.081   1.007   1.671  0.0458  0.1341 -0.1606
 1806SOL    HW116880   3.018   0.941   1.700 -1.4057  1.9485  0.8422
 1806SOL    HW216881   3.096   1.057   1.751  1.2298  1.1713 -1.0208
 1807SOL     OW16882   3.195   0.195   4.114 -0.0869  0.3415  0.2763
 1807SOL    HW116883   3.176   0.107   4.080 -1.4487  0.7980 -0.1453
 1807SOL    HW216884   3.125   0.213   4.176 -0.1784 -1.5636  0.7075
 1808SOL     OW16885   2.932   2.180  14.352 -0.3430  0.1622  0.3832
 1808SOL    HW116886   2.967   2.160  14.438  0.3750  1.3861  0.3581
 1808SOL    HW216887   3.008   2.213  14.305  1.4930 -2.3471  1.5441
 1809SOL     OW16888   3.620   1.927   1.713 -0.7107  0.0678 -0.1867
 1809SOL    HW116889   3.590   2.011   1.747  0.7455  0.1754  0.8381
 1809SOL    HW216890   3.542   1.882   1.681 -0.4760 -0.2125 -0.3675
 1810SOL     OW16891   0.230   2.428  14.916 -0.4662  0.1714 -0.1873
 1810SOL    HW116892   0.278   2.360  14.870  0.6999  0.2222  0.9568
 1810SOL    HW216893   0.253   2.399  15.005  2.6193 -2.8259 -1.9679
 1811SOL     OW16894   2.598   4.679   5.243  0.4053  0.2230 -0.2250
 1811SOL    HW116895   2.576   0.003   5.323 -1.1405 -1.5621  0.4291
 1811SOL    HW216896   2.689   4.705   5.233  0.2804  1.1811  1.1334
 1812SOL     OW16897   2.387   3.838   0.522 -0.2423 -0.2196 -0.0503
 1812SOL    HW116898   2.439   3.849   0.602 -0.4088 -2.2289  0.3573
 1812SOL    HW216899   2.436   3.774   0.470  0.6773  1.7158 -1.5314
 1813SOL     OW16900   4.043   2.439   9.138 -0.0402 -0.3751  0.0586
 1813SOL    HW116901   4.011   2.450   9.048 -3.6141  0.9944  1.4908
 1813SOL    HW216902   3.962   2.452   9.187  0.3177  1.7016  0.1071
 1814SOL     OW16903   3.655   2.327   3.328 -0.5482  0.1995  0.2112
 1814SOL    HW116904   3.630   2.392   3.393  0.1352  1.6894 -1.0324
 1814SOL    HW216905   3.670   2.248   3.381  3.5886  1.2452  0.5859
 1815SOL     OW16906   3.676   0.046   3.669 -0.1870 -0.6713  0.4290
 1815SOL    HW116907   3.771   0.052   3.665 -0.2554  1.0013  1.1266
 1815SOL    HW216908   3.658   0.028   3.762  0.0905 -0.8477  0.4480
 1816SOL     OW16909   1.657   1.587   6.100 -0.5169 -0.2734 -0.4452
 1816SOL    HW116910   1.649   1.677   6.133 -1.3636 -0.4599 -0.1468
 1816SOL    HW216911   1.724   1.554   6.160 -0.7015  0.7239  0.3037
 1817SOL     OW16912   4.663   0.702   0.678 -0.1328  0.1835  0.3923
 1817SOL    HW116913   4.595   0.649   0.720 -0.4458  0.4883  0.2657
 1817SOL    HW216914   4.683   0.754   0.755  1.4824 -1.7745  1.2904
 1818SOL     OW16915   1.080   3.796   6.262  0.5447 -0.1951  0.3516
 1818SOL    HW116916   1.011   3.731   6.269 -0.1480  0.4691 -0.2576
 1818SOL    HW216917   1.036   3.850   6.196  0.5044 -0.1231  0.4364
 1819SOL     OW16918   0.586   3.936   5.447  0.1032  0.2436 -0.0038
 1819SOL    HW116919   0.570   3.846   5.417  2.2901  0.0712 -0.7086
 1819SOL    HW216920   0.525   3.980   5.388  0.2128 -0.7810 -0.8866
 1820SOL     OW16921   2.480   1.885   5.609 -0.0605 -0.2243  0.1646
 1820SOL    HW116922   2.456   1.793   5.615 -1.1852  0.0444 -0.1492
 1820SOL    HW216923   2.396   1.931   5.607 -0.3314 -0.8339 -1.8258
 1821SOL     OW16924   2.349   2.684   8.454 -0.0991  0.4348 -0.1499
 1821SOL    HW116925   2.338   2.591   8.432 -0.7018  0.7614 -1.2691
 1821SOL    HW216926   2.361   2.723   8.367  0.6385  0.0873 -0.1965
 1822SOL     OW16927   4.271   4.468   4.428  0.4307 -0.3334 -0.1152
 1822SOL    HW116928   4.259   4.383   4.387 -2.8728 -1.1070  2.4411
 1822SOL    HW216929   4.191   4.510   4.397  1.8740  1.0123 -1.9872
 1823SOL     OW16930   0.323   1.356  17.620  0.4444 -0.4442  0.3246
 1823SOL    HW116931   0.340   1.294  17.690 -0.9160 -1.4957 -0.2637
 1823SOL    HW216932   0.281   1.296  17.558  0.9364  0.4310 -0.8663
 1824SOL     OW16933   4.715   2.077   1.906 -0.4334 -0.8642  0.5514
 1824SOL    HW116934   4.627   2.114   1.916 -0.7181 -1.3905 -0.0072
 1824SOL    HW216935   0.043   2.157   1.912 -1.7485 -0.0390  0.7296
 1825SOL     OW16936   1.959   1.594   8.761  0.4744 -0.7029  0.1638
 1825SOL    HW116937   1.920   1.667   8.714  0.0030 -0.5015  0.8769
 1825SOL    HW216938   2.052   1.613   8.748  0.6426 -0.8331  1.1342
 1826SOL     OW16939   2.137   1.944   3.462 -0.2213 -0.5830  0.6409
 1826SOL    HW116940   2.148   2.007   3.533  0.7964  0.7617 -0.6953
 1826SOL    HW216941   2.197   1.880   3.501  1.6216  1.1496  0.6654
 1827SOL     OW16942   2.939   0.945   3.939 -0.6093 -0.3825 -0.2013
 1827SOL    HW116943   3.030   0.947   3.968  0.0489  1.6314 -2.3767
 1827SOL    HW216944   2.935   1.035   3.906 -3.0317 -0.0126  1.1647
 1828SOL     OW16945   3.597   1.302   3.201  0.0415 -0.1507  0.0947
 1828SOL    HW116946   3.576   1.364   3.271 -4.2629 -1.5675  0.0746
 1828SOL    HW216947   3.513   1.276   3.164 -0.4270 -0.3291  1.2795
 1829SOL     OW16948   4.217   3.517   0.398 -0.2631 -1.1736  0.1350
 1829SOL    HW116949   4.255   3.531   0.485 -0.5563  1.3590 -0.1600
 1829SOL    HW216950   4.159   3.442   0.412 -0.8491 -1.0918 -1.8407
 1830SOL     OW16951   0.241   2.991  14.994 -0.0710  0.4931  0.5141
 1830SOL    HW116952   0.252   2.899  15.018 -0.5238  0.0709 -0.8672
 1830SOL    HW216953   0.153   2.994  14.956  0.0688  1.6444  0.2849
 1831SOL     OW16954   1.721   3.641  14.071  0.2077 -0.2910  0.0597
 1831SOL    HW116955   1.804   3.638  14.119 -0.0836 -0.0533  0.5811
 1831SOL    HW216956   1.664   3.680  14.137  0.6515 -0.7615  0.7338
 1832SOL     OW16957   0.936   2.218  12.792 -0.5479 -0.3029  0.1158
 1832SOL    HW116958   1.013   2.273  12.809  0.0147 -0.9609 -0.2597
 1832SOL    HW216959   0.902   2.222  12.881  0.2300 -1.2347  0.4642
 1833SOL     OW16960   0.189   0.341   3.531 -0.2689  0.6310 -0.1292
 1833SOL    HW116961   0.157   0.302   3.450  0.1475 -0.6508  0.3262
 1833SOL    HW216962   0.279   0.346   3.497  0.4140 -1.6198  1.3464
 1834SOL     OW16963   0.522   2.696   5.964 -0.0337 -0.2960 -0.0264
 1834SOL    HW116964   0.467   2.623   5.994  0.8708 -0.7326  0.5589
 1834SOL    HW216965   0.571   2.651   5.896  1.5234  1.1516  0.1294
 1835SOL     OW16966   2.906   1.099   2.386 -0.3920 -0.3973 -0.2680
 1835SOL    HW116967   2.826   1.066   2.345 -2.6732  3.8560  0.7390
 1835SOL    HW216968   2.969   1.067   2.322  0.7732  0.6042  0.3719
 1836SOL     OW16969   2.434   4.697   2.505  0.6118 -0.4226  0.3396
 1836SOL    HW116970   2.501   0.039   2.488  0.8821 -0.4832  1.1437
 1836SOL    HW216971   2.366   0.031   2.541  0.4393  0.5142 -1.4707
 1837SOL     OW16972   1.093   2.798   6.371 -0.1554  0.0701 -0.0489
 1837SOL    HW116973   1.023   2.863   6.372 -0.5142 -0.3320  0.8568
 1837SOL    HW216974   1.157   2.823   6.305 -0.2515 -1.3310 -0.6748
 1838SOL     OW16975   3.508   4.142   1.006  0.3830 -0.4516 -0.5847
 1838SOL    HW116976   3.424   4.097   1.019  1.2143 -1.9084 -0.2860
 1838SOL    HW216977   3.471   4.209   0.948  1.3079  0.8687  0.3504
 1839SOL     OW16978   0.005   1.179   2.744  0.1138 -0.1372 -0.1968
 1839SOL    HW116979   0.082   1.123   2.753  0.6593  0.8966  1.5073
 1839SOL    HW216980   4.712   1.181   2.649 -0.6770  0.1394 -0.0546
 1840SOL     OW16981   3.858   0.670   3.767  0.5093 -0.6414  0.4362
 1840SOL    HW116982   3.915   0.746   3.758 -0.9431  0.1727 -1.9830
 1840SOL    HW216983   3.920   0.610   3.807 -0.3243 -1.4776  0.4766
 1841SOL     OW16984   3.385   1.656   4.700  0.1050  0.0248 -0.2189
 1841SOL    HW116985   3.440   1.663   4.622  1.1370 -0.9788  0.4056
 1841SOL    HW216986   3.450   1.645   4.770 -0.4320  0.2346  0.3083
 1842SOL     OW16987   0.772   1.671   2.771 -0.0600  0.0818  0.2489
 1842SOL    HW116988   0.840   1.654   2.706 -1.0069 -0.2426 -0.6772
 1842SOL    HW216989   0.687   1.659   2.728 -0.0425 -1.5094  0.6700
 1843SOL     OW16990   3.279   1.372   4.408 -0.3755  0.2752 -0.1203
 1843SOL    HW116991   3.255   1.298   4.352  1.4181 -1.2251  1.0840
 1843SOL    HW216992   3.345   1.329   4.463 -1.7922 -2.3538 -0.4801
 1844SOL     OW16993   1.931   4.405  12.682  0.2399  0.7498 -0.1639
 1844SOL    HW116994   1.991   4.348  12.635 -0.1892  0.8291 -0.8180
 1844SOL    HW216995   1.915   4.481  12.625 -0.2251 -0.3824 -1.5512
 1845SOL     OW16996   1.835   1.524   4.361 -0.0787  0.2633 -0.1032
 1845SOL    HW116997   1.830   1.502   4.454  0.2472  2.6000  0.4606
 1845SOL    HW216998   1.805   1.615   4.358  1.2391  0.6023 -3.2068
 1846SOL     OW16999   0.492   3.391  10.819 -0.2285 -0.1128 -0.2359
 1846SOL    HW117000   0.491   3.321  10.884  1.4733 -0.6595 -0.7876
 1846SOL    HW217001   0.559   3.440  10.867 -1.2614  0.8856  0.1685
 1847SOL     OW17002   4.482   1.599   4.657  0.2945  0.5302 -0.5367
 1847SOL    HW117003   4.513   1.515   4.692  3.2946  1.3234 -1.2932
 1847SOL    HW217004   4.569   1.638   4.664  0.3207  0.7173 -1.9415
 1848SOL     OW17005   1.911   3.048  10.271  0.0284 -0.5371  0.1382
 1848SOL    HW117006   1.873   3.088  10.349 -0.8287 -0.2258 -0.4314
 1848SOL    HW217007   1.928   2.963  10.311  0.3351 -0.4800  0.1272
 1849SOL     OW17008   0.079   2.772   6.466  0.4064 -0.2576  0.0404
 1849SOL    HW117009   0.107   2.683   6.489  1.5169 -0.1901 -1.0557
 1849SOL    HW217010   4.711   2.748   6.453 -0.2747  1.5498  1.4876
 1850SOL     OW17011   3.037   3.227   1.579 -0.2281 -0.1973 -0.2490
 1850SOL    HW117012   2.967   3.163   1.595 -1.0554  0.5370 -0.9278
 1850SOL    HW217013   3.059   3.241   1.671  0.3254  3.2379 -0.9060
 1851SOL     OW17014   0.142   1.902   6.383 -0.5434  0.4766  0.3466
 1851SOL    HW117015   0.059   1.857   6.396  1.3296 -2.6424  1.4890
 1851SOL    HW217016   0.174   1.918   6.472  2.4299 -0.6764 -0.5198
 1852SOL     OW17017   4.604   3.318  17.444 -0.1434  0.3231 -0.0472
 1852SOL    HW117018   4.654   3.279  17.515  1.3314  0.0334 -1.2193
 1852SOL    HW217019   4.519   3.280  17.461 -0.4035  1.7502  1.8240
 1853SOL     OW17020   2.438   3.472   7.573  0.4893  0.5901 -0.0183
 1853SOL    HW117021   2.346   3.449   7.587  0.7468 -0.2320  0.3226
 1853SOL    HW217022   2.472   3.384   7.561 -0.2675  0.1367  1.1713
 1854SOL     OW17023   1.819   4.001  10.851 -0.0256  0.5270  0.5130
 1854SOL    HW117024   1.792   4.092  10.857  2.2948  1.1534  1.3343
 1854SOL    HW217025   1.907   4.008  10.814  0.9445  0.2179  2.7401
 1855SOL     OW17026   1.433   1.993   7.323 -0.4938  0.0872 -0.3037
 1855SOL    HW117027   1.478   1.910   7.306 -1.4852 -0.2068 -1.4911
 1855SOL    HW217028   1.381   1.960   7.396 -0.1890 -2.2443 -1.1194
 1856SOL     OW17029   3.671   2.729   7.256 -0.2403 -0.0822  0.3932
 1856SOL    HW117030   3.667   2.765   7.344  1.0255 -1.8857  1.1880
 1856SOL    HW217031   3.758   2.688   7.260 -1.0027 -1.7932 -0.4548
 1857SOL     OW17032   0.258   1.479   5.646 -0.2664  0.3862  0.6452
 1857SOL    HW117033   0.294   1.467   5.734  1.2385 -0.9149 -0.1418
 1857SOL    HW217034   0.256   1.573   5.626  1.3211  0.4145  0.5916
 1858SOL     OW17035   1.250   2.399   6.859  0.4392  0.1158  0.2835
 1858SOL    HW117036   1.276   2.316   6.819 -1.0408  0.0719 -0.5837
 1858SOL    HW217037   1.252   2.464   6.789  0.1664 -2.1102 -1.7903
 1859SOL     OW17038   3.915   2.241   0.578  0.4453  0.4599  0.6532
 1859SOL    HW117039   3.956   2.320   0.543 -2.0146  1.5479  0.1686
 1859SOL    HW217040   3.907   2.261   0.671  0.3465 -2.3683  1.2534
 1860SOL     OW17041   1.618   1.790   9.232  0.0512  0.2738 -0.0885
 1860SOL    HW117042   1.659   1.846   9.167  0.1053 -0.2227 -0.4806
 1860SOL    HW217043   1.527   1.793   9.200 -0.2164 -1.3009  0.5327
 1861SOL     OW17044   2.018   1.078   7.631  0.0394 -0.3566 -0.1452
 1861SOL    HW117045   2.009   1.047   7.541 -1.7416  0.2926 -0.1963
 1861SOL    HW217046   2.021   0.995   7.678 -5.1814  1.0190  2.6243
 1862SOL     OW17047   1.133   4.051   2.743 -0.5330 -0.6817 -0.2612
 1862SOL    HW117048   1.206   3.991   2.730 -0.1631 -0.1588 -0.5534
 1862SOL    HW217049   1.092   4.037   2.658  1.1823 -1.7719 -0.9007
 1863SOL     OW17050   2.257   1.419   9.397  0.0387 -0.2697 -0.2189
 1863SOL    HW117051   2.165   1.441   9.386  0.2517 -0.7270 -2.9953
 1863SOL    HW217052   2.291   1.473   9.468  0.2637 -0.5385 -0.1211
 1864SOL     OW17053   2.613   1.102   4.010  0.1567 -0.2965  0.1916
 1864SOL    HW117054   2.580   1.033   4.068 -0.8422 -0.3288 -0.4177
 1864SOL    HW217055   2.532   1.137   3.974 -0.5666 -1.2544  0.8818
 1865SOL     OW17056   0.582   3.288   5.303 -0.0949  0.0424  0.3961
 1865SOL    HW117057   0.577   3.339   5.222 -1.4097  1.2034  1.1988
 1865SOL    HW217058   0.490   3.263   5.315  0.3999 -2.3175 -0.7608
 1866SOL     OW17059   0.107   1.166  13.808  0.2504  0.4358 -0.0409
 1866SOL    HW117060   0.115   1.071  13.816  0.4269  0.4993  0.6096
 1866SOL    HW217061   0.030   1.168  13.752  0.7113  1.8745 -0.6273
 1867SOL     OW17062   2.251   3.504  16.260 -0.3539  0.2999  0.0127
 1867SOL    HW117063   2.302   3.515  16.179 -0.4045  0.9929  0.0736
 1867SOL    HW217064   2.187   3.575  16.262 -1.9945 -1.0728 -2.3983
 1868SOL     OW17065   0.924   4.463   4.605  0.1987 -0.2579 -0.3757
 1868SOL    HW117066   0.890   4.550   4.622 -1.9837 -1.3203  0.7607
 1868SOL    HW217067   0.865   4.424   4.540 -0.9342 -0.5206  0.7892
 1869SOL     OW17068   3.387   1.369  15.454  0.0231  0.4494 -0.2399
 1869SOL    HW117069   3.394   1.391  15.547 -1.1701 -1.4452  0.3056
 1869SOL    HW217070   3.430   1.285  15.437  2.4142  1.8463 -1.1077
 1870SOL     OW17071   2.793   0.603   7.793  0.4290  0.0096  0.8053
 1870SOL    HW117072   2.845   0.566   7.865  0.1138 -0.9040  0.5597
 1870SOL    HW217073   2.709   0.609   7.838  0.1481  3.1195 -0.0952
 1871SOL     OW17074   1.526   1.914   7.956  0.4337 -0.9039  0.0444
 1871SOL    HW117075   1.454   1.966   7.923  1.1413  0.1679  0.1926
 1871SOL    HW217076   1.524   1.852   7.883  1.5125 -0.0288 -0.7343
 1872SOL     OW17077   0.930   0.064   5.948  0.2388 -0.0650 -0.1558
 1872SOL    HW117078   0.889   0.144   5.916  1.0088  0.9300  1.3397
 1872SOL    HW217079   0.980   0.104   6.019  2.6450 -0.9439 -1.3686
 1873SOL     OW17080   0.968   1.775   3.625 -0.0902  0.2604 -0.0939
 1873SOL    HW117081   1.054   1.779   3.583  0.1204  1.4578  0.4478
 1873SOL    HW217082   0.998   1.745   3.711  0.1485 -1.2660 -0.7175
 1874SOL     OW17083   3.798   1.546  16.346 -0.2396 -0.1000  0.2839
 1874SOL    HW117084   3.794   1.639  16.368  2.8846 -0.1809  1.1757
 1874SOL    HW217085   3.763   1.539  16.258  0.9478 -0.8753 -0.1315
 1875SOL     OW17086   4.380   3.047   2.850  0.5759 -0.0168  0.1483
 1875SOL    HW117087   4.303   3.098   2.825  1.0829  1.2683  1.1734
 1875SOL    HW217088   4.351   2.991   2.922  0.6510  1.3088  1.2265
 1876SOL     OW17089   4.501   2.234  13.358  0.3360 -0.5319  0.2039
 1876SOL    HW117090   4.493   2.309  13.299  0.5911 -1.9316 -1.6338
 1876SOL    HW217091   4.448   2.169  13.312 -1.3730  0.3681  0.9239
 1877SOL     OW17092   0.819   1.092   5.660 -0.0768 -0.3378 -0.0409
 1877SOL    HW117093   0.803   1.170   5.712 -0.4214 -0.7684  0.4966
 1877SOL    HW217094   0.776   1.030   5.719 -0.5498  0.7106  0.6982
 1878SOL     OW17095   2.099   3.958   6.742 -1.1603  0.4907  0.0566
 1878SOL    HW117096   2.069   3.879   6.698 -2.6452  1.3233 -0.4042
 1878SOL    HW217097   2.162   3.906   6.794 -0.1009  2.8369  1.1280
 1879SOL     OW17098   3.625   2.802   7.510 -0.4863 -0.6681 -0.4736
 1879SOL    HW117099   3.675   2.778   7.588 -0.9669 -0.2093 -0.0149
 1879SOL    HW217100   3.533   2.805   7.539  0.5228  0.6959  2.6244
 1880SOL     OW17101   2.210   4.511   7.275  0.2120 -0.2284  0.5077
 1880SOL    HW117102   2.267   4.445   7.235 -0.7719  0.5331 -2.1969
 1880SOL    HW217103   2.138   4.519   7.212 -0.0692 -2.2630  0.5865
 1881SOL     OW17104   3.514   4.560   7.274  0.7167 -0.2774  0.2033
 1881SOL    HW117105   3.555   4.615   7.208 -0.4402  0.4843  0.0981
 1881SOL    HW217106   3.531   4.620   7.348 -2.8966 -0.0459  0.8643
 1882SOL     OW17107   3.216   1.758   5.145  0.3006 -0.3622 -0.4625
 1882SOL    HW117108   3.238   1.752   5.052  0.2200  0.0193 -0.5064
 1882SOL    HW217109   3.281   1.695   5.176  1.4034  0.4407 -1.1940
 1883SOL     OW17110   2.353   1.064   6.675  0.6429 -0.3984 -0.0280
 1883SOL    HW117111   2.437   1.097   6.645  0.6826  0.9545  1.5605
 1883SOL    HW217112   2.389   1.010   6.745  0.5059 -0.1166  0.2613
 1884SOL     OW17113   3.068   0.284   2.472 -0.5098 -0.4898 -0.2597
 1884SOL    HW117114   2.973   0.282   2.470 -0.5076  0.5824 -1.8623
 1884SOL    HW217115   3.079   0.254   2.562  1.0087 -0.6308 -0.4818
 1885SOL     OW17116   4.372   0.851   8.454 -0.7609  0.5547 -0.6580
 1885SOL    HW117117   4.449   0.800   8.482 -0.2083  1.7928  0.0855
 1885SOL    HW217118   4.350   0.899   8.534 -1.6558  1.0446 -1.2096
 1886SOL     OW17119   2.723   0.946   6.859 -0.1234  0.1345 -0.4017
 1886SOL    HW117120   2.678   1.005   6.798 -1.8750  0.8266  1.5691
 1886SOL    HW217121   2.796   0.907   6.812 -0.9880 -1.6968 -0.2352
 1887SOL     OW17122   2.161   3.997   7.801 -0.2755  0.2387 -0.0769
 1887SOL    HW117123   2.138   4.055   7.729 -0.6274 -1.5766 -1.4313
 1887SOL    HW217124   2.099   3.925   7.784  1.1173 -0.8215 -0.7459
 1888SOL     OW17125   0.108   1.810  12.861 -0.2195 -0.5507 -0.4121
 1888SOL    HW117126   0.032   1.860  12.835  1.0693  0.5939 -1.9571
 1888SOL    HW217127   0.137   1.809  12.770 -1.9009  2.1270 -0.9619
 1889SOL     OW17128   2.444   1.960   8.705 -0.2051 -0.4947 -0.2490
 1889SOL    HW117129   2.349   1.968   8.705 -0.2320 -0.7261  2.4870
 1889SOL    HW217130   2.465   1.988   8.795 -1.7382 -0.4748  0.0999
 1890SOL     OW17131   4.599   3.520   8.155 -0.0662 -0.4884  0.2680
 1890SOL    HW117132   4.618   3.459   8.085  1.2828  0.3488 -0.0944
 1890SOL    HW217133   4.506   3.503   8.170  0.1698 -0.9679  1.2311
 1891SOL     OW17134   0.735   3.813   5.784  0.1984 -0.3059 -0.4467
 1891SOL    HW117135   0.701   3.783   5.868 -2.7493  1.9541 -0.8280
 1891SOL    HW217136   0.715   3.738   5.727 -1.1981  1.2382 -1.9787
 1892SOL     OW17137   1.281   1.704   2.143 -0.0571  0.6563 -0.6947
 1892SOL    HW117138   1.370   1.697   2.108 -0.3612  0.3527 -1.4002
 1892SOL    HW217139   1.233   1.688   2.062  0.4378 -0.2683 -0.8088
 1893SOL     OW17140   2.314   1.634  10.051  0.0597 -0.1329 -0.9241
 1893SOL    HW117141   2.350   1.681   9.976  1.2506 -0.7962 -0.7599
 1893SOL    HW217142   2.308   1.699  10.121 -2.0832 -3.8398  2.3276
 1894SOL     OW17143   0.062   4.319   3.059  0.4251 -0.0473  0.4767
 1894SOL    HW117144   0.049   4.262   3.135  0.0957 -0.0074  0.4481
 1894SOL    HW217145   4.705   4.370   3.055  0.9808  0.8542  0.9092
 1895SOL     OW17146   1.388   2.900   4.929 -0.2437 -0.3460  0.0868
 1895SOL    HW117147   1.431   2.982   4.905  0.7504 -0.9119 -0.0476
 1895SOL    HW217148   1.440   2.890   5.008  1.7793  0.5498 -1.1222
 1896SOL     OW17149   3.368   0.385   3.282  0.1619  0.0973 -0.0387
 1896SOL    HW117150   3.426   0.320   3.323 -1.8457 -1.4497  0.3480
 1896SOL    HW217151   3.322   0.403   3.364  0.8774 -0.2834  0.4467
 1897SOL     OW17152   0.176   0.912   6.515  0.1049  0.7752 -0.4339
 1897SOL    HW117153   0.204   0.987   6.568  1.2108  0.9785 -1.3046
 1897SOL    HW217154   0.132   0.944   6.436 -1.7920 -1.2965 -0.2131
 1898SOL     OW17155   3.428   0.188   8.218  0.2436 -0.1128 -0.2325
 1898SOL    HW117156   3.398   0.133   8.145 -0.7646 -0.9584  0.8283
 1898SOL    HW217157   3.510   0.220   8.180  1.5382 -1.8111  1.0860
 1899SOL     OW17158   0.643   0.136  15.588  0.1598  0.2963 -0.3218
 1899SOL    HW117159   0.725   0.174  15.557  0.1988 -0.9074 -1.7335
 1899SOL    HW217160   0.651   0.152  15.682 -2.0473 -1.5505  0.2004
 1900SOL     OW17161   1.962   0.712   5.341  0.4109 -0.0910 -0.0468
 1900SOL    HW117162   1.883   0.738   5.390 -0.0818  0.0607 -0.9295
 1900SOL    HW217163   1.917   0.660   5.275  0.9845  0.8671 -1.1968
 1901SOL     OW17164   3.832   0.077   5.365 -0.4081 -0.1616  0.0676
 1901SOL    HW117165   3.912   0.030   5.391  0.5222  0.2059 -2.1150
 1901SOL    HW217166   3.874   0.136   5.303 -0.2063 -0.9492 -0.5482
 1902SOL     OW17167   3.046   2.108   4.434  0.2321  0.1357 -0.7433
 1902SOL    HW117168   3.130   2.154   4.430  0.4175 -0.0430  1.5180
 1902SOL    HW217169   3.042   2.062   4.350 -0.0881 -1.2480  0.0473
 1903SOL     OW17170   3.020   4.018   6.596  0.3208  0.2870 -0.2864
 1903SOL    HW117171   3.040   4.111   6.589  1.6521  0.1481  1.8695
 1903SOL    HW217172   2.990   4.019   6.687 -0.0780 -0.2911 -0.4090
 1904SOL     OW17173   3.472   4.214   6.122  0.5898 -0.5545  0.0954
 1904SOL    HW117174   3.445   4.191   6.211  0.3589  0.0762  0.1843
 1904SOL    HW217175   3.527   4.136   6.108  1.6326  0.5914 -2.2795
 1905SOL     OW17176   4.714   2.766   9.842 -0.1975 -0.0096 -0.2372
 1905SOL    HW117177   4.636   2.712   9.858 -0.4196 -0.0538 -1.4513
 1905SOL    HW217178   4.709   2.746   9.748  3.3169  1.8402 -0.8075
 1906SOL     OW17179   2.664   0.038   7.842 -0.4088  0.1687  0.1924
 1906SOL    HW117180   2.596   0.048   7.909 -0.4075 -2.0371  0.5413
 1906SOL    HW217181   2.611   0.020   7.765 -2.5874 -1.4521  2.0784
 1907SOL     OW17182   3.730   1.861   7.862  0.2264  0.1739  0.3441
 1907SOL    HW117183   3.674   1.934   7.834 -0.5617 -0.7891 -0.6515
 1907SOL    HW217184   3.715   1.843   7.954  0.3515  0.5171  0.4306
 1908SOL     OW17185   2.668   3.597   8.022  0.1656 -0.1102  0.0438
 1908SOL    HW117186   2.673   3.570   7.930 -0.9658  1.7796 -0.5617
 1908SOL    HW217187   2.576   3.578   8.043  0.6640 -1.0171  1.4514
 1909SOL     OW17188   0.883   0.554   0.992  0.0678  0.0992  0.0401
 1909SOL    HW117189   0.883   0.481   1.053  2.3272 -1.5862 -1.9985
 1909SOL    HW217190   0.947   0.615   1.029  1.2384  0.5266 -2.6702
 1910SOL     OW17191   3.315   2.711   4.842 -0.2178 -0.3600  0.2722
 1910SOL    HW117192   3.366   2.677   4.916  1.6356  0.0471 -0.8025
 1910SOL    HW217193   3.344   2.802   4.846  1.1227 -0.8000  0.6710
 1911SOL     OW17194   0.182   2.750   1.503  0.4748  0.5259  0.3650
 1911SOL    HW117195   0.168   2.667   1.456 -1.2383  0.4531  0.9943
 1911SOL    HW217196   0.259   2.774   1.451  0.8507 -1.4455  0.0108
 1912SOL     OW17197   0.727   4.343   8.918 -0.7422  1.1860 -0.7361
 1912SOL    HW117198   0.681   4.326   9.000  0.0878  2.7598  0.0605
 1912SOL    HW217199   0.707   4.436   8.911 -3.1923  0.7509  0.4978
 1913SOL     OW17200   4.291   0.066  11.818 -0.8580 -0.2986 -0.2148
 1913SOL    HW117201   4.208   0.080  11.771 -0.5917  0.8060 -0.3527
 1913SOL    HW217202   4.342   0.041  11.740 -2.1321  0.6467 -1.3520
 1914SOL     OW17203   4.234   3.942   4.086 -0.2403 -0.1665 -0.7959
 1914SOL    HW117204   4.177   4.019   4.080 -1.2801 -1.0365 -2.2439
 1914SOL    HW217205   4.224   3.908   3.996 -5.1058  0.4323 -0.4807
 1915SOL     OW17206   3.023   2.937   9.336  0.1985 -0.1709 -0.5206
 1915SOL    HW117207   2.948   2.882   9.356  1.2248 -1.3947 -0.0213
 1915SOL    HW217208   3.092   2.920   9.400 -0.3073 -0.4983 -0.0638
 1916SOL     OW17209   3.973   0.986   6.372  0.5130 -0.2308 -0.4162
 1916SOL    HW117210   4.038   0.919   6.353  0.8441  0.3420 -1.2867
 1916SOL    HW217211   3.998   1.033   6.293 -0.3873 -1.4719 -1.4462
 1917SOL     OW17212   3.105   0.280   3.192  0.4634  0.3001  1.4328
 1917SOL    HW117213   3.189   0.324   3.178  0.7293 -0.5426  0.4324
 1917SOL    HW217214   3.093   0.207   3.132  0.3885  0.6923  0.9692
 1918SOL     OW17215   2.696   0.098   6.098 -0.6203  0.3225 -0.1579
 1918SOL    HW117216   2.665   0.009   6.116 -0.1754  0.4284  1.1463
 1918SOL    HW217217   2.790   0.086   6.112 -0.3028  0.3820 -2.2602
 1919SOL     OW17218   4.714   1.978   8.513 -0.2870  0.0104  0.3402
 1919SOL    HW117219   4.640   2.025   8.474  1.3543  0.3333 -2.3375
 1919SOL    HW217220   0.057   2.047   8.519 -1.3014  0.9487  0.8781
 1920SOL     OW17221   3.178   4.217  16.952 -0.1752 -0.2050 -0.4467
 1920SOL    HW117222   3.236   4.284  16.918  0.1583  0.9002  2.2744
 1920SOL    HW217223   3.101   4.221  16.895 -1.9682  2.0769  2.1305
 1921SOL     OW17224   1.017   0.837   4.237 -0.2213  0.1075 -0.3575
 1921SOL    HW117225   0.988   0.885   4.314  0.9071  0.3494 -0.0901
 1921SOL    HW217226   1.111   0.850   4.253 -0.6157 -0.6078  2.6289
 1922SOL     OW17227   0.066   0.460   3.972 -0.5943  0.3378  0.0529
 1922SOL    HW117228   0.111   0.453   3.887  0.2830  1.9389  0.3962
 1922SOL    HW217229   0.075   0.372   4.010 -1.3295  0.2891  0.1205
 1923SOL     OW17230   1.669   3.359   7.602  0.0309 -0.1115 -0.2727
 1923SOL    HW117231   1.746   3.363   7.659  0.7286  1.7681 -1.3456
 1923SOL    HW217232   1.604   3.410   7.650 -0.1553 -0.3626 -0.2623
 1924SOL     OW17233   2.697   0.713   4.472  0.2859  0.3037 -0.2357
 1924SOL    HW117234   2.719   0.806   4.466 -0.7211  0.4842 -1.0635
 1924SOL    HW217235   2.749   0.688   4.548 -1.2185  0.1796  0.7420
 1925SOL     OW17236   2.282   2.421  13.354  0.1791  0.8339 -0.6756
 1925SOL    HW117237   2.188   2.410  13.344 -0.1236  1.6504  1.3061
 1925SOL    HW217238   2.285   2.463  13.440  1.8454 -1.7617  0.5470
 1926SOL     OW17239   2.603   2.983   1.479  0.3567 -0.4629  0.2629
 1926SOL    HW117240   2.685   2.985   1.528  0.1849  0.1765  0.5145
 1926SOL    HW217241   2.600   2.897   1.437 -1.8215 -0.9259  1.3532
 1927SOL     OW17242   3.693   4.508   3.242  0.6651  0.1199 -0.2622
 1927SOL    HW117243   3.648   4.502   3.326  1.2315  3.6058  0.2677
 1927SOL    HW217244   3.767   4.448   3.254 -0.8194 -1.9638 -1.4796
 1928SOL     OW17245   0.108   1.741   8.012 -0.4176  0.4782  0.3499
 1928SOL    HW117246   0.078   1.789   7.934  0.2232  1.4940  0.7282
 1928SOL    HW217247   0.190   1.784   8.036  0.3324 -0.7686  0.0388
 1929SOL     OW17248   1.028   0.584   4.459 -0.1140 -0.0739  0.0132
 1929SOL    HW117249   1.014   0.522   4.531  1.2338  1.6641  1.7820
 1929SOL    HW217250   1.085   0.653   4.496  0.1455 -0.7343  0.8436
 1930SOL     OW17251   1.073   1.203   2.311  0.4628 -0.5490  0.3678
 1930SOL    HW117252   1.016   1.189   2.386 -2.5553 -1.9121 -2.1986
 1930SOL    HW217253   1.156   1.200   2.359  1.6409 -1.1300 -1.6813
 1931SOL     OW17254   3.137   2.790  12.925 -0.5004  0.1333  0.0266
 1931SOL    HW117255   3.061   2.813  12.978 -0.0311 -1.3386  1.3566
 1931SOL    HW217256   3.203   2.837  12.976 -0.6265 -2.7342  2.8312
 1932SOL     OW17257   0.990   2.394   3.425 -0.7366  0.4287 -0.0072
 1932SOL    HW117258   1.060   2.334   3.451 -0.8416  0.7574  1.0571
 1932SOL    HW217259   1.032   2.454   3.363  0.8620 -0.3565  0.3314
 1933SOL     OW17260   2.365   1.304  15.789  0.6271 -0.4974  0.1802
 1933SOL    HW117261   2.342   1.325  15.879  0.7756 -2.7485  0.7542
 1933SOL    HW217262   2.310   1.369  15.747 -1.5325 -2.1731  0.3996
 1934SOL     OW17263   4.448   3.628   7.366 -0.0638 -0.0907 -0.0176
 1934SOL    HW117264   4.484   3.577   7.293  0.4997  1.4500 -0.8232
 1934SOL    HW217265   4.523   3.623   7.425  0.2205  1.8504 -0.2013
 1935SOL     OW17266   3.707   3.798   4.866 -0.3608  0.4164 -0.2308
 1935SOL    HW117267   3.698   3.893   4.874  1.6676  0.5716  0.1368
 1935SOL    HW217268   3.694   3.787   4.771  0.0865  1.0163 -0.3630
 1936SOL     OW17269   0.046   1.697   4.720  0.3172 -0.0647 -0.0349
 1936SOL    HW117270   0.025   1.691   4.814 -2.6609  1.5666 -0.5799
 1936SOL    HW217271   0.135   1.664   4.722  1.0071  1.7234 -1.1858
 1937SOL     OW17272   0.243   1.605   6.212  0.8424  0.1789  0.4365
 1937SOL    HW117273   0.292   1.625   6.132 -0.3700  3.0925  0.4174
 1937SOL    HW217274   0.178   1.675   6.220  0.0067 -0.4032 -1.2229
 1938SOL     OW17275   0.801   1.194  11.235  0.3603 -0.3024  0.2827
 1938SOL    HW117276   0.895   1.191  11.255  0.5988 -0.3771 -0.8503
 1938SOL    HW217277   0.765   1.116  11.277  0.3070 -0.8513 -0.7591
 1939SOL     OW17278   2.716   3.463   5.119  0.0368  0.1141 -0.3566
 1939SOL    HW117279   2.660   3.538   5.098 -1.7658 -0.7835  1.2139
 1939SOL    HW217280   2.722   3.412   5.038  2.0418  0.6065 -0.5199
 1940SOL     OW17281   1.668   2.314   3.489  0.1604  0.4139  0.2941
 1940SOL    HW117282   1.692   2.248   3.554 -0.8133  1.8461  2.1116
 1940SOL    HW217283   1.668   2.395   3.539  1.1136 -0.2598  1.3937
 1941SOL     OW17284   4.675   1.091   9.294  0.0046  0.3827 -0.2337
 1941SOL    HW117285   4.590   1.057   9.323  1.4277 -1.1142  2.1892
 1941SOL    HW217286   4.707   1.008   9.258 -1.8529 -0.3138 -0.2919
 1942SOL     OW17287   0.043   4.129   9.002  0.1106  0.7392  0.3446
 1942SOL    HW117288   0.042   4.085   8.917 -1.5709  3.4414 -1.0384
 1942SOL    HW217289   4.682   4.100   9.036  0.2108  0.2853  0.2061
 1943SOL     OW17290   1.561   0.358   4.933 -0.3242 -0.8781 -0.0061
 1943SOL    HW117291   1.514   0.275   4.929  0.1016 -1.1063 -0.3059
 1943SOL    HW217292   1.640   0.335   4.884  2.3774  3.6570  2.1766
 1944SOL     OW17293   1.256   2.907   8.513  0.4822  0.3528 -0.1545
 1944SOL    HW117294   1.325   2.872   8.569  1.7427  1.6077 -0.9200
 1944SOL    HW217295   1.180   2.905   8.572 -0.0878 -1.6448 -0.9822
 1945SOL     OW17296   0.517   2.931   7.499  0.1573  0.4319  0.5559
 1945SOL    HW117297   0.605   2.929   7.538  0.5003  2.2145 -0.1058
 1945SOL    HW217298   0.498   2.841   7.522 -2.4093  1.6086  2.9826
 1946SOL     OW17299   2.031   2.246   8.229 -0.1774  0.5488 -0.3614
 1946SOL    HW117300   1.977   2.317   8.195 -2.2335 -0.7457  0.2454
 1946SOL    HW217301   2.079   2.287   8.301  0.1114 -2.5964  1.2285
 1947SOL     OW17302   4.143   1.174   4.173  0.6530  0.2326  0.3386
 1947SOL    HW117303   4.220   1.172   4.230  1.3170  2.0708 -0.4754
 1947SOL    HW217304   4.085   1.111   4.215  1.2641 -0.6774 -0.1699
 1948SOL     OW17305   3.309   0.888   5.955  0.0728  0.2933 -0.0011
 1948SOL    HW117306   3.355   0.950   6.012 -1.3891  1.0225  0.3925
 1948SOL    HW217307   3.306   0.814   6.015 -1.2997  0.3715  0.0294
 1949SOL     OW17308   1.968   4.132   6.475  0.4985 -0.1042 -0.3375
 1949SOL    HW117309   1.990   4.156   6.566  1.9812 -1.4577 -0.3371
 1949SOL    HW217310   1.923   4.048   6.478  0.8485 -0.3030 -0.6501
 1950SOL     OW17311   1.914   3.453   3.915  0.3558  0.0188 -0.5042
 1950SOL    HW117312   1.965   3.533   3.933 -0.7150  0.3742  0.9419
 1950SOL    HW217313   1.903   3.421   4.004  1.7726 -0.2880 -0.4300
 1951SOL     OW17314   4.514   3.162   3.391 -0.3820 -0.3255  0.0558
 1951SOL    HW117315   4.418   3.165   3.392 -0.3951 -0.8361  0.3325
 1951SOL    HW217316   4.533   3.081   3.439  0.7283 -0.4289 -0.5457
 1952SOL     OW17317   4.400   0.116   0.409  0.6689  0.0776 -0.5813
 1952SOL    HW117318   4.314   0.114   0.368 -0.3072  1.0844  1.3870
 1952SOL    HW217319   4.453   0.093   0.333  1.7302  0.0351  0.1652
 1953SOL     OW17320   2.259   3.266  16.376  0.3332  0.2127  0.2830
 1953SOL    HW117321   2.197   3.216  16.324  0.0625  3.2153 -2.2735
 1953SOL    HW217322   2.253   3.351  16.332  1.2007  1.4201  2.4655
 1954SOL     OW17323   3.601   1.721  17.406  0.0474  0.6592  0.2290
 1954SOL    HW117324   3.628   1.629  17.403  2.6257  1.4290 -0.3605
 1954SOL    HW217325   3.542   1.715  17.481  0.1682 -1.0376  0.1913
 1955SOL     OW17326   2.959   0.657  14.169 -0.5345 -0.3637 -0.3680
 1955SOL    HW117327   2.953   0.699  14.084 -1.2685  0.2425 -0.0215
 1955SOL    HW217328   2.897   0.586  14.152 -0.1801  0.2647 -4.2525
 1956SOL     OW17329   0.015   2.786   8.637 -0.0769  0.4536  0.5617
 1956SOL    HW117330   0.041   2.795   8.729 -1.9508  3.5764  0.7947
 1956SOL    HW217331   0.010   2.691   8.625  0.4703  0.5133 -0.1123
 1957SOL     OW17332   0.267   2.172  12.563  0.4091  0.3659 -0.2040
 1957SOL    HW117333   0.325   2.104  12.529  1.6418  0.9968  0.6654
 1957SOL    HW217334   0.186   2.134  12.527  0.9069 -0.3986 -0.5181
 1958SOL     OW17335   4.701   3.748   2.315 -0.1397 -0.4953 -0.1717
 1958SOL    HW117336   0.039   3.818   2.289 -0.6309 -0.3716 -1.0157
 1958SOL    HW217337   4.616   3.767   2.274  0.2070  0.4533 -0.4659
 1959SOL     OW17338   1.015   1.438   3.334 -0.2263 -0.4954  0.0565
 1959SOL    HW117339   1.036   1.531   3.320  2.5182 -0.6762  2.7079
 1959SOL    HW217340   1.071   1.398   3.268 -1.7873 -3.0323  0.2779
 1960SOL     OW17341   3.731   3.270  13.266 -0.2840 -0.4061  0.1875
 1960SOL    HW117342   3.684   3.192  13.236 -0.7389  0.1986 -0.6585
 1960SOL    HW217343   3.733   3.264  13.361 -0.1618 -2.0722  0.0925
 1961SOL     OW17344   1.190   2.752   9.104  0.0251 -0.1640  0.2017
 1961SOL    HW117345   1.237   2.669   9.099  0.2915  0.0386 -0.6305
 1961SOL    HW217346   1.134   2.745   9.026  0.6905 -0.2312 -0.2685
 1962SOL     OW17347   0.588   2.436   5.544 -0.5415 -0.2256 -0.4641
 1962SOL    HW117348   0.523   2.383   5.499 -1.3500 -0.7457  1.2971
 1962SOL    HW217349   0.666   2.394   5.506  0.2966  2.2685 -1.4749
 1963SOL     OW17350   4.582   0.245  11.524 -0.1858  0.2218  0.7437
 1963SOL    HW117351   4.677   0.250  11.534 -0.0966  1.5820 -0.7082
 1963SOL    HW217352   4.584   0.215  11.433  0.3342  0.1853  0.7661
 1964SOL     OW17353   3.774   2.097   8.960 -0.1591  0.6401 -0.0787
 1964SOL    HW117354   3.728   2.017   8.935 -1.7666  1.4746  0.2510
 1964SOL    HW217355   3.751   2.112   9.052 -1.5877 -0.3711 -0.2777
 1965SOL     OW17356   0.825   4.293   8.482  0.3798  0.0328  0.6036
 1965SOL    HW117357   0.742   4.279   8.528 -0.9629 -0.7581 -2.0825
 1965SOL    HW217358   0.837   4.387   8.493  0.7304  0.1234 -0.5266
 1966SOL     OW17359   4.332   1.083   7.163 -0.1058  0.0798 -0.5202
 1966SOL    HW117360   4.240   1.059   7.175  0.2067 -0.3199  1.0780
 1966SOL    HW217361   4.355   1.012   7.102  1.8857 -2.2011  2.8318
 1967SOL     OW17362   2.211   0.339   4.343  0.2644 -0.0233 -0.0793
 1967SOL    HW117363   2.250   0.426   4.355 -0.9128  0.6718 -1.2441
 1967SOL    HW217364   2.250   0.292   4.417 -0.6922 -0.3197  0.2356
 1968SOL     OW17365   2.083   1.584   7.748 -0.1993  0.2769 -0.5118
 1968SOL    HW117366   2.145   1.560   7.679  0.9648  1.0209  0.2815
 1968SOL    HW217367   2.125   1.558   7.830  0.2703  2.0060 -0.2040
 1969SOL     OW17368   2.090   0.302   5.325  0.0309 -0.5372  0.6597
 1969SOL    HW117369   2.110   0.212   5.350  0.9685  0.9073  5.0174
 1969SOL    HW217370   2.168   0.346   5.358  0.7705 -1.3257 -0.0561
 1970SOL     OW17371   3.717   0.962  17.499 -0.1454 -0.3798 -0.0092
 1970SOL    HW117372   3.794   0.907  17.490  0.7727  0.8322  0.4460
 1970SOL    HW217373   3.767   1.043  17.484 -1.4493  0.1915 -1.3615
 1971SOL     OW17374   0.058   1.201  10.634 -0.3112  0.8457  0.2154
 1971SOL    HW117375   0.003   1.175  10.709  0.0482 -3.1008 -0.8941
 1971SOL    HW217376   0.117   1.126  10.628 -1.6474 -0.1901 -0.2987
 1972SOL     OW17377   4.252   1.122   3.288 -0.3668 -0.3867  0.0687
 1972SOL    HW117378   4.310   1.148   3.360 -0.9318 -0.7243  0.6413
 1972SOL    HW217379   4.317   1.069   3.241 -1.3862  0.1176 -1.9439
 1973SOL     OW17380   2.141   0.833   0.446 -0.4645 -0.5973 -0.0904
 1973SOL    HW117381   2.069   0.770   0.456  0.5546 -1.8961 -0.9419
 1973SOL    HW217382   2.097   0.914   0.474  0.4678  0.2057 -0.9471
 1974SOL     OW17383   1.446   1.665   9.669 -0.1031 -0.6476 -0.1423
 1974SOL    HW117384   1.381   1.728   9.638  1.0595  0.4552 -0.3268
 1974SOL    HW217385   1.397   1.584   9.685 -1.7307  0.4842  0.6433
 1975SOL     OW17386   2.938   3.060  12.965  0.5719 -0.0735 -0.2169
 1975SOL    HW117387   2.925   2.965  12.963  0.4744 -0.0727  0.3756
 1975SOL    HW217388   2.935   3.079  13.059 -0.3351  0.1190 -0.2789
 1976SOL     OW17389   2.573   1.356   5.925  0.0942 -0.3478  0.0460
 1976SOL    HW117390   2.477   1.353   5.932  0.0815  0.1118  0.1242
 1976SOL    HW217391   2.590   1.401   6.008  1.2885  1.0173 -0.9338
 1977SOL     OW17392   2.782   4.460   3.692 -0.5329  0.4750 -0.1380
 1977SOL    HW117393   2.686   4.459   3.696 -0.4128  0.6426  2.3963
 1977SOL    HW217394   2.794   4.531   3.755  0.0787 -0.4162  0.7317
 1978SOL     OW17395   4.371   1.086  13.535  0.4427 -1.0159  0.5125
 1978SOL    HW117396   4.299   1.023  13.529 -1.0662  0.7508  0.0924
 1978SOL    HW217397   4.325   1.169  13.553  2.8869  0.2443  0.9104
 1979SOL     OW17398   1.814   2.902   9.467 -0.0974 -0.1058  0.2294
 1979SOL    HW117399   1.781   2.972   9.411 -2.5128 -0.2832  1.4109
 1979SOL    HW217400   1.854   2.952   9.538  0.5545  1.2673 -1.1124
 1980SOL     OW17401   1.981   0.712   4.502  0.3408 -0.0571 -0.7948
 1980SOL    HW117402   2.016   0.789   4.547 -0.6882 -1.1474  1.8606
 1980SOL    HW217403   1.886   0.721   4.510  0.4571  0.5822 -0.1837
 1981SOL     OW17404   0.504   1.675   7.159  0.1595  0.2045  0.0587
 1981SOL    HW117405   0.514   1.646   7.068  1.2230  0.4273  0.1129
 1981SOL    HW217406   0.437   1.615   7.191 -0.3771  1.1192  0.6586
 1982SOL     OW17407   3.355   2.081  14.696  0.0424  0.0643 -0.5614
 1982SOL    HW117408   3.406   2.147  14.743  0.9248 -0.5868 -0.6043
 1982SOL    HW217409   3.412   2.005  14.704  0.4233  0.4840  0.7206
 1983SOL     OW17410   4.298   4.533   4.104  0.2017  0.5823  0.0990
 1983SOL    HW117411   4.379   4.498   4.140 -0.2707 -1.0204 -0.3708
 1983SOL    HW217412   4.308   4.618   4.145  1.1800  0.7591 -0.5227
 1984SOL     OW17413   2.324   2.853   6.497 -0.5025 -0.1489  0.2522
 1984SOL    HW117414   2.299   2.895   6.580  1.2973  1.5123 -0.0294
 1984SOL    HW217415   2.238   2.836   6.459 -0.3938 -0.7354  0.2763
 1985SOL     OW17416   3.403   1.776   3.472 -0.4433 -0.0611 -0.2823
 1985SOL    HW117417   3.413   1.719   3.549  1.3199  0.9785  0.2614
 1985SOL    HW217418   3.492   1.792   3.441 -0.3935  2.0931  1.0229
 1986SOL     OW17419   2.072   0.932   4.630  0.2065 -0.0095 -0.1801
 1986SOL    HW117420   2.057   1.020   4.666  2.4058 -0.1416  1.0305
 1986SOL    HW217421   2.159   0.916   4.667  0.1568  0.2037  0.0307
 1987SOL     OW17422   4.328   1.569  10.014 -0.5029  0.2377  0.2750
 1987SOL    HW117423   4.245   1.588   9.970 -2.1458 -0.5759  2.9716
 1987SOL    HW217424   4.302   1.548  10.104 -0.1728 -2.5394 -0.2722
 1988SOL     OW17425   0.882   3.350  16.240 -0.0028  0.1200  0.0986
 1988SOL    HW117426   0.956   3.311  16.192 -1.7327 -0.5900 -1.9640
 1988SOL    HW217427   0.912   3.435  16.270 -1.8577 -0.0423  2.4261
 1989SOL     OW17428   3.260   1.536   0.511 -0.1141 -0.1241 -0.4270
 1989SOL    HW117429   3.302   1.450   0.512 -0.7940 -0.4849 -1.5631
 1989SOL    HW217430   3.336   1.584   0.543 -0.7294  0.4113  0.2447
 1990SOL     OW17431   1.682   1.369   0.722 -0.2221  0.4775  0.0230
 1990SOL    HW117432   1.713   1.454   0.689  1.5060 -0.1324  0.0838
 1990SOL    HW217433   1.742   1.315   0.670 -0.1432 -0.4257  1.0576
 1991SOL     OW17434   1.515   4.542   9.669 -0.1186 -0.2411  0.1364
 1991SOL    HW117435   1.608   4.545   9.646  0.0561 -2.8909  0.5609
 1991SOL    HW217436   1.501   4.635   9.687 -1.1579 -0.6392  1.3979
 1992SOL     OW17437   3.348   2.811   5.438  0.4439 -0.0281 -0.2485
 1992SOL    HW117438   3.327   2.733   5.489 -0.6599 -0.2306 -1.0110
 1992SOL    HW217439   3.332   2.779   5.349  0.9496  1.8610 -1.0127
 1993SOL     OW17440   0.223   2.408   8.547 -0.1676  0.1359  0.8417
 1993SOL    HW117441   0.253   2.455   8.625  1.1852 -1.3203  1.1918
 1993SOL    HW217442   0.161   2.344   8.582  0.5472 -0.3962  1.1232
 1994SOL     OW17443   2.457   0.344   3.026  0.1077  0.0776 -0.0390
 1994SOL    HW117444   2.462   0.321   2.933  1.8755 -0.6659  0.2299
 1994SOL    HW217445   2.548   0.326   3.051  0.2848  0.9296 -0.0736
 1995SOL     OW17446   0.345   1.032   6.924  0.4634  0.0595  0.2160
 1995SOL    HW117447   0.428   1.079   6.923  0.0033  0.8120 -1.9938
 1995SOL    HW217448   0.285   1.099   6.956  0.3391  0.0553 -0.0069
 1996SOL     OW17449   0.274   2.474   3.863  0.2758  0.1222  0.1578
 1996SOL    HW117450   0.269   2.450   3.955 -1.6677 -0.2029 -0.0159
 1996SOL    HW217451   0.309   2.390   3.832  3.3616  1.1589  0.9246
 1997SOL     OW17452   1.725   0.822   2.355  0.5752 -0.1610  0.3517
 1997SOL    HW117453   1.781   0.787   2.424  1.3903  0.9244  0.2614
 1997SOL    HW217454   1.646   0.772   2.373  0.5247 -0.0120  0.5402
 1998SOL     OW17455   0.352   3.586   5.355  0.1852 -0.2439 -0.0229
 1998SOL    HW117456   0.283   3.613   5.416 -1.9213 -1.9278 -1.6541
 1998SOL    HW217457   0.334   3.643   5.280  0.2710 -0.6402 -0.3409
 1999SOL     OW17458   3.154   3.561   1.949  0.5086  0.0065  0.3882
 1999SOL    HW117459   3.171   3.605   1.867  0.5019  0.6228  0.7185
 1999SOL    HW217460   3.210   3.615   2.005 -1.0602  0.0113  1.9749
 2000SOL     OW17461   3.942   3.583   3.986  0.1250 -0.6922 -0.4282
 2000SOL    HW117462   3.914   3.492   3.987 -1.1967 -0.2926 -2.1941
 2000SOL    HW217463   4.027   3.569   3.943  0.8221  0.6242  0.4970
 2001SOL     OW17464   3.991   2.623  10.343  0.6376 -0.5968 -0.2477
 2001SOL    HW117465   3.946   2.541  10.326  1.7427 -1.4629  0.9494
 2001SOL    HW217466   4.077   2.589  10.317  1.6109  0.9636  0.9288
 2002SOL     OW17467   2.585   2.955   6.853  0.0267  0.3434  0.2948
 2002SOL    HW117468   2.517   2.998   6.801 -2.7470 -1.3128  2.5508
 2002SOL    HW217469   2.549   2.866   6.849 -1.2126  0.9236 -1.4317
 2003SOL     OW17470   3.558   0.278  17.054 -0.2860 -0.0786  0.1220
 2003SOL    HW117471   3.641   0.278  17.100  0.1138 -0.7686 -0.6022
 2003SOL    HW217472   3.581   0.221  16.980  0.7619 -1.1628  1.2948
 2004SOL     OW17473   2.307   1.139   6.406 -0.7990 -0.0674  0.1306
 2004SOL    HW117474   2.335   1.105   6.491  1.9431 -0.1639 -0.8378
 2004SOL    HW217475   2.341   1.083   6.336 -0.9638  1.4815 -1.1855
 2005SOL     OW17476   0.450   0.688   2.768  0.3700  0.5965  0.1540
 2005SOL    HW117477   0.502   0.652   2.695 -1.0433  0.2368 -0.6819
 2005SOL    HW217478   0.515   0.736   2.819  0.0746  0.4919  0.6288
 2006SOL     OW17479   2.312   2.438  11.603  0.7591  0.2863  0.0451
 2006SOL    HW117480   2.278   2.367  11.658  2.2390  1.1187  2.0559
 2006SOL    HW217481   2.388   2.457  11.658 -0.5494 -0.0110  1.9816
 2007SOL     OW17482   3.378   4.590  17.418  0.4330 -0.3608  0.6354
 2007SOL    HW117483   3.464   4.606  17.378 -0.2257  0.8052 -0.3138
 2007SOL    HW217484   3.397   4.497  17.433  0.8166 -0.6717 -1.7867
 2008SOL     OW17485   2.416   4.228   7.696 -0.1683  0.1808  1.0961
 2008SOL    HW117486   2.419   4.324   7.696  0.0043  0.1776  0.6176
 2008SOL    HW217487   2.414   4.205   7.788 -1.9690 -0.2366  0.9525
 2009SOL     OW17488   2.921   3.773  12.491 -0.0118  0.4589 -0.6982
 2009SOL    HW117489   2.861   3.702  12.512 -1.1019  1.9271  1.1876
 2009SOL    HW217490   2.975   3.745  12.565 -0.0737 -0.4227 -0.9934
 2010SOL     OW17491   2.357   3.437   4.164 -0.1139 -0.1182 -0.1247
 2010SOL    HW117492   2.283   3.480   4.208  0.4422  1.9248 -1.1889
 2010SOL    HW217493   2.432   3.454   4.220 -0.1364  0.2965 -0.2174
 2011SOL     OW17494   1.146   4.654   5.865 -0.3817  0.0608  0.2531
 2011SOL    HW117495   1.145   4.598   5.786 -0.5121 -0.1578  0.4091
 2011SOL    HW217496   1.065   4.704   5.860 -0.3146  0.1731  0.2859
 2012SOL     OW17497   3.261   2.274   5.527 -0.1063 -0.1671  0.2179
 2012SOL    HW117498   3.216   2.246   5.607 -1.6077  0.5726 -0.3666
 2012SOL    HW217499   3.324   2.204   5.509  0.2623  0.7801 -2.0524
 2013SOL     OW17500   1.987   0.164   6.841 -0.0293  0.3208 -0.1044
 2013SOL    HW117501   1.938   0.085   6.864 -0.3250  0.8903  1.1619
 2013SOL    HW217502   2.070   0.136   6.880  0.0247 -1.5334 -1.5475
 2014SOL     OW17503   1.099   0.880   9.102  0.2941 -0.2980  0.1204
 2014SOL    HW117504   1.109   0.785   9.095 -0.1640 -0.4598  1.7562
 2014SOL    HW217505   1.187   0.916   9.118 -0.1514  0.6683  0.3932
 2015SOL     OW17506   4.002   0.720  10.275 -0.0245  0.1802 -0.3950
 2015SOL    HW117507   4.092   0.753  10.283 -0.7490  1.4828  2.4619
 2015SOL    HW217508   4.019   0.627  10.263  2.3026  0.3282  1.6263
 2016SOL     OW17509   0.801   3.717   3.116 -0.7583 -0.0474  0.2541
 2016SOL    HW117510   0.859   3.789   3.139  0.5890 -0.5421 -1.6196
 2016SOL    HW217511   0.714   3.748   3.142 -0.2074  1.3043  0.4824
 2017SOL     OW17512   3.803   0.720   7.788  0.2204  0.2584  0.8043
 2017SOL    HW117513   3.814   0.755   7.876  1.2882  2.7990 -0.3469
 2017SOL    HW217514   3.774   0.797   7.739  1.0071 -1.7424 -2.8538
 2018SOL     OW17515   0.083   0.734  15.367 -0.4911  0.4746  0.4477
 2018SOL    HW117516   0.105   0.807  15.309 -2.6700  3.1559  2.9764
 2018SOL    HW217517   4.712   0.731  15.349 -0.0575 -2.8491 -1.2769
 2019SOL     OW17518   2.370   1.193   3.973 -1.1281 -0.3869 -0.4821
 2019SOL    HW117519   2.297   1.139   4.003  0.8416 -1.6729  2.0414
 2019SOL    HW217520   2.353   1.275   4.019  0.7557 -0.3497  0.1341
 2020SOL     OW17521   2.001   3.386   0.198 -0.3383  0.0269  0.1385
 2020SOL    HW117522   2.036   3.398   0.110  0.9636 -0.2440  0.6263
 2020SOL    HW217523   2.029   3.467   0.240 -4.8126  2.0874 -0.8386
 2021SOL     OW17524   4.099   3.270  17.229  0.2303  0.1700 -0.1457
 2021SOL    HW117525   4.019   3.321  17.240  1.3505  2.1066 -1.0576
 2021SOL    HW217526   4.066   3.184  17.256  0.2843  0.0259 -0.5382
 2022SOL     OW17527   2.513   4.063  16.762 -0.0783 -0.1422 -0.6956
 2022SOL    HW117528   2.444   3.998  16.777  0.5655 -0.5033  0.7512
 2022SOL    HW217529   2.480   4.108  16.684  1.2263 -1.2912 -1.9112
 2023SOL     OW17530   0.321   4.167   2.065  0.4038 -0.9651  0.0389
 2023SOL    HW117531   0.236   4.128   2.046  0.1570 -1.1332  1.4798
 2023SOL    HW217532   0.305   4.260   2.050 -0.8739 -1.4485 -1.6549
 2024SOL     OW17533   1.677   2.418   7.649  0.1764 -0.1016 -0.3763
 2024SOL    HW117534   1.638   2.336   7.679  0.0649 -0.5968 -1.8367
 2024SOL    HW217535   1.600   2.475   7.648 -0.1595 -0.5781 -2.5140
 2025SOL     OW17536   3.394   3.503   3.740  0.2816 -0.1055  0.2461
 2025SOL    HW117537   3.412   3.473   3.650  0.9826 -0.0062  0.3505
 2025SOL    HW217538   3.348   3.585   3.720  0.4064 -0.0462  0.2025
 2026SOL     OW17539   0.175   3.764  13.092  0.1488 -0.3718 -0.4160
 2026SOL    HW117540   0.203   3.848  13.054  2.7861 -1.2943 -0.4843
 2026SOL    HW217541   0.131   3.728  13.015  0.3328  1.2408 -1.2782
 2027SOL     OW17542   3.219   3.895   7.885  0.6287  0.4740 -0.0329
 2027SOL    HW117543   3.190   3.827   7.824  2.7136  0.0697 -0.5703
 2027SOL    HW217544   3.296   3.865   7.933  0.2808 -1.7727 -0.8468
 2028SOL     OW17545   4.220   2.683   4.713 -0.1685 -0.1841  0.4685
 2028SOL    HW117546   4.154   2.751   4.696 -0.4290 -0.7209 -0.6898
 2028SOL    HW217547   4.170   2.602   4.700 -1.2466  0.4139  0.8984
 2029SOL     OW17548   2.296   0.632  14.505 -0.0947 -0.5758 -0.2309
 2029SOL    HW117549   2.345   0.708  14.537 -1.1197 -0.3936  0.8644
 2029SOL    HW217550   2.361   0.565  14.526 -1.3816 -2.0993 -1.1427
 2030SOL     OW17551   1.594   2.342   4.040  0.2996  0.2849 -0.3594
 2030SOL    HW117552   1.643   2.401   4.096  0.9275 -0.3117 -0.2814
 2030SOL    HW217553   1.519   2.323   4.096  0.7767 -0.8627 -0.1126
 2031SOL     OW17554   1.503   1.435   5.549  0.2757  0.0934  0.1788
 2031SOL    HW117555   1.506   1.340   5.538 -1.0065  0.0161  0.5481
 2031SOL    HW217556   1.564   1.452   5.477  0.5466 -0.9279  0.1676
 2032SOL     OW17557   0.436   4.670   7.480 -0.0589  0.3918  0.3936
 2032SOL    HW117558   0.455   4.665   7.387 -0.3898  1.6901  0.2658
 2032SOL    HW217559   0.358   4.614   7.488  0.3483 -0.0275  1.4942
 2033SOL     OW17560   1.428   0.825  16.760  0.4566 -0.6159 -0.2607
 2033SOL    HW117561   1.373   0.878  16.703 -0.3039 -1.3574 -0.2080
 2033SOL    HW217562   1.408   0.865  16.844 -1.8707 -1.8402 -0.2448
 2034SOL     OW17563   2.947   4.716   6.202 -0.1443  0.4485  0.0383
 2034SOL    HW117564   2.911   4.637   6.244  2.9294 -0.0571  1.7351
 2034SOL    HW217565   3.040   4.697   6.213 -0.2679 -0.1250  0.1147
 2035SOL     OW17566   3.452   3.980   3.856 -0.2642  0.1225 -0.1821
 2035SOL    HW117567   3.376   4.034   3.833 -1.1691 -0.7112  0.8757
 2035SOL    HW217568   3.429   3.895   3.817  1.9080 -0.3970 -0.3070
 2036SOL     OW17569   1.563   1.404   2.811  0.5832 -0.4817  0.1178
 2036SOL    HW117570   1.577   1.310   2.819 -1.7251 -0.8234 -0.0510
 2036SOL    HW217571   1.598   1.423   2.724  0.8303 -0.2231  0.2715
 2037SOL     OW17572   0.685   0.741   3.177  0.1096 -0.6215 -0.1374
 2037SOL    HW117573   0.747   0.669   3.168 -0.5979 -1.4779  1.9973
 2037SOL    HW217574   0.666   0.755   3.084 -0.4097 -1.3829 -0.1479
 2038SOL     OW17575   2.456   3.053  16.863 -0.0360 -0.0220 -0.0017
 2038SOL    HW117576   2.411   2.969  16.869  0.5820 -0.1796  2.6068
 2038SOL    HW217577   2.420   3.079  16.779 -1.0297  0.1408  0.4743
 2039SOL     OW17578   0.095   2.850   2.051 -0.3137  0.0630  0.7530
 2039SOL    HW117579   0.010   2.857   2.008 -0.6942 -0.1844  1.4650
 2039SOL    HW217580   0.148   2.829   1.974  0.3092  0.5035  1.0705
 2040SOL     OW17581   1.998   1.068   3.706  0.0149  0.2507 -0.3026
 2040SOL    HW117582   1.990   1.005   3.778 -3.0302  1.2750  0.2407
 2040SOL    HW217583   1.936   1.044   3.638 -0.3439 -2.4809  0.9788
 2041SOL     OW17584   2.785   0.260   2.039 -0.2682  0.1078  0.2263
 2041SOL    HW117585   2.833   0.308   2.106  1.2611  1.2496 -1.6882
 2041SOL    HW217586   2.827   0.284   1.957 -0.8321  0.8905  0.1668
 2042SOL     OW17587   0.166   0.369   2.698  0.4166 -0.3355 -0.2672
 2042SOL    HW117588   0.080   0.371   2.741  0.2721 -0.7956 -0.5355
 2042SOL    HW217589   0.215   0.415   2.765  3.0861 -3.3292 -0.1472
 2043SOL     OW17590   0.527   0.141   4.229  0.3395  0.5345 -0.7017
 2043SOL    HW117591   0.458   0.110   4.171  0.6219 -0.3123 -0.5888
 2043SOL    HW217592   0.602   0.132   4.170  3.0692  0.5324  2.7078
 2044SOL     OW17593   3.849   2.556   5.838 -0.2090  0.6449  0.4835
 2044SOL    HW117594   3.777   2.601   5.882  0.9531  1.1049  1.9062
 2044SOL    HW217595   3.829   2.473   5.881 -0.3183 -1.1328 -2.9892
 2045SOL     OW17596   0.775   2.069   2.115 -0.0505 -0.6094  0.2190
 2045SOL    HW117597   0.716   2.119   2.059 -0.1788  0.7120  1.5074
 2045SOL    HW217598   0.767   1.988   2.066 -1.5957 -1.2901  1.5905
 2046SOL     OW17599   3.839   1.213   3.586  0.1525 -0.2531  0.1111
 2046SOL    HW117600   3.813   1.305   3.589  1.5371  0.0761  2.1813
 2046SOL    HW217601   3.928   1.221   3.550 -0.7523  1.6944 -1.7083
 2047SOL     OW17602   3.203   2.295   6.442 -0.3380  0.1006  0.0527
 2047SOL    HW117603   3.125   2.350   6.453  0.2396  1.0832 -0.7832
 2047SOL    HW217604   3.158   2.212   6.426  1.7690 -0.9262 -0.4553
 2048SOL     OW17605   0.414   0.661  15.403 -0.4590  0.0880  0.4377
 2048SOL    HW117606   0.487   0.614  15.363 -0.4652  1.3032 -1.0097
 2048SOL    HW217607   0.349   0.648  15.334 -0.1422  2.3351 -0.2966
 2049SOL     OW17608   0.638   4.428  16.525 -0.6428 -0.0438 -0.3202
 2049SOL    HW117609   0.618   4.334  16.527  0.3035 -0.2497 -0.1512
 2049SOL    HW217610   0.725   4.433  16.486  0.1802 -1.6270  1.2814
 2050SOL     OW17611   3.061   4.294   1.328  1.0066 -0.3693 -0.5060
 2050SOL    HW117612   3.040   4.264   1.416 -0.0354 -1.6293 -1.1943
 2050SOL    HW217613   2.977   4.299   1.282  0.4511  0.8720  0.6380
 2051SOL     OW17614   1.311   1.388   1.817  0.6343 -0.5239  0.6360
 2051SOL    HW117615   1.405   1.386   1.795  0.5423  1.1850  0.0954
 2051SOL    HW217616   1.319   1.348   1.904 -1.0152 -0.3061  0.8843
 2052SOL     OW17617   2.866   3.043   6.486 -0.5079 -0.0059  0.0925
 2052SOL    HW117618   2.789   3.033   6.431  0.1210  2.2740 -1.2145
 2052SOL    HW217619   2.897   2.954   6.504 -0.6450  0.1177  0.9111
 2053SOL     OW17620   3.211   2.319   9.643 -0.8452  0.1446 -0.0493
 2053SOL    HW117621   3.120   2.320   9.674 -0.4042 -0.2513  1.2136
 2053SOL    HW217622   3.198   2.261   9.568 -1.0098  1.2603 -0.9009
 2054SOL     OW17623   2.896   1.705   2.307 -0.0220 -0.6319 -0.4917
 2054SOL    HW117624   2.954   1.738   2.238 -0.4475 -0.1752 -0.6303
 2054SOL    HW217625   2.954   1.634   2.337 -1.7788 -1.3827  1.1395
 2055SOL     OW17626   1.213   0.952   2.150 -0.3215 -0.3637  0.2882
 2055SOL    HW117627   1.212   0.872   2.202 -2.4876 -0.3680  0.2496
 2055SOL    HW217628   1.305   0.976   2.163 -0.5962  1.7946 -1.6699
 2056SOL     OW17629   0.922   0.066   4.737 -0.2076 -0.5770 -0.0374
 2056SOL    HW117630   0.847   0.022   4.696 -0.6853  1.0042 -0.8393
 2056SOL    HW217631   0.889   0.155   4.748  1.5953  0.1755 -0.8978
 2057SOL     OW17632   3.771   4.615  11.730  0.9077  0.2456 -0.1080
 2057SOL    HW117633   3.837   4.580  11.789 -2.2923 -4.1178  0.9031
 2057SOL    HW217634   3.708   4.661  11.785  0.3851  0.8042 -1.1623
 2058SOL     OW17635   1.556   1.182   4.514 -0.5223  0.4572 -0.0424
 2058SOL    HW117636   1.532   1.201   4.423  0.5795  2.9251  0.1728
 2058SOL    HW217637   1.499   1.248   4.553 -2.5176 -0.3260 -1.6118
 2059SOL     OW17638   2.250   0.253   3.218 -0.6742  0.2695 -0.2037
 2059SOL    HW117639   2.298   0.303   3.153 -2.2479  0.0185 -1.5894
 2059SOL    HW217640   2.318   0.242   3.284 -0.0482 -1.4751 -1.1471
 2060SOL     OW17641   3.575   3.293   3.905  0.0914  0.4026 -0.4201
 2060SOL    HW117642   3.589   3.204   3.939  1.4786  0.7985  0.0308
 2060SOL    HW217643   3.495   3.317   3.951  0.3549  0.0110  0.2482
 2061SOL     OW17644   2.031   4.034   8.298  0.8744 -0.1812 -0.0715
 2061SOL    HW117645   2.088   4.100   8.337 -2.0481  1.3789  1.5267
 2061SOL    HW217646   1.956   4.092   8.294  1.2086  0.0822 -2.3080
 2062SOL     OW17647   2.218   1.292   4.830  0.2870  0.1794  0.2244
 2062SOL    HW117648   2.264   1.367   4.867  0.5190  1.1272 -1.9704
 2062SOL    HW217649   2.170   1.252   4.902 -0.2803 -0.3515 -0.4387
 2063SOL     OW17650   1.455   1.272  13.616 -0.2544  0.6838  0.0808
 2063SOL    HW117651   1.545   1.306  13.620 -0.3224  0.8869 -0.1132
 2063SOL    HW217652   1.438   1.215  13.691 -2.4833 -0.0662 -0.9981
 2064SOL     OW17653   1.708   4.667  11.990 -0.4333  0.0901 -0.5744
 2064SOL    HW117654   1.702   4.715  12.072  0.6858 -1.6228  0.4934
 2064SOL    HW217655   1.691   0.017  11.930  0.1313  1.4534  0.9371
 2065SOL     OW17656   1.012   4.051   3.784  0.5164  0.1864  0.0727
 2065SOL    HW117657   1.052   4.100   3.712 -0.0077 -0.5904 -0.7392
 2065SOL    HW217658   0.921   4.047   3.756  0.5239 -0.0931  0.0931
 2066SOL     OW17659   0.582   0.784   9.172  0.1938  0.3469 -0.4013
 2066SOL    HW117660   0.612   0.702   9.211  1.2427 -0.1398 -2.2240
 2066SOL    HW217661   0.610   0.855   9.230  1.1506  0.1418 -0.6006
 2067SOL     OW17662   3.705   1.014   7.220 -0.1178  0.2797  0.3407
 2067SOL    HW117663   3.724   0.922   7.236 -0.1227  0.2371  0.1023
 2067SOL    HW217664   3.675   1.017   7.129  1.3644  2.3853 -0.0694
 2068SOL     OW17665   2.012   1.797   6.975 -0.3527 -0.2590 -0.6119
 2068SOL    HW117666   1.949   1.866   6.955  0.7157  0.5116 -1.2705
 2068SOL    HW217667   1.963   1.724   6.937  2.1630 -2.0549 -0.3818
 2069SOL     OW17668   3.837   0.524  17.057 -0.2165 -0.2057  0.2275
 2069SOL    HW117669   3.742   0.530  17.052 -0.3697 -1.0128  2.0536
 2069SOL    HW217670   3.846   0.570  17.141 -1.3694  0.6995 -0.1536
 2070SOL     OW17671   1.482   0.083   7.143  0.2789  0.0747  0.2731
 2070SOL    HW117672   1.518   0.162   7.184 -0.0142  0.0708  0.5389
 2070SOL    HW217673   1.524   0.024   7.206 -1.7291  0.2820  1.8010
 2071SOL     OW17674   0.134   1.059   9.603 -0.2163 -0.2779 -0.3326
 2071SOL    HW117675   0.173   1.147   9.599  1.1502 -0.8860 -0.4955
 2071SOL    HW217676   0.189   1.021   9.671 -0.8979 -0.2752  0.2154
 2072SOL     OW17677   3.920   1.316   6.966  0.0246  0.4475 -0.3902
 2072SOL    HW117678   3.917   1.250   6.896 -1.0374 -0.1449  0.2257
 2072SOL    HW217679   3.995   1.281   7.014 -1.4100  0.2649  1.7135
 2073SOL     OW17680   3.642   2.655   4.362 -0.1592  0.0714  0.1781
 2073SOL    HW117681   3.682   2.569   4.379 -1.1943  0.0847  2.6840
 2073SOL    HW217682   3.618   2.682   4.451 -0.7058 -1.1629  0.4088
 2074SOL     OW17683   4.210   1.161  17.508  0.3953  0.1865 -0.3124
 2074SOL    HW117684   4.278   1.206  17.557 -1.1881 -0.5172  2.5156
 2074SOL    HW217685   4.251   1.155  17.421 -1.4255 -0.5854 -1.1175
 2075SOL     OW17686   3.405   3.638   3.498  0.0505  0.1643 -0.3337
 2075SOL    HW117687   3.413   3.607   3.408  0.5049  0.1367 -0.2832
 2075SOL    HW217688   3.374   3.727   3.481 -0.9378 -0.4542 -1.8180
 2076SOL     OW17689   1.426   0.417   5.201 -0.2892 -0.1616  0.0828
 2076SOL    HW117690   1.489   0.400   5.271 -0.1804 -0.0643  0.0100
 2076SOL    HW217691   1.445   0.350   5.135 -1.8878 -1.2643  0.7535
 2077SOL     OW17692   3.074   0.391   7.428  0.0808  0.6550 -0.5851
 2077SOL    HW117693   3.104   0.327   7.492  0.1706  0.2363 -1.0460
 2077SOL    HW217694   2.996   0.426   7.471 -1.1236 -1.9605 -0.6564
 2078SOL     OW17695   0.725   0.489   1.951 -0.2822 -0.1910  0.3272
 2078SOL    HW117696   0.698   0.478   1.860 -1.4865 -1.6545  0.8595
 2078SOL    HW217697   0.795   0.554   1.944  0.4224 -1.1659 -1.7044
 2079SOL     OW17698   4.458   2.515   3.609  0.4054 -0.1510 -0.4417
 2079SOL    HW117699   4.458   2.499   3.515 -1.1027 -0.8955 -0.3009
 2079SOL    HW217700   4.541   2.565   3.609  1.0141 -1.1791 -1.4469
 2080SOL     OW17701   3.393   1.153   1.651  0.2102  0.3242  0.0187
 2080SOL    HW117702   3.409   1.188   1.738  1.0095  0.8954 -0.3602
 2080SOL    HW217703   3.401   1.059   1.666 -0.2397  0.6451  2.2463
 2081SOL     OW17704   3.655   0.015   3.115 -0.5145  0.3705 -0.5489
 2081SOL    HW117705   3.660   4.650   3.150  0.4459  0.4306 -0.5241
 2081SOL    HW217706   3.579   0.020   3.057 -0.3050  0.9813 -0.7781
 2082SOL     OW17707   0.389   2.035  17.678 -0.6758 -0.2692  0.9240
 2082SOL    HW117708   0.443   1.984  17.618 -1.4775 -1.2784  1.0657
 2082SOL    HW217709   0.310   2.045  17.625 -1.6156 -2.8140  1.8533
 2083SOL     OW17710   1.377   1.230  11.445  0.0304  0.5064 -0.2025
 2083SOL    HW117711   1.371   1.202  11.536  1.7851 -0.0380 -0.2641
 2083SOL    HW217712   1.389   1.145  11.402 -0.4920  0.0187  0.6251
 2084SOL     OW17713   0.073   3.164  14.126  0.5952 -0.3379 -0.1955
 2084SOL    HW117714   0.045   3.255  14.134 -1.5595 -1.1859  1.8622
 2084SOL    HW217715   0.139   3.161  14.057  1.2942  0.5055  0.4360
 2085SOL     OW17716   0.535   3.394  12.233  0.4309 -0.2718  0.0801
 2085SOL    HW117717   0.561   3.335  12.304  0.8120  0.7042  0.7407
 2085SOL    HW217718   0.450   3.430  12.257 -0.3247 -1.5173 -0.6945
 2086SOL     OW17719   3.451   3.953  14.925 -0.1780 -0.1464  0.8164
 2086SOL    HW117720   3.469   3.913  15.010 -0.3605 -1.7996  0.0861
 2086SOL    HW217721   3.355   3.958  14.929 -0.1678  0.1037  0.7139
 2087SOL     OW17722   4.650   3.905  13.881  0.2612  0.1919  0.1514
 2087SOL    HW117723   0.021   3.921  13.876  0.2217 -0.1780 -1.9338
 2087SOL    HW217724   4.636   3.972  13.948  1.8954 -0.0521  0.7122
 2088SOL     OW17725   2.743   4.127   8.973 -0.0970 -0.1724  0.4232
 2088SOL    HW117726   2.777   4.121   8.884  1.1753 -0.1882  0.9149
 2088SOL    HW217727   2.699   4.042   8.985  1.7963 -0.7719  3.1856
 2089SOL     OW17728   3.081   2.015   4.718 -0.5028 -0.7166  0.1061
 2089SOL    HW117729   3.055   2.083   4.656  3.6991  0.7607  0.0011
 2089SOL    HW217730   3.111   1.950   4.655  0.6320  1.2319 -1.3404
 2090SOL     OW17731   0.037   4.248   6.453 -0.2608 -0.3845 -0.5641
 2090SOL    HW117732   4.702   4.224   6.381  0.4684 -0.1383 -1.2488
 2090SOL    HW217733   0.068   4.329   6.413  1.6056 -1.2038 -0.7849
 2091SOL     OW17734   0.494   4.278   8.029  0.2354  0.2635  0.6562
 2091SOL    HW117735   0.539   4.214   8.084 -0.4360 -3.1555 -2.7605
 2091SOL    HW217736   0.518   4.251   7.941 -1.1376 -1.5168  0.8172
 2092SOL     OW17737   4.326   4.105   8.326 -0.2020 -0.0495 -0.4705
 2092SOL    HW117738   4.319   4.106   8.422  0.1471 -0.7996 -0.4335
 2092SOL    HW217739   4.391   4.035   8.313  1.2854  1.3019 -0.3255
 2093SOL     OW17740   2.386   3.175   9.669 -0.6087 -0.4535 -0.0012
 2093SOL    HW117741   2.340   3.159   9.751 -1.0321 -0.9707 -0.3382
 2093SOL    HW217742   2.472   3.198   9.704  0.0449 -1.9048 -0.6770
 2094SOL     OW17743   3.241   3.229   5.225 -0.1425  0.5291 -0.2824
 2094SOL    HW117744   3.316   3.279   5.193  0.2215 -0.2955 -0.7442
 2094SOL    HW217745   3.209   3.190   5.143  1.4246  1.6573 -1.4248
 2095SOL     OW17746   0.201   1.503   8.903 -0.4985  0.3694  0.0391
 2095SOL    HW117747   0.202   1.496   8.998 -0.3920 -0.8680 -0.0512
 2095SOL    HW217748   0.113   1.497   8.865  0.3165 -2.4089 -1.4275
 2096SOL     OW17749   3.281   1.638   1.479  0.4841 -0.1013 -0.2686
 2096SOL    HW117750   3.276   1.542   1.478  0.1936 -0.0744 -1.0850
 2096SOL    HW217751   3.363   1.654   1.433 -0.1310  0.8458 -1.0263
 2097SOL     OW17752   2.443   1.979   0.039 -0.2621  0.0329 -0.2069
 2097SOL    HW117753   2.484   2.023   0.113 -1.4511 -0.8740  0.9865
 2097SOL    HW217754   2.495   2.015  17.663  2.2789 -0.7347  1.2365
 2098SOL     OW17755   1.040   3.373   8.881  0.1431  0.1636 -0.2958
 2098SOL    HW117756   1.017   3.401   8.969  0.6813 -0.2238 -0.0340
 2098SOL    HW217757   1.103   3.435   8.845  2.1773 -1.2142  0.9106
 2099SOL     OW17758   2.692   3.844   1.055 -0.1672  0.0471 -0.1234
 2099SOL    HW117759   2.770   3.900   1.054  2.4770 -3.6623 -0.3651
 2099SOL    HW217760   2.620   3.906   1.070 -0.0420 -0.7075  3.6927
 2100SOL     OW17761   2.841   2.617  13.813 -0.3685  0.1378  1.1557
 2100SOL    HW117762   2.865   2.632  13.721 -0.8348 -1.4989  0.7575
 2100SOL    HW217763   2.783   2.692  13.824  0.0272  0.9669 -2.2928
 2101SOL     OW17764   0.814   0.465   8.594  0.6832  0.1901 -0.2677
 2101SOL    HW117765   0.782   0.419   8.672 -2.1370 -1.2602 -2.2665
 2101SOL    HW217766   0.739   0.514   8.560  0.7560  1.2532  1.1184
 2102SOL     OW17767   1.954   3.671   3.000  0.4349  0.3633 -0.8304
 2102SOL    HW117768   1.886   3.662   2.933  0.0797 -0.0780 -0.4174
 2102SOL    HW217769   1.997   3.586   2.989 -1.8235 -0.8578 -0.3168
 2103SOL     OW17770   0.748   1.857   6.738 -0.3397  0.1944 -0.1103
 2103SOL    HW117771   0.737   1.937   6.789  0.4944 -1.0251  2.0008
 2103SOL    HW217772   0.808   1.901   6.678  1.7687  0.9797  2.5490
 2104SOL     OW17773   4.256   1.499  10.279  0.3614  0.3829  0.0456
 2104SOL    HW117774   4.161   1.503  10.292  0.1719 -1.4507 -0.7276
 2104SOL    HW217775   4.279   1.587  10.308 -1.6236  0.8663  0.1282
 2105SOL     OW17776   4.248   2.529  11.115  0.0684  0.1065 -0.5027
 2105SOL    HW117777   4.160   2.540  11.150  0.5103 -1.2578  1.0210
 2105SOL    HW217778   4.280   2.611  11.154  1.0633  0.2780 -1.6697
 2106SOL     OW17779   4.530   1.558   5.593 -0.3302 -0.2196  0.3420
 2106SOL    HW117780   4.588   1.574   5.518 -2.1390 -2.8671 -1.5796
 2106SOL    HW217781   4.505   1.649   5.613 -0.5700 -0.2706  0.2666
 2107SOL     OW17782   4.697   1.684  12.281 -0.1863  0.3939 -1.0791
 2107SOL    HW117783   0.009   1.598  12.305 -2.4714  0.3172  2.0930
 2107SOL    HW217784   4.620   1.668  12.227 -0.6888 -0.4768 -0.1093
 2108SOL     OW17785   1.336   3.460   1.096  0.0772 -0.1413  0.3831
 2108SOL    HW117786   1.278   3.428   1.165 -1.0533 -0.6468 -0.8037
 2108SOL    HW217787   1.327   3.379   1.046  0.7163  0.1410 -0.1866
 2109SOL     OW17788   2.067   3.362  14.165 -0.0298  0.3694 -0.3177
 2109SOL    HW117789   2.148   3.315  14.149 -2.2879 -3.3382 -0.8827
 2109SOL    HW217790   2.080   3.426  14.234  0.1398  2.0983 -1.9616
 2110SOL     OW17791   0.381   0.360   2.065  0.4261 -0.7966 -0.1485
 2110SOL    HW117792   0.474   0.348   2.051  0.4940 -3.5458  2.4454
 2110SOL    HW217793   0.380   0.450   2.099  0.8373 -0.3405 -1.3645
 2111SOL     OW17794   1.238   0.015   4.617 -0.0657  0.5550 -0.3701
 2111SOL    HW117795   1.228   0.098   4.663  2.3166  1.3330 -1.2221
 2111SOL    HW217796   1.157   0.002   4.567 -1.3462  0.6801  1.6888
 2112SOL     OW17797   3.682   2.687   4.669  0.7216  0.0182 -0.3246
 2112SOL    HW117798   3.702   2.651   4.756  0.1793 -0.5261 -0.4218
 2112SOL    HW217799   3.680   2.602   4.625 -1.3950  0.2906 -0.7543
 2113SOL     OW17800   2.058   2.091   1.658 -0.7789 -0.1098 -0.7031
 2113SOL    HW117801   1.970   2.053   1.664 -0.6860 -0.3336 -0.7511
 2113SOL    HW217802   2.119   2.021   1.635 -0.9777  0.4086 -2.8140
 2114SOL     OW17803   4.119   1.094   3.795 -0.1465  0.1164  0.1459
 2114SOL    HW117804   4.207   1.061   3.775  0.5489  0.9425  1.7933
 2114SOL    HW217805   4.070   1.013   3.793 -1.5210  1.0092 -2.0149
 2115SOL     OW17806   2.897   3.940  16.096 -0.3743  1.1441 -0.3307
 2115SOL    HW117807   2.894   4.021  16.148 -1.3000  0.7078  0.3020
 2115SOL    HW217808   2.820   3.948  16.040 -0.6042 -0.7264 -0.2695
 2116SOL     OW17809   0.084   0.334  12.698  0.1162 -0.5307 -0.1660
 2116SOL    HW117810   0.060   0.419  12.662 -1.7856 -1.0832 -0.1792
 2116SOL    HW217811   0.142   0.361  12.769 -1.4149  1.3047  0.3820
 2117SOL     OW17812   0.381   1.703   2.150 -0.0361 -0.0915 -0.2860
 2117SOL    HW117813   0.354   1.640   2.083 -1.3163  0.4591 -0.2689
 2117SOL    HW217814   0.354   1.784   2.108  2.5920  0.8000 -0.2987
 2118SOL     OW17815   3.984   1.938  15.707 -0.1162 -0.2880  0.2652
 2118SOL    HW117816   4.026   1.860  15.743 -0.0745  0.5149  1.9615
 2118SOL    HW217817   4.031   2.014  15.742 -1.9241  1.4996 -1.1194
 2119SOL     OW17818   0.541   1.709   9.374  0.1272  0.1236 -0.2506
 2119SOL    HW117819   0.497   1.778   9.424 -0.6945  0.3056 -1.2038
 2119SOL    HW217820   0.595   1.764   9.318 -0.8749  0.9096 -0.4574
 2120SOL     OW17821   4.042   3.300   4.235 -0.1264 -0.1246 -0.6157
 2120SOL    HW117822   3.972   3.316   4.172 -0.1428 -0.1529 -0.6049
 2120SOL    HW217823   4.108   3.272   4.172  0.0551 -2.2399  0.4995
 2121SOL     OW17824   0.928   0.187   8.347  0.2517 -0.0762  0.2632
 2121SOL    HW117825   0.957   0.161   8.434  0.8574  1.8084  0.6131
 2121SOL    HW217826   0.952   0.279   8.338 -0.2226 -0.1002 -1.3361
 2122SOL     OW17827   2.494   2.241   8.254 -0.2738 -0.1273  0.1337
 2122SOL    HW117828   2.474   2.154   8.219 -1.3670  1.3952 -3.0770
 2122SOL    HW217829   2.590   2.243   8.250 -0.2910 -1.1657 -1.1894
 2123SOL     OW17830   0.790   0.362  10.391 -0.1128  0.3573  0.1328
 2123SOL    HW117831   0.725   0.339  10.324  1.4739 -0.2912 -1.1842
 2123SOL    HW217832   0.859   0.305  10.357  0.0456  1.0210 -0.6500
 2124SOL     OW17833   1.107   0.371   1.894 -0.2187 -0.1626  0.1930
 2124SOL    HW117834   1.079   0.351   1.805 -2.5812  0.3232  0.8497
 2124SOL    HW217835   1.032   0.423   1.921  0.0886  0.2768  0.2020
 2125SOL     OW17836   4.557   2.940   5.776  0.2338  0.6517 -0.0082
 2125SOL    HW117837   4.642   2.897   5.783  1.1809  2.7038  1.0018
 2125SOL    HW217838   4.515   2.877   5.716  0.7234 -0.0269  0.3601
 2126SOL     OW17839   1.810   2.179   2.809  0.1210  0.2835  0.3019
 2126SOL    HW117840   1.884   2.159   2.751 -2.0724  1.7854 -3.0116
 2126SOL    HW217841   1.854   2.217   2.885  0.2526 -0.8888  0.8171
 2127SOL     OW17842   1.524   0.745   9.563  0.8227  0.1955 -0.3899
 2127SOL    HW117843   1.597   0.765   9.622  1.3022 -0.7657 -0.6731
 2127SOL    HW217844   1.486   0.833   9.553 -0.0962  0.0274  1.4980
 2128SOL     OW17845   1.100   0.868   4.599 -0.8917 -0.0422  0.3697
 2128SOL    HW117846   1.021   0.918   4.581  0.3791  1.2620 -1.5655
 2128SOL    HW217847   1.100   0.858   4.694 -1.8236 -1.0451  0.2636
 2129SOL     OW17848   1.819   0.226   8.770  0.1627  0.0053 -0.1269
 2129SOL    HW117849   1.733   0.186   8.784  0.7501 -1.6948 -1.3127
 2129SOL    HW217850   1.781   0.303   8.728 -0.6077 -0.9216 -1.1343
 2130SOL     OW17851   0.558   4.223  15.833 -0.5128  0.4681  0.0348
 2130SOL    HW117852   0.620   4.214  15.760 -0.4195 -1.2308  0.3231
 2130SOL    HW217853   0.620   4.178  15.890 -3.3486 -0.7434  2.1113
 2131SOL     OW17854   4.247   0.814   2.978 -0.0804 -0.0755 -0.2872
 2131SOL    HW117855   4.278   0.731   2.942 -0.3091 -1.0496  1.7923
 2131SOL    HW217856   4.194   0.846   2.905 -0.3193 -2.4463 -1.1718
 2132SOL     OW17857   0.549   0.252  13.017  0.7301 -0.4660  0.3708
 2132SOL    HW117858   0.640   0.243  13.043  0.4596  1.6045  2.0022
 2132SOL    HW217859   0.553   0.339  12.979  0.9631 -1.0444 -0.9298
 2133SOL     OW17860   4.647   1.206   3.246  0.2216 -0.1021  0.5588
 2133SOL    HW117861   4.581   1.273   3.232  0.4265  0.3958  2.0540
 2133SOL    HW217862   4.650   1.168   3.158 -0.0720 -0.4750  0.7087
 2134SOL     OW17863   2.335   1.962   6.714  0.4778  0.0411 -0.2651
 2134SOL    HW117864   2.324   1.867   6.721 -1.2903  0.1464 -1.2573
 2134SOL    HW217865   2.345   1.984   6.806 -0.6710  1.8573 -0.5639
 2135SOL     OW17866   3.699   3.438  13.721  0.3044  0.7671  0.4271
 2135SOL    HW117867   3.751   3.516  13.703  1.0022 -0.0258 -0.9652
 2135SOL    HW217868   3.717   3.421  13.814  2.8923 -3.5150 -0.8848
 2136SOL     OW17869   4.665   2.545  11.542  0.3710  0.0013  0.9971
 2136SOL    HW117870   4.679   2.489  11.618  1.2392 -0.9694  0.1336
 2136SOL    HW217871   0.031   2.564  11.515  1.0604 -1.4952  2.2029
 2137SOL     OW17872   1.809   4.171   9.048 -0.0241  0.4979  0.5814
 2137SOL    HW117873   1.762   4.165   9.131 -2.1385 -0.1790 -0.6391
 2137SOL    HW217874   1.845   4.260   9.043  1.8576 -0.3664 -0.9973
 2138SOL     OW17875   2.665   0.320   9.006  0.1216 -0.3951  0.2196
 2138SOL    HW117876   2.579   0.363   9.005  0.6205  0.5837 -0.4465
 2138SOL    HW217877   2.678   0.292   9.097 -1.8017  2.1227  1.2776
 2139SOL     OW17878   2.766   2.274   8.272  0.3067 -0.4166 -0.2869
 2139SOL    HW117879   2.790   2.263   8.364  1.2439  0.3940 -0.4384
 2139SOL    HW217880   2.833   2.341   8.256 -0.9953  1.1446  0.6986
 2140SOL     OW17881   3.482   2.872   3.248 -0.1738 -0.5067  0.2538
 2140SOL    HW117882   3.548   2.880   3.316  0.3627 -0.6059 -0.2579
 2140SOL    HW217883   3.496   2.948   3.192  0.2617 -0.4226  0.4790
 2141SOL     OW17884   3.727   1.931  14.957  0.8053 -0.0574 -0.1522
 2141SOL    HW117885   3.719   2.017  14.916 -0.4168 -0.3022 -0.4261
 2141SOL    HW217886   3.645   1.893  14.925  0.6536 -0.0549  0.2383
 2142SOL     OW17887   0.278   2.947  13.237 -0.1557 -0.7020  0.3938
 2142SOL    HW117888   0.193   2.906  13.257 -0.6550 -0.2563 -0.8083
 2142SOL    HW217889   0.289   2.904  13.152 -0.6856 -0.1326  0.0418
 2143SOL     OW17890   3.111   4.403   3.475  0.1246 -0.4912  0.8389
 2143SOL    HW117891   3.139   4.456   3.550  1.4024 -0.7860  0.5685
 2143SOL    HW217892   3.023   4.440   3.466  1.0539  1.1621 -1.6111
 2144SOL     OW17893   0.690   4.693  12.459  0.1083  0.0156 -0.0215
 2144SOL    HW117894   0.621   4.694  12.525 -0.2576  0.2951 -0.4091
 2144SOL    HW217895   0.645   0.034  12.404 -0.1647  0.6054  0.8857
 2145SOL     OW17896   3.638   3.142   6.702  0.3176  0.0658  0.6620
 2145SOL    HW117897   3.617   3.225   6.659 -1.1050 -1.4331 -1.5074
 2145SOL    HW217898   3.562   3.137   6.761 -0.6683 -1.3053 -0.7387
 2146SOL     OW17899   3.068   2.731  15.613 -0.3539  0.3998  0.1679
 2146SOL    HW117900   3.013   2.773  15.547  0.3855  1.0629 -0.0251
 2146SOL    HW217901   3.052   2.638  15.596  1.8979  0.4374 -2.2346
 2147SOL     OW17902   2.845   4.152   4.815 -0.4121  0.2957 -0.2461
 2147SOL    HW117903   2.755   4.180   4.800 -0.5642  0.9246  1.9076
 2147SOL    HW217904   2.828   4.072   4.864  1.0162  1.6149  2.4062
 2148SOL     OW17905   4.589   2.923   3.482  0.5396 -0.3687 -0.0557
 2148SOL    HW117906   4.655   2.856   3.501 -0.1137 -1.1083 -0.3517
 2148SOL    HW217907   4.503   2.883   3.496 -0.9342  2.8656 -0.0773
 2149SOL     OW17908   1.376   0.995  16.967  0.1680  0.3902  0.2086
 2149SOL    HW117909   1.337   1.082  16.959 -0.7288 -0.2910 -3.0176
 2149SOL    HW217910   1.418   1.011  17.051  2.4718  2.5045 -1.3470
 2150SOL     OW17911   0.123   0.609  14.718  0.3599 -0.2192  0.0859
 2150SOL    HW117912   0.127   0.545  14.647 -2.6228  0.8640 -1.0131
 2150SOL    HW217913   0.187   0.675  14.692 -0.7464 -0.0075 -2.0644
 2151SOL     OW17914   4.332   3.265   1.770 -0.1589 -0.2833 -0.3405
 2151SOL    HW117915   4.292   3.219   1.696 -2.9110  2.9987 -0.9011
 2151SOL    HW217916   4.416   3.285   1.729 -1.0154  0.3608 -1.7880
 2152SOL     OW17917   3.715   4.509   1.067  0.4365  0.2803  0.0195
 2152SOL    HW117918   3.726   4.517   1.162 -0.3209  1.5520  0.0122
 2152SOL    HW217919   3.733   4.418   1.045  2.7718  0.6320  0.4905
 2153SOL     OW17920   4.645   4.455   2.223  0.1635 -0.2667  0.0664
 2153SOL    HW117921   4.715   4.491   2.170 -0.4025 -0.5561 -0.8728
 2153SOL    HW217922   4.614   4.535   2.265 -2.1716 -0.7314 -0.7619
 2154SOL     OW17923   1.417   1.855   4.739  0.0423  0.0616  0.5794
 2154SOL    HW117924   1.347   1.915   4.715 -0.4222 -1.3632 -1.6308
 2154SOL    HW217925   1.379   1.832   4.824 -0.0560  1.1821  0.8337
 2155SOL     OW17926   4.548   2.405  11.915 -0.3777  0.2759  0.0500
 2155SOL    HW117927   4.528   2.375  11.827 -1.6728  0.4592  0.2808
 2155SOL    HW217928   4.580   2.494  11.902  1.0063 -0.3169 -0.5706
 2156SOL     OW17929   1.771   2.210  11.685 -0.3031 -0.8544  0.0431
 2156SOL    HW117930   1.784   2.302  11.661  0.7935 -1.0381 -0.0539
 2156SOL    HW217931   1.736   2.218  11.774  0.3796  0.2859  0.2159
 2157SOL     OW17932   2.791   3.569   4.715  0.1429  0.3415 -0.5176
 2157SOL    HW117933   2.817   3.546   4.626  0.8475 -0.5158 -0.0936
 2157SOL    HW217934   2.843   3.512   4.771  1.0549  1.3348 -0.3459
 2158SOL     OW17935   2.641   1.406   4.747  0.1105 -0.0913 -0.5199
 2158SOL    HW117936   2.690   1.486   4.768  0.9896 -0.9777  0.7720
 2158SOL    HW217937   2.611   1.379   4.834 -1.2260 -0.6102 -1.1347
 2159SOL     OW17938   1.190   1.390   3.132  0.1277 -0.3812 -0.0540
 2159SOL    HW117939   1.243   1.320   3.095  1.3397  1.0929 -1.1016
 2159SOL    HW217940   1.141   1.423   3.057 -2.0884  1.0442  2.0122
 2160SOL     OW17941   4.655   3.927  10.884 -0.6815  0.0739  0.2239
 2160SOL    HW117942   4.719   3.983  10.928 -0.8202  0.9582 -0.7048
 2160SOL    HW217943   4.689   3.839  10.898  0.7873  0.6256  0.1982
 2161SOL     OW17944   3.036   3.678  15.191 -0.0516  0.2513 -0.2818
 2161SOL    HW117945   2.994   3.712  15.270  0.9827  0.8365  0.0160
 2161SOL    HW217946   3.121   3.722  15.193  0.7447 -1.3708  2.2641
 2162SOL     OW17947   3.351   0.420  15.470 -0.2573  0.1597 -0.0950
 2162SOL    HW117948   3.284   0.479  15.506  1.0326  3.4025 -3.0247
 2162SOL    HW217949   3.433   0.456  15.505  1.4337 -2.0938 -1.7728
 2163SOL     OW17950   1.251   3.974   4.349 -0.6602 -0.5261  0.4183
 2163SOL    HW117951   1.184   3.944   4.287  0.4562  1.7179 -1.8881
 2163SOL    HW217952   1.199   3.966   4.429  0.8586  2.5212  1.7123
 2164SOL     OW17953   0.422   1.189   6.065  0.0775  0.2560 -0.5924
 2164SOL    HW117954   0.404   1.097   6.082 -2.4420  1.1889  1.7165
 2164SOL    HW217955   0.446   1.220   6.152 -0.1834 -0.8457 -0.1335
 2165SOL     OW17956   0.168   2.815  11.613  0.3177  0.5531 -0.1319
 2165SOL    HW117957   0.247   2.856  11.578  0.5013  1.2358  1.0599
 2165SOL    HW217958   0.104   2.837  11.545  0.7975  0.6350 -0.5584
 2166SOL     OW17959   3.267   4.151  11.586 -0.4660 -0.2337  0.2491
 2166SOL    HW117960   3.203   4.095  11.628 -0.3310 -1.4598 -1.1907
 2166SOL    HW217961   3.344   4.122  11.636 -1.2799 -1.4430  0.7898
 2167SOL     OW17962   0.043   3.239   5.294  0.3478 -0.1533  0.5529
 2167SOL    HW117963   4.720   3.321   5.280  1.8366  0.4052 -1.2245
 2167SOL    HW217964   4.716   3.207   5.369  0.6579  1.3809  1.4024
 2168SOL     OW17965   4.053   3.858   2.839  0.1784 -0.0197  0.0356
 2168SOL    HW117966   4.102   3.940   2.844  1.1263 -0.5715 -0.1857
 2168SOL    HW217967   3.991   3.885   2.771  2.0265  2.4056 -0.6926
 2169SOL     OW17968   3.815   1.787   6.255  0.1295  0.1148 -0.0490
 2169SOL    HW117969   3.872   1.715   6.282 -0.6933 -0.8084 -0.7582
 2169SOL    HW217970   3.732   1.752   6.286  0.9127 -2.3440 -0.7741
 2170SOL     OW17971   1.306   4.218   9.373 -0.3454 -0.7005 -0.2268
 2170SOL    HW117972   1.367   4.145   9.369  1.5888  0.9316 -0.5738
 2170SOL    HW217973   1.298   4.227   9.468 -2.2170  0.2923 -0.4713
 2171SOL     OW17974   1.860   4.698  17.509 -0.1042 -0.6171 -0.9248
 2171SOL    HW117975   1.938   4.660  17.469  0.1356 -0.4653 -0.6019
 2171SOL    HW217976   1.852   0.054  17.458 -3.7844 -2.1878 -2.8063
 2172SOL     OW17977   0.225   2.664   2.538 -0.6450 -0.1172  0.3980
 2172SOL    HW117978   0.224   2.569   2.528  0.9170  0.0187 -1.1095
 2172SOL    HW217979   0.184   2.688   2.456 -0.5992  1.4958  0.8370
 2173SOL     OW17980   0.201   2.682  11.849 -0.4089 -0.6709 -0.3141
 2173SOL    HW117981   0.208   2.737  11.771  0.5984 -1.6853 -0.9328
 2173SOL    HW217982   0.139   2.614  11.822 -0.9378 -0.9617  1.6388
 2174SOL     OW17983   0.779   0.921   3.676 -0.0423  0.2767 -0.0665
 2174SOL    HW117984   0.781   0.922   3.580  3.3533 -0.5101 -0.0239
 2174SOL    HW217985   0.696   0.966   3.692  1.3639  2.9431 -0.3869
 2175SOL     OW17986   2.529   4.160   0.376 -0.2158 -0.2344 -0.0721
 2175SOL    HW117987   2.487   4.246   0.368 -1.1143 -0.8159 -1.5167
 2175SOL    HW217988   2.447   4.112   0.381 -1.3028  1.5912 -0.1648
 2176SOL     OW17989   1.346   1.831  15.670  0.2033  0.6354 -0.0599
 2176SOL    HW117990   1.437   1.846  15.646  0.3127  0.8736  0.5033
 2176SOL    HW217991   1.316   1.763  15.609  1.3128 -1.2456  1.4662
 2177SOL     OW17992   0.035   4.055   1.048 -0.1547  0.3174  0.1277
 2177SOL    HW117993   4.668   4.078   1.027 -0.1960 -2.4460 -2.6569
 2177SOL    HW217994   0.090   4.074   0.972 -2.4748  0.2278 -1.5780
 2178SOL     OW17995   4.145   0.198   1.934 -0.2340  0.6259  0.0999
 2178SOL    HW117996   4.092   0.131   1.976 -0.4198  0.4607 -0.3973
 2178SOL    HW217997   4.070   0.257   1.931 -1.5976 -1.1017  0.5057
 2179SOL     OW17998   3.806   0.568   7.396 -0.3667 -0.3339  0.1857
 2179SOL    HW117999   3.790   0.474   7.395 -0.6832 -0.2714 -2.2959
 2179SOL    HW218000   3.844   0.587   7.481  1.7982  0.7793 -1.0431
 2180SOL     OW18001   3.019   3.058   7.468  0.3410  0.2263 -0.2713
 2180SOL    HW118002   3.085   3.065   7.537 -0.7944  0.1231  0.8073
 2180SOL    HW218003   2.979   3.145   7.465 -0.2747 -0.0171  1.3312
 2181SOL     OW18004   4.550   0.132   4.662 -0.3759  0.7817  0.3634
 2181SOL    HW118005   4.629   0.179   4.688  0.0663  0.4449 -0.3888
 2181SOL    HW218006   4.508   0.185   4.594 -2.6515  1.5786  2.3415
 2182SOL     OW18007   2.169   2.430   3.890 -0.1189 -0.3092 -0.2693
 2182SOL    HW118008   2.208   2.346   3.868  2.2898  1.1622 -1.5617
 2182SOL    HW218009   2.186   2.487   3.816 -3.2249  0.7725 -0.1732
 2183SOL     OW18010   3.176   0.401   5.673 -0.1664 -0.0845 -0.3736
 2183SOL    HW118011   3.182   0.477   5.731 -0.7871 -0.2092 -0.1509
 2183SOL    HW218012   3.268   0.377   5.661  0.6143  1.8337  1.6300
 2184SOL     OW18013   2.873   2.450  14.061 -0.1290  0.0932  1.1299
 2184SOL    HW118014   2.864   2.523  13.999 -0.2625 -1.4152 -0.6432
 2184SOL    HW218015   2.934   2.397  14.008  0.1334  2.7626 -1.2534
 2185SOL     OW18016   3.879   1.934   1.767 -0.1309 -0.6924  0.0945
 2185SOL    HW118017   3.787   1.910   1.765 -0.9509  2.5533 -2.1600
 2185SOL    HW218018   3.879   1.996   1.693  0.7563 -0.2460  0.4665
 2186SOL     OW18019   1.774   3.889  16.598  0.1709 -0.2272 -0.8854
 2186SOL    HW118020   1.729   3.806  16.585  0.5287 -0.1892 -2.2947
 2186SOL    HW218021   1.861   3.863  16.629  0.3878  0.1814 -1.1543
 2187SOL     OW18022   0.811   2.161   2.810 -0.0686  0.2121  0.3368
 2187SOL    HW118023   0.776   2.076   2.835  0.2840  0.2140  0.8394
 2187SOL    HW218024   0.731   2.211   2.789 -0.3720 -0.1309  0.6803
 2188SOL     OW18025   1.686   2.464   3.029 -0.7090 -0.0954  0.4104
 2188SOL    HW118026   1.745   2.464   3.104 -2.3023  1.5239  1.6871
 2188SOL    HW218027   1.738   2.458   2.949 -0.9907 -0.3404  0.2445
 2189SOL     OW18028   1.704   1.083   6.193  0.3980  0.5249  0.0970
 2189SOL    HW118029   1.659   1.006   6.159  1.0612 -0.0622  0.5496
 2189SOL    HW218030   1.638   1.151   6.178 -1.5667 -1.5951 -0.8731
 2190SOL     OW18031   1.111   0.293   4.161  0.5084  1.0492 -0.7443
 2190SOL    HW118032   1.169   0.355   4.117  0.9245  0.8965 -0.4147
 2190SOL    HW218033   1.023   0.331   4.162 -0.4347 -1.1484 -1.5550
 2191SOL     OW18034   2.905   0.551   1.492 -0.1363  0.6517 -0.2329
 2191SOL    HW118035   2.935   0.468   1.455 -0.0828 -0.3437  1.9915
 2191SOL    HW218036   2.896   0.538   1.587  1.0831  2.2534  0.0973
 2192SOL     OW18037   0.933   2.351  14.126 -0.3103 -0.0498 -0.1933
 2192SOL    HW118038   0.970   2.282  14.072 -1.4389 -0.5330 -0.3521
 2192SOL    HW218039   0.843   2.331  14.101 -0.3204 -0.3478  0.0932
 2193SOL     OW18040   3.655   0.374   5.736 -0.2192  0.3041 -0.5449
 2193SOL    HW118041   3.714   0.449   5.725  0.3759 -0.4399 -2.5517
 2193SOL    HW218042   3.693   0.324   5.663 -1.2931 -1.4679  0.1238
 2194SOL     OW18043   0.876   1.176   7.821 -0.5498 -0.0214 -0.2553
 2194SOL    HW118044   0.849   1.221   7.901  0.9150  1.3732 -0.5322
 2194SOL    HW218045   0.871   1.084   7.848  1.1194  0.1623  0.6924
 2195SOL     OW18046   4.611   4.590  15.658 -0.0411  0.1096  0.3025
 2195SOL    HW118047   4.590   4.679  15.687 -0.5674  0.2760 -0.6023
 2195SOL    HW218048   4.668   4.568  15.732 -0.9792 -1.0628  0.6756
 2196SOL     OW18049   1.689   1.445   5.086 -0.2436 -0.5343 -0.3658
 2196SOL    HW118050   1.646   1.500   5.021  0.6457  1.0947  0.4267
 2196SOL    HW218051   1.719   1.367   5.038 -1.6151 -0.3106 -1.5766
 2197SOL     OW18052   3.906   0.761  17.476 -0.0491 -0.2747 -0.0626
 2197SOL    HW118053   3.846   0.740  17.403  1.2640 -2.1534 -0.5972
 2197SOL    HW218054   3.919   0.673  17.511 -1.6057 -1.1258 -1.5768
 2198SOL     OW18055   0.378   4.205   2.799 -0.0785 -0.2699  0.0636
 2198SOL    HW118056   0.413   4.210   2.710 -1.4035  2.4917 -0.2934
 2198SOL    HW218057   0.298   4.152   2.792  0.7325 -1.3170 -1.4655
 2199SOL     OW18058   0.016   4.648   9.675 -0.0413  0.1617  0.7495
 2199SOL    HW118059   0.073   4.585   9.720  1.4675 -0.6488 -2.2834
 2199SOL    HW218060   4.671   4.597   9.632 -0.5537  0.6938  0.9451
 2200SOL     OW18061   0.864   3.180   0.610  0.1679  0.5350  0.0277
 2200SOL    HW118062   0.825   3.267   0.620  0.2753  0.3738  1.8310
 2200SOL    HW218063   0.783   3.137   0.639  1.1812 -1.9387 -0.8437
 2201SOL     OW18064   1.879   2.861   2.658 -0.2548  0.0628 -0.1470
 2201SOL    HW118065   1.873   2.953   2.634 -1.0153 -0.0592 -0.4206
 2201SOL    HW218066   1.975   2.861   2.661 -0.3278  0.8525  2.0122
 2202SOL     OW18067   0.201   1.558  17.519 -0.0342  0.3667  0.0204
 2202SOL    HW118068   0.244   1.641  17.535 -0.3212  0.1753  1.8524
 2202SOL    HW218069   0.246   1.496  17.576  0.8119 -1.1409 -2.3021
 2203SOL     OW18070   0.504   1.794   3.070 -0.5908  0.0151  0.4428
 2203SOL    HW118071   0.423   1.814   3.022 -1.5964 -2.1764  1.2030
 2203SOL    HW218072   0.484   1.842   3.151 -0.3570  0.4184  0.2619
 2204SOL     OW18073   2.273   0.758   5.727 -0.3418  0.5257  0.1772
 2204SOL    HW118074   2.340   0.801   5.673  0.0158  1.0026  1.0094
 2204SOL    HW218075   2.282   0.799   5.813 -1.7969 -0.3890  0.7523
 2205SOL     OW18076   4.015   3.465   8.469 -0.5074  0.3160 -0.3099
 2205SOL    HW118077   3.926   3.486   8.440 -1.0063 -0.2894  0.7873
 2205SOL    HW218078   4.009   3.489   8.562 -1.0779  1.0115 -0.5258
 2206SOL     OW18079   2.973   2.455  12.762 -0.3368 -0.1415  0.2259
 2206SOL    HW118080   2.913   2.396  12.807 -1.3196  1.3577  0.8726
 2206SOL    HW218081   3.001   2.385  12.703 -3.9181  0.1764 -1.8182
 2207SOL     OW18082   0.881   3.341   3.972 -0.0102 -0.4198 -0.2706
 2207SOL    HW118083   0.816   3.379   4.031  1.4241  1.3543  0.1757
 2207SOL    HW218084   0.959   3.375   4.015 -0.4812 -1.0489  1.0512
 2208SOL     OW18085   3.537   0.679   2.291  0.5194 -0.4462 -0.6887
 2208SOL    HW118086   3.625   0.702   2.319 -0.7691  1.7236  1.5895
 2208SOL    HW218087   3.491   0.690   2.374 -1.3681  2.5486 -2.1448
 2209SOL     OW18088   2.344   2.437   7.431  0.0214 -0.8267  0.3968
 2209SOL    HW118089   2.314   2.420   7.520  1.5730 -0.1629  1.0558
 2209SOL    HW218090   2.264   2.468   7.390  0.7796 -0.1879 -0.6114
 2210SOL     OW18091   0.136   3.532  16.017  0.0387  0.0463  0.6357
 2210SOL    HW118092   0.153   3.460  16.077 -0.7880 -1.1724 -0.5996
 2210SOL    HW218093   0.136   3.611  16.071 -0.4165 -1.9727  3.5399
 2211SOL     OW18094   1.386   2.047  15.893  0.1932 -0.0982  0.4222
 2211SOL    HW118095   1.403   1.957  15.921 -1.6989 -1.0043 -1.3070
 2211SOL    HW218096   1.343   2.033  15.808  2.9209  0.3678 -1.0446
 2212SOL     OW18097   2.903   3.274   5.607  0.3387  0.3963 -1.1235
 2212SOL    HW118098   2.827   3.250   5.554  0.6470 -2.1255 -0.4421
 2212SOL    HW218099   2.977   3.271   5.546  0.4965 -1.4800 -0.8398
 2213SOL     OW18100   0.462   1.964  15.855 -0.0509 -0.0451  0.4971
 2213SOL    HW118101   0.436   1.952  15.947  1.0814  2.7004  1.1478
 2213SOL    HW218102   0.391   2.018  15.821  0.6203  0.5556  0.0691
 2214SOL     OW18103   0.487   4.525  16.244 -0.3211 -0.3998 -0.0183
 2214SOL    HW118104   0.464   4.553  16.332  0.3804 -0.7881  0.2897
 2214SOL    HW218105   0.498   4.608  16.198 -0.3304  0.0472  0.7988
 2215SOL     OW18106   4.321   3.915   0.581 -0.3958 -0.4389  0.0346
 2215SOL    HW118107   4.338   3.954   0.495  2.2879  0.8433  1.1338
 2215SOL    HW218108   4.229   3.888   0.580 -0.1430 -1.2528 -1.4454
 2216SOL     OW18109   0.209   2.304   4.365 -0.4081  0.5646  0.8925
 2216SOL    HW118110   0.230   2.234   4.428 -1.5990  1.1272  1.9169
 2216SOL    HW218111   0.114   2.309   4.379 -0.6614 -0.8548 -0.2623
 2217SOL     OW18112   0.345   0.634   1.794  0.4755  0.0448  0.3637
 2217SOL    HW118113   0.399   0.712   1.779 -1.1169  0.9605 -0.5806
 2217SOL    HW218114   0.260   0.668   1.766  1.4462  0.3415 -2.2245
 2218SOL     OW18115   0.193   1.824   4.465  0.3020  0.2019 -0.3143
 2218SOL    HW118116   0.200   1.783   4.551 -2.8689 -1.7016 -0.9220
 2218SOL    HW218117   0.269   1.782   4.425  1.8937  2.5245  0.2955
 2219SOL     OW18118   2.038   1.028   7.362  0.1774  0.6468 -0.1399
 2219SOL    HW118119   2.060   0.935   7.363  2.4922  1.1955 -0.9416
 2219SOL    HW218120   1.952   1.031   7.320 -0.2301 -1.5216  0.5556
 2220SOL     OW18121   0.090   1.426   2.658  0.2393  0.6360 -0.2161
 2220SOL    HW118122   0.171   1.405   2.610 -0.2767 -1.0915 -0.3464
 2220SOL    HW218123   0.064   1.343   2.698  1.5747 -0.2614 -1.1743
 2221SOL     OW18124   1.367   4.403   0.337 -0.1462  0.2891 -0.3782
 2221SOL    HW118125   1.323   4.440   0.261  1.4798  1.4400 -0.7620
 2221SOL    HW218126   1.293   4.376   0.391 -0.2315  0.3980 -0.4407
 2222SOL     OW18127   0.530   0.056  14.636 -0.4679  0.2927 -0.1376
 2222SOL    HW118128   0.541   4.689  14.607  1.1535  0.7337 -0.9311
 2222SOL    HW218129   0.618   0.082  14.663 -0.1180  0.3403 -1.3282
 2223SOL     OW18130   1.277   3.372  15.549  0.2317  0.5362  0.0011
 2223SOL    HW118131   1.239   3.328  15.473 -1.0368 -0.0471  0.9700
 2223SOL    HW218132   1.291   3.461  15.518 -0.6198  0.6247 -0.1344
 2224SOL     OW18133   0.962   0.017   7.423  0.0581  0.1258 -0.0122
 2224SOL    HW118134   1.028   0.077   7.388 -1.2888 -0.1244 -2.9488
 2224SOL    HW218135   1.008   4.706   7.500 -0.9049 -2.1678 -0.4761
 2225SOL     OW18136   1.508   0.631  10.388  0.1235 -0.3136  0.2055
 2225SOL    HW118137   1.532   0.558  10.445  3.0695  0.2463 -0.2665
 2225SOL    HW218138   1.587   0.683  10.405  1.1361 -2.4046  1.8572
 2226SOL     OW18139   4.499   3.750   3.621  0.2828  0.3062 -0.6122
 2226SOL    HW118140   4.542   3.670   3.592  0.4215 -0.3223  1.2798
 2226SOL    HW218141   4.450   3.713   3.695 -1.8217  1.0510 -1.6513
 2227SOL     OW18142   2.345   2.155   2.686  0.3669 -0.3154 -0.4264
 2227SOL    HW118143   2.308   2.099   2.617  1.2056 -1.1729 -0.1823
 2227SOL    HW218144   2.336   2.242   2.648  0.8187 -0.1811 -0.2237
 2228SOL     OW18145   4.676   3.580  11.571  0.3741 -0.6557  0.4620
 2228SOL    HW118146   4.678   3.518  11.499 -0.4882 -3.2469  2.6886
 2228SOL    HW218147   0.027   3.637  11.551 -3.0653  2.9619 -1.9911
 2229SOL     OW18148   1.431   4.711   5.937 -0.2579  0.0844  0.0200
 2229SOL    HW118149   1.461   4.641   5.996 -0.4018  0.5048  0.5947
 2229SOL    HW218150   1.344   4.675   5.919  0.5690 -0.2077 -3.3306
 2230SOL     OW18151   3.317   4.103   4.543 -0.2717  0.0646 -0.0584
 2230SOL    HW118152   3.226   4.074   4.531  0.1300 -1.4647  0.6455
 2230SOL    HW218153   3.309   4.125   4.636 -2.8011  0.5838 -0.3886
 2231SOL     OW18154   2.759   1.703   1.217  0.1499 -0.0729 -0.1041
 2231SOL    HW118155   2.831   1.640   1.210  0.1399 -0.0822 -0.1254
 2231SOL    HW218156   2.778   1.764   1.288 -0.2556 -0.2668  0.1692
 2232SOL     OW18157   0.651   2.085   1.676 -0.2354 -0.0590  0.6086
 2232SOL    HW118158   0.664   2.138   1.597 -0.9555 -0.0733  0.4827
 2232SOL    HW218159   0.603   2.009   1.641 -0.7169  0.1230  0.8703
 2233SOL     OW18160   1.831   0.779   4.174  0.7342 -0.4285  0.3048
 2233SOL    HW118161   1.873   0.704   4.215  0.4706 -1.2458 -0.9071
 2233SOL    HW218162   1.880   0.802   4.095  1.1444 -0.9157  0.4185
 2234SOL     OW18163   4.686   1.638   2.109 -0.3239 -0.0217 -0.1519
 2234SOL    HW118164   4.599   1.621   2.071 -0.2041 -2.0634  0.4769
 2234SOL    HW218165   4.684   1.587   2.190  1.4294 -0.1617 -0.2078
 2235SOL     OW18166   3.087   1.605  17.456 -0.1092  0.1395  0.0373
 2235SOL    HW118167   3.126   1.578  17.539 -0.0932  2.7091  0.8632
 2235SOL    HW218168   3.106   1.699  17.457  1.4595 -0.1874  1.3800
 2236SOL     OW18169   3.099   4.647   5.931  0.0923  0.6259 -0.2458
 2236SOL    HW118170   3.160   4.608   5.868 -0.0396  0.7134 -0.4245
 2236SOL    HW218171   3.133   4.601   6.009 -2.6275 -2.9006 -1.1077
 2237SOL     OW18172   2.528   1.732  14.347 -0.4364  0.5309  0.3151
 2237SOL    HW118173   2.503   1.816  14.307 -2.3091 -0.0336  0.3122
 2237SOL    HW218174   2.542   1.757  14.438 -2.2366  0.1508  0.7107
 2238SOL     OW18175   0.727   1.348   8.960 -0.0938  0.3434 -0.2960
 2238SOL    HW118176   0.703   1.398   9.038 -0.3723  0.0500 -0.1909
 2238SOL    HW218177   0.663   1.279   8.979  0.4400 -0.5011 -1.5533
 2239SOL     OW18178   0.603   2.391  12.835 -0.5536 -0.0483  1.0439
 2239SOL    HW118179   0.668   2.423  12.772 -2.2670 -0.2960 -0.8440
 2239SOL    HW218180   0.624   2.445  12.911 -0.3809  4.1508 -1.9965
 2240SOL     OW18181   1.197   2.563   6.305  0.7280  0.2185 -0.4059
 2240SOL    HW118182   1.171   2.637   6.360 -0.3277 -0.1701 -0.3861
 2240SOL    HW218183   1.112   2.519   6.302 -1.0352  3.5945  0.9567
 2241SOL     OW18184   3.517   4.722  11.213 -0.1187 -0.6489  0.8599
 2241SOL    HW118185   3.458   0.011  11.138 -0.7200  1.3461  1.6404
 2241SOL    HW218186   3.596   4.713  11.161  0.0148 -1.7237  1.2573
 2242SOL     OW18187   1.321   4.243  14.571  0.3183 -0.1653 -0.0821
 2242SOL    HW118188   1.281   4.159  14.594  0.5869 -0.4408 -0.6141
 2242SOL    HW218189   1.310   4.236  14.476 -0.4298  0.1059 -0.0159
 2243SOL     OW18190   0.605   2.522   8.659  0.2813  0.1228 -0.0107
 2243SOL    HW118191   0.606   2.518   8.563  0.9392 -1.5718  0.0749
 2243SOL    HW218192   0.510   2.513   8.666  0.3786  0.2838  1.4404
 2244SOL     OW18193   4.172   2.768   9.973  0.4827  0.6584 -0.0529
 2244SOL    HW118194   4.236   2.786   9.903 -0.5232  1.0733 -0.8577
 2244SOL    HW218195   4.173   2.850  10.022 -2.0126  0.0093  1.0543
 2245SOL     OW18196   4.284   4.033   1.372 -0.4413  0.2045 -0.3736
 2245SOL    HW118197   4.352   4.099   1.365 -1.7302  1.7946  2.2007
 2245SOL    HW218198   4.255   4.022   1.281  1.2400  0.7225 -0.9593
 2246SOL     OW18199   0.964   0.992   9.947 -0.2807  0.0006 -1.0989
 2246SOL    HW118200   0.947   1.009  10.040  2.4529 -0.1284 -0.5702
 2246SOL    HW218201   0.997   0.903   9.943  0.8949  0.2984  2.1129
 2247SOL     OW18202   4.414   4.435   0.939  0.4048  0.0979  0.7318
 2247SOL    HW118203   4.442   4.526   0.936 -1.5443  0.6528 -0.3062
 2247SOL    HW218204   4.337   4.423   0.883  0.6111 -2.4610  0.9947
 2248SOL     OW18205   1.601   0.718   3.878 -0.1371  0.0061 -0.0007
 2248SOL    HW118206   1.516   0.729   3.834  0.8082  1.0319 -1.5802
 2248SOL    HW218207   1.577   0.755   3.963  2.0594 -1.3010  1.1833
 2249SOL     OW18208   2.668   1.430   6.159  0.2866 -0.5073 -0.0070
 2249SOL    HW118209   2.668   1.526   6.157 -0.2461 -0.4250  2.9168
 2249SOL    HW218210   2.753   1.406   6.197 -0.1819 -1.7847  0.2103
 2250SOL     OW18211   3.170   2.651   2.778  0.6039  0.2616  0.2419
 2250SOL    HW118212   3.240   2.594   2.811  0.8172 -0.8265 -2.0850
 2250SOL    HW218213   3.096   2.605   2.818  0.6017  0.7303  0.7696
 2251SOL     OW18214   2.450   1.563   7.889  0.0175  0.8495 -0.1858
 2251SOL    HW118215   2.462   1.481   7.841  2.2570  1.3547 -0.4784
 2251SOL    HW218216   2.360   1.552   7.920  0.8271 -1.6931  1.2745
 2252SOL     OW18217   4.474   0.462   8.728  0.1879  0.2054 -0.1213
 2252SOL    HW118218   4.379   0.467   8.741  0.3482 -0.0551  1.2050
 2252SOL    HW218219   4.483   0.403   8.653 -2.2667 -0.0599 -0.1908
 2253SOL     OW18220   0.316   3.745   7.467  0.6014  0.3922 -0.0086
 2253SOL    HW118221   0.390   3.799   7.438  2.3221 -0.8150  2.2022
 2253SOL    HW218222   0.246   3.777   7.410  1.4977  0.0400 -1.2948
 2254SOL     OW18223   3.727   1.411   7.714  0.1064  0.0562 -0.3904
 2254SOL    HW118224   3.652   1.413   7.774  1.0845 -2.3597  0.9249
 2254SOL    HW218225   3.745   1.504   7.701  2.7712 -0.0316  2.5736
 2255SOL     OW18226   2.032   2.308   6.086  0.1611 -0.2466 -0.7176
 2255SOL    HW118227   1.981   2.343   6.158  2.7938  1.1924  0.4593
 2255SOL    HW218228   2.038   2.394   6.044 -0.8705 -0.3584 -1.0745
 2256SOL     OW18229   4.346   1.214  13.237 -0.1427 -0.4563 -0.3127
 2256SOL    HW118230   4.372   1.181  13.323 -0.8299 -1.2574 -0.4169
 2256SOL    HW218231   4.312   1.131  13.205 -0.8938 -1.0677  2.0422
 2257SOL     OW18232   3.589   3.595   6.123 -0.2709  0.0120 -0.1707
 2257SOL    HW118233   3.612   3.521   6.065 -1.3879 -0.6490  0.2390
 2257SOL    HW218234   3.501   3.614   6.093 -0.2343  0.7314  0.1888
 2258SOL     OW18235   1.918   1.526  10.466 -0.0048  0.0578 -0.3846
 2258SOL    HW118236   1.963   1.448  10.498 -1.6246  0.0500  1.8483
 2258SOL    HW218237   1.993   1.562  10.418 -0.5445 -2.2668 -2.9593
 2259SOL     OW18238   1.690   4.453   7.887 -0.8647  0.0708  0.8243
 2259SOL    HW118239   1.732   4.367   7.891  1.0855  0.9215 -1.5230
 2259SOL    HW218240   1.597   4.439   7.866 -0.4984 -0.0577 -0.7271
 2260SOL     OW18241   0.774   3.314   7.835  0.2075 -0.2076  0.1689
 2260SOL    HW118242   0.856   3.320   7.883 -0.0462  0.6025  0.4921
 2260SOL    HW218243   0.762   3.399   7.791  1.4999  0.1090  0.4327
 2261SOL     OW18244   3.766   4.690  12.834 -0.5509  0.0884 -0.9941
 2261SOL    HW118245   3.710   0.043  12.849  3.0673  2.4942  0.2146
 2261SOL    HW218246   3.733   4.616  12.886 -1.0018  1.2613  0.3865
 2262SOL     OW18247   0.052   3.240   4.456 -0.0639  0.1050 -0.3836
 2262SOL    HW118248   0.019   3.192   4.532 -1.9634 -0.7453 -1.7574
 2262SOL    HW218249   0.137   3.268   4.491  1.0521 -1.1210 -2.1317
 2263SOL     OW18250   2.627   2.538  12.836  0.3605  0.6039 -0.1752
 2263SOL    HW118251   2.581   2.542  12.752  1.4702 -0.7479 -0.8422
 2263SOL    HW218252   2.628   2.447  12.867  1.2596  0.7962  0.3804
 2264SOL     OW18253   0.226   0.540   5.898 -0.0394  0.4275  0.1517
 2264SOL    HW118254   0.144   0.588   5.890 -0.5444 -0.4829 -0.1726
 2264SOL    HW218255   0.194   0.456   5.930  0.1461  0.1697 -0.3244
 2265SOL     OW18256   0.234   2.994  13.680  0.1317  0.1003 -0.4939
 2265SOL    HW118257   0.139   2.983  13.685 -0.4564  5.2238 -0.1757
 2265SOL    HW218258   0.256   3.007  13.773 -0.4783  3.5228 -0.8402
 2266SOL     OW18259   2.510   1.901  10.185  0.4683 -0.0802  0.4731
 2266SOL    HW118260   2.479   1.989  10.165  0.5161  0.2300  1.7605
 2266SOL    HW218261   2.554   1.873  10.105  1.5560 -0.5499  1.2344
 2267SOL     OW18262   1.641   2.137   9.481 -0.3864  0.1404 -0.0245
 2267SOL    HW118263   1.591   2.174   9.409 -0.1632 -0.3772 -0.4459
 2267SOL    HW218264   1.588   2.061   9.505  0.6389 -0.6772 -0.2998
 2268SOL     OW18265   0.421   2.521   3.583 -0.4207 -0.0369 -0.8299
 2268SOL    HW118266   0.384   2.558   3.663 -1.0648 -0.8551 -0.7573
 2268SOL    HW218267   0.505   2.566   3.571  0.0543 -0.6025  0.3398
 2269SOL     OW18268   2.432   1.001  17.026 -0.0151  0.3318 -0.1020
 2269SOL    HW118269   2.417   0.923  16.972  0.6938 -0.6335  1.0994
 2269SOL    HW218270   2.363   0.975  17.087  0.4375 -0.2423  0.1656
 2270SOL     OW18271   0.293   3.124   7.392 -0.5252 -0.3504  0.6413
 2270SOL    HW118272   0.302   3.186   7.465  0.3612 -0.0582  0.2804
 2270SOL    HW218273   0.360   3.065   7.426 -0.3446 -0.4214  0.1639
 2271SOL     OW18274   0.861   2.149   0.937 -0.0492  0.3685  0.2523
 2271SOL    HW118275   0.832   2.224   0.988  0.1566  0.5491  0.1002
 2271SOL    HW218276   0.889   2.190   0.855 -2.6337  0.3138 -0.6466
 2272SOL     OW18277   4.675   2.270   4.450  0.1718  0.7097  0.9003
 2272SOL    HW118278   4.652   2.188   4.493 -0.8176  0.0629 -0.8447
 2272SOL    HW218279   4.699   2.318   4.529  0.8547  0.2850  0.9476
 2273SOL     OW18280   4.086   2.942   0.562 -0.3513  0.6475  0.7328
 2273SOL    HW118281   4.011   2.962   0.617  1.1734 -1.3387  3.5198
 2273SOL    HW218282   4.081   2.846   0.561  0.8024  0.5909  0.8590
 2274SOL     OW18283   2.321   3.191   1.532  0.0404 -0.0990 -0.2754
 2274SOL    HW118284   2.232   3.209   1.560 -0.4192 -2.0848 -0.4691
 2274SOL    HW218285   2.370   3.164   1.610  0.7165 -1.3470 -1.1282
 2275SOL     OW18286   0.224   4.509   1.648  0.1278  0.2611 -0.0611
 2275SOL    HW118287   0.149   4.503   1.589 -0.4878  2.6000  0.5166
 2275SOL    HW218288   0.281   4.580   1.620  0.5019 -0.5741 -1.4209
 2276SOL     OW18289   1.945   3.231   5.833 -0.4313 -0.1005 -0.0090
 2276SOL    HW118290   1.873   3.169   5.826 -0.5128 -0.3891  3.4143
 2276SOL    HW218291   1.916   3.265   5.918 -1.1524 -1.2840  0.2132
 2277SOL     OW18292   3.802   2.612   3.081 -0.0425  0.1037  0.1440
 2277SOL    HW118293   3.736   2.663   3.034  1.6772  0.9939 -1.3044
 2277SOL    HW218294   3.765   2.608   3.169 -2.1014  2.7547 -0.6116
 2278SOL     OW18295   2.064   0.640   7.891 -0.2732 -0.5452 -0.1276
 2278SOL    HW118296   2.135   0.668   7.834 -0.4230  0.0005 -0.0464
 2278SOL    HW218297   2.019   0.583   7.829 -0.9683  2.0431 -1.9947
 2279SOL     OW18298   3.019   4.677  11.194  0.5063  0.0092  0.0832
 2279SOL    HW118299   2.993   4.647  11.281  1.2853  2.3768  1.1394
 2279SOL    HW218300   3.110   4.648  11.198  0.2054 -1.0580 -0.7846
 2280SOL     OW18301   3.634   0.793   3.645 -0.1548 -0.5177 -0.0216
 2280SOL    HW118302   3.668   0.877   3.674 -1.5870  0.3142 -0.7511
 2280SOL    HW218303   3.695   0.727   3.680 -0.8881 -0.8035  0.7212
 2281SOL     OW18304   2.236   4.632   8.064  0.0107 -0.1189 -0.4999
 2281SOL    HW118305   2.315   4.686   8.075 -0.2155  0.3809 -1.3541
 2281SOL    HW218306   2.269   4.548   8.032  0.2384 -0.3281  0.2920
 2282SOL     OW18307   3.810   1.200  11.529 -0.4435  0.1298  0.2107
 2282SOL    HW118308   3.807   1.291  11.557 -0.0627  0.7111 -1.6671
 2282SOL    HW218309   3.842   1.170  11.615 -1.7796 -2.9656 -0.3755
 2283SOL     OW18310   1.224   2.996  11.316  0.2744 -0.0945 -0.3010
 2283SOL    HW118311   1.301   3.026  11.365 -1.0871  1.6917  0.7195
 2283SOL    HW218312   1.151   3.039  11.360 -0.8459  1.1135 -3.3853
 2284SOL     OW18313   1.658   1.711   8.925 -0.5561  0.2265  0.9581
 2284SOL    HW118314   1.721   1.662   8.977  0.7177  3.2176  2.2408
 2284SOL    HW218315   1.572   1.688   8.960  0.3326 -0.7780  2.4689
 2285SOL     OW18316   2.693   0.007  16.997  0.2308 -0.2966  0.0187
 2285SOL    HW118317   2.669   0.036  17.084  0.3788 -0.2673  0.0496
 2285SOL    HW218318   2.765   0.068  16.983  0.4957 -1.0196 -1.7356
 2286SOL     OW18319   2.659   0.835  15.506 -0.4426  0.0850 -0.4604
 2286SOL    HW118320   2.601   0.908  15.523 -1.0931 -0.2355 -1.2910
 2286SOL    HW218321   2.589   0.776  15.477 -0.9345  0.1965  0.5255
 2287SOL     OW18322   1.748   0.280   9.954  0.3693 -0.1758  0.1939
 2287SOL    HW118323   1.814   0.349   9.940 -0.3726  0.2233 -1.3658
 2287SOL    HW218324   1.790   0.196   9.934  0.8770  0.3193 -0.8272
 2288SOL     OW18325   2.433   3.088  12.662  0.3908 -0.1175  0.2319
 2288SOL    HW118326   2.450   3.180  12.682 -1.1633  0.8783 -3.1115
 2288SOL    HW218327   2.474   3.074  12.578  1.8039 -3.5655  1.4931
 2289SOL     OW18328   2.211   4.369   4.119  0.5953 -0.1757 -0.1312
 2289SOL    HW118329   2.169   4.394   4.202  0.7292  0.0003 -0.1165
 2289SOL    HW218330   2.293   4.417   4.126  0.1427  0.6246 -0.2778
 2290SOL     OW18331   4.577   3.958  12.175 -0.4025  0.8253 -0.0317
 2290SOL    HW118332   4.525   3.982  12.098 -1.0538 -0.0237  0.1397
 2290SOL    HW218333   4.539   3.871  12.187 -0.7895  0.7010 -2.2025
 2291SOL     OW18334   3.664   0.008   7.107  0.2328  0.5510  0.3799
 2291SOL    HW118335   3.660   4.701   7.016 -1.5077  2.0982 -0.0736
 2291SOL    HW218336   3.734   4.671   7.131 -0.3012 -0.0640  0.3805
 2292SOL     OW18337   4.497   3.519  10.992  0.1826  0.6397 -0.5349
 2292SOL    HW118338   4.445   3.439  10.997 -1.2513  1.6088 -0.2727
 2292SOL    HW218339   4.432   3.587  11.010  0.0497  0.6364 -1.0004
 2293SOL     OW18340   3.090   0.484   3.650  0.0450 -0.3171  0.7248
 2293SOL    HW118341   3.082   0.554   3.585  1.9482 -0.7929 -0.0235
 2293SOL    HW218342   3.124   0.414   3.594  0.4598 -0.2073  0.8375
 2294SOL     OW18343   4.360   1.650   3.164 -0.0343 -0.3348 -0.4399
 2294SOL    HW118344   4.377   1.701   3.084 -0.4780 -0.5493 -0.6741
 2294SOL    HW218345   4.268   1.627   3.149 -0.4340  0.5988  0.5678
 2295SOL     OW18346   0.499   3.780   8.360  0.0400 -0.1309  1.0819
 2295SOL    HW118347   0.571   3.722   8.337  0.4803  0.5054  0.8395
 2295SOL    HW218348   0.441   3.730   8.417 -0.0876 -1.8524 -0.5995
 2296SOL     OW18349   2.973   0.682   6.929  0.3076 -0.6813 -0.0318
 2296SOL    HW118350   2.933   0.689   6.843 -1.1419 -1.0228  0.6175
 2296SOL    HW218351   2.903   0.626   6.963 -1.7295  1.1070 -1.2996
 2297SOL     OW18352   1.258   1.993   2.170  0.1210 -0.8130  0.3515
 2297SOL    HW118353   1.200   1.999   2.246  1.4850  0.8489  1.2519
 2297SOL    HW218354   1.273   1.899   2.171  0.9879 -0.6474  2.5822
 2298SOL     OW18355   4.075   4.311   4.690  0.1116 -0.4591  0.1065
 2298SOL    HW118356   4.001   4.371   4.692  0.2449 -0.3645  2.1649
 2298SOL    HW218357   4.047   4.231   4.645  2.0165  0.7914 -3.2881
 2299SOL     OW18358   2.725   0.812   8.884 -0.6494  0.1221 -0.4069
 2299SOL    HW118359   2.658   0.858   8.934 -0.1841 -0.4932  0.7804
 2299SOL    HW218360   2.716   0.726   8.925  2.0193  0.2302  0.4476
 2300SOL     OW18361   3.722   3.868   6.786  0.3318 -0.2127  0.3413
 2300SOL    HW118362   3.638   3.892   6.825  0.3892  0.3492  0.1252
 2300SOL    HW218363   3.750   3.949   6.744  0.8899 -0.8706 -0.5495
 2301SOL     OW18364   4.411   2.164   0.210  0.2460 -1.2926  0.6021
 2301SOL    HW118365   4.446   2.231   0.151  0.8361 -2.3788 -0.2730
 2301SOL    HW218366   4.383   2.102   0.143 -0.4134 -0.8146  0.4345
 2302SOL     OW18367   1.157   1.338   4.344  0.4644  0.2019 -0.1258
 2302SOL    HW118368   1.098   1.414   4.343  1.8244  1.2440 -0.8277
 2302SOL    HW218369   1.142   1.303   4.256  0.8426 -0.1285 -0.0582
 2303SOL     OW18370   3.696   1.569  10.819  0.0890  0.1536  0.4959
 2303SOL    HW118371   3.634   1.628  10.861  0.1120  0.5770 -0.0793
 2303SOL    HW218372   3.650   1.487  10.800 -1.2059  0.9711  0.1559
 2304SOL     OW18373   1.528   1.871   6.702  0.1133  0.4096  0.6763
 2304SOL    HW118374   1.498   1.785   6.733 -0.5024 -0.0108 -1.0456
 2304SOL    HW218375   1.526   1.929   6.777 -0.0791  4.1149 -2.2003
 2305SOL     OW18376   0.297   2.930   7.134 -0.9486 -0.7259 -0.1438
 2305SOL    HW118377   0.337   2.847   7.157 -0.7167  0.2487  2.9689
 2305SOL    HW218378   0.289   2.966   7.222 -1.4098  0.0930 -0.5149
 2306SOL     OW18379   3.338   0.017   8.003  0.0190  0.0955 -0.4510
 2306SOL    HW118380   3.426   0.014   7.964  1.6581  0.4247  3.1805
 2306SOL    HW218381   3.301   0.068   7.931 -0.1798  1.4222  0.5862
 2307SOL     OW18382   3.316   3.912   5.470  0.4146  0.1240 -0.3946
 2307SOL    HW118383   3.398   3.960   5.457  0.6886 -0.0109  0.8370
 2307SOL    HW218384   3.251   3.972   5.433  2.0723  1.8453 -0.4708
 2308SOL     OW18385   2.961   0.265   4.831 -0.2164 -0.2191  0.1589
 2308SOL    HW118386   2.882   0.251   4.884 -0.2512 -1.1272 -0.1300
 2308SOL    HW218387   2.925   0.258   4.742 -0.8038  0.6568  0.3245
 2309SOL     OW18388   3.607   0.009  11.961  0.5862  0.0511 -0.8527
 2309SOL    HW118389   3.605   4.715  12.055 -3.0054  0.7713 -0.7888
 2309SOL    HW218390   3.525   0.059  11.963  1.0738  0.7769  0.9842
 2310SOL     OW18391   3.964   4.315   4.361  0.0472 -0.2484 -0.0465
 2310SOL    HW118392   4.055   4.303   4.332  0.1954  0.1088  0.2766
 2310SOL    HW218393   3.914   4.326   4.280 -0.5424  0.6167  0.4300
 2311SOL     OW18394   3.983   2.056  16.287  0.1348 -0.2034 -0.0073
 2311SOL    HW118395   4.023   2.137  16.319 -0.1010 -0.6976  1.5692
 2311SOL    HW218396   3.897   2.096  16.274  0.6096  0.1243 -2.0298
 2312SOL     OW18397   4.161   1.919   3.201  0.3155  0.4458  0.5983
 2312SOL    HW118398   4.125   2.008   3.192 -1.1204 -0.1685  0.3242
 2312SOL    HW218399   4.248   1.932   3.165  1.4337 -1.0097  2.7600
 2313SOL     OW18400   3.797   2.943   4.773  0.2755 -0.0381 -0.1754
 2313SOL    HW118401   3.754   2.885   4.835 -0.7698 -0.1286 -0.9882
 2313SOL    HW218402   3.803   3.020   4.830 -0.4058  0.9382 -1.3981
 2314SOL     OW18403   4.323   2.032   7.000  0.2065  0.4024  0.6303
 2314SOL    HW118404   4.323   2.123   7.031 -1.4677  0.1358  1.4151
 2314SOL    HW218405   4.381   2.037   6.924 -1.2514 -0.4477 -0.5614
 2315SOL     OW18406   2.767   0.059   4.913 -0.1963  0.7831  0.1563
 2315SOL    HW118407   2.719   0.068   4.830 -2.1247 -0.7157  1.0944
 2315SOL    HW218408   2.734   4.694   4.926  0.0706  0.9335  1.8046
 2316SOL     OW18409   1.133   1.958   6.734 -0.0216 -0.3101 -0.3748
 2316SOL    HW118410   1.118   1.976   6.827  0.6075 -1.3966 -0.0534
 2316SOL    HW218411   1.187   1.880   6.748  0.5674  0.1798  0.0768
 2317SOL     OW18412   1.503   2.896   3.805  0.2426  0.2276  0.1498
 2317SOL    HW118413   1.485   2.863   3.893 -2.3598 -3.0606 -1.6290
 2317SOL    HW218414   1.417   2.934   3.791 -1.2247 -2.8301  0.7757
 2318SOL     OW18415   0.810   0.151   7.231 -0.2770 -0.6548  0.2449
 2318SOL    HW118416   0.893   0.198   7.240 -1.5768  2.1438 -2.3568
 2318SOL    HW218417   0.820   0.115   7.143  0.9194 -0.0225  0.1089
 2319SOL     OW18418   1.779   1.292   8.850 -0.2402 -0.1837  0.0665
 2319SOL    HW118419   1.775   1.300   8.946  0.7110  0.5440  0.0396
 2319SOL    HW218420   1.873   1.300   8.833 -0.2182 -0.0152  0.2733
 2320SOL     OW18421   3.723   4.424  10.690 -0.2826 -0.3410 -0.1030
 2320SOL    HW118422   3.702   4.508  10.731 -1.5093  0.1149 -1.6778
 2320SOL    HW218423   3.672   4.429  10.610  2.3319 -1.5609 -1.8429
 2321SOL     OW18424   2.268   2.012   4.079 -0.3553  0.2021  1.0386
 2321SOL    HW118425   2.236   2.057   4.001 -2.8582  0.7420  2.3958
 2321SOL    HW218426   2.234   2.068   4.148  2.4604  2.5604  0.5415
 2322SOL     OW18427   2.113   3.617   0.294 -0.2889  0.3087  0.4539
 2322SOL    HW118428   2.090   3.677   0.365 -1.0660 -0.1298  0.5753
 2322SOL    HW218429   2.089   3.661   0.213  2.0921  1.7500  0.5366
 2323SOL     OW18430   3.347   4.593   5.223  0.3984 -0.4122 -0.2699
 2323SOL    HW118431   3.415   4.654   5.252 -0.8591  1.1285 -0.5582
 2323SOL    HW218432   3.396   4.512   5.236 -1.8254 -1.7705 -0.2018
 2324SOL     OW18433   2.331   4.101   3.125  0.4753  0.6071 -0.6443
 2324SOL    HW118434   2.255   4.042   3.115  1.7969 -1.3458  0.7433
 2324SOL    HW218435   2.314   4.156   3.049 -0.4334  3.3012  1.5306
 2325SOL     OW18436   0.518   3.480  15.640  0.1012  0.0226  0.7323
 2325SOL    HW118437   0.612   3.490  15.626  0.0462 -3.3476 -2.0154
 2325SOL    HW218438   0.513   3.437  15.726  0.3266  1.1088  1.2875
 2326SOL     OW18439   0.523   2.716   3.081 -0.3371 -0.2190 -0.1285
 2326SOL    HW118440   0.500   2.704   2.989  1.3286 -1.0706 -0.4312
 2326SOL    HW218441   0.604   2.665   3.082 -0.0825  0.1911  0.4207
 2327SOL     OW18442   0.671   3.378   9.044 -0.3813 -0.4568  0.6833
 2327SOL    HW118443   0.731   3.320   9.091  1.6370 -0.1959 -1.5665
 2327SOL    HW218444   0.652   3.311   8.978  0.9858  0.4048 -0.5941
 2328SOL     OW18445   4.286   1.089  11.031  0.4796  0.0874 -0.5002
 2328SOL    HW118446   4.362   1.032  11.022  1.6774  1.6195 -0.0350
 2328SOL    HW218447   4.329   1.172  11.051 -0.6280  0.5721 -0.1365
 2329SOL     OW18448   4.446   2.782   5.594  0.0960  0.0482  0.2042
 2329SOL    HW118449   4.505   2.732   5.537  0.9756 -0.4412  1.5270
 2329SOL    HW218450   4.370   2.725   5.594  1.1841 -1.3962  2.9589
 2330SOL     OW18451   2.421   1.835   1.341  0.0404 -0.3274  0.5024
 2330SOL    HW118452   2.430   1.741   1.322  1.0610 -0.3917  1.3584
 2330SOL    HW218453   2.421   1.842   1.436  0.3999  2.7106  0.2889
 2331SOL     OW18454   4.216   0.723   3.434  0.4176 -0.1163 -0.4440
 2331SOL    HW118455   4.289   0.743   3.492  0.5747 -1.8224 -0.0533
 2331SOL    HW218456   4.191   0.808   3.398  1.4330  0.2561 -0.2757
 2332SOL     OW18457   1.485   3.316   9.021  0.1275 -0.2298 -0.1949
 2332SOL    HW118458   1.460   3.399   9.063  0.4965  1.0447 -2.4644
 2332SOL    HW218459   1.502   3.262   9.098  0.0170 -0.0221 -0.0247
 2333SOL     OW18460   4.466   2.618  11.306 -0.5843  0.7769  0.6881
 2333SOL    HW118461   4.546   2.617  11.359  1.1723  0.3028 -1.9617
 2333SOL    HW218462   4.430   2.532  11.327 -2.9763  1.8813  1.0534
 2334SOL     OW18463   3.680   1.472   8.148 -0.4123 -0.2045 -0.1020
 2334SOL    HW118464   3.640   1.431   8.224  2.1848  0.0716  1.4078
 2334SOL    HW218465   3.756   1.413   8.148 -0.9604 -0.9161  2.0975
 2335SOL     OW18466   2.834   3.215   7.118  0.2337  0.1179  0.2116
 2335SOL    HW118467   2.923   3.197   7.149 -0.2303  0.4533  1.7227
 2335SOL    HW218468   2.845   3.279   7.048  1.4713  1.2460  1.4302
 2336SOL     OW18469   1.703   1.378  17.372 -0.7626 -0.4424  0.5370
 2336SOL    HW118470   1.756   1.324  17.431  1.7208  0.4489 -0.8701
 2336SOL    HW218471   1.736   1.347  17.288  1.0021  0.0441  1.0397
 2337SOL     OW18472   3.060   3.253  13.741  0.5422  0.1423  0.1636
 2337SOL    HW118473   2.994   3.304  13.789 -1.0484 -1.3898 -0.3998
 2337SOL    HW218474   3.139   3.307  13.749  0.6839  0.2675 -2.2034
 2338SOL     OW18475   1.892   1.194   3.253 -0.3409  0.3351  0.4085
 2338SOL    HW118476   1.973   1.156   3.287 -1.1269 -1.2423  0.5228
 2338SOL    HW218477   1.860   1.142   3.179  1.4305  1.0578 -0.8673
 2339SOL     OW18478   4.398   3.865   8.152 -0.1333  0.2377  0.0271
 2339SOL    HW118479   4.365   3.834   8.068 -1.0830  0.5955  0.2697
 2339SOL    HW218480   4.410   3.781   8.195  0.4879  1.3085  1.9439
 2340SOL     OW18481   4.702   4.672   8.407  0.1945  0.1028  0.1036
 2340SOL    HW118482   4.637   4.640   8.470  1.4962 -0.6671  1.0573
 2340SOL    HW218483   0.060   4.638   8.445  0.0090 -2.7253 -2.0376
 2341SOL     OW18484   0.057   2.709   4.526 -0.8493 -0.0667  0.0097
 2341SOL    HW118485   0.146   2.714   4.560 -1.0322  1.4404  0.2762
 2341SOL    HW218486   0.017   2.781   4.576  0.7250 -0.3258  1.6290
 2342SOL     OW18487   2.770   0.139  10.854 -0.5425  0.0609 -0.1841
 2342SOL    HW118488   2.861   0.110  10.854 -0.3615  0.7286  3.8189
 2342SOL    HW218489   2.733   0.078  10.917  0.2667 -2.6816 -2.3559
 2343SOL     OW18490   0.758   2.721  17.082  0.2110 -0.3966 -0.1452
 2343SOL    HW118491   0.806   2.650  17.125  0.0295 -1.5599 -1.8607
 2343SOL    HW218492   0.758   2.694  16.990  0.2860 -1.3100  0.1179
 2344SOL     OW18493   2.187   0.858   5.225 -0.2034  0.2543 -0.3517
 2344SOL    HW118494   2.198   0.953   5.213 -1.1681  0.2972 -0.8395
 2344SOL    HW218495   2.111   0.848   5.281  1.3811 -1.7653  1.4417
 2345SOL     OW18496   1.438   4.455   5.786  0.3409  0.3878 -0.2739
 2345SOL    HW118497   1.355   4.415   5.813  0.8218  0.9615  2.0686
 2345SOL    HW218498   1.500   4.386   5.811 -0.8334 -1.5053 -2.6535
 2346SOL     OW18499   2.240   0.400  16.840  0.0871 -0.3644 -0.2502
 2346SOL    HW118500   2.326   0.389  16.880 -0.7346 -1.2457  1.2617
 2346SOL    HW218501   2.220   0.493  16.853  0.2009 -0.3835  0.0523
 2347SOL     OW18502   0.057   4.630   2.073 -0.4719 -0.7357 -0.4293
 2347SOL    HW118503   0.132   4.688   2.081 -0.3172 -0.9704 -0.1736
 2347SOL    HW218504   4.706   4.689   2.058 -0.6368 -0.4720  1.4626
 2348SOL     OW18505   3.003   3.553   7.202 -0.1351  0.2189  0.5315
 2348SOL    HW118506   3.008   3.492   7.276  0.8178  0.7093  0.8679
 2348SOL    HW218507   2.935   3.613   7.234 -1.2129 -1.0756  0.7051
 2349SOL     OW18508   1.938   0.245   6.509 -0.2826 -0.2650 -0.6517
 2349SOL    HW118509   1.953   0.284   6.595  0.4012 -3.5416  0.7249
 2349SOL    HW218510   1.866   0.297   6.473  0.2182  0.5914 -0.4108
 2350SOL     OW18511   0.525   1.316   7.685  0.1692  0.1457  0.1806
 2350SOL    HW118512   0.606   1.330   7.636  1.3346 -0.2293  1.9813
 2350SOL    HW218513   0.548   1.236   7.734  0.0088  1.8515  3.0524
 2351SOL     OW18514   2.488   3.829   3.084  0.5030  0.6375  0.0022
 2351SOL    HW118515   2.416   3.844   3.023 -0.1375 -1.2054  0.3060
 2351SOL    HW218516   2.552   3.888   3.044  0.3484 -0.5683 -2.0491
 2352SOL     OW18517   4.032   3.727   7.294 -0.2329  0.1364 -0.1129
 2352SOL    HW118518   4.078   3.767   7.220  0.1310  0.0706  0.0792
 2352SOL    HW218519   4.088   3.660   7.332  0.4327 -0.1403 -1.5799
 2353SOL     OW18520   1.615   1.068   2.734 -0.1068 -0.4116 -0.7345
 2353SOL    HW118521   1.661   1.147   2.707  2.1761 -0.2052  3.7283
 2353SOL    HW218522   1.677   0.995   2.733  1.1324  0.6140  3.2010
 2354SOL     OW18523   1.994   3.130   7.994  0.1705  0.0505  0.0316
 2354SOL    HW118524   1.978   3.039   7.969  1.6920 -0.6828  1.6929
 2354SOL    HW218525   1.998   3.117   8.089  1.3942  1.0324  0.1279
 2355SOL     OW18526   0.368   2.043  14.288  0.0923  0.0583 -0.2251
 2355SOL    HW118527   0.403   2.092  14.213 -1.8007  2.2545  0.3052
 2355SOL    HW218528   0.348   1.958  14.248 -0.1587  0.6947 -1.4761
 2356SOL     OW18529   3.139   4.476   6.878 -0.1149  0.0861 -0.4139
 2356SOL    HW118530   3.106   4.402   6.928  1.8698 -0.8113 -0.4007
 2356SOL    HW218531   3.177   4.535   6.944 -0.5355 -1.1665  0.9339
 2357SOL     OW18532   4.398   3.556   4.675 -0.2520 -0.0108  0.7033
 2357SOL    HW118533   4.419   3.647   4.657  1.0800 -0.0691  1.9174
 2357SOL    HW218534   4.311   3.530   4.644 -0.7869  1.0671  1.3146
 2358SOL     OW18535   3.164   2.878   6.343  0.3698  0.3429  0.1434
 2358SOL    HW118536   3.138   2.970   6.334 -0.4332  0.1624  0.6333
 2358SOL    HW218537   3.241   2.889   6.398 -0.2033  3.3973  0.3324
 2359SOL     OW18538   4.320   0.236   7.978 -0.2685  0.6505 -0.2348
 2359SOL    HW118539   4.409   0.256   8.005 -0.7180  0.6850  1.2615
 2359SOL    HW218540   4.321   0.290   7.899 -0.1725 -0.5780 -1.0604
 2360SOL     OW18541   1.129   2.529   7.465  0.2359 -0.0943  0.1883
 2360SOL    HW118542   1.148   2.555   7.556  0.4230 -1.8002  0.6344
 2360SOL    HW218543   1.166   2.601   7.415 -1.6413  1.7823  1.4638
 2361SOL     OW18544   3.534   3.443   0.878 -0.1089 -0.7949  0.5705
 2361SOL    HW118545   3.580   3.527   0.884 -0.6702 -0.3155 -1.8358
 2361SOL    HW218546   3.494   3.432   0.964 -1.1466  1.0162  0.3244
 2362SOL     OW18547   1.758   3.926  16.167  0.3612 -0.2569 -0.6147
 2362SOL    HW118548   1.701   3.998  16.140 -1.7735 -1.8220 -0.2857
 2362SOL    HW218549   1.712   3.850  16.130 -0.5353 -0.6167  1.2692
 2363SOL     OW18550   2.816   1.144  12.690  0.1485 -0.9421 -0.3687
 2363SOL    HW118551   2.893   1.146  12.747 -0.1182 -0.8648 -0.0061
 2363SOL    HW218552   2.844   1.151  12.599 -1.0246  1.7893 -0.5086
 2364SOL     OW18553   0.622   3.006  15.393  0.3983 -0.6161 -0.0748
 2364SOL    HW118554   0.642   2.971  15.306  0.9631  0.1560 -0.2605
 2364SOL    HW218555   0.620   2.923  15.441  0.6965 -0.8448 -0.4513
 2365SOL     OW18556   2.567   2.539   6.046  0.1622  0.3591  0.1840
 2365SOL    HW118557   2.499   2.477   6.071 -0.0077  0.5352  0.1564
 2365SOL    HW218558   2.525   2.584   5.972  0.7916  3.4020  1.6767
 2366SOL     OW18559   1.376   2.430   5.596 -0.7240 -0.0510 -0.2528
 2366SOL    HW118560   1.438   2.411   5.666  1.8050  1.1896 -2.1548
 2366SOL    HW218561   1.397   2.358   5.536  0.9000  1.4923 -1.5333
 2367SOL     OW18562   3.348   1.631   7.520  0.1558  0.3943 -0.0496
 2367SOL    HW118563   3.288   1.614   7.448 -0.7132  0.5685  0.6286
 2367SOL    HW218564   3.421   1.573   7.500  0.0796  0.0096  0.7740
 2368SOL     OW18565   0.375   1.658   4.360 -0.2407  0.3087  0.0107
 2368SOL    HW118566   0.340   1.591   4.302  0.8184 -1.8170  1.8114
 2368SOL    HW218567   0.468   1.641   4.344 -0.4851 -0.3206 -0.7037
 2369SOL     OW18568   1.216   2.456  14.426  0.4488  0.7716  0.4976
 2369SOL    HW118569   1.216   2.523  14.495 -0.0193  0.3412  0.9176
 2369SOL    HW218570   1.286   2.403  14.464 -0.5007 -1.4952 -0.9433
 2370SOL     OW18571   2.173   3.726  14.875 -0.3464 -0.3906  0.0731
 2370SOL    HW118572   2.151   3.812  14.838  0.3509 -1.3471 -2.5503
 2370SOL    HW218573   2.268   3.726  14.861 -0.5080 -0.2471 -1.0821
 2371SOL     OW18574   0.666   1.265   5.021 -0.4343 -0.4329 -0.1371
 2371SOL    HW118575   0.696   1.202   5.087 -1.8030 -0.4319  0.4830
 2371SOL    HW218576   0.625   1.331   5.078  0.5475 -1.0617  1.3023
 2372SOL     OW18577   0.110   0.044  17.673 -0.5669  0.4906  0.2302
 2372SOL    HW118578   0.145   0.113  17.617  1.7296 -1.0782 -0.2641
 2372SOL    HW218579   0.166   0.041   0.054  1.4371 -1.6242 -1.3346
 2373SOL     OW18580   1.593   4.085   1.956 -0.4170  0.2528  0.3166
 2373SOL    HW118581   1.553   4.171   1.961  0.0095  0.5026 -0.5923
 2373SOL    HW218582   1.626   4.067   2.044 -0.8084 -0.7008  0.2764
 2374SOL     OW18583   1.858   1.770   4.856  0.2816 -0.2295  0.2753
 2374SOL    HW118584   1.912   1.727   4.923  0.5909 -1.1621 -0.5742
 2374SOL    HW218585   1.775   1.724   4.869  0.3353  0.0080  1.4389
 2375SOL     OW18586   0.467   2.826  13.881 -0.0399  0.1700  0.3549
 2375SOL    HW118587   0.401   2.843  13.948 -0.7216 -1.4008  0.0833
 2375SOL    HW218588   0.450   2.734  13.863 -1.0182  0.9218 -2.6927
 2376SOL     OW18589   3.009   4.158   8.572 -0.1627  0.1718  0.7830
 2376SOL    HW118590   3.064   4.171   8.649  0.2085 -0.8819  0.6865
 2376SOL    HW218591   3.001   4.249   8.543 -0.4613 -0.0680  0.1048
 2377SOL     OW18592   4.086   1.218   5.679  0.3516  0.7063  0.3034
 2377SOL    HW118593   4.016   1.160   5.650  1.0754 -0.7671  1.5217
 2377SOL    HW218594   4.041   1.291   5.723 -0.2361  1.2267 -1.1505
 2378SOL     OW18595   0.188   4.502   4.910  0.3805  0.4688  0.6462
 2378SOL    HW118596   0.146   4.440   4.851 -0.5103  0.3165  1.4343
 2378SOL    HW218597   0.193   4.584   4.862  0.0162  1.1034  1.6997
 2379SOL     OW18598   3.889   4.359  14.053  0.0319 -0.2848 -0.2130
 2379SOL    HW118599   3.973   4.403  14.045  0.7596 -1.8035 -0.8906
 2379SOL    HW218600   3.905   4.265  14.046 -0.9661 -0.5036  0.4343
 2380SOL     OW18601   1.748   3.216   8.991  0.1212 -0.2140  0.1227
 2380SOL    HW118602   1.734   3.124   8.969  1.8315 -0.0886 -1.4467
 2380SOL    HW218603   1.672   3.262   8.954 -0.2493 -1.5384 -0.7343
 2381SOL     OW18604   1.883   1.317   2.756 -0.6562 -0.1168 -0.5013
 2381SOL    HW118605   1.812   1.333   2.693  0.1181 -1.4196 -1.6858
 2381SOL    HW218606   1.930   1.399   2.771 -3.1994  1.3535 -0.5106
 2382SOL     OW18607   3.974   4.267   5.049 -0.3906  0.1643  0.3701
 2382SOL    HW118608   3.950   4.340   5.106 -1.0922  1.0507 -1.0534
 2382SOL    HW218609   4.042   4.312   4.998 -1.4399  1.6655  0.2795
 2383SOL     OW18610   2.295   1.893  16.904 -0.0201 -0.3528 -0.2783
 2383SOL    HW118611   2.248   1.939  16.974  2.9213  1.3640  0.5756
 2383SOL    HW218612   2.387   1.915  16.920 -0.1329 -0.8507  1.0686
 2384SOL     OW18613   0.025   1.246   2.013  0.2568 -0.2795  0.1269
 2384SOL    HW118614   0.101   1.237   2.070  1.6532  2.2214 -1.3163
 2384SOL    HW218615   4.674   1.237   2.073 -0.0526  2.0860  0.1142
 2385SOL     OW18616   0.799   0.827   1.961  0.4587  0.5632 -0.4990
 2385SOL    HW118617   0.845   0.895   2.010  1.3247 -1.3567  1.3542
 2385SOL    HW218618   0.859   0.817   1.887 -0.5871  1.7803 -1.5313
 2386SOL     OW18619   2.642   0.850   1.786  0.3320 -0.1765 -0.1525
 2386SOL    HW118620   2.640   0.943   1.811 -0.8280  0.0195 -0.9810
 2386SOL    HW218621   2.634   0.798   1.866 -0.4955 -0.0987 -0.1889
 2387SOL     OW18622   0.894   2.754   9.446  0.0830  0.4993 -0.3153
 2387SOL    HW118623   0.831   2.804   9.498  1.6653  1.1156  1.0027
 2387SOL    HW218624   0.915   2.687   9.511  1.1360 -1.3467 -2.5580
 2388SOL     OW18625   4.032   0.511   2.142  0.7427  0.1228 -0.3452
 2388SOL    HW118626   4.070   0.553   2.064 -3.3046 -1.4088 -3.1618
 2388SOL    HW218627   3.989   0.434   2.104 -0.3479  0.9333 -0.7750
 2389SOL     OW18628   1.128   1.223  10.978 -0.0588  0.8412  0.4917
 2389SOL    HW118629   1.039   1.255  10.996 -1.0423 -1.6219 -0.0477
 2389SOL    HW218630   1.158   1.299  10.928  0.9108  1.3183  1.8021
 2390SOL     OW18631   3.316   2.890  11.765 -0.1963  0.0498  0.2635
 2390SOL    HW118632   3.292   2.800  11.784  0.0029  0.1542  1.0085
 2390SOL    HW218633   3.351   2.878  11.676  0.3751  0.7263  0.3933
 2391SOL     OW18634   1.052   2.980   7.047 -0.0361 -0.0645  0.0248
 2391SOL    HW118635   1.078   2.920   7.117  0.4127 -1.4032 -1.2785
 2391SOL    HW218636   1.134   3.029   7.049  0.1689 -0.4127  0.1880
 2392SOL     OW18637   1.883   4.249   4.323 -0.4604  0.1099  0.2358
 2392SOL    HW118638   1.978   4.237   4.327 -0.0319  3.3597 -0.7739
 2392SOL    HW218639   1.849   4.173   4.371 -2.8997  1.3344  0.4547
 2393SOL     OW18640   1.407   1.496   7.726 -0.0630  0.0001  0.0544
 2393SOL    HW118641   1.445   1.412   7.750 -2.2834 -0.6350  1.2962
 2393SOL    HW218642   1.379   1.483   7.635  0.8328 -0.7886 -0.1066
 2394SOL     OW18643   4.371   4.691  13.183 -0.4414 -0.3441 -0.1984
 2394SOL    HW118644   4.408   0.007  13.261 -1.6049 -0.0292  0.1913
 2394SOL    HW218645   4.314   4.620  13.214 -0.4660 -0.5247 -0.6402
 2395SOL     OW18646   1.450   0.938   5.095  0.1320  0.6752  0.6628
 2395SOL    HW118647   1.402   0.877   5.150  0.3131 -0.2748 -0.2415
 2395SOL    HW218648   1.531   0.951   5.145  0.7149 -1.4362  0.2719
 2396SOL     OW18649   0.849   2.020   7.317  0.2287 -0.1526  0.5087
 2396SOL    HW118650   0.806   1.939   7.289 -1.5387  0.6696  0.8787
 2396SOL    HW218651   0.938   1.984   7.323  0.0796 -1.0453 -2.6283
 2397SOL     OW18652   1.178   3.933   6.876 -0.3093 -0.0666  0.1446
 2397SOL    HW118653   1.167   3.958   6.784 -2.6145 -1.8483 -0.0635
 2397SOL    HW218654   1.264   3.890   6.873 -1.4692 -2.3599  0.0062
 2398SOL     OW18655   4.606   2.900  14.471 -0.4909 -0.0539 -0.5849
 2398SOL    HW118656   4.604   2.805  14.463  1.1197 -0.1790  0.5059
 2398SOL    HW218657   4.675   2.913  14.406  0.3779 -0.2531  0.2911
 2399SOL     OW18658   3.902   1.451  13.776 -0.5429 -0.3248 -0.0109
 2399SOL    HW118659   3.959   1.394  13.725 -1.6831 -1.0314 -0.4853
 2399SOL    HW218660   3.849   1.392  13.829  1.2717 -0.4551  1.6787
 2400SOL     OW18661   2.880   2.807  13.090  0.4501  0.0348  0.3295
 2400SOL    HW118662   2.900   2.724  13.134 -0.1048 -0.4496 -0.3304
 2400SOL    HW218663   2.828   2.850  13.158  0.4032  1.1218 -0.3808
 2401SOL     OW18664   0.246   1.307   9.584 -0.0993  0.3808 -0.2449
 2401SOL    HW118665   0.319   1.367   9.598  1.0970 -0.9423 -0.8153
 2401SOL    HW218666   0.231   1.305   9.489 -0.9654 -1.6167 -0.0757
 2402SOL     OW18667   1.326   0.289   8.167 -0.0760  0.1426 -0.2255
 2402SOL    HW118668   1.372   0.358   8.118 -0.0180  1.6217  1.9152
 2402SOL    HW218669   1.350   0.209   8.121 -1.0745  0.4867 -1.3443
 2403SOL     OW18670   3.284   4.662   7.006  0.3560  0.1226 -0.3354
 2403SOL    HW118671   3.244   0.012   7.054  3.4157  1.1025  0.7399
 2403SOL    HW218672   3.366   4.640   7.050 -0.1493  2.2166  1.6982
 2404SOL     OW18673   3.686   2.370   6.327  0.5772  0.1027 -0.8283
 2404SOL    HW118674   3.596   2.338   6.331  0.4178  0.5569 -0.7338
 2404SOL    HW218675   3.667   2.460   6.297 -1.3187  0.1498  0.4706
 2405SOL     OW18676   2.157   1.295   3.057 -0.1363 -0.2802  0.3445
 2405SOL    HW118677   2.179   1.202   3.058 -2.2398 -0.7763  2.3255
 2405SOL    HW218678   2.240   1.342   3.064  0.5578 -1.3284 -0.9098
 2406SOL     OW18679   3.256   3.859   1.413  0.1913  0.1813  0.2915
 2406SOL    HW118680   3.333   3.911   1.391  0.7283  0.4232  2.7106
 2406SOL    HW218681   3.229   3.888   1.500 -1.9774 -1.3624  0.1273
 2407SOL     OW18682   3.464   2.307  13.268 -0.2171 -0.1622  0.0852
 2407SOL    HW118683   3.527   2.344  13.330 -2.2383  0.8749  1.5320
 2407SOL    HW218684   3.490   2.215  13.261 -0.3120 -0.2396  0.6912
 2408SOL     OW18685   2.419   0.867   5.926  0.2972 -0.0178 -0.0393
 2408SOL    HW118686   2.344   0.927   5.929 -0.4423 -0.8619 -1.3399
 2408SOL    HW218687   2.495   0.923   5.940  0.3661 -0.4823  1.4302
 2409SOL     OW18688   3.241   3.755   4.562  0.1578  0.8167 -0.5315
 2409SOL    HW118689   3.278   3.792   4.482 -2.4678  3.8967 -0.3106
 2409SOL    HW218690   3.148   3.746   4.543  0.2958  0.3330 -0.9981
 2410SOL     OW18691   1.932   1.108   1.519  0.1190  0.6796 -0.0266
 2410SOL    HW118692   1.891   1.117   1.605  1.7155 -2.4552  1.0521
 2410SOL    HW218693   1.913   1.191   1.475 -0.2593  0.3613 -0.4623
 2411SOL     OW18694   4.431   2.757  10.718 -0.4357  0.4965 -0.1020
 2411SOL    HW118695   4.381   2.789  10.643 -2.2851  0.4080  1.0946
 2411SOL    HW218696   4.365   2.694  10.748 -1.8747  0.5719 -3.0948
 2412SOL     OW18697   1.936   4.488  14.819 -0.1784 -0.1658  0.2168
 2412SOL    HW118698   1.862   4.444  14.778  0.8288 -0.3342 -1.4215
 2412SOL    HW218699   2.007   4.453  14.766  0.3276 -0.4551  1.0708
 2413SOL     OW18700   3.276   4.216   6.623  0.3110 -0.2024 -0.2354
 2413SOL    HW118701   3.239   4.193   6.709 -0.8068  0.4164 -0.5568
 2413SOL    HW218702   3.256   4.310   6.619  1.9237  0.1498 -0.0153
 2414SOL     OW18703   2.934   4.346   6.040  0.1184 -0.1962 -0.1590
 2414SOL    HW118704   2.985   4.340   6.121 -0.3922  0.7388  0.2263
 2414SOL    HW218705   3.001   4.363   5.973  0.3292 -0.1781  0.0584
 2415SOL     OW18706   4.131   3.030   6.881 -0.6879  0.4185  0.3891
 2415SOL    HW118707   4.041   3.051   6.858 -0.8103 -1.3346 -0.6692
 2415SOL    HW218708   4.171   3.106   6.840 -2.3818  0.5383 -1.0421
 2416SOL     OW18709   4.498   4.254   2.760  0.4423  0.7661 -0.0242
 2416SOL    HW118710   4.583   4.287   2.732  0.8321  0.1780  0.4722
 2416SOL    HW218711   4.462   4.340   2.781  0.5853  0.2900  2.1791
 2417SOL     OW18712   3.633   3.685   0.923  0.2273  0.5781 -0.1229
 2417SOL    HW118713   3.668   3.708   0.837 -1.2462 -1.6393 -1.3155
 2417SOL    HW218714   3.646   3.761   0.980  0.8128  0.5167 -0.1734
 2418SOL     OW18715   0.551   0.922   8.204  0.8312  0.2359  0.2553
 2418SOL    HW118716   0.572   1.015   8.193  0.9683  0.3905  1.8186
 2418SOL    HW218717   0.465   0.926   8.247  0.8902  1.1080  0.3016
 2419SOL     OW18718   0.198   1.309   7.414  0.3834  0.4808  0.2279
 2419SOL    HW118719   0.103   1.296   7.421  0.7468 -1.6288  1.4326
 2419SOL    HW218720   0.237   1.230   7.453  1.4998  0.5595 -0.7273
 2420SOL     OW18721   2.998   2.604   2.186 -0.6395  0.0099  0.8839
 2420SOL    HW118722   2.995   2.698   2.198 -1.5606  0.0175  0.6100
 2420SOL    HW218723   3.046   2.609   2.104  0.3950  1.3850  1.5756
 2421SOL     OW18724   0.141   0.739  16.052  0.3729  0.2224 -0.2692
 2421SOL    HW118725   0.161   0.828  16.080  0.9661  0.7520 -2.3425
 2421SOL    HW218726   0.131   0.689  16.132  0.8298 -0.0984 -0.4121
 2422SOL     OW18727   1.961   4.647   0.568  0.8389  0.2412  0.4867
 2422SOL    HW118728   1.916   4.618   0.489 -0.3407 -1.4420  1.7837
 2422SOL    HW218729   1.928   0.013   0.560  0.8181  0.3435  1.7387
 2423SOL     OW18730   4.652   3.592  10.239 -0.1290  0.0105 -0.5408
 2423SOL    HW118731   4.615   3.509  10.209  1.2728 -0.0916 -2.0054
 2423SOL    HW218732   4.641   3.574  10.332 -0.6488 -1.3679 -0.8578
 2424SOL     OW18733   1.402   3.948   8.549 -0.7048 -0.1110  0.5336
 2424SOL    HW118734   1.342   4.018   8.577 -0.6776 -0.2345  0.8981
 2424SOL    HW218735   1.454   3.934   8.628 -1.6444  0.7514  1.3120
 2425SOL     OW18736   4.010   1.371   4.819  0.3485 -0.5008 -0.2528
 2425SOL    HW118737   3.974   1.289   4.786 -0.7031 -0.2525  0.2752
 2425SOL    HW218738   3.945   1.392   4.886 -0.3542 -0.2980 -0.9917
 2426SOL     OW18739   2.617   0.154   2.424 -0.0541 -0.8970 -0.3329
 2426SOL    HW118740   2.590   0.224   2.364 -3.3703 -1.0318  1.0094
 2426SOL    HW218741   2.710   0.171   2.439 -0.1179 -1.1675  0.3628
 2427SOL     OW18742   3.350   2.371  12.875 -0.2863  0.0715  0.2105
 2427SOL    HW118743   3.299   2.440  12.831 -1.7221 -0.9784  0.2328
 2427SOL    HW218744   3.280   2.344  12.934 -1.0778  0.4161 -0.5577
 2428SOL     OW18745   2.164   2.152   5.258 -0.1226  0.1284 -0.1474
 2428SOL    HW118746   2.239   2.190   5.212 -0.0336  1.3739  0.9977
 2428SOL    HW218747   2.090   2.172   5.201 -0.8292  1.5997  1.2727
 2429SOL     OW18748   4.678   4.456  12.294  0.0856 -0.3004  0.3443
 2429SOL    HW118749   4.594   4.471  12.337  0.7724  0.5631  1.3875
 2429SOL    HW218750   4.656   4.416  12.210 -2.3135 -0.1197  0.8849
 2430SOL     OW18751   4.040   3.292   2.066 -0.0896 -0.6850 -0.2039
 2430SOL    HW118752   4.046   3.220   2.004 -0.0225  0.7162 -1.8079
 2430SOL    HW218753   4.063   3.372   2.019  1.4803 -1.2213 -0.3514
 2431SOL     OW18754   3.726   2.712   8.567  0.1356 -0.0041 -0.0979
 2431SOL    HW118755   3.784   2.695   8.492  0.6701  0.9773  0.0876
 2431SOL    HW218756   3.661   2.645   8.548 -1.5901  1.4300  0.8350
 2432SOL     OW18757   0.131   4.038  14.046 -0.5954 -0.2460  0.2165
 2432SOL    HW118758   0.181   4.104  14.093  0.2815  0.4044 -1.6181
 2432SOL    HW218759   0.201   3.972  14.042  1.6773  2.0715  2.2625
 2433SOL     OW18760   4.378   1.337  11.091 -0.6163 -0.2686 -0.0098
 2433SOL    HW118761   4.412   1.391  11.162 -1.9282 -0.4306  0.7479
 2433SOL    HW218762   4.283   1.337  11.103 -0.7928  0.4254 -1.2881
 2434SOL     OW18763   2.593   1.239   5.458  0.6606  0.2253 -0.0494
 2434SOL    HW118764   2.586   1.335   5.459 -0.8327  0.1079 -0.0029
 2434SOL    HW218765   2.576   1.205   5.370  1.6428  0.9041 -0.5108
 2435SOL     OW18766   4.683   2.461   4.676  0.6000  0.3647  0.2738
 2435SOL    HW118767   0.017   2.514   4.622  1.4817 -1.1812 -0.3007
 2435SOL    HW218768   4.614   2.519   4.708  0.4939  0.1217  0.4957
 2436SOL     OW18769   2.528   0.195  13.249 -0.1422 -0.3553 -0.3386
 2436SOL    HW118770   2.478   0.120  13.218  0.8421 -1.2646  0.2917
 2436SOL    HW218771   2.476   0.273  13.231  2.0328  0.5861 -2.5580
 2437SOL     OW18772   4.446   1.117   7.803 -0.3454 -0.2090  0.3720
 2437SOL    HW118773   4.423   1.120   7.896  1.2964  0.4326  0.7496
 2437SOL    HW218774   4.516   1.181   7.808 -0.1298 -0.2949 -1.2811
 2438SOL     OW18775   4.327   1.899  11.334  0.3252 -0.0708  0.0083
 2438SOL    HW118776   4.422   1.910  11.323  0.6458 -5.3220 -2.5089
 2438SOL    HW218777   4.294   1.857  11.255 -2.3957  0.3452  0.9151
 2439SOL     OW18778   2.158   4.066  17.231 -0.4154 -0.0620 -0.7277
 2439SOL    HW118779   2.208   4.034  17.307 -0.2036 -0.1009 -0.8838
 2439SOL    HW218780   2.136   4.151  17.268 -0.1585  0.5967 -2.1106
 2440SOL     OW18781   3.698   3.517   6.368  0.4529 -0.2039 -0.7215
 2440SOL    HW118782   3.734   3.595   6.411 -2.4435 -0.0254  1.3803
 2440SOL    HW218783   3.639   3.554   6.301 -0.2175 -1.5293 -0.8579
 2441SOL     OW18784   1.023   3.379   3.429  0.6921 -0.2021 -0.1444
 2441SOL    HW118785   0.995   3.336   3.510  0.7524 -0.0087 -0.0205
 2441SOL    HW218786   1.084   3.439   3.472  0.8465 -1.0151  0.7782
 2442SOL     OW18787   0.468   4.209   2.535 -0.1980  0.1964 -0.5230
 2442SOL    HW118788   0.513   4.146   2.478  0.2003  2.1750 -2.4101
 2442SOL    HW218789   0.387   4.227   2.488 -0.3045  0.0762 -0.3833
 2443SOL     OW18790   3.980   2.189   6.097  0.2710 -0.3930  0.5050
 2443SOL    HW118791   4.072   2.199   6.070 -0.7116 -0.4212 -2.8186
 2443SOL    HW218792   3.960   2.280   6.119  2.1111  0.3057 -0.7096
 2444SOL     OW18793   0.329   4.619   4.065 -0.1035 -0.8105 -0.2973
 2444SOL    HW118794   0.416   4.638   4.032 -0.6011  0.2272 -1.0099
 2444SOL    HW218795   0.265   4.638   3.996  0.0852  0.7425 -0.0534
 2445SOL     OW18796   2.149   1.373  16.875 -1.1490  0.1391  0.4544
 2445SOL    HW118797   2.054   1.376  16.863 -1.2555  0.7738  1.4446
 2445SOL    HW218798   2.176   1.460  16.904 -0.6534 -0.1766  0.9650
 2446SOL     OW18799   3.032   1.086   6.737  0.2927  0.1552  0.0178
 2446SOL    HW118800   3.009   1.177   6.721  3.0605  0.7130 -0.8922
 2446SOL    HW218801   2.998   1.036   6.663  3.1243  0.0408 -1.2058
 2447SOL     OW18802   2.075   2.189   5.840  0.6058 -0.0795 -0.6895
 2447SOL    HW118803   2.153   2.135   5.852 -0.6471 -1.4725  1.0620
 2447SOL    HW218804   2.034   2.183   5.926  0.2088 -1.9049 -1.0084
 2448SOL     OW18805   2.644   3.607   9.395  0.2758 -0.4866  0.1441
 2448SOL    HW118806   2.716   3.578   9.450 -1.0543 -1.4742  1.3624
 2448SOL    HW218807   2.583   3.536   9.416 -0.9860  0.3779 -0.6136
 2449SOL     OW18808   2.475   3.665   1.233  0.3646  0.7974 -0.1398
 2449SOL    HW118809   2.524   3.666   1.315 -1.0285  1.5913  0.6844
 2449SOL    HW218810   2.384   3.673   1.263  0.0767  0.5712 -0.9490
 2450SOL     OW18811   4.308   0.900   5.697 -0.4688  0.5934 -0.2120
 2450SOL    HW118812   4.221   0.862   5.709  0.0776 -0.5358  0.0941
 2450SOL    HW218813   4.349   0.847   5.628  0.3007  1.8169 -0.6940
 2451SOL     OW18814   2.754   4.220   8.708 -0.2669 -0.0948 -0.4083
 2451SOL    HW118815   2.748   4.307   8.669 -2.6840 -0.0136  0.1560
 2451SOL    HW218816   2.818   4.179   8.650  0.0951 -0.2278  0.0810
 2452SOL     OW18817   3.977   3.749  15.075 -0.2397  0.0447  0.4542
 2452SOL    HW118818   3.890   3.756  15.114  0.4653 -0.6096  2.1072
 2452SOL    HW218819   4.023   3.697  15.140 -0.8782 -0.3565  0.5842
 2453SOL     OW18820   2.494   0.954  12.712 -0.2013  0.2537 -0.7530
 2453SOL    HW118821   2.418   1.010  12.694 -0.1536  0.4418 -0.3739
 2453SOL    HW218822   2.561   0.985  12.652 -1.5001  2.2711 -1.1431
 2454SOL     OW18823   4.661   0.110   5.802 -0.4080 -0.1665  0.2839
 2454SOL    HW118824   4.692   0.094   5.891  0.5557 -0.2901 -0.0719
 2454SOL    HW218825   4.626   0.199   5.799  0.4457  0.1755  0.3646
 2455SOL     OW18826   0.872   0.660   2.331  0.3651  0.2666 -0.0416
 2455SOL    HW118827   0.906   0.628   2.247 -1.1028 -1.5934  0.0454
 2455SOL    HW218828   0.842   0.744   2.296  1.1796  0.1276 -1.0914
 2456SOL     OW18829   3.806   2.514   9.275 -0.1795  0.3417  0.5976
 2456SOL    HW118830   3.839   2.511   9.365  0.9250 -1.5087  0.1271
 2456SOL    HW218831   3.716   2.495   9.301 -0.3295  1.8540  1.1809
 2457SOL     OW18832   4.622   3.885   1.988  0.8147 -0.5371 -0.6490
 2457SOL    HW118833   4.620   3.810   1.928  2.9350 -1.3998  0.3855
 2457SOL    HW218834   4.570   3.865   2.065 -0.9236  1.0281 -1.4139
 2458SOL     OW18835   2.232   2.032   2.461 -0.8056  0.3108  0.2047
 2458SOL    HW118836   2.268   2.057   2.377  1.3129 -0.0574  1.0161
 2458SOL    HW218837   2.170   1.963   2.434 -0.6913  0.5870 -0.7698
 2459SOL     OW18838   1.236   2.972   6.186 -0.5592 -0.0093 -0.1281
 2459SOL    HW118839   1.170   3.037   6.164  1.4220  2.1553  0.2368
 2459SOL    HW218840   1.269   2.949   6.099  1.0209 -0.4140  0.5777
 2460SOL     OW18841   3.971   3.224   6.615 -0.5455  0.2970 -0.2791
 2460SOL    HW118842   3.973   3.285   6.541 -0.1188  0.5006 -0.1013
 2460SOL    HW218843   4.064   3.212   6.632 -0.0061  5.1775  0.2777
 2461SOL     OW18844   3.078   2.201   2.179  0.5542 -0.4085 -0.1296
 2461SOL    HW118845   3.068   2.176   2.087  1.3386  0.0281 -0.3335
 2461SOL    HW218846   2.997   2.166   2.218  0.3812  0.4874  0.3036
 2462SOL     OW18847   0.707   4.581   3.692 -0.1644  0.0657 -0.0839
 2462SOL    HW118848   0.717   4.631   3.611 -0.3904 -0.9097 -0.7075
 2462SOL    HW218849   0.797   4.546   3.695 -0.0727  0.3905  1.1133
 2463SOL     OW18850   1.363   1.589  15.219 -0.0667  0.3757 -0.1295
 2463SOL    HW118851   1.385   1.562  15.308  0.4376  1.3286  0.0349
 2463SOL    HW218852   1.340   1.678  15.247 -1.8589 -0.1577  0.0821
 2464SOL     OW18853   2.160   1.494   6.767 -0.5383 -0.1232  0.0097
 2464SOL    HW118854   2.089   1.522   6.826 -0.2495 -0.9765  0.7633
 2464SOL    HW218855   2.121   1.433   6.704 -0.6217  1.9593 -1.9609
 2465SOL     OW18856   4.052   0.653   4.972 -0.1043  0.5031 -0.4092
 2465SOL    HW118857   4.111   0.585   5.004  1.1622  1.2798 -1.0604
 2465SOL    HW218858   4.016   0.687   5.054 -1.8209 -3.3191  0.3766
 2466SOL     OW18859   1.502   2.717   8.483  0.5368  0.5216 -0.1968
 2466SOL    HW118860   1.553   2.696   8.405 -0.4435  1.4019 -1.0641
 2466SOL    HW218861   1.416   2.686   8.458  0.6788 -1.5195  1.8251
 2467SOL     OW18862   3.616   4.077   2.800 -0.2603 -0.4208  0.2888
 2467SOL    HW118863   3.626   3.988   2.767 -0.5010 -0.0670 -0.7287
 2467SOL    HW218864   3.520   4.084   2.798 -0.1010  0.8808 -2.3294
 2468SOL     OW18865   1.465   3.261   9.387 -0.0026  0.1012  0.1348
 2468SOL    HW118866   1.538   3.322   9.388  0.2352 -0.1645 -1.2046
 2468SOL    HW218867   1.485   3.192   9.451 -0.5005 -0.9379 -0.8226
 2469SOL     OW18868   2.270   4.595   8.978  0.3606 -0.6100  0.9605
 2469SOL    HW118869   2.336   4.663   8.964 -1.1650  0.6320 -0.2229
 2469SOL    HW218870   2.280   4.568   9.069 -1.6931  0.6518  1.5529
 2470SOL     OW18871   1.045   0.152   3.039  0.2774  0.5512 -0.5124
 2470SOL    HW118872   1.088   0.192   2.963 -0.1637  3.8253  0.9555
 2470SOL    HW218873   1.080   0.065   3.023 -0.1416  0.2445  0.1937
 2471SOL     OW18874   3.005   3.570   6.658  0.1534 -0.3025 -0.0186
 2471SOL    HW118875   3.040   3.542   6.574  0.1314 -0.6311  0.0814
 2471SOL    HW218876   3.090   3.591   6.697  0.9196 -0.3938 -1.6610
 2472SOL     OW18877   4.413   2.453   2.006 -0.7219  0.4153  0.3326
 2472SOL    HW118878   4.468   2.454   1.927 -1.1321  0.1081  0.0373
 2472SOL    HW218879   4.448   2.532   2.045  0.7522  1.3592 -2.8948
 2473SOL     OW18880   0.768   2.037   9.497  0.5048 -0.2411  0.2432
 2473SOL    HW118881   0.789   2.004   9.585 -2.9516 -1.7048  0.5352
 2473SOL    HW218882   0.689   1.986   9.478  0.0697  0.6849 -0.4261
 2474SOL     OW18883   3.494   3.942   0.300 -0.5269 -0.4941 -0.1258
 2474SOL    HW118884   3.416   3.890   0.317 -0.3926 -1.1966 -1.6254
 2474SOL    HW218885   3.526   3.959   0.389  1.3222  1.0617 -1.0885
 2475SOL     OW18886   1.838   2.914   7.845  0.0909  0.2300 -0.3160
 2475SOL    HW118887   1.760   2.861   7.828 -0.4307  0.8653  0.1188
 2475SOL    HW218888   1.883   2.905   7.761 -2.8963 -1.5846 -1.6856
 2476SOL     OW18889   2.214   0.034   5.187  0.1666  0.0438 -0.1487
 2476SOL    HW118890   2.285   0.080   5.231 -0.7580  0.1051  1.2990
 2476SOL    HW218891   2.233   0.058   5.097  1.1798  0.3872  0.1644
 2477SOL     OW18892   3.919   1.523  17.518 -0.6244  0.1838  0.2281
 2477SOL    HW118893   3.992   1.530  17.457 -0.5614 -1.4601  0.1052
 2477SOL    HW218894   3.840   1.518  17.463 -0.2746  1.4927 -0.3890
 2478SOL     OW18895   0.298   4.174   4.792  0.3406 -0.7309  1.0620
 2478SOL    HW118896   0.320   4.256   4.747 -0.4728  0.3382  2.6359
 2478SOL    HW218897   0.208   4.197   4.814  0.6675  0.1595  1.4549
 2479SOL     OW18898   2.938   0.208   4.308  0.2758  0.1823  0.5728
 2479SOL    HW118899   2.857   0.241   4.269 -0.3706 -1.4685  0.5343
 2479SOL    HW218900   2.990   0.288   4.307  0.4876  0.0488  0.9877
 2480SOL     OW18901   3.611   2.598  16.436 -0.2206  0.1319  0.0548
 2480SOL    HW118902   3.593   2.509  16.468 -1.6040 -0.4818 -2.4083
 2480SOL    HW218903   3.574   2.651  16.506  1.2056 -0.2266  1.0867
 2481SOL     OW18904   4.617   2.051   5.109  0.5704 -0.0211  0.3683
 2481SOL    HW118905   4.686   2.022   5.168  0.3283  2.4445  1.8526
 2481SOL    HW218906   4.674   2.110   5.060 -0.5706  2.9030  2.5478
 2482SOL     OW18907   3.254   0.765   6.594 -0.3421 -0.4469 -0.0123
 2482SOL    HW118908   3.175   0.748   6.646 -0.1183  0.1271  0.5199
 2482SOL    HW218909   3.192   0.781   6.522 -1.2631  0.4869  0.9957
 2483SOL     OW18910   1.678   0.399   9.133 -0.5303  0.6280  0.4407
 2483SOL    HW118911   1.746   0.332   9.121 -1.6968 -1.0880  3.5076
 2483SOL    HW218912   1.604   0.357   9.177 -0.7113  2.0679  1.5040
 2484SOL     OW18913   2.379   3.236   6.390 -0.0098 -0.6589 -0.2999
 2484SOL    HW118914   2.297   3.190   6.372 -1.1125  1.8342 -1.6022
 2484SOL    HW218915   2.410   3.251   6.300 -0.8307 -1.6337 -0.7556
 2485SOL     OW18916   2.279   4.623  14.060  0.0685  0.2288  0.1653
 2485SOL    HW118917   2.332   4.696  14.027  0.8696  0.8783  2.8864
 2485SOL    HW218918   2.299   4.629  14.153  0.1134  2.6209  0.0068
 2486SOL     OW18919   1.616   3.989   9.643  0.1487 -0.3804 -0.1704
 2486SOL    HW118920   1.556   3.974   9.716  0.3482 -1.7037 -0.2678
 2486SOL    HW218921   1.687   4.029   9.694 -0.1136  0.3382 -0.3826
 2487SOL     OW18922   3.898   2.434   6.156 -0.0655 -0.0565 -0.6303
 2487SOL    HW118923   3.845   2.398   6.227 -1.0711 -0.5538 -1.6408
 2487SOL    HW218924   3.838   2.412   6.085 -0.7707 -0.3842  0.0684
 2488SOL     OW18925   0.403   2.681  10.492 -0.2794 -0.1661  0.3964
 2488SOL    HW118926   0.466   2.727  10.436  0.7178  0.8404  2.3587
 2488SOL    HW218927   0.318   2.717  10.463 -0.3123  0.3749  1.1555
 2489SOL     OW18928   3.143   3.392   0.931  0.5065 -0.3564 -0.3504
 2489SOL    HW118929   3.132   3.479   0.969  2.4194  0.7174 -2.2297
 2489SOL    HW218930   3.096   3.335   0.991  0.7084 -0.3642 -0.1983
 2490SOL     OW18931   1.283   1.164   2.953 -0.2753 -0.1515 -0.7361
 2490SOL    HW118932   1.216   1.193   2.891  0.2215  4.4833  0.9046
 2490SOL    HW218933   1.323   1.086   2.915  1.7759  0.3453  0.4315
 2491SOL     OW18934   3.403   3.057   2.363  0.3231  0.0733 -0.5442
 2491SOL    HW118935   3.328   3.001   2.382 -0.9702  1.5511 -1.3393
 2491SOL    HW218936   3.406   3.107   2.445 -0.5950  0.8197 -0.9615
 2492SOL     OW18937   3.117   0.805   2.924  0.0869  0.1146 -0.3928
 2492SOL    HW118938   3.064   0.875   2.962  0.1412 -0.1497  0.1670
 2492SOL    HW218939   3.056   0.778   2.856 -1.5142  1.8449  0.3494
 2493SOL     OW18940   3.412   1.676  11.634 -0.6890 -0.0166 -0.0105
 2493SOL    HW118941   3.426   1.581  11.631 -0.0241  0.0937 -0.4791
 2493SOL    HW218942   3.366   1.684  11.550  0.5227  0.9937 -0.5664
 2494SOL     OW18943   4.385   4.314   2.398 -0.1827 -0.4716  0.2174
 2494SOL    HW118944   4.479   4.303   2.389 -0.1070  2.1587 -2.0810
 2494SOL    HW218945   4.382   4.347   2.488 -2.0010 -1.2540  0.4451
 2495SOL     OW18946   0.852   1.046  12.612  0.0277  0.2959  0.0290
 2495SOL    HW118947   0.812   0.963  12.639 -0.3700  0.1332 -1.0657
 2495SOL    HW218948   0.791   1.111  12.647  0.1150  1.8131 -2.6070
 2496SOL     OW18949   1.192   2.544   4.041 -0.6668  0.1149  0.4404
 2496SOL    HW118950   1.130   2.472   4.056  0.5639 -0.9643  0.3318
 2496SOL    HW218951   1.160   2.607   4.105 -3.1114  0.7374 -1.4201
 2497SOL     OW18952   1.781   0.364  13.055 -0.0301 -0.1344 -0.3902
 2497SOL    HW118953   1.874   0.361  13.034  0.2770  1.2279  0.7941
 2497SOL    HW218954   1.783   0.434  13.120 -0.7729 -1.2277  0.7976
 2498SOL     OW18955   1.652   2.234  16.349 -0.1173 -0.0757 -0.6733
 2498SOL    HW118956   1.742   2.215  16.321  0.3804  1.9465 -0.4575
 2498SOL    HW218957   1.646   2.189  16.433 -0.9072 -0.5099 -0.9645
 2499SOL     OW18958   4.162   2.273   9.690  0.5146  0.1197 -0.0505
 2499SOL    HW118959   4.093   2.268   9.624  0.0485  1.8619  0.3094
 2499SOL    HW218960   4.104   2.300   9.761  0.9639 -1.5816  0.9705
 2500SOL     OW18961   0.704   1.941   8.840  0.1761  0.5061  0.1341
 2500SOL    HW118962   0.631   1.880   8.846 -0.8340  1.5953 -1.2340
 2500SOL    HW218963   0.778   1.883   8.861 -0.5092 -1.1531 -2.0019
 2501SOL     OW18964   4.701   1.004   2.505 -0.5475 -0.1531  0.0847
 2501SOL    HW118965   4.626   0.955   2.539  0.0869 -1.1970 -0.0378
 2501SOL    HW218966   4.691   1.008   2.410  0.7406  1.0778  0.0047
 2502SOL     OW18967   1.741   4.031   4.457  0.0795  0.1106 -0.2020
 2502SOL    HW118968   1.662   3.977   4.453  0.0534  0.2774 -2.0397
 2502SOL    HW218969   1.747   4.045   4.551  2.2486  1.0991 -0.4926
 2503SOL     OW18970   0.354   2.973   5.448  0.3210 -0.1032  0.3830
 2503SOL    HW118971   0.353   2.981   5.353 -2.2722  3.5911  0.7046
 2503SOL    HW218972   0.336   2.880   5.456  0.8652 -0.2042  0.4765
 2504SOL     OW18973   4.211   3.567   6.442 -0.0499  0.2233 -0.3358
 2504SOL    HW118974   4.296   3.581   6.399 -0.4175 -1.0854 -1.4819
 2504SOL    HW218975   4.190   3.474   6.434 -0.1528 -0.0131  2.8674
 2505SOL     OW18976   4.299   4.644   1.894 -0.5472  0.1598  0.3368
 2505SOL    HW118977   4.278   0.002   1.939 -2.6678 -0.8945  1.2438
 2505SOL    HW218978   4.261   4.580   1.954  1.1113 -0.1274  1.0978
 2506SOL     OW18979   2.698   1.539   7.451  0.1012  0.2375  0.1660
 2506SOL    HW118980   2.683   1.516   7.543 -0.9139  0.7828  0.1442
 2506SOL    HW218981   2.644   1.618   7.449  0.8732  0.7311 -1.0885
 2507SOL     OW18982   0.486   1.951   4.252  0.2663 -0.5931 -0.3459
 2507SOL    HW118983   0.498   1.856   4.256  2.5574 -0.2851  0.2433
 2507SOL    HW218984   0.481   1.961   4.157  1.7092 -0.9703 -0.4660
 2508SOL     OW18985   3.784   4.566   5.959 -0.5954  0.3973  0.8446
 2508SOL    HW118986   3.762   4.473   5.956 -2.1928  0.7929  0.5207
 2508SOL    HW218987   3.762   4.604   5.873 -0.9545 -2.8483 -0.4820
 2509SOL     OW18988   1.520   3.791   9.024  0.3675  0.5502 -0.8381
 2509SOL    HW118989   1.479   3.876   9.005 -0.4138  0.8238  2.0896
 2509SOL    HW218990   1.577   3.785   8.947  0.5349 -0.4321 -0.6273
 2510SOL     OW18991   0.584   3.644   0.397  0.1393 -0.6428 -0.1729
 2510SOL    HW118992   0.493   3.642   0.424 -0.2606  1.6665 -1.3717
 2510SOL    HW218993   0.587   3.649   0.302 -1.3166  1.1930 -0.1120
 2511SOL     OW18994   0.384   0.057   8.705 -0.4973 -1.0758  0.2087
 2511SOL    HW118995   0.369   4.704   8.761 -0.3625 -0.8696  0.5241
 2511SOL    HW218996   0.317   0.116   8.739  1.0871  1.0087 -0.2934
 2512SOL     OW18997   2.192   0.549   4.753 -0.5817  0.1243 -0.1181
 2512SOL    HW118998   2.157   0.581   4.670 -1.8651  0.2619  0.4639
 2512SOL    HW218999   2.258   0.487   4.724 -0.5057  0.9964 -1.7957
 2513SOL     OW19000   0.130   4.151  17.455 -0.3466 -0.0929  0.2289
 2513SOL    HW119001   0.122   4.207  17.378 -0.3536 -0.9293 -0.3727
 2513SOL    HW219002   0.043   4.117  17.473  0.5928 -1.5211  2.1277
 2514SOL     OW19003   4.214   0.796   4.495 -0.0892 -0.3539 -0.6316
 2514SOL    HW119004   4.254   0.876   4.529  0.6524 -1.3194  0.7640
 2514SOL    HW219005   4.129   0.798   4.539  0.8568 -1.0473  1.2165
 2515SOL     OW19006   1.198   1.437  15.648  0.2218 -0.4448 -0.1007
 2515SOL    HW119007   1.156   1.390  15.720 -0.1738 -4.2883 -2.8913
 2515SOL    HW219008   1.290   1.416  15.664 -0.2368 -1.5871  0.9863
 2516SOL     OW19009   1.966   2.877   6.716 -0.0473 -0.2870  0.3547
 2516SOL    HW119010   2.051   2.920   6.703 -0.1540 -0.3265 -0.4727
 2516SOL    HW219011   1.896   2.943   6.717  0.6507  0.4572 -1.4654
 2517SOL     OW19012   1.547   1.718   7.753 -0.3374  0.5492 -0.0761
 2517SOL    HW119013   1.630   1.698   7.710 -1.5012  0.7528 -2.4247
 2517SOL    HW219014   1.505   1.633   7.739  0.7900 -0.2677  1.4763
 2518SOL     OW19015   4.412   3.343   0.704 -0.6747  0.1215  0.2286
 2518SOL    HW119016   4.468   3.406   0.658 -0.2871  0.1409  0.7248
 2518SOL    HW219017   4.333   3.386   0.737 -0.8828  2.0346 -2.7762
 2519SOL     OW19018   2.504   0.508   5.430  0.4143  0.7595  0.1898
 2519SOL    HW119019   2.525   0.491   5.522 -0.7406  1.3378  0.5574
 2519SOL    HW219020   2.460   0.428   5.403 -0.8137  0.5067  2.9370
 2520SOL     OW19021   3.801   3.328   0.299  0.5336 -0.5638 -0.1156
 2520SOL    HW119022   3.711   3.295   0.297  0.8031 -1.3046  0.3287
 2520SOL    HW219023   3.792   3.406   0.244  1.5033 -0.4142 -0.0583
 2521SOL     OW19024   4.579   0.979   6.342  0.5082 -0.7656  0.1967
 2521SOL    HW119025   4.548   0.962   6.253 -0.9913  0.9850  0.3831
 2521SOL    HW219026   4.647   1.039   6.311 -2.5032  2.5932  0.1790
 2522SOL     OW19027   3.926   4.036  10.818 -0.2253  0.1418 -0.6682
 2522SOL    HW119028   3.946   3.960  10.872 -0.9030 -0.2342 -0.9430
 2522SOL    HW219029   3.991   4.104  10.837  0.4468 -0.9378  0.8662
 2523SOL     OW19030   2.221   1.021   2.863  0.3544 -0.5240 -0.2634
 2523SOL    HW119031   2.313   1.031   2.887 -0.0168  0.7140  0.6391
 2523SOL    HW219032   2.223   0.929   2.837 -0.4437 -0.6911  0.2500
 2524SOL     OW19033   3.195   3.452   6.474 -0.1135  0.1490 -0.6935
 2524SOL    HW119034   3.242   3.418   6.398 -1.4725 -1.1589 -0.9373
 2524SOL    HW219035   3.211   3.381   6.535  1.8486  1.0615 -0.1369
 2525SOL     OW19036   1.457   0.998   7.867 -0.4047  0.4238  0.1931
 2525SOL    HW119037   1.416   0.956   7.942  2.1682 -3.0210 -0.3616
 2525SOL    HW219038   1.409   1.081   7.872 -1.0463 -0.0421  1.7278
 2526SOL     OW19039   2.128   4.373  17.568 -0.0248  0.3596  0.4960
 2526SOL    HW119040   2.171   4.430  17.632  1.9920 -0.2891 -0.2660
 2526SOL    HW219041   2.184   4.296  17.581 -0.5281 -0.0626  0.1807
 2527SOL     OW19042   0.613   1.611   2.514  0.3274  0.3696 -0.2768
 2527SOL    HW119043   0.534   1.665   2.511  0.2569  0.2960  0.2345
 2527SOL    HW219044   0.603   1.559   2.593  0.9775  1.6732  0.6692
 2528SOL     OW19045   3.618   3.272   3.641  0.9429 -0.0525 -0.1593
 2528SOL    HW119046   3.532   3.229   3.640  1.4388 -1.1083  3.2283
 2528SOL    HW219047   3.628   3.277   3.736  0.2742 -0.2250 -0.0764
 2529SOL     OW19048   4.515   0.422  17.682  0.7041  0.5348  0.2983
 2529SOL    HW119049   4.490   0.513   0.003  1.6042  0.3475  2.7056
 2529SOL    HW219050   4.486   0.377   0.065  1.4242 -0.1565  0.1738
 2530SOL     OW19051   3.089   0.052   7.463 -0.5150 -0.8440  0.2466
 2530SOL    HW119052   3.027   0.048   7.535 -0.5345 -0.0684  0.2767
 2530SOL    HW219053   3.145   0.127   7.482  1.5421 -1.9073 -1.5546
 2531SOL     OW19054   0.329   3.481   2.293 -0.2533 -0.3880 -0.3029
 2531SOL    HW119055   0.292   3.416   2.234 -0.0117 -1.4857  0.7663
 2531SOL    HW219056   0.403   3.519   2.247 -1.2201  1.2929 -0.4716
 2532SOL     OW19057   0.202   2.593  11.426  0.2892  0.7160  0.7933
 2532SOL    HW119058   0.246   2.522  11.473  0.3153 -0.7922 -1.4941
 2532SOL    HW219059   0.273   2.615  11.366 -0.4670  0.6688 -0.1130
 2533SOL     OW19060   4.563   2.159   6.244 -0.7907  0.3328 -0.4642
 2533SOL    HW119061   4.495   2.208   6.290 -1.0877 -0.2850 -0.2457
 2533SOL    HW219062   4.549   2.180   6.152 -1.4148 -1.5618 -0.7917
 2534SOL     OW19063   3.657   2.653   2.709 -0.4782 -0.1395 -0.2564
 2534SOL    HW119064   3.634   2.671   2.800 -3.3240 -0.7588 -0.8523
 2534SOL    HW219065   3.582   2.606   2.672 -2.2252  2.5333 -0.0994
 2535SOL     OW19066   4.720   1.347  17.415  0.3136 -0.1658 -0.4234
 2535SOL    HW119067   0.063   1.280  17.428  0.2962 -0.0959  0.0262
 2535SOL    HW219068   0.048   1.425  17.435 -0.9238  0.2725  1.0526
 2536SOL     OW19069   0.322   1.131   3.319  0.2687  0.6883 -0.1616
 2536SOL    HW119070   0.407   1.174   3.330 -0.7689  2.4603  0.7834
 2536SOL    HW219071   0.275   1.208   3.290 -1.6870 -0.6863 -0.6200
 2537SOL     OW19072   3.205   2.426   0.804 -0.0187  0.1207 -0.0798
 2537SOL    HW119073   3.299   2.411   0.816 -0.0571  1.5748  2.0538
 2537SOL    HW219074   3.212   2.482   0.727 -0.0225  0.8716  0.4725
 2538SOL     OW19075   2.081   4.460   0.244 -0.0985 -0.0293 -0.4272
 2538SOL    HW119076   2.049   4.371   0.261  0.6822 -0.3534 -0.6204
 2538SOL    HW219077   2.017   4.504   0.300  0.1954 -0.6228  0.3700
 2539SOL     OW19078   1.896   1.748   3.139  0.3755  0.1965  0.4367
 2539SOL    HW119079   1.882   1.841   3.121 -2.5029 -0.6410 -1.5715
 2539SOL    HW219080   1.815   1.710   3.106  0.7963  0.3036 -0.7427
 2540SOL     OW19081   1.038   4.150   5.980  0.4880  0.1108  0.2260
 2540SOL    HW119082   1.034   4.158   6.076 -3.0511  0.5470  0.0545
 2540SOL    HW219083   0.944   4.136   5.968 -0.2058  1.5943  3.9803
 2541SOL     OW19084   3.396   1.589   2.987  0.4413  0.1010 -0.8618
 2541SOL    HW119085   3.405   1.494   2.981 -1.8508 -0.1902  0.5012
 2541SOL    HW219086   3.468   1.594   3.050  1.7925 -3.4858 -2.0748
 2542SOL     OW19087   3.426   0.156  17.397  0.0380  0.2458 -0.3544
 2542SOL    HW119088   3.487   0.083  17.389 -0.0728  0.2748 -1.4603
 2542SOL    HW219089   3.391   0.137  17.484 -2.4884  1.4570 -1.0811
 2543SOL     OW19090   4.696   3.058   5.472 -0.2598 -0.6763  0.0332
 2543SOL    HW119091   0.025   2.981   5.493  1.9505  1.0198  0.7097
 2543SOL    HW219092   4.680   3.090   5.560  0.1565 -0.9568  0.2115
 2544SOL     OW19093   3.352   2.619  11.788 -0.8659  0.2318 -0.1540
 2544SOL    HW119094   3.354   2.545  11.726 -0.3075 -0.9046  1.2203
 2544SOL    HW219095   3.444   2.636  11.807 -1.0584  0.8961  0.1854
 2545SOL     OW19096   3.928   1.945   0.669  0.1355  0.4388 -0.0293
 2545SOL    HW119097   4.005   1.941   0.726  1.2725 -0.3704 -1.6387
 2545SOL    HW219098   3.937   2.030   0.628 -1.0026 -0.3278 -1.8704
 2546SOL     OW19099   3.640   0.016   7.452 -0.2586  0.7092  0.5681
 2546SOL    HW119100   3.586   0.067   7.393  0.3558  2.0584  1.1801
 2546SOL    HW219101   3.672   0.082   7.514  0.7393 -0.2991  1.1377
 2547SOL     OW19102   1.873   3.272   9.349 -0.1993 -0.3881 -0.3321
 2547SOL    HW119103   1.807   3.210   9.318 -1.6960  1.2678 -0.5235
 2547SOL    HW219104   1.871   3.259   9.444  0.7473  0.6432 -0.1810
 2548SOL     OW19105   3.916   3.591   4.531  0.3628  0.2074  0.4477
 2548SOL    HW119106   3.932   3.649   4.456 -1.3412 -0.9261 -0.7822
 2548SOL    HW219107   3.845   3.539   4.494  1.5476 -2.4757  1.9441
 2549SOL     OW19108   3.847   2.423   7.139  0.2075 -0.1979  0.4455
 2549SOL    HW119109   3.837   2.398   7.231 -0.1323 -2.6961 -0.2607
 2549SOL    HW219110   3.942   2.422   7.130  0.2807 -1.6879  1.4287
 2550SOL     OW19111   1.881   2.156  15.567 -0.0733 -0.4843  0.3191
 2550SOL    HW119112   1.912   2.244  15.546 -0.2356 -1.2369 -3.0814
 2550SOL    HW219113   1.965   2.109  15.574  1.4964  2.4950  1.6998
 2551SOL     OW19114   2.177   1.551   8.219 -0.2814 -0.1091  0.0765
 2551SOL    HW119115   2.201   1.639   8.250  0.2045 -0.2939  0.2310
 2551SOL    HW219116   2.222   1.483   8.269  0.6645 -0.1069 -0.7750
 2552SOL     OW19117   1.437   0.963  16.086 -0.1952 -0.1247  0.2265
 2552SOL    HW119118   1.468   0.883  16.044  1.9634  0.3976  0.8584
 2552SOL    HW219119   1.342   0.948  16.082 -0.4338  1.2328  0.5425
 2553SOL     OW19120   3.117   3.667   5.791 -0.1167  0.6249 -0.3463
 2553SOL    HW119121   3.152   3.611   5.722 -1.4637  0.1755 -0.6718
 2553SOL    HW219122   3.040   3.613   5.812  0.1506  1.3225  2.4132
 2554SOL     OW19123   2.992   0.013   9.377 -0.2254  0.5026  0.5313
 2554SOL    HW119124   3.083   4.723   9.404 -0.5100 -0.0340  1.2007
 2554SOL    HW219125   2.950   4.665   9.424 -0.8269 -0.2205 -1.1039
 2555SOL     OW19126   1.776   2.764   6.056  0.4676  0.1142 -0.0484
 2555SOL    HW119127   1.703   2.714   6.018 -1.2815  0.8727  2.2796
 2555SOL    HW219128   1.840   2.770   5.985  0.3690  1.9075  0.0267
 2556SOL     OW19129   1.339   4.223  13.815  0.4828  0.3212  0.1983
 2556SOL    HW119130   1.401   4.237  13.743  1.2005  0.2905  0.8052
 2556SOL    HW219131   1.257   4.239  13.769 -0.0032 -0.5998  0.7407
 2557SOL     OW19132   0.901   0.732   4.023  0.5109  0.4659 -0.3332
 2557SOL    HW119133   0.842   0.678   4.075  0.4417  0.0809 -0.8093
 2557SOL    HW219134   0.955   0.763   4.096 -0.4379 -1.1968  1.0832
 2558SOL     OW19135   3.907   3.009  10.574 -0.9648 -0.0174 -0.5495
 2558SOL    HW119136   3.856   3.089  10.561 -1.3630 -0.5962 -2.4284
 2558SOL    HW219137   3.938   3.023  10.664  0.9874 -2.7611 -0.7925
 2559SOL     OW19138   4.520   1.607   2.570  0.1594  0.3690  0.1345
 2559SOL    HW119139   4.602   1.612   2.618  0.8410 -0.1969 -0.9719
 2559SOL    HW219140   4.499   1.514   2.573  0.4779  0.2885 -0.1579
 2560SOL     OW19141   4.584   2.880   1.490  0.5591  0.3088 -0.3507
 2560SOL    HW119142   4.499   2.922   1.500  0.9802  0.5633  2.1206
 2560SOL    HW219143   4.610   2.881   1.582  1.1610  3.9459 -0.5533
 2561SOL     OW19144   2.163   0.196  15.644  0.3450 -0.5898  0.2550
 2561SOL    HW119145   2.090   0.249  15.676  0.2105 -1.1763  0.9304
 2561SOL    HW219146   2.242   0.240  15.677  0.9085 -0.6287 -1.0374
 2562SOL     OW19147   0.443   4.217   5.075  0.5828 -0.0526 -0.6006
 2562SOL    HW119148   0.350   4.211   5.055  0.3891  1.8665 -0.2487
 2562SOL    HW219149   0.452   4.300   5.027 -1.3513 -0.9457 -2.5120
 2563SOL     OW19150   2.989   2.451   2.408  0.4944  0.3955 -0.0914
 2563SOL    HW119151   2.990   2.508   2.331  0.9302  2.8849  1.7983
 2563SOL    HW219152   2.917   2.397   2.375 -1.2664  2.5316  0.3205
 2564SOL     OW19153   3.685   4.669   8.877 -0.2037  0.4047 -0.0235
 2564SOL    HW119154   3.595   4.675   8.846  0.6094  0.1753 -2.4370
 2564SOL    HW219155   3.673   4.598   8.940  0.6952  0.3610  0.0969
 2565SOL     OW19156   2.247   2.385   2.567 -0.6114  0.2417  0.3564
 2565SOL    HW119157   2.272   2.407   2.478  0.8159 -2.0938  0.1872
 2565SOL    HW219158   2.266   2.466   2.615 -1.6240  0.7878 -0.1799
 2566SOL     OW19159   4.632   0.786   4.330  0.0538 -0.1950 -0.4074
 2566SOL    HW119160   4.613   0.718   4.266  1.0473 -0.3885 -0.5053
 2566SOL    HW219161   4.718   0.821   4.305  0.0172  1.7097  2.0777
 2567SOL     OW19162   1.884   0.082   7.550  0.2468  0.0783  0.2903
 2567SOL    HW119163   1.807   0.059   7.602  0.1029  3.9555  1.8370
 2567SOL    HW219164   1.925   4.720   7.536  0.8630  0.2252  1.1766
 2568SOL     OW19165   4.519   1.311   2.564  0.3403  0.3378  0.4010
 2568SOL    HW119166   4.505   1.286   2.473 -0.8738  0.6312  0.5099
 2568SOL    HW219167   4.432   1.294   2.600  0.2577 -0.7216 -0.2826
 2569SOL     OW19168   3.760   4.145  10.637 -0.3028  0.6760  0.0520
 2569SOL    HW119169   3.810   4.104  10.708 -2.2661  0.3811  1.2554
 2569SOL    HW219170   3.735   4.230  10.671 -1.1425  1.3617 -2.2954
 2570SOL     OW19171   0.615   3.638   5.329 -0.1612 -0.9317  0.3493
 2570SOL    HW119172   0.535   3.586   5.339  0.2089 -1.8298 -1.4750
 2570SOL    HW219173   0.586   3.690   5.254 -0.1014 -0.4100  0.6842
 2571SOL     OW19174   0.979   4.520   3.662 -0.0622  0.4642  0.0689
 2571SOL    HW119175   1.013   4.586   3.723 -0.5169 -0.6009  1.4664
 2571SOL    HW219176   1.028   4.532   3.580  2.7066  0.2132  1.6765
 2572SOL     OW19177   2.722   3.627  15.241 -0.3421  0.4385  0.4113
 2572SOL    HW119178   2.775   3.628  15.161  0.8930 -0.6414  1.2126
 2572SOL    HW219179   2.640   3.674  15.229 -1.0346 -1.1359 -1.0375
 2573SOL     OW19180   1.685   4.383  14.671 -0.1790 -0.3310 -0.1049
 2573SOL    HW119181   1.678   4.339  14.755  0.1971 -0.4870 -0.1588
 2573SOL    HW219182   1.629   4.316  14.632  0.2790 -0.8869  0.2106
 2574SOL     OW19183   3.739   4.573   9.189 -0.2264  0.2817 -0.2915
 2574SOL    HW119184   3.832   4.593   9.179  0.4598 -3.4770 -1.5475
 2574SOL    HW219185   3.741   4.493   9.242 -2.2642  0.5093  0.1371
 2575SOL     OW19186   4.624   0.785  17.579 -0.6532 -0.4238  0.0637
 2575SOL    HW119187   4.603   0.873  17.609  0.5820 -0.2231  0.3318
 2575SOL    HW219188   4.542   0.741  17.600  1.3197 -2.5675  3.2293
 2576SOL     OW19189   4.394   0.740  13.405  0.0958  0.5794 -0.1105
 2576SOL    HW119190   4.325   0.743  13.471  1.7745 -1.1887  1.7147
 2576SOL    HW219191   4.349   0.726  13.322 -0.0472  4.3962 -0.6653
 2577SOL     OW19192   1.449   3.447  17.525  0.4167  0.5481  0.2469
 2577SOL    HW119193   1.543   3.444  17.545  0.1915  0.0166  1.2211
 2577SOL    HW219194   1.412   3.479  17.608 -0.3099  0.5279 -0.0720
 2578SOL     OW19195   0.287   3.932   3.197  0.8892  0.8160  0.2565
 2578SOL    HW119196   0.312   3.841   3.212 -1.8477  0.2126  1.2090
 2578SOL    HW219197   0.244   3.927   3.111  1.0378 -0.9410  0.2929
 2579SOL     OW19198   3.896   3.924  10.491  0.1786  0.2242 -0.6444
 2579SOL    HW119199   3.985   3.956  10.471 -0.2597 -0.3724 -3.4391
 2579SOL    HW219200   3.869   3.993  10.553 -1.4172 -0.4161 -0.6350
 2580SOL     OW19201   3.644   0.825   4.264 -0.2184  0.8771 -0.7899
 2580SOL    HW119202   3.700   0.876   4.323  1.0835 -0.7928 -0.5813
 2580SOL    HW219203   3.710   0.769   4.223  0.3123  0.7768  0.2002
 2581SOL     OW19204   0.389   1.976   3.966  0.2445 -0.2522 -0.3390
 2581SOL    HW119205   0.366   2.054   3.917  2.7566  0.4401 -0.4143
 2581SOL    HW219206   0.306   1.970   4.014 -0.1160 -1.5772 -1.1136
 2582SOL     OW19207   4.152   4.500  14.066 -0.3326  0.5413  0.4655
 2582SOL    HW119208   4.167   4.479  14.158 -2.9474  0.1455  0.8105
 2582SOL    HW219209   4.208   4.433  14.026 -0.2829  0.6184  0.4050
 2583SOL     OW19210   3.988   3.866   4.740  0.2268 -0.1380  0.8850
 2583SOL    HW119211   4.040   3.928   4.689 -0.0018 -0.0390  0.7754
 2583SOL    HW219212   3.919   3.919   4.779  0.9425  0.0992  1.8279
 2584SOL     OW19213   1.070   1.850   4.315 -0.3937 -0.2660  0.4849
 2584SOL    HW119214   0.986   1.891   4.330 -0.9274 -1.7422  1.5252
 2584SOL    HW219215   1.043   1.802   4.236  1.0914 -0.8405  0.3132
 2585SOL     OW19216   1.830   1.521   6.290 -0.0933 -0.3335  0.2574
 2585SOL    HW119217   1.851   1.534   6.383  0.8818 -0.1162  0.0049
 2585SOL    HW219218   1.881   1.442   6.275  0.3168  0.3333 -1.7721
 2586SOL     OW19219   2.980   0.355   0.859 -0.1811  0.2534  0.2018
 2586SOL    HW119220   2.970   0.263   0.886 -0.1427  0.0958 -0.3193
 2586SOL    HW219221   2.994   0.384   0.949  1.9008  0.5045 -0.2118
 2587SOL     OW19222   1.612   1.878  15.606  0.0172  0.1882  0.0902
 2587SOL    HW119223   1.664   1.804  15.574 -1.6332 -0.7570 -0.4011
 2587SOL    HW219224   1.683   1.903  15.665  1.2079 -0.5144 -1.0390
 2588SOL     OW19225   2.742   4.178   5.701 -0.4121  0.5041  0.2685
 2588SOL    HW119226   2.703   4.262   5.726 -0.8168  1.0769 -2.1963
 2588SOL    HW219227   2.671   4.116   5.686  0.0593 -0.2041  0.9728
 2589SOL     OW19228   4.429   4.600   3.365 -0.0947 -0.3801  0.1594
 2589SOL    HW119229   4.486   4.545   3.313  0.8814  1.9083 -1.1942
 2589SOL    HW219230   4.378   4.644   3.297  0.4122 -0.9719 -0.5904
 2590SOL     OW19231   3.169   1.660  13.829  0.4950 -0.1493 -0.0480
 2590SOL    HW119232   3.076   1.653  13.854  0.5870 -0.4553  0.2123
 2590SOL    HW219233   3.167   1.641  13.736 -2.3572  2.0615 -0.4530
 2591SOL     OW19234   3.430   2.894   1.894  0.8374 -0.1337 -0.1255
 2591SOL    HW119235   3.335   2.882   1.905  0.7548  0.5225 -0.1324
 2591SOL    HW219236   3.440   2.977   1.940  0.9075 -0.3855  0.3071
 2592SOL     OW19237   0.264   0.960   5.939 -0.7843 -0.5578 -0.7612
 2592SOL    HW119238   0.191   0.951   5.876  0.4501 -1.0632 -2.1173
 2592SOL    HW219239   0.260   1.056   5.942  1.5664 -0.5292  1.1421
 2593SOL     OW19240   1.930   1.913   8.364 -0.6236 -0.3788 -0.1634
 2593SOL    HW119241   1.996   1.976   8.337 -2.1733  0.5479 -1.8126
 2593SOL    HW219242   1.966   1.868   8.441 -0.0617  0.9358  0.3462
 2594SOL     OW19243   3.544   2.663  17.335  0.3581 -0.3358  0.1732
 2594SOL    HW119244   3.491   2.664  17.256 -0.2247 -1.3253  0.5554
 2594SOL    HW219245   3.568   2.570  17.327 -0.3655 -0.6838  2.2129
 2595SOL     OW19246   3.491   3.386   7.111 -0.0751 -0.4095  0.3076
 2595SOL    HW119247   3.425   3.453   7.129 -1.3668 -1.2521 -1.2244
 2595SOL    HW219248   3.518   3.359   7.199  1.3323 -0.1756 -0.0518
 2596SOL     OW19249   1.897   4.455   6.458  0.1173 -0.2350  0.6615
 2596SOL    HW119250   1.832   4.509   6.414  1.1681 -1.7168 -2.6629
 2596SOL    HW219251   1.838   4.422   6.526 -2.1747  0.7423 -0.8844
 2597SOL     OW19252   1.944   3.365   4.169 -0.3112 -0.3624 -0.8395
 2597SOL    HW119253   1.909   3.284   4.206  2.1991  0.1414  2.6744
 2597SOL    HW219254   1.885   3.431   4.204  2.0889  0.0805  2.3686
 2598SOL     OW19255   3.261   3.590   6.769  0.2017  1.0390  0.0301
 2598SOL    HW119256   3.252   3.642   6.849 -0.2058  0.4718  0.3559
 2598SOL    HW219257   3.347   3.550   6.777 -0.6942 -0.7642  0.5594
 2599SOL     OW19258   3.297   4.722   3.406  0.1337 -0.3442  0.1574
 2599SOL    HW119259   3.392   4.714   3.404  0.3352  2.7224 -1.1237
 2599SOL    HW219260   3.281   4.665   3.482  0.0195  0.1518  0.5045
 2600SOL     OW19261   3.039   4.030   8.075 -0.5320  0.1713 -0.1208
 2600SOL    HW119262   3.078   3.987   8.000 -2.5532  1.2884 -1.8067
 2600SOL    HW219263   2.960   4.069   8.038 -1.1688 -1.9858 -1.0350
 2601SOL     OW19264   4.329   0.410  16.411  0.0187 -0.2399  0.0469
 2601SOL    HW119265   4.304   0.476  16.346  0.9585  1.4993  1.4532
 2601SOL    HW219266   4.278   0.435  16.488 -0.8674  0.8215 -0.8960
 2602SOL     OW19267   2.972   2.181   7.568  0.2227  0.4816 -0.1634
 2602SOL    HW119268   2.886   2.162   7.607  0.3142  0.3171 -0.0450
 2602SOL    HW219269   3.035   2.113   7.591 -0.7696 -0.3272  0.1443
 2603SOL     OW19270   3.854   0.312   7.308 -0.1177  0.0391  0.1200
 2603SOL    HW119271   3.921   0.297   7.242 -1.3552 -2.1903 -0.6260
 2603SOL    HW219272   3.782   0.280   7.254 -0.8699  2.0073 -0.0280
 2604SOL     OW19273   3.488   3.074   1.110  0.2918 -0.6327  0.4954
 2604SOL    HW119274   3.545   3.135   1.156 -1.8798  1.1423  0.8208
 2604SOL    HW219275   3.402   3.115   1.116  0.2309 -0.9014  1.5959
 2605SOL     OW19276   3.464   0.017   6.367 -0.9277  0.0915  0.4670
 2605SOL    HW119277   3.441   4.654   6.332  0.9646 -0.3281  0.2576
 2605SOL    HW219278   3.531   0.045   6.305 -1.1538  0.3994  0.3639
 2606SOL     OW19279   1.592   2.163   6.006 -0.2534  0.2555  0.1704
 2606SOL    HW119280   1.547   2.108   5.941  0.2225 -0.3211  0.3278
 2606SOL    HW219281   1.644   2.223   5.952  1.3853  1.0870  2.6848
 2607SOL     OW19282   2.991   0.859   4.892 -0.2823  0.2752  0.1270
 2607SOL    HW119283   2.910   0.883   4.936 -0.7660  2.3186 -1.8691
 2607SOL    HW219284   3.027   0.938   4.851  0.3537  1.6660  3.3459
 2608SOL     OW19285   1.350   0.789   4.867 -0.1449 -0.0094  0.3425
 2608SOL    HW119286   1.372   0.712   4.918  0.7529 -2.3088 -3.4858
 2608SOL    HW219287   1.407   0.857   4.903  1.8412 -1.4625 -0.0753
 2609SOL     OW19288   2.562   2.762  13.570  0.3989  0.7623 -0.2105
 2609SOL    HW119289   2.492   2.697  13.565  1.5303 -0.3314 -1.5808
 2609SOL    HW219290   2.512   2.835  13.534  1.7587  1.8159  0.0285
 2610SOL     OW19291   1.140   2.191   5.826 -0.0856  0.0210  0.1449
 2610SOL    HW119292   1.109   2.223   5.741  2.0820  1.1582 -0.2244
 2610SOL    HW219293   1.235   2.195   5.813 -0.1567  0.0967 -0.3629
 2611SOL     OW19294   1.649   0.537  12.740 -0.0899  0.2693  0.1686
 2611SOL    HW119295   1.605   0.471  12.793 -0.6856 -1.1472 -2.0898
 2611SOL    HW219296   1.617   0.625  12.761  0.4376  0.0390  1.9187
 2612SOL     OW19297   3.828   4.380   1.525 -0.3130 -0.4137 -0.0675
 2612SOL    HW119298   3.862   4.293   1.508 -1.9731 -1.3024  1.1234
 2612SOL    HW219299   3.784   4.408   1.445 -0.2093 -1.2322 -0.4016
 2613SOL     OW19300   3.740   3.284   8.346  0.2650  0.3141  0.3195
 2613SOL    HW119301   3.809   3.249   8.290 -0.6038  1.3452 -1.3733
 2613SOL    HW219302   3.740   3.379   8.339  0.8783  0.1274 -2.1884
 2614SOL     OW19303   3.642   1.156   2.904 -0.0895  0.2275 -0.6329
 2614SOL    HW119304   3.647   1.088   2.970 -0.0052 -0.8093 -1.7018
 2614SOL    HW219305   3.707   1.217   2.939 -0.9241  0.2459  0.8475
 2615SOL     OW19306   0.198   1.245   5.538 -0.1175 -0.1220  0.2557
 2615SOL    HW119307   0.105   1.269   5.539  0.2388  1.2142  0.9234
 2615SOL    HW219308   0.236   1.321   5.581  0.7375  0.3409 -1.3159
 2616SOL     OW19309   3.095   1.202   2.176  0.4728  0.0945  0.0743
 2616SOL    HW119310   3.014   1.253   2.178 -0.5942 -1.5818  0.2736
 2616SOL    HW219311   3.162   1.268   2.191 -1.0232  1.4111  1.0007
 2617SOL     OW19312   2.286   3.041   6.094  0.2564  0.2446  0.2945
 2617SOL    HW119313   2.372   3.034   6.136  0.4920  2.7838  0.2487
 2617SOL    HW219314   2.258   3.124   6.133  0.3135  0.9964 -1.2717
 2618SOL     OW19315   0.496   4.677  12.641  0.0824  0.1426  0.1778
 2618SOL    HW119316   0.417   4.718  12.605  0.5866  0.3422 -0.7123
 2618SOL    HW219317   0.465   4.639  12.723 -0.4881 -0.8736 -0.5075
 2619SOL     OW19318   4.416   3.636   3.867  0.6138 -0.2069 -0.1463
 2619SOL    HW119319   4.332   3.615   3.907  0.6401  0.3884  0.2194
 2619SOL    HW219320   4.488   3.601   3.919  0.1835  0.8077  1.1394
 2620SOL     OW19321   1.119   0.136   6.156  0.2516 -0.7090  0.0895
 2620SOL    HW119322   1.152   0.065   6.212  1.7919  0.3158  0.4896
 2620SOL    HW219323   1.113   0.218   6.206 -0.9745 -1.3226  0.9278
 2621SOL     OW19324   0.723   3.589   8.184  0.5219  0.7548  0.2817
 2621SOL    HW119325   0.744   3.682   8.194 -1.4676  0.9742  2.3044
 2621SOL    HW219326   0.670   3.603   8.105 -0.6537  0.3327  0.9846
 2622SOL     OW19327   2.813   0.116   6.521 -0.3816 -0.5112  0.0500
 2622SOL    HW119328   2.907   0.103   6.519 -0.6075 -2.2540  1.3712
 2622SOL    HW219329   2.794   0.186   6.457 -0.1528 -0.4035  0.1004
 2623SOL     OW19330   1.197   1.475  10.822 -0.5775 -0.3407  0.2941
 2623SOL    HW119331   1.148   1.490  10.741 -1.3607  1.6071  1.1352
 2623SOL    HW219332   1.209   1.569  10.836 -0.3772 -0.4376  0.7744
 2624SOL     OW19333   2.310   2.234   7.970 -0.2693 -0.1339 -0.3438
 2624SOL    HW119334   2.245   2.192   7.914 -0.9270 -1.1979  1.2057
 2624SOL    HW219335   2.389   2.217   7.919 -0.2013 -1.8549  0.3206
 2625SOL     OW19336   0.501   0.446   0.869  0.3263 -0.3159 -0.0561
 2625SOL    HW119337   0.514   0.353   0.856 -0.7359 -0.2911 -1.2811
 2625SOL    HW219338   0.565   0.461   0.938 -0.4024 -4.2041  1.4585
 2626SOL     OW19339   1.192   3.772   5.596 -0.0454  0.7098 -0.4104
 2626SOL    HW119340   1.190   3.713   5.521  1.1961  0.4643 -0.2651
 2626SOL    HW219341   1.210   3.856   5.555 -1.3294  0.8574 -0.6556
 2627SOL     OW19342   1.741   1.745  14.483 -0.2135  0.0800 -0.2731
 2627SOL    HW119343   1.656   1.701  14.494  0.4877 -0.6704  2.0696
 2627SOL    HW219344   1.759   1.721  14.392  1.4740  1.0581 -0.2047
 2628SOL     OW19345   0.324   1.536   8.305 -0.0270 -0.1322  0.2334
 2628SOL    HW119346   0.360   1.447   8.308  1.2971  0.4764  2.2211
 2628SOL    HW219347   0.230   1.524   8.316  0.1157  0.6268  2.2675
 2629SOL     OW19348   0.035   3.715  12.853 -0.4137 -0.0767  0.3930
 2629SOL    HW119349   4.713   3.776  12.795 -1.4104 -1.1691  0.0304
 2629SOL    HW219350   4.722   3.630  12.827 -1.2143  0.6333 -0.8205
 2630SOL     OW19351   1.093   4.682   4.917 -0.2570 -0.7048  0.2874
 2630SOL    HW119352   1.039   4.718   4.847  0.2232 -1.0603 -0.2608
 2630SOL    HW219353   1.044   4.703   4.996  0.0004 -1.5981  0.6841
 2631SOL     OW19354   0.719   1.656  12.504  0.4893  0.0264 -0.5028
 2631SOL    HW119355   0.644   1.690  12.553  0.5785  0.0765 -0.4015
 2631SOL    HW219356   0.794   1.669  12.562 -0.7886  0.0487  1.1340
 2632SOL     OW19357   2.664   3.897  10.504 -0.0215 -0.2533 -0.4159
 2632SOL    HW119358   2.690   3.826  10.563  0.6591 -1.3456 -2.0249
 2632SOL    HW219359   2.706   3.974  10.543  0.1186 -0.5719  0.0587
 2633SOL     OW19360   1.183   2.730  12.940  0.3475 -0.4417  0.0414
 2633SOL    HW119361   1.215   2.820  12.935 -1.0888  0.0229 -0.8618
 2633SOL    HW219362   1.140   2.715  12.856 -1.7592  2.3306  0.6046
 2634SOL     OW19363   2.708   1.663   3.144 -0.4255  0.2025 -1.0454
 2634SOL    HW119364   2.735   1.744   3.101 -0.6445  1.5156  1.2752
 2634SOL    HW219365   2.794   1.646   3.181 -1.5134 -2.1672  0.4541
 2635SOL     OW19366   1.714   3.462  11.990 -0.0279  0.4790 -0.1771
 2635SOL    HW119367   1.778   3.391  11.986 -0.0238  0.5786 -1.6376
 2635SOL    HW219368   1.741   3.500  12.074 -0.6422  0.6028 -0.0370
 2636SOL     OW19369   3.195   3.653   7.018  0.3608  0.5663  0.3796
 2636SOL    HW119370   3.132   3.624   7.084 -0.4851  0.0780 -0.6584
 2636SOL    HW219371   3.272   3.664   7.075  1.3604  0.2960 -0.9284
 2637SOL     OW19372   4.461   1.854   2.427  0.1669  0.5316  0.5597
 2637SOL    HW119373   4.468   1.767   2.465 -1.0970  0.8666  1.5892
 2637SOL    HW219374   4.366   1.853   2.436  0.1432 -0.7435  0.1421
 2638SOL     OW19375   2.018   4.353   3.906  0.5884 -0.3368 -0.1781
 2638SOL    HW119376   2.092   4.352   3.967  2.2498  0.0049 -2.1790
 2638SOL    HW219377   1.951   4.358   3.975 -0.3890 -2.1976 -1.0062
 2639SOL     OW19378   4.174   0.805   6.883  0.2607  0.1762 -0.3196
 2639SOL    HW119379   4.209   0.756   6.958  1.3048 -0.1395 -1.0249
 2639SOL    HW219380   4.094   0.846   6.916  0.9297  1.5290 -0.4170
 2640SOL     OW19381   0.090   0.638  16.310  0.7027 -0.2642 -0.2187
 2640SOL    HW119382   0.014   0.673  16.357  0.2810 -0.2811 -0.8853
 2640SOL    HW219383   0.122   0.579  16.378 -1.5220 -0.7777  0.3940
 2641SOL     OW19384   1.197   2.661  15.681 -0.4355 -0.2714  0.1559
 2641SOL    HW119385   1.115   2.624  15.650 -1.2763  1.8004 -0.1135
 2641SOL    HW219386   1.197   2.746  15.637  0.7944 -0.7929 -0.8683
 2642SOL     OW19387   1.911   1.077   5.990 -0.0869 -0.2246 -0.0703
 2642SOL    HW119388   1.911   1.151   5.929  0.7809 -0.1507  0.0280
 2642SOL    HW219389   1.828   1.097   6.033  0.6593 -2.2079  2.3016
 2643SOL     OW19390   4.335   4.436   7.660 -1.1154 -0.0997 -0.2827
 2643SOL    HW119391   4.361   4.500   7.594  0.0033  0.1184  0.3796
 2643SOL    HW219392   4.337   4.360   7.602  1.2660  0.6142 -1.1006
 2644SOL     OW19393   4.216   1.295  13.590 -0.0131 -0.1573 -0.4992
 2644SOL    HW119394   4.125   1.269  13.608  0.1169  0.3393  0.8154
 2644SOL    HW219395   4.240   1.346  13.667 -0.4819  1.8727 -1.7078
 2645SOL     OW19396   3.753   2.899   5.075  0.7956  0.3520  0.3694
 2645SOL    HW119397   3.763   2.840   5.150  1.4557  0.7775  0.6155
 2645SOL    HW219398   3.841   2.936   5.076 -0.2221  2.8709 -4.3060
 2646SOL     OW19399   2.312   1.820   2.265  0.2842  0.0518 -0.0948
 2646SOL    HW119400   2.321   1.728   2.240 -2.3335 -0.5042  1.0278
 2646SOL    HW219401   2.390   1.829   2.321  0.5305  0.8897 -0.5665
 2647SOL     OW19402   1.830   0.652   5.012 -0.2832  0.0324  0.4138
 2647SOL    HW119403   1.896   0.583   5.014  0.1318  0.3774 -1.2945
 2647SOL    HW219404   1.763   0.623   4.950 -0.8075  1.6055  0.2225
 2648SOL     OW19405   0.294   1.340   2.518  0.4646  0.4766 -0.2124
 2648SOL    HW119406   0.363   1.274   2.507 -0.7526 -0.4760 -2.0141
 2648SOL    HW219407   0.293   1.384   2.433  0.4908  0.5661 -0.1662
 2649SOL     OW19408   0.233   2.274  16.112 -0.1638  0.5202 -0.5222
 2649SOL    HW119409   0.210   2.230  16.194 -2.9796 -0.0630 -1.6215
 2649SOL    HW219410   0.318   2.310  16.138 -0.2719  0.5454 -0.2025
 2650SOL     OW19411   1.278   4.130   2.179 -0.0348 -0.1010  0.4479
 2650SOL    HW119412   1.364   4.092   2.198 -0.3368 -0.5930  0.8433
 2650SOL    HW219413   1.275   4.180   2.260 -1.5137 -3.5863  2.5698
 2651SOL     OW19414   0.873   3.767   0.493  0.5330  0.4488 -0.1313
 2651SOL    HW119415   0.950   3.726   0.454  1.1546  1.3328  0.1558
 2651SOL    HW219416   0.905   3.798   0.578 -1.4167 -0.3724  0.9002
 2652SOL     OW19417   4.565   0.910   4.577  0.1081 -0.5309  0.1665
 2652SOL    HW119418   4.593   0.888   4.488 -1.4937  0.2657 -0.5249
 2652SOL    HW219419   4.556   1.005   4.571 -0.5111 -0.5221  1.3202
 2653SOL     OW19420   0.719   3.273  14.544 -0.6951 -0.0577 -0.0484
 2653SOL    HW119421   0.797   3.318  14.575  0.7430 -0.5792 -2.8880
 2653SOL    HW219422   0.761   3.247  14.462  0.1906 -1.5192  0.8411
 2654SOL     OW19423   1.787   3.576   3.721  0.6131  0.9088  0.1022
 2654SOL    HW119424   1.846   3.568   3.646 -1.7057  0.1088 -1.6203
 2654SOL    HW219425   1.804   3.499   3.775 -2.5033 -1.2178 -1.9946
 2655SOL     OW19426   0.402   4.475   6.979 -0.0248 -0.2118  0.5393
 2655SOL    HW119427   0.375   4.557   6.937 -1.3261 -2.0976 -2.3511
 2655SOL    HW219428   0.486   4.491   7.021 -0.1474  0.6881  0.4539
 2656SOL     OW19429   0.816   2.748   1.963  0.4467  0.0203 -0.4629
 2656SOL    HW119430   0.772   2.803   2.027  1.0601  0.6424 -0.5750
 2656SOL    HW219431   0.814   2.661   2.003 -3.3123  0.6266  0.5937
 2657SOL     OW19432   0.240   4.310   5.414 -0.2486 -0.2244 -0.1244
 2657SOL    HW119433   0.205   4.236   5.364 -0.8407  0.0292 -0.0858
 2657SOL    HW219434   0.276   4.254   5.483  0.5490  0.4747  0.0329
 2658SOL     OW19435   4.092   0.956   3.413  0.0256  0.6181 -0.1205
 2658SOL    HW119436   4.136   1.025   3.364  0.8647  1.9596  2.4987
 2658SOL    HW219437   4.033   0.935   3.341 -3.7318  2.7599  2.3453
 2659SOL     OW19438   2.549   1.126   5.206 -0.0979  0.7147 -0.9178
 2659SOL    HW119439   2.454   1.112   5.215  0.1596 -1.5515 -1.5929
 2659SOL    HW219440   2.585   1.041   5.233 -2.0327  0.1325 -0.1624
 2660SOL     OW19441   1.240   3.001   4.669 -0.4745  0.6726 -0.7347
 2660SOL    HW119442   1.264   3.025   4.579  3.6252  1.3239  0.5463
 2660SOL    HW219443   1.228   2.906   4.659  2.4135  0.2491 -0.0485
 2661SOL     OW19444   1.823   4.699  12.794 -0.1872  0.4034 -0.3156
 2661SOL    HW119445   1.849   4.607  12.795  0.1694  0.5186  1.2133
 2661SOL    HW219446   1.730   4.707  12.814 -0.2172 -0.2862 -0.1837
 2662SOL     OW19447   1.366   0.417   6.329 -0.5269  0.1767 -0.4099
 2662SOL    HW119448   1.390   0.432   6.238  1.3176 -0.3659 -0.0148
 2662SOL    HW219449   1.272   0.399   6.317 -0.1137 -1.6256 -0.9382
 2663SOL     OW19450   2.579   3.674  16.866 -0.0981 -0.6569 -0.0217
 2663SOL    HW119451   2.656   3.728  16.847 -1.3712  1.3756  0.6077
 2663SOL    HW219452   2.621   3.588  16.867  0.8015 -0.2040  1.5703
 2664SOL     OW19453   4.674   3.303   3.245  0.4385 -0.0711  0.5983
 2664SOL    HW119454   4.596   3.337   3.200  0.2808 -0.3654  0.6436
 2664SOL    HW219455   4.620   3.267   3.317 -0.3231  0.5859  0.3556
 2665SOL     OW19456   2.396   1.346   5.664  0.8998 -0.9855  0.0313
 2665SOL    HW119457   2.371   1.255   5.646 -1.3930 -0.0438 -1.4169
 2665SOL    HW219458   2.357   1.349   5.752  0.9792 -0.4730  0.0495
 2666SOL     OW19459   2.031   4.252   1.163  0.7243  0.0494 -0.2232
 2666SOL    HW119460   2.098   4.192   1.131  0.2480 -0.2100 -0.7460
 2666SOL    HW219461   1.955   4.192   1.164 -1.0897  2.2994 -2.2096
 2667SOL     OW19462   4.479   2.517   8.255  0.0626 -0.5552  0.0119
 2667SOL    HW119463   4.500   2.610   8.256  0.4262 -0.6244 -2.2750
 2667SOL    HW219464   4.464   2.492   8.164  1.2657  0.9640 -0.6007
 2668SOL     OW19465   3.321   0.728   9.204 -0.0676 -0.2015 -0.8519
 2668SOL    HW119466   3.321   0.639   9.239  0.7540 -0.0137 -0.3770
 2668SOL    HW219467   3.415   0.741   9.217 -0.4174  0.6319  0.8374
 2669SOL     OW19468   2.410   4.324   9.632  0.4277 -0.2522  0.1435
 2669SOL    HW119469   2.412   4.284   9.545 -1.3876  2.4431 -1.1489
 2669SOL    HW219470   2.485   4.383   9.629  2.2238 -2.6915 -2.3221
 2670SOL     OW19471   4.220   4.722   8.681  0.3353  1.0004 -0.3107
 2670SOL    HW119472   4.209   0.025   8.590  0.8959  3.7321  0.4087
 2670SOL    HW219473   4.215   0.082   8.728 -1.4116  0.3063  0.7322
 2671SOL     OW19474   2.721   3.479   3.382  0.2722 -0.0090 -0.2943
 2671SOL    HW119475   2.786   3.548   3.398  1.4955 -0.7700 -2.0053
 2671SOL    HW219476   2.650   3.529   3.343 -0.5274 -1.9468 -1.2864
 2672SOL     OW19477   1.304   2.017   7.080  0.1817 -0.1658  0.0002
 2672SOL    HW119478   1.209   2.009   7.071  0.0043  0.5951  1.1550
 2672SOL    HW219479   1.320   2.011   7.174 -0.2096 -0.1022  0.0728
 2673SOL     OW19480   4.293   2.522   5.656 -0.8290 -0.3333 -0.4171
 2673SOL    HW119481   4.214   2.574   5.673 -0.2424  0.5129 -0.2646
 2673SOL    HW219482   4.312   2.490   5.745 -0.4582 -0.0994 -0.4121
 2674SOL     OW19483   4.243   3.831   3.492 -0.0718  0.1991  0.0917
 2674SOL    HW119484   4.289   3.873   3.420  1.2886  2.6666  2.3816
 2674SOL    HW219485   4.314   3.794   3.546 -0.0907  1.9326  1.3026
 2675SOL     OW19486   1.051   0.543   8.521  0.1699  0.3813  0.8041
 2675SOL    HW119487   1.035   0.499   8.437 -0.9162 -0.0281  1.2185
 2675SOL    HW219488   0.966   0.522   8.560  1.2672 -2.1099  1.8730
 2676SOL     OW19489   4.064   0.040  11.696  0.3700  0.1801  0.4603
 2676SOL    HW119490   4.001   4.692  11.699  1.3945 -0.5843  3.9979
 2676SOL    HW219491   4.017   0.112  11.654  2.0647 -0.0160 -1.7879
 2677SOL     OW19492   1.337   0.918   3.374 -0.1974  0.1338  0.1596
 2677SOL    HW119493   1.325   0.979   3.301  1.1064 -0.4338 -0.5207
 2677SOL    HW219494   1.317   0.982   3.443  1.8893  0.2545  0.6653
 2678SOL     OW19495   4.476   0.161  11.016  0.2411  0.4929  0.5495
 2678SOL    HW119496   4.463   0.236  10.957 -0.7581 -0.6749 -0.7075
 2678SOL    HW219497   4.384   0.156  11.043  0.6892 -1.0538  1.7507
 2679SOL     OW19498   1.287   0.916   5.481 -0.1548  0.1357  0.2580
 2679SOL    HW119499   1.331   0.865   5.413 -3.8959 -1.9767 -0.5561
 2679SOL    HW219500   1.197   0.919   5.447 -0.5252 -0.3977  1.2055
 2680SOL     OW19501   1.497   3.094   6.780  0.1841 -0.2415  0.0384
 2680SOL    HW119502   1.482   3.101   6.686 -1.8938 -2.6138  0.1970
 2680SOL    HW219503   1.519   3.000   6.785 -0.7291 -0.4306  0.5370
 2681SOL     OW19504   0.790   3.222  11.556  0.0003  0.8212  0.1865
 2681SOL    HW119505   0.723   3.275  11.599 -3.1726 -2.8453 -0.2758
 2681SOL    HW219506   0.873   3.268  11.564  0.0480  0.7282  0.2255
 2682SOL     OW19507   2.289   4.719   6.089  0.0143 -0.2291  0.9040
 2682SOL    HW119508   2.212   0.050   6.109  0.3878  0.6176  0.0075
 2682SOL    HW219509   2.355   0.062   6.069  1.3196 -1.6402  0.5521
 2683SOL     OW19510   4.184   1.384   2.550  1.1552  0.4385 -0.5292
 2683SOL    HW119511   4.106   1.438   2.536  1.9922  1.4884 -1.0978
 2683SOL    HW219512   4.216   1.406   2.637 -0.6222 -2.9331  0.9860
 2684SOL     OW19513   2.672   3.450  15.919 -0.5297 -0.4136  0.5536
 2684SOL    HW119514   2.628   3.514  15.974  3.3926  1.2613  1.7443
 2684SOL    HW219515   2.688   3.379  15.981 -1.0027  0.1801  1.3483
 2685SOL     OW19516   2.054   3.236   1.241 -0.4313 -0.6936  0.2317
 2685SOL    HW119517   2.127   3.297   1.232 -3.4191  2.6723 -1.1727
 2685SOL    HW219518   2.025   3.245   1.332 -0.9847 -0.6869  0.0565
 2686SOL     OW19519   3.781   2.665   7.702  0.2711  0.2020  0.1059
 2686SOL    HW119520   3.864   2.670   7.655  1.8557  1.4579  3.1042
 2686SOL    HW219521   3.810   2.698   7.787  0.1108  1.4053 -0.3082
 2687SOL     OW19522   2.829   4.296   7.582 -0.1217  0.1102 -0.2624
 2687SOL    HW119523   2.923   4.288   7.597  0.2512  1.6903 -1.7596
 2687SOL    HW219524   2.813   4.387   7.609  3.1036  0.4844  0.3236
 2688SOL     OW19525   3.813   0.600   5.656 -0.3196 -0.2615  0.8584
 2688SOL    HW119526   3.885   0.640   5.704 -0.0405  0.4194 -0.1301
 2688SOL    HW219527   3.863   0.575   5.579 -2.6593 -4.1958  0.6323
 2689SOL     OW19528   0.528   2.321   8.109 -0.5642 -0.6183  0.5759
 2689SOL    HW119529   0.593   2.258   8.141  0.1124 -0.0472  0.3085
 2689SOL    HW219530   0.460   2.334   8.176 -1.2530  0.6933 -0.3727
 2690SOL     OW19531   1.533   4.011  13.755  0.0384 -0.5081 -0.2460
 2690SOL    HW119532   1.454   4.063  13.770  0.2866 -0.4795  0.9453
 2690SOL    HW219533   1.550   3.957  13.832 -0.1234 -1.7756 -1.1018
 2691SOL     OW19534   2.377   3.941   4.728 -0.1050  0.1656 -0.6544
 2691SOL    HW119535   2.362   4.000   4.802 -0.4226 -0.0241 -0.5634
 2691SOL    HW219536   2.445   3.883   4.760 -1.8683 -0.3516  2.2066
 2692SOL     OW19537   2.307   1.317   5.938 -0.2779  0.0980  0.6726
 2692SOL    HW119538   2.288   1.342   6.028  1.9044 -0.2453  1.2335
 2692SOL    HW219539   2.228   1.354   5.898 -0.1257 -0.9643 -0.6206
 2693SOL     OW19540   4.263   2.394   2.695  0.0859  0.5823 -0.2471
 2693SOL    HW119541   4.281   2.487   2.687 -0.7495  0.7877  0.3094
 2693SOL    HW219542   4.175   2.375   2.662 -0.0156  0.8806 -0.1493
 2694SOL     OW19543   1.983   2.891   4.099 -0.0695 -0.1644  0.0923
 2694SOL    HW119544   1.991   2.796   4.089 -0.0923 -0.2224  0.6125
 2694SOL    HW219545   1.906   2.914   4.046 -0.2654 -1.9554 -0.4089
 2695SOL     OW19546   1.502   1.666  14.900  1.0872 -0.0609 -0.0905
 2695SOL    HW119547   1.472   1.695  14.814 -0.4804  1.5197  0.9976
 2695SOL    HW219548   1.595   1.689  14.895  0.9617  1.2457  3.4421
 2696SOL     OW19549   1.544   3.818   8.344 -0.5397 -0.3130  0.4907
 2696SOL    HW119550   1.509   3.875   8.413 -1.0665 -0.4875  0.3587
 2696SOL    HW219551   1.628   3.852   8.313 -1.7670  0.8667 -1.5054
 2697SOL     OW19552   4.320   4.643   2.340  0.1035 -0.6471  0.5956
 2697SOL    HW119553   4.411   4.672   2.336 -0.5293  0.9736 -2.2809
 2697SOL    HW219554   4.317   4.558   2.385 -1.9293  0.0009  1.6732
 2698SOL     OW19555   0.140   3.557   4.286  0.0665 -0.1087  0.6558
 2698SOL    HW119556   0.184   3.478   4.254  2.5492  1.2970  0.6122
 2698SOL    HW219557   0.072   3.579   4.222  2.3450  2.1433 -0.9868
 2699SOL     OW19558   2.031   3.541   2.290  0.5548 -0.4457  0.1031
 2699SOL    HW119559   2.009   3.539   2.197  2.2925 -1.8295 -0.2788
 2699SOL    HW219560   2.038   3.632   2.316 -1.9873 -1.0639  2.8918
 2700SOL     OW19561   3.667   4.198  17.233 -0.3311  0.1862 -0.3999
 2700SOL    HW119562   3.698   4.172  17.320  1.1030  0.0002 -0.9565
 2700SOL    HW219563   3.746   4.241  17.202 -1.4474  2.2882 -0.2828
 2701SOL     OW19564   2.347   3.812  16.373  0.2897  0.6353 -0.6462
 2701SOL    HW119565   2.378   3.742  16.429 -0.5747 -0.4077 -1.4586
 2701SOL    HW219566   2.255   3.793  16.350  0.0809 -2.0886  2.4841
 2702SOL     OW19567   0.328   0.759  11.836 -0.1032  0.0600 -1.3073
 2702SOL    HW119568   0.371   0.842  11.817 -1.6232  0.9847 -0.7078
 2702SOL    HW219569   0.302   0.775  11.927  0.0202 -1.4856 -1.0078
 2703SOL     OW19570   4.302   2.183   3.847 -0.1072 -0.3491  0.1922
 2703SOL    HW119571   4.387   2.146   3.873  1.3533  2.3039 -0.8021
 2703SOL    HW219572   4.312   2.276   3.866 -1.1450  0.0262 -1.0396
 2704SOL     OW19573   3.513   4.104   5.510 -0.0381 -0.1357 -0.2284
 2704SOL    HW119574   3.461   4.184   5.510 -1.0159 -0.7838  1.7118
 2704SOL    HW219575   3.596   4.135   5.546 -1.0739  0.5715  1.5203
 2705SOL     OW19576   2.106   0.654   2.998 -0.5614 -0.1913 -0.3645
 2705SOL    HW119577   2.182   0.601   2.974  1.2880  2.2410  0.1743
 2705SOL    HW219578   2.154   0.706   3.062  0.0802 -1.7913  0.4732
 2706SOL     OW19579   0.950   1.150  13.208 -0.0003 -0.1326 -0.5984
 2706SOL    HW119580   0.856   1.132  13.209  0.5574 -2.8253  0.4301
 2706SOL    HW219581   0.978   1.059  13.210 -2.3581 -0.8978 -2.4294
 2707SOL     OW19582   2.263   2.327   7.660 -0.7792  0.5129 -0.3424
 2707SOL    HW119583   2.207   2.262   7.702  1.7385 -0.8129  0.9632
 2707SOL    HW219584   2.339   2.271   7.675  0.3902  1.6636 -2.0318
 2708SOL     OW19585   3.973   3.974  12.701  0.1812  0.2505 -0.3081
 2708SOL    HW119586   3.972   3.883  12.729 -1.3448  0.3813  0.0967
 2708SOL    HW219587   3.895   3.980  12.646  0.2609 -1.3044 -0.5619
 2709SOL     OW19588   1.579   0.517  17.497  0.1894  0.0722  0.1916
 2709SOL    HW119589   1.531   0.543  17.419  0.0651 -1.0021 -0.0832
 2709SOL    HW219590   1.502   0.503  17.552  1.3920 -2.1375  1.3411
 2710SOL     OW19591   3.451   2.902   5.998 -0.1963  0.3253  0.7920
 2710SOL    HW119592   3.454   2.997   6.012  0.7610  0.4837 -0.4872
 2710SOL    HW219593   3.371   2.892   5.947 -1.0910 -0.2808  2.3158
 2711SOL     OW19594   2.302   2.520   4.736  0.1146  0.0090 -0.5149
 2711SOL    HW119595   2.356   2.486   4.665 -0.9418 -2.5159 -0.1007
 2711SOL    HW219596   2.334   2.473   4.813 -0.5964  1.2615  0.5614
 2712SOL     OW19597   0.788   3.579   3.401 -0.1833  0.2019  0.0650
 2712SOL    HW119598   0.872   3.534   3.403  0.0870  0.6432 -1.3576
 2712SOL    HW219599   0.758   3.546   3.485  1.1808  0.4361  0.6395
 2713SOL     OW19600   0.820   0.127  14.786  0.3971 -0.2610  0.3296
 2713SOL    HW119601   0.830   0.195  14.853  0.3617 -0.0299  0.0971
 2713SOL    HW219602   0.776   0.063  14.843 -1.8493 -0.3468 -1.5338
 2714SOL     OW19603   3.473   4.346   4.683 -0.7356 -0.4693 -0.1842
 2714SOL    HW119604   3.378   4.347   4.683 -0.7519 -2.7791 -1.7857
 2714SOL    HW219605   3.486   4.409   4.612 -0.6461 -1.3719 -0.9610
 2715SOL     OW19606   4.159   1.970  10.223 -0.4509  0.7265  0.0748
 2715SOL    HW119607   4.083   1.913  10.230  0.2402  0.0079  1.7589
 2715SOL    HW219608   4.152   2.005  10.134 -0.9487  0.1374 -0.1125
 2716SOL     OW19609   0.164   1.272   9.330  0.1066  0.0553  0.2125
 2716SOL    HW119610   0.081   1.226   9.340  0.6760 -0.6155  1.8467
 2716SOL    HW219611   0.188   1.264   9.238 -0.7363  1.5619 -0.1509
 2717SOL     OW19612   3.704   4.063   5.184  0.2355  0.1023  0.1259
 2717SOL    HW119613   3.660   4.137   5.227 -3.1954 -1.1585 -1.2381
 2717SOL    HW219614   3.789   4.104   5.165  1.5684 -2.5270  0.4232
 2718SOL     OW19615   0.147   0.994   3.183  0.1953 -0.7995  0.9509
 2718SOL    HW119616   0.100   1.053   3.242 -2.0942 -1.4391 -0.2458
 2718SOL    HW219617   0.238   1.020   3.196 -0.2978  0.5811  1.6911
 2719SOL     OW19618   2.309   4.245  16.888 -0.0648 -0.2182 -0.0152
 2719SOL    HW119619   2.285   4.335  16.909 -2.2897 -0.2646 -2.3155
 2719SOL    HW219620   2.404   4.251  16.891 -0.0670 -1.1918  2.1000
 2720SOL     OW19621   2.040   2.111   0.745  0.1206 -0.3514  0.0989
 2720SOL    HW119622   2.092   2.100   0.825 -1.4249 -0.0948  1.1409
 2720SOL    HW219623   2.028   2.205   0.731 -0.1257 -0.6540 -1.7214
 2721SOL     OW19624   1.047   0.467   7.852 -0.1773 -0.2915  0.3973
 2721SOL    HW119625   0.956   0.452   7.878 -0.9122  1.2720 -1.2728
 2721SOL    HW219626   1.055   0.466   7.757 -0.0841 -1.9875  0.4173
 2722SOL     OW19627   1.898   4.009   2.839 -0.7125 -0.5263  0.4417
 2722SOL    HW119628   1.982   4.004   2.886 -0.8084 -3.6841  0.3084
 2722SOL    HW219629   1.843   3.945   2.884 -0.2103 -0.5747  1.0028
 2723SOL     OW19630   0.878   2.818   3.391  0.4258 -0.5505  0.0293
 2723SOL    HW119631   0.944   2.807   3.322  1.1651 -0.6027  0.7396
 2723SOL    HW219632   0.821   2.746   3.365  0.5151 -0.4886 -0.3371
 2724SOL     OW19633   2.779   1.048   9.654 -0.0580 -0.1321 -0.0500
 2724SOL    HW119634   2.824   0.972   9.616 -1.2086  0.0778 -1.8438
 2724SOL    HW219635   2.810   1.123   9.604  1.4698 -0.0812  0.9609
 2725SOL     OW19636   2.402   2.089   7.731 -0.1071  0.1055 -0.2390
 2725SOL    HW119637   2.497   2.082   7.729  0.0152  2.0948 -1.4819
 2725SOL    HW219638   2.374   2.003   7.763  0.7137 -0.1554 -0.2201
 2726SOL     OW19639   1.042   4.545   1.321  0.0741  0.1946  0.4296
 2726SOL    HW119640   0.952   4.579   1.320  0.2049  0.5963  2.7319
 2726SOL    HW219641   1.096   4.616   1.288  1.0105 -0.0241  1.4956
 2727SOL     OW19642   4.691   4.577   8.899 -0.5757 -0.0585  0.1201
 2727SOL    HW119643   4.598   4.567   8.879 -0.3149 -0.1158 -1.0869
 2727SOL    HW219644   4.720   4.502   8.848 -1.5598  0.4012 -1.1160
 2728SOL     OW19645   2.772   2.163   1.387  0.0231 -0.0262  0.3621
 2728SOL    HW119646   2.727   2.186   1.306  0.5095  0.9167  0.3543
 2728SOL    HW219647   2.762   2.250   1.426  0.1938  0.4931 -0.7535
 2729SOL     OW19648   4.652   2.167  13.581 -0.0090 -0.6048 -0.0600
 2729SOL    HW119649   4.688   2.256  13.572  0.4117 -0.8003 -0.3223
 2729SOL    HW219650   4.583   2.166  13.515 -1.9658 -0.7594  2.0046
 2730SOL     OW19651   4.273   0.098   3.151 -0.9551 -0.4057  0.4676
 2730SOL    HW119652   4.184   0.104   3.186 -0.4740 -0.0768  1.6685
 2730SOL    HW219653   4.303   0.185   3.127  0.5582 -1.4176 -1.2744
 2731SOL     OW19654   4.591   2.218   2.509  0.7487  0.8738 -0.7608
 2731SOL    HW119655   4.595   2.259   2.596  0.1260  0.5816 -0.5925
 2731SOL    HW219656   4.516   2.269   2.478  0.7460  2.0826  1.2494
 2732SOL     OW19657   0.047   0.597   3.006  0.1526  0.1380 -0.4965
 2732SOL    HW119658   4.697   0.639   2.962  0.3642  2.6536  1.5890
 2732SOL    HW219659   0.018   0.505   3.010  0.7786 -0.0051  0.5450
 2733SOL     OW19660   0.530   2.167   6.684  0.1419  0.3262 -0.4284
 2733SOL    HW119661   0.479   2.218   6.747  0.5425  0.7815 -0.4742
 2733SOL    HW219662   0.592   2.128   6.746  1.2856 -0.9869 -2.3951
 2734SOL     OW19663   3.348   3.166   3.651  0.8050 -0.0339 -0.5774
 2734SOL    HW119664   3.319   3.080   3.620 -2.6707  0.1598  2.1687
 2734SOL    HW219665   3.306   3.183   3.736  2.4927 -2.3188  0.6971
 2735SOL     OW19666   2.279   0.673   7.030  0.3035  0.4421 -0.1562
 2735SOL    HW119667   2.356   0.667   7.087  0.0260  0.0360  0.1789
 2735SOL    HW219668   2.288   0.588   6.987 -0.2037  0.4618 -0.3002
 2736SOL     OW19669   1.240   0.896  16.488  0.4750  0.3223 -0.7252
 2736SOL    HW119670   1.172   0.910  16.422 -1.6060 -0.5399  1.2203
 2736SOL    HW219671   1.317   0.895  16.432  1.0862 -1.2275  0.1321
 2737SOL     OW19672   3.720   1.205   8.904 -0.0802 -0.0164  0.1321
 2737SOL    HW119673   3.666   1.255   8.965  0.1140  0.7580 -0.3244
 2737SOL    HW219674   3.806   1.224   8.942  1.1535 -2.9639 -1.1716
 2738SOL     OW19675   3.260   0.811   4.894 -0.4087 -0.5989 -0.2681
 2738SOL    HW119676   3.284   0.853   4.811 -0.6141 -0.6885 -0.3734
 2738SOL    HW219677   3.165   0.811   4.892 -0.4704  0.3442  2.4919
 2739SOL     OW19678   4.635   0.974  15.557 -0.6085  0.2583  0.1902
 2739SOL    HW119679   4.578   1.051  15.551  1.4533  1.3392 -4.9742
 2739SOL    HW219680   4.588   0.912  15.614  1.9703 -0.6654  1.2886
 2740SOL     OW19681   2.924   1.472   8.775  0.4005 -0.1106  0.4093
 2740SOL    HW119682   2.950   1.540   8.713 -1.4777 -1.5297 -1.9272
 2740SOL    HW219683   2.923   1.393   8.722  1.6939  0.4381 -0.4283
 2741SOL     OW19684   0.421   1.683   7.930 -0.0260 -0.6937 -0.3173
 2741SOL    HW119685   0.379   1.682   8.016  0.7468  1.9509  0.1108
 2741SOL    HW219686   0.391   1.771   7.906 -1.8113 -1.0835  0.4755
 2742SOL     OW19687   1.816   3.149   9.823 -0.4178 -0.3685  0.1292
 2742SOL    HW119688   1.749   3.087   9.796 -1.9095  1.1401  0.3599
 2742SOL    HW219689   1.865   3.167   9.743 -1.2212  0.9932 -0.0608
 2743SOL     OW19690   3.224   1.427  13.098 -0.0555  0.1514 -0.1061
 2743SOL    HW119691   3.273   1.477  13.033  0.3231 -1.6481 -1.1955
 2743SOL    HW219692   3.268   1.343  13.085 -0.5172 -0.3572  1.6216
 2744SOL     OW19693   4.105   4.243  17.008  0.4853  0.2576 -0.2498
 2744SOL    HW119694   4.054   4.230  16.928  0.9292  0.5138 -0.5679
 2744SOL    HW219695   4.135   4.154  17.029 -2.2466 -0.5930  0.1233
 2745SOL     OW19696   2.102   4.384   6.815 -0.0927 -0.1553  1.0431
 2745SOL    HW119697   2.184   4.422   6.846 -0.2046  0.1729  0.9395
 2745SOL    HW219698   2.078   4.447   6.747 -0.2354 -2.7378 -1.3107
 2746SOL     OW19699   2.034   2.817  12.693 -0.3479  0.4158  0.5007
 2746SOL    HW119700   1.955   2.869  12.681  0.2728  1.4664  0.9606
 2746SOL    HW219701   2.000   2.729  12.713  1.8560 -0.7898 -1.0640
 2747SOL     OW19702   3.001   3.762   4.449  0.0677  0.2602 -0.2447
 2747SOL    HW119703   3.047   3.785   4.368  0.4702  0.1660 -0.0455
 2747SOL    HW219704   2.941   3.836   4.444 -0.5823 -0.3861 -2.1678
 2748SOL     OW19705   0.176   0.583   6.377 -0.0645  0.5515  0.4479
 2748SOL    HW119706   0.149   0.601   6.467 -1.0510  2.2768 -0.2126
 2748SOL    HW219707   0.191   0.674   6.350  0.1422  0.6469  0.8896
 2749SOL     OW19708   1.352   3.158   8.363  0.2057  0.2944 -0.8330
 2749SOL    HW119709   1.332   3.079   8.414 -1.0772  2.0229  1.3061
 2749SOL    HW219710   1.447   3.149   8.363 -0.0309 -2.2819  2.2221
 2750SOL     OW19711   3.346   1.999   1.304 -0.3941 -0.2069 -0.8647
 2750SOL    HW119712   3.331   1.942   1.230 -2.3157 -1.2952  0.3832
 2750SOL    HW219713   3.258   2.030   1.326 -0.8901  0.1626 -3.3924
 2751SOL     OW19714   1.572   0.143   7.888 -0.2960 -0.4732  0.1170
 2751SOL    HW119715   1.519   0.113   7.962 -0.2747 -0.2415  0.2252
 2751SOL    HW219716   1.632   0.204   7.931 -0.9659 -0.5943  1.2209
 2752SOL     OW19717   1.453   0.935  16.331  0.1388 -0.1996  0.7165
 2752SOL    HW119718   1.447   0.980  16.247 -0.7203  2.0550  1.9888
 2752SOL    HW219719   1.518   0.987  16.378  0.0021  0.9183 -0.3328
 2753SOL     OW19720   3.028   1.459  10.746 -0.1858 -0.5850 -0.2450
 2753SOL    HW119721   3.067   1.372  10.737 -1.3999 -1.3368  1.7482
 2753SOL    HW219722   2.969   1.447  10.820 -2.1949  1.5659 -1.4549
 2754SOL     OW19723   1.769   1.251   4.300  0.6316 -1.1055 -0.2252
 2754SOL    HW119724   1.791   1.338   4.335  1.2380 -1.8149  1.1860
 2754SOL    HW219725   1.680   1.261   4.268  0.2683 -1.3749  0.6919
 2755SOL     OW19726   3.929   3.088   0.187  0.0131 -0.0943 -0.0510
 2755SOL    HW119727   3.851   3.072   0.135 -0.8951  0.2442  1.2009
 2755SOL    HW219728   3.895   3.144   0.257 -0.5517  2.8988 -2.7001
 2756SOL     OW19729   3.181   4.119   5.361 -0.0669 -0.2612 -0.3446
 2756SOL    HW119730   3.193   4.136   5.267  1.6346 -1.7254 -0.3891
 2756SOL    HW219731   3.166   4.210   5.385  0.6644 -0.5957  1.3682
 2757SOL     OW19732   3.604   1.859   8.809 -0.7247  0.4838 -0.8112
 2757SOL    HW119733   3.621   1.774   8.849 -1.5406  0.5687 -0.2911
 2757SOL    HW219734   3.564   1.824   8.730  2.4837 -1.3869 -1.5896
 2758SOL     OW19735   4.424   1.037  10.054  0.2572  0.0100 -0.1530
 2758SOL    HW119736   4.496   1.095  10.078 -1.9195  2.1919  1.0154
 2758SOL    HW219737   4.466   0.954  10.029  0.7034 -0.2823  1.5632
 2759SOL     OW19738   2.807   4.177  13.656  0.6539  0.2231 -0.1848
 2759SOL    HW119739   2.756   4.170  13.576 -0.8868  0.0389  0.8195
 2759SOL    HW219740   2.898   4.171  13.628 -0.1139  0.4729 -2.6676
 2760SOL     OW19741   0.732   3.727  16.574  0.7721  0.0344  0.1187
 2760SOL    HW119742   0.759   3.751  16.485  2.2249  0.3471  0.6471
 2760SOL    HW219743   0.641   3.755  16.582  0.6685  0.0949 -1.2100
 2761SOL     OW19744   0.990   0.826  16.321  0.3971  0.0273 -0.2150
 2761SOL    HW119745   1.003   0.766  16.248  1.8040 -0.6513  0.5976
 2761SOL    HW219746   0.918   0.777  16.360 -0.9711  1.3427 -1.1250
 2762SOL     OW19747   3.780   2.897   7.973 -0.5678 -0.0913  0.5819
 2762SOL    HW119748   3.789   2.886   8.067  0.8165 -0.1366  0.4433
 2762SOL    HW219749   3.850   2.836   7.951 -0.8440 -0.1169 -0.2122
 2763SOL     OW19750   1.730   0.102  12.206 -0.0839  0.0123  0.6707
 2763SOL    HW119751   1.760   0.193  12.195  0.7958 -0.4574 -0.8039
 2763SOL    HW219752   1.752   0.097  12.299  1.8294  1.4901  0.3052
 2764SOL     OW19753   0.215   2.682   4.947  0.5830 -0.0915  0.4546
 2764SOL    HW119754   0.262   2.741   5.005  0.0483 -0.7583  1.5725
 2764SOL    HW219755   0.143   2.657   5.005 -0.4271  3.6719  0.8571
 2765SOL     OW19756   4.661   2.580  16.167  0.3095  0.1287  0.0309
 2765SOL    HW119757   4.578   2.595  16.213  0.3761 -0.1426  0.2355
 2765SOL    HW219758   4.640   2.500  16.119 -3.6867  1.0348  0.2757
 2766SOL     OW19759   2.249   0.492   8.861 -0.0681  0.0691  0.0673
 2766SOL    HW119760   2.189   0.469   8.789 -0.6624 -0.1023  0.6189
 2766SOL    HW219761   2.210   0.574   8.889  1.0336  0.7742 -0.4812
 2767SOL     OW19762   0.684   0.331   3.861  0.1753  0.4050  0.0730
 2767SOL    HW119763   0.612   0.276   3.832  1.4381  0.2657 -2.8475
 2767SOL    HW219764   0.739   0.319   3.783 -1.9384 -0.5027 -1.2782
 2768SOL     OW19765   3.567   0.209   7.928  0.0290  0.1742 -0.4783
 2768SOL    HW119766   3.521   0.260   7.861  0.4653  0.8255 -0.2794
 2768SOL    HW219767   3.637   0.158   7.886 -0.4491 -0.1035 -0.9416
 2769SOL     OW19768   2.622   2.283   8.887  0.0970 -0.2063 -0.2903
 2769SOL    HW119769   2.558   2.339   8.931 -0.1671 -0.2869 -0.5657
 2769SOL    HW219770   2.684   2.350   8.859  0.0971  0.0998  0.4568
 2770SOL     OW19771   1.882   1.008   4.377 -0.6031  0.9610  0.1204
 2770SOL    HW119772   1.821   1.070   4.336  0.2957  0.1745 -2.4118
 2770SOL    HW219773   1.819   0.950   4.421 -0.4917  1.8089  1.3875
 2771SOL     OW19774   2.410   4.316   7.179  0.1030  0.1260  0.3563
 2771SOL    HW119775   2.418   4.274   7.264  0.4772  0.5855  0.5483
 2771SOL    HW219776   2.492   4.288   7.138 -0.4565 -0.9920 -0.0039
 2772SOL     OW19777   1.102   1.648  14.299  0.4025  0.4590  0.1801
 2772SOL    HW119778   1.058   1.712  14.356  1.7010  1.0004  0.5710
 2772SOL    HW219779   1.164   1.612  14.362 -1.1846  0.7332  1.9111
 2773SOL     OW19780   3.362   2.678  17.133  0.5393  0.2706  0.4172
 2773SOL    HW119781   3.314   2.761  17.142  1.7724  1.0547 -0.2439
 2773SOL    HW219782   3.294   2.622  17.170 -0.0661  0.5439 -0.2886
 2774SOL     OW19783   3.418   3.114  13.560  0.3642 -0.2685 -0.2060
 2774SOL    HW119784   3.505   3.084  13.587 -0.4430 -1.2116  1.3420
 2774SOL    HW219785   3.433   3.206  13.537  1.6555 -0.6333 -0.8020
 2775SOL     OW19786   0.251   3.352  14.367 -0.3561 -0.2396 -0.2325
 2775SOL    HW119787   0.343   3.364  14.390 -0.6989 -0.5218  1.2988
 2775SOL    HW219788   0.231   3.267  14.405 -0.5834  0.2971  0.8349
 2776SOL     OW19789   2.407   3.962  17.106 -0.0080 -0.1114 -0.3715
 2776SOL    HW119790   2.378   3.925  17.022  0.3230 -0.7849 -0.1879
 2776SOL    HW219791   2.324   3.990  17.145  0.7478  1.0356  0.4065
 2777SOL     OW19792   1.363   4.312   9.666  0.2155 -0.3069  0.1898
 2777SOL    HW119793   1.417   4.388   9.685 -1.6268  0.6323  1.6546
 2777SOL    HW219794   1.375   4.268   9.750 -1.4942  0.1089  0.6628
 2778SOL     OW19795   3.600   1.726  12.050 -0.3324 -0.3209 -0.0704
 2778SOL    HW119796   3.560   1.813  12.054  0.2230  0.0018 -1.6764
 2778SOL    HW219797   3.557   1.697  11.970  0.9689 -2.4126 -0.0026
 2779SOL     OW19798   3.497   3.962   4.130  0.2222  0.1203  0.3181
 2779SOL    HW119799   3.489   4.014   4.050  0.3898  1.7450  1.3575
 2779SOL    HW219800   3.466   3.878   4.096  1.5394 -0.1945 -0.0974
 2780SOL     OW19801   3.259   3.592  15.737 -0.9325  0.0282  0.8389
 2780SOL    HW119802   3.318   3.536  15.787 -0.1747 -0.6251 -0.7846
 2780SOL    HW219803   3.261   3.668  15.796 -1.1793  1.7033 -1.2980
 2781SOL     OW19804   0.217   3.867   0.133  0.3565 -0.4930  0.1989
 2781SOL    HW119805   0.193   3.776   0.149  1.7325 -1.1334 -1.5377
 2781SOL    HW219806   0.244   3.862   0.042  1.3444 -0.6768  0.5099
 2782SOL     OW19807   1.713   1.337   6.880  0.3312  0.1528 -0.4106
 2782SOL    HW119808   1.670   1.334   6.966  0.7909  0.1638 -0.1757
 2782SOL    HW219809   1.682   1.421   6.845  0.7560  0.2338 -0.6051
 2783SOL     OW19810   1.450   1.826   2.557 -0.7939  0.1824 -0.1396
 2783SOL    HW119811   1.516   1.882   2.517 -0.1073  0.6156  1.6057
 2783SOL    HW219812   1.482   1.737   2.540  1.6291  0.9345  0.4225
 2784SOL     OW19813   3.126   1.073   5.825  0.0530  0.2019 -0.2254
 2784SOL    HW119814   3.079   1.100   5.903  1.5757  0.3869  0.6345
 2784SOL    HW219815   3.206   1.041   5.868 -1.2356 -0.8440  1.3804
 2785SOL     OW19816   3.208   4.088   3.486 -0.0082  0.5802  0.3342
 2785SOL    HW119817   3.164   4.172   3.476 -2.5827 -0.6116  1.6718
 2785SOL    HW219818   3.137   4.028   3.464 -0.6810  1.1460  0.9455
 2786SOL     OW19819   1.355   1.377   9.650  0.0665 -0.6776  0.1147
 2786SOL    HW119820   1.288   1.395   9.585 -0.9719 -0.6632  1.1886
 2786SOL    HW219821   1.326   1.293   9.686 -1.0223  0.1544  1.1840
 2787SOL     OW19822   3.928   0.226   9.265 -0.0705 -0.0085 -0.5330
 2787SOL    HW119823   4.009   0.256   9.224 -0.8155  1.2928 -1.0577
 2787SOL    HW219824   3.956   0.162   9.330 -1.9899 -0.5087 -0.1894
 2788SOL     OW19825   4.148   1.292   6.550 -0.9991  0.3665  0.2797
 2788SOL    HW119826   4.191   1.213   6.582 -0.8161 -0.1981 -1.3387
 2788SOL    HW219827   4.171   1.350   6.622  0.1452  0.2684 -0.0125
 2789SOL     OW19828   3.418   0.322   5.597  0.3666  0.1299 -0.0136
 2789SOL    HW119829   3.508   0.352   5.609  0.5730 -0.6567  0.4228
 2789SOL    HW219830   3.430   0.241   5.547  1.5162  0.3658 -0.1234
 2790SOL     OW19831   0.287   3.439   6.483 -0.5137  0.3795 -0.1435
 2790SOL    HW119832   0.351   3.368   6.484 -1.1744 -0.2447 -1.7697
 2790SOL    HW219833   0.292   3.472   6.573 -2.2736  1.9335 -0.6135
 2791SOL     OW19834   4.241   1.280   8.819  0.5189 -0.1383 -0.2212
 2791SOL    HW119835   4.247   1.282   8.914 -2.0068 -0.3676 -0.0583
 2791SOL    HW219836   4.273   1.367   8.795  1.4627 -1.3096 -3.1369
 2792SOL     OW19837   4.065   1.849  13.037  0.1403  0.2048 -0.6871
 2792SOL    HW119838   4.069   1.787  13.109  1.1286  0.9100 -0.1451
 2792SOL    HW219839   4.024   1.923  13.082  2.4658  1.1282 -0.0971
 2793SOL     OW19840   1.925   2.474   5.187  0.4838  0.0400 -0.2557
 2793SOL    HW119841   1.885   2.393   5.220  1.9167 -1.3663 -1.9042
 2793SOL    HW219842   1.996   2.442   5.131  0.0070  0.8268 -1.3128
 2794SOL     OW19843   0.878   1.597  11.926 -0.0467  0.1416 -0.6442
 2794SOL    HW119844   0.839   1.651  11.857 -0.4956  1.1774  0.4176
 2794SOL    HW219845   0.815   1.527  11.942  0.0792  0.1321 -0.1914
 2795SOL     OW19846   1.786   1.144   4.700 -0.2049  0.3550  0.1447
 2795SOL    HW119847   1.718   1.156   4.633 -2.1687  3.9046  2.7591
 2795SOL    HW219848   1.747   1.068   4.743 -0.1135  0.1368 -0.1577
 2796SOL     OW19849   1.260   3.622   7.109  0.2134  0.5336 -0.5162
 2796SOL    HW119850   1.282   3.663   7.192  2.6125  1.9417 -1.8491
 2796SOL    HW219851   1.343   3.582   7.082  0.6790  1.9455 -1.1731
 2797SOL     OW19852   4.620   0.732   1.855  0.4496  0.9244 -0.5235
 2797SOL    HW119853   4.548   0.671   1.876 -1.2265  2.7320 -1.0349
 2797SOL    HW219854   4.669   0.680   1.792  0.7440  0.2375  0.2655
 2798SOL     OW19855   2.638   0.890   1.188 -0.1280  0.4437  0.0916
 2798SOL    HW119856   2.550   0.853   1.194 -0.3591  0.6888 -1.9079
 2798SOL    HW219857   2.628   0.984   1.177  3.6278  0.9744  1.2784
 2799SOL     OW19858   2.465   4.417   3.724 -0.3030 -0.1236 -0.7420
 2799SOL    HW119859   2.463   4.328   3.690 -1.8982 -0.7207  0.9247
 2799SOL    HW219860   2.384   4.453   3.689 -0.0181  2.0159  0.7787
 2800SOL     OW19861   0.892   4.241   9.455 -0.3309 -0.0982  0.1219
 2800SOL    HW119862   0.981   4.241   9.418 -0.6959 -0.2155 -0.7449
 2800SOL    HW219863   0.912   4.265   9.545  2.4233  1.1669 -0.7978
 2801SOL     OW19864   1.520   0.738   3.344  0.6265 -0.3782  0.0856
 2801SOL    HW119865   1.454   0.807   3.350  1.2892  0.2400  0.2931
 2801SOL    HW219866   1.538   0.725   3.437 -0.3224  1.1021  0.4927
 2802SOL     OW19867   1.155   4.636   3.834 -0.2882  0.0716 -0.5606
 2802SOL    HW119868   1.191   4.684   3.908 -1.4240  0.6741 -0.4016
 2802SOL    HW219869   1.170   4.545   3.862  1.6206  0.0457 -1.6710
 2803SOL     OW19870   3.174   2.100  14.456  0.1785  0.8097 -0.3750
 2803SOL    HW119871   3.204   2.190  14.445  1.7070  0.1342 -1.7440
 2803SOL    HW219872   3.231   2.078  14.530 -1.3026  1.6196  1.0083
 2804SOL     OW19873   0.257   2.156   2.972 -1.0465 -0.6725 -0.8532
 2804SOL    HW119874   0.331   2.111   2.932 -0.1817  0.5403 -0.6222
 2804SOL    HW219875   0.279   2.249   2.968 -0.9393 -0.6271  0.5956
 2805SOL     OW19876   3.361   2.087   7.446  0.7058 -0.9246  0.0186
 2805SOL    HW119877   3.324   2.062   7.361 -0.6239 -0.6378  0.5069
 2805SOL    HW219878   3.373   2.182   7.439 -0.5497 -0.7419  0.3914
 2806SOL     OW19879   3.356   1.363   2.231 -0.4461 -0.0230  0.4253
 2806SOL    HW119880   3.357   1.439   2.289 -0.6703 -1.1714  1.9399
 2806SOL    HW219881   3.432   1.320   2.270 -2.4276 -0.6217  3.6280
 2807SOL     OW19882   1.238   3.864  11.163  0.1441 -0.3610  0.1604
 2807SOL    HW119883   1.218   3.909  11.082 -1.1941 -3.2281 -1.0982
 2807SOL    HW219884   1.266   3.780  11.128  0.5447  1.1603 -3.1269
 2808SOL     OW19885   2.963   4.359   5.302 -0.0382 -0.1970 -0.0999
 2808SOL    HW119886   2.942   4.343   5.210 -1.4737  1.3161 -0.0180
 2808SOL    HW219887   2.875   4.357   5.339  0.0504  0.0674  0.1214
 2809SOL     OW19888   2.532   2.497   5.381 -0.0301  0.1362 -0.0656
 2809SOL    HW119889   2.516   2.405   5.361 -1.8908  0.4626 -0.1169
 2809SOL    HW219890   2.602   2.517   5.318  0.4372 -1.2351  0.0338
 2810SOL     OW19891   2.436   3.992   5.396  0.3029 -0.0373 -0.9189
 2810SOL    HW119892   2.527   4.022   5.397  0.1355  0.4893 -1.2600
 2810SOL    HW219893   2.409   3.989   5.304  1.6181 -1.7995 -1.2512
 2811SOL     OW19894   3.261   4.237   3.026  0.3480 -0.5056  0.3809
 2811SOL    HW119895   3.335   4.298   3.026 -0.5664  0.5919  1.9744
 2811SOL    HW219896   3.199   4.285   2.971  2.6710  0.5148 -1.3423
 2812SOL     OW19897   2.601   0.065   2.881  0.3184  0.4731 -0.0488
 2812SOL    HW119898   2.532   0.016   2.926  1.1512 -0.9672 -0.3476
 2812SOL    HW219899   2.545   0.115   2.821 -1.5140  0.4344  1.6300
 2813SOL     OW19900   0.483   0.323  16.567  0.4619  0.2304 -0.2580
 2813SOL    HW119901   0.514   0.343  16.478 -0.7619 -0.6659 -0.8937
 2813SOL    HW219902   0.562   0.352  16.613 -0.3022  1.1024  0.4831
 2814SOL     OW19903   1.631   0.323   6.355  0.0636 -0.0589 -0.3483
 2814SOL    HW119904   1.539   0.331   6.330  0.7658  0.7600 -2.7153
 2814SOL    HW219905   1.644   0.417   6.342  0.6756 -0.1479 -0.3783
 2815SOL     OW19906   2.079   3.991   0.113  0.0110 -0.6130 -0.3462
 2815SOL    HW119907   2.107   4.079   0.089  0.9234 -0.5617  0.9392
 2815SOL    HW219908   2.136   3.938   0.057  1.6919 -1.2260  1.9633
 2816SOL     OW19909   2.737   1.986  14.281  0.0468  0.0285  0.1111
 2816SOL    HW119910   2.678   1.987  14.356  1.5593 -0.9319  1.3069
 2816SOL    HW219911   2.782   2.070  14.284  3.4357 -1.8040  0.8740
 2817SOL     OW19912   2.091   2.373  16.187 -0.1321 -1.1146 -0.2258
 2817SOL    HW119913   2.073   2.438  16.255 -1.0169 -1.5632 -0.0272
 2817SOL    HW219914   2.179   2.400  16.163  0.2996 -0.8793  1.6126
 2818SOL     OW19915   2.539   0.944   4.213 -0.1682  0.3198  0.6383
 2818SOL    HW119916   2.509   0.892   4.288 -0.1104 -2.6696 -1.3948
 2818SOL    HW219917   2.627   0.910   4.200  0.6198  2.9874 -0.9806
 2819SOL     OW19918   2.905   1.376   1.113 -0.2830 -0.1299  0.0220
 2819SOL    HW119919   2.979   1.437   1.114  0.5774 -1.1475 -1.3545
 2819SOL    HW219920   2.917   1.334   1.027 -2.4934 -0.8377  0.0620
 2820SOL     OW19921   3.481   2.063   8.544  0.0265 -0.3218 -0.0835
 2820SOL    HW119922   3.575   2.077   8.556 -0.4864  1.1278  2.2998
 2820SOL    HW219923   3.448   2.152   8.554  0.5450  0.0079 -1.3094
 2821SOL     OW19924   2.355   1.151   3.708 -0.1186 -0.3861  0.1027
 2821SOL    HW119925   2.337   1.162   3.802  0.3166 -1.0437  0.2601
 2821SOL    HW219926   2.395   1.233   3.681  0.4214 -0.5242  0.4855
 2822SOL     OW19927   2.013   2.747  15.232  0.0802  0.2421  0.2200
 2822SOL    HW119928   1.999   2.841  15.247 -1.8885  0.3385 -2.1441
 2822SOL    HW219929   2.086   2.751  15.169 -1.0872  0.8560 -1.1004
 2823SOL     OW19930   1.074   1.359  13.341  0.2135  0.0133  0.2304
 2823SOL    HW119931   1.135   1.296  13.380 -1.8112 -2.3792 -0.4159
 2823SOL    HW219932   1.019   1.295  13.296  1.0618 -1.1776  0.8929
 2824SOL     OW19933   4.339   4.534   0.581 -0.0736 -0.2930  0.1262
 2824SOL    HW119934   4.304   4.475   0.648 -0.1607 -3.5203 -2.7374
 2824SOL    HW219935   4.391   4.472   0.530 -1.0660 -0.1968 -1.0332
 2825SOL     OW19936   3.748   1.288   1.258  0.0199  0.8592 -0.7235
 2825SOL    HW119937   3.661   1.315   1.228  0.0567  0.6723 -0.9948
 2825SOL    HW219938   3.806   1.358   1.229  2.7028 -1.3863 -0.8151
 2826SOL     OW19939   3.087   3.093   1.816  0.3297 -0.0213 -0.2210
 2826SOL    HW119940   3.129   3.039   1.883  1.7739 -1.0662 -1.9716
 2826SOL    HW219941   3.069   3.022   1.754  2.3193 -0.9900  0.2952
 2827SOL     OW19942   1.166   0.240   5.856 -0.1690 -0.1166 -0.1381
 2827SOL    HW119943   1.135   0.314   5.908  0.7596 -0.3956  0.8167
 2827SOL    HW219944   1.217   0.191   5.921  0.5374  2.8835  1.5597
 2828SOL     OW19945   4.549   3.630  13.891 -0.4184  0.1509  0.3259
 2828SOL    HW119946   4.592   3.714  13.905 -1.3100  0.6452  0.0284
 2828SOL    HW219947   4.531   3.603  13.981  2.6678  1.7357  1.4466
 2829SOL     OW19948   1.490   3.870   6.358 -0.6123 -0.5561 -0.1782
 2829SOL    HW119949   1.561   3.817   6.393 -0.5406  0.1127  0.6871
 2829SOL    HW219950   1.446   3.814   6.295 -1.7890 -0.6986  0.7738
 2830SOL     OW19951   2.464   4.583   5.000  0.0477 -0.8847 -0.1650
 2830SOL    HW119952   2.507   4.613   5.080 -0.4938 -0.7110  0.0587
 2830SOL    HW219953   2.542   4.544   4.961 -0.4456 -2.4008  0.3643
 2831SOL     OW19954   0.435   0.769   5.791  0.9431 -0.1984  0.0786
 2831SOL    HW119955   0.411   0.844   5.845 -2.4494 -2.8833  2.3123
 2831SOL    HW219956   0.441   0.694   5.851  2.1625  0.7397  1.1395
 2832SOL     OW19957   0.626   2.987  11.817  0.0085  0.3624 -0.2798
 2832SOL    HW119958   0.648   2.897  11.840 -1.2528  0.0766 -0.2068
 2832SOL    HW219959   0.713   3.018  11.789  0.6347  1.6238  3.0699
 2833SOL     OW19960   2.406   0.572  14.768 -0.2987 -0.1607 -0.3685
 2833SOL    HW119961   2.336   0.621  14.811  0.1556  0.2818 -0.1312
 2833SOL    HW219962   2.484   0.604  14.813  0.8143 -2.5248 -0.6155
 2834SOL     OW19963   2.570   2.416   6.934  0.5623 -0.2626 -0.1548
 2834SOL    HW119964   2.660   2.417   6.902  0.4404 -0.8886 -0.5293
 2834SOL    HW219965   2.581   2.396   7.027 -0.9578 -1.8892 -0.3092
 2835SOL     OW19966   4.613   0.768   2.852 -0.1812  0.5282 -0.5061
 2835SOL    HW119967   4.679   0.767   2.783  1.2622  0.8886  0.8554
 2835SOL    HW219968   4.545   0.828   2.823 -2.0727  0.4059  3.5756
 2836SOL     OW19969   1.760   0.087   4.879 -0.1590  0.5638  0.6787
 2836SOL    HW119970   1.832   0.024   4.877  0.1771  1.0778 -4.3115
 2836SOL    HW219971   1.748   0.086   4.974  1.4200 -0.3381  0.8719
 2837SOL     OW19972   2.235   3.635  16.698  0.5006  1.0280 -0.2310
 2837SOL    HW119973   2.305   3.611  16.638 -0.0407  0.9699 -0.8382
 2837SOL    HW219974   2.237   3.552  16.745 -3.2735  0.1203 -1.6924
 2838SOL     OW19975   0.047   3.404  16.378 -0.2309  0.3841 -0.2941
 2838SOL    HW119976   0.092   3.380  16.296 -0.9159 -0.6725 -0.3705
 2838SOL    HW219977   4.683   3.423  16.344 -0.1384  1.8288  0.2905
 2839SOL     OW19978   2.999   4.660   4.050 -0.4313 -0.1734  0.5651
 2839SOL    HW119979   2.966   4.602   4.119 -1.8285 -1.7003 -1.4067
 2839SOL    HW219980   2.920   4.682   4.001  0.0272  1.0310  0.3580
 2840SOL     OW19981   3.186   2.722   3.747 -0.2896 -0.6258  0.0188
 2840SOL    HW119982   3.213   2.784   3.680  0.7751 -3.1063 -1.8148
 2840SOL    HW219983   3.093   2.746   3.750  0.0482  0.7261 -0.4432
 2841SOL     OW19984   4.295   2.434  14.806  0.1416 -0.3121 -0.3807
 2841SOL    HW119985   4.304   2.482  14.723  0.5112 -1.3236 -0.9277
 2841SOL    HW219986   4.214   2.384  14.798  0.2063 -0.3421 -0.8634
 2842SOL     OW19987   2.499   2.192   5.242  0.2132 -0.2619  0.2892
 2842SOL    HW119988   2.520   2.238   5.160  2.2357 -1.2123  0.2674
 2842SOL    HW219989   2.585   2.187   5.284  0.6174  2.8627 -0.1550
 2843SOL     OW19990   0.873   0.015   2.200 -0.7237  0.4878 -0.4044
 2843SOL    HW119991   0.798   4.680   2.206  0.8703 -1.8670 -2.8727
 2843SOL    HW219992   0.831   0.099   2.181 -1.3407  0.1095 -0.7182
 2844SOL     OW19993   4.159   0.606   7.907 -0.1101 -0.5170 -0.0793
 2844SOL    HW119994   4.146   0.697   7.936  0.5887 -0.7130  0.8380
 2844SOL    HW219995   4.108   0.570   7.979  0.9766  1.5555  1.7141
 2845SOL     OW19996   4.538   0.400   7.173  0.3203  0.2487 -0.6416
 2845SOL    HW119997   4.506   0.402   7.264 -0.6916 -1.8679 -0.9527
 2845SOL    HW219998   4.565   0.309   7.163  1.7881  0.9248 -2.6772
 2846SOL     OW19999   3.484   0.009  13.141 -0.1965 -0.3167  0.5687
 2846SOL    HW120000   3.494   4.640  13.164  3.0310 -0.4806 -1.4836
 2846SOL    HW220001   3.515   0.051  13.221 -0.9351 -1.3422  1.3927
 2847SOL     OW20002   0.574   0.348  15.333 -0.2497  0.7662 -0.0788
 2847SOL    HW120003   0.480   0.358  15.344 -0.7055 -2.6949 -1.1933
 2847SOL    HW220004   0.590   0.256  15.315  0.3863  0.6039  1.3328
 2848SOL     OW20005   1.259   3.481   6.012  0.1251  0.9471  0.4445
 2848SOL    HW120006   1.230   3.442   5.929 -0.6240  0.8560  0.7473
 2848SOL    HW220007   1.244   3.404   6.067 -0.8177  1.6839  1.2132
 2849SOL     OW20008   0.805   2.173   6.376 -0.2567 -0.8838 -0.2681
 2849SOL    HW120009   0.861   2.104   6.412  0.4104 -0.6724 -0.9084
 2849SOL    HW220010   0.790   2.228   6.453  2.4409 -0.9932  0.3630
 2850SOL     OW20011   1.310   1.825  14.998  0.6811 -0.3560 -0.5117
 2850SOL    HW120012   1.359   1.743  15.005 -1.2378 -1.3961  0.7406
 2850SOL    HW220013   1.375   1.883  14.958  1.6277  0.1073  1.6966
 2851SOL     OW20014   0.725   0.839   4.583  0.9760  0.1632  0.3776
 2851SOL    HW120015   0.724   0.755   4.538 -0.6211 -0.0653  0.8117
 2851SOL    HW220016   0.647   0.836   4.639 -0.4181  1.7318 -1.4504
 2852SOL     OW20017   1.340   2.300  12.646 -0.2088 -0.1341 -0.4980
 2852SOL    HW120018   1.335   2.276  12.739 -0.3180  0.6281 -0.3066
 2852SOL    HW220019   1.378   2.386  12.662 -0.0848 -0.2192 -0.3337
 2853SOL     OW20020   0.840   4.065   5.392 -0.2970 -0.1545 -0.5036
 2853SOL    HW120021   0.767   4.004   5.400  1.5341 -2.2287  0.6559
 2853SOL    HW220022   0.812   4.143   5.439 -0.8115 -1.3313  1.1362
 2854SOL     OW20023   3.029   0.776   7.877  0.1893  0.5222 -0.9824
 2854SOL    HW120024   2.952   0.720   7.874  0.1758  0.4144  2.0304
 2854SOL    HW220025   3.043   0.778   7.971 -1.8161 -0.4890 -0.6637
 2855SOL     OW20026   0.339   2.001   1.723  0.2679 -0.0824 -0.4235
 2855SOL    HW120027   0.271   1.935   1.733 -0.5966  0.3994 -3.1940
 2855SOL    HW220028   0.392   1.965   1.651  0.4685  1.0033 -0.8193
 2856SOL     OW20029   2.487   2.451   4.549  0.4952  0.2136  0.3330
 2856SOL    HW120030   2.529   2.523   4.502  0.7914 -1.2298 -1.6364
 2856SOL    HW220031   2.546   2.380   4.524  0.5156 -0.8611  3.4259
 2857SOL     OW20032   2.769   3.832   6.109  0.0757  0.6229  0.4857
 2857SOL    HW120033   2.805   3.836   6.197  1.9108 -0.9444 -0.1892
 2857SOL    HW220034   2.804   3.916   6.077  1.5724 -0.8427 -1.7140
 2858SOL     OW20035   4.160   0.791   6.343  0.3005  0.6214  0.0099
 2858SOL    HW120036   4.082   0.736   6.344  1.4629 -1.0226  0.1457
 2858SOL    HW220037   4.218   0.733   6.392  0.7859 -0.2519 -1.5998
 2859SOL     OW20038   2.741   3.758   9.199 -0.3507  0.8686 -0.0212
 2859SOL    HW120039   2.703   3.707   9.270 -0.2274 -0.6256 -1.0203
 2859SOL    HW220040   2.658   3.797   9.172  0.0298  0.5529 -1.6227
 2860SOL     OW20041   2.766   4.257   9.671 -0.5943 -0.4378  0.4171
 2860SOL    HW120042   2.743   4.240   9.580  3.6077 -0.3743 -0.6330
 2860SOL    HW220043   2.860   4.241   9.668 -0.6405 -0.5258 -0.5122
 2861SOL     OW20044   2.814   0.517   6.463 -0.4381  0.8343  0.0166
 2861SOL    HW120045   2.778   0.462   6.393 -2.0987  1.5635  0.2935
 2861SOL    HW220046   2.793   0.467   6.543 -0.3588 -0.4150 -0.7369
 2862SOL     OW20047   4.222   2.183   5.839  0.1730  0.8845  0.0027
 2862SOL    HW120048   4.205   2.177   5.745 -0.0272  2.5835 -0.0686
 2862SOL    HW220049   4.164   2.257   5.858 -1.8137 -0.9413  1.1326
 2863SOL     OW20050   0.933   1.458   4.284  0.5959 -0.8098  0.4782
 2863SOL    HW120051   0.942   1.527   4.219 -1.4037 -0.3910  0.6458
 2863SOL    HW220052   0.863   1.403   4.248 -0.7178  0.3823  1.1857
 2864SOL     OW20053   3.562   3.888   3.372  0.1047  0.0335  0.0803
 2864SOL    HW120054   3.536   3.872   3.463  4.1757 -0.2210  1.2248
 2864SOL    HW220055   3.653   3.919   3.376 -0.1977  0.7627  1.4978
 2865SOL     OW20056   1.429   1.376   8.272  0.3691  0.3285 -0.6292
 2865SOL    HW120057   1.484   1.307   8.235  0.6474  0.3513 -0.2667
 2865SOL    HW220058   1.420   1.434   8.197  0.7034 -0.2430 -1.1103
 2866SOL     OW20059   1.718   0.038   5.528 -0.3055  0.0212  0.0353
 2866SOL    HW120060   1.656   0.041   5.601 -3.4876  0.0755 -2.6883
 2866SOL    HW220061   1.790   0.092   5.561 -0.2387  0.8371 -1.4318
 2867SOL     OW20062   0.626   3.434   8.443 -0.3164 -0.1000  0.1224
 2867SOL    HW120063   0.707   3.403   8.483  0.0473  0.8385  0.1302
 2867SOL    HW220064   0.652   3.440   8.351 -0.3241 -1.0236  0.0673
 2868SOL     OW20065   3.293   2.568   8.684 -0.4471  0.3172 -0.4664
 2868SOL    HW120066   3.299   2.653   8.728  0.3624 -0.2981  0.6077
 2868SOL    HW220067   3.319   2.503   8.749  1.3008  1.9458  0.4803
 2869SOL     OW20068   3.357   3.711   8.677 -0.2248  0.1319 -0.3556
 2869SOL    HW120069   3.272   3.748   8.655 -0.3356  0.2007  0.1887
 2869SOL    HW220070   3.342   3.690   8.769 -0.7527 -0.1854 -0.5124
 2870SOL     OW20071   1.449   4.523   8.996 -0.5654 -0.1436 -0.2995
 2870SOL    HW120072   1.354   4.539   8.992 -0.3128  1.0860 -1.3371
 2870SOL    HW220073   1.480   4.570   9.074 -2.1461  1.1310 -0.4342
 2871SOL     OW20074   4.243   2.409   8.419  0.5211  0.3355 -0.1384
 2871SOL    HW120075   4.179   2.451   8.362 -1.4134 -1.8518  0.4213
 2871SOL    HW220076   4.324   2.428   8.373  1.1579  1.8310  1.5568
 2872SOL     OW20077   0.090   3.470   5.973 -0.2203  0.1642 -0.3247
 2872SOL    HW120078   0.132   3.436   6.052  0.6945 -0.3280 -1.0156
 2872SOL    HW220079   0.090   3.398   5.910  0.8349  0.5428 -0.7685
 2873SOL     OW20080   1.443   1.619   8.144  0.0190 -0.0079  0.2128
 2873SOL    HW120081   1.501   1.610   8.069  1.0889  0.9261  0.9390
 2873SOL    HW220082   1.467   1.709   8.165 -0.3083  0.6519 -2.2870
 2874SOL     OW20083   4.397   2.485  13.296  0.4600  0.2720 -0.2581
 2874SOL    HW120084   4.391   2.472  13.391  2.2324  0.3639 -0.1263
 2874SOL    HW220085   4.387   2.580  13.303 -0.9265  0.1364 -0.4690
 2875SOL     OW20086   0.422   1.607   1.743 -0.4849 -0.3903 -0.1263
 2875SOL    HW120087   0.438   1.673   1.810  1.3800 -0.6994 -0.2736
 2875SOL    HW220088   0.511   1.592   1.712 -0.3630 -2.8004  1.4476
 2876SOL     OW20089   4.088   2.827   8.557 -0.5087 -0.2422 -0.0499
 2876SOL    HW120090   4.079   2.906   8.503 -1.0673 -1.5582 -1.8374
 2876SOL    HW220091   4.173   2.851   8.594 -0.9047 -1.2524  1.5320
 2877SOL     OW20092   0.951   2.981   5.474  0.4383  0.6159  0.1830
 2877SOL    HW120093   0.920   3.071   5.485  1.1519  0.8241  0.5383
 2877SOL    HW220094   0.884   2.955   5.411 -0.0162  0.0055  0.9138
 2878SOL     OW20095   3.745   4.180   5.620 -0.5762  0.0575  0.0702
 2878SOL    HW120096   3.821   4.218   5.577 -0.0265  1.6969  2.5270
 2878SOL    HW220097   3.746   4.234   5.699 -0.6415  0.9123 -0.5115
 2879SOL     OW20098   2.475   1.795   9.041  0.7704 -0.1969 -0.1850
 2879SOL    HW120099   2.465   1.839   9.126  1.2771 -1.0336  0.3037
 2879SOL    HW220100   2.534   1.856   8.996  0.9107  0.6803  1.1827
 2880SOL     OW20101   2.247   4.217   6.634  0.1471  0.2033  0.8537
 2880SOL    HW120102   2.208   4.131   6.652 -1.4390  0.4012 -1.7546
 2880SOL    HW220103   2.202   4.276   6.695  0.2944  2.0230 -0.8200
 2881SOL     OW20104   3.238   3.145   0.854  0.5045 -0.0574 -0.3431
 2881SOL    HW120105   3.228   3.238   0.873  0.7803 -0.0507 -0.2347
 2881SOL    HW220106   3.213   3.113   0.940 -0.5338  3.3504  0.6338
 2882SOL     OW20107   2.239   3.384   8.013  0.2145 -0.6068  0.4567
 2882SOL    HW120108   2.216   3.468   7.973  1.6398  0.3397  1.6049
 2882SOL    HW220109   2.205   3.406   8.099 -0.7920  2.0312 -0.6028
 2883SOL     OW20110   2.324   1.374   5.122 -0.2862  0.0762 -0.3175
 2883SOL    HW120111   2.252   1.430   5.153 -2.0552 -0.7528 -2.9314
 2883SOL    HW220112   2.369   1.439   5.068 -1.6122  0.4333 -1.0095
 2884SOL     OW20113   0.669   0.795   2.888  0.1445 -0.0301 -0.2150
 2884SOL    HW120114   0.759   0.764   2.885 -0.1562 -1.0772  1.5771
 2884SOL    HW220115   0.679   0.886   2.860  0.8938 -0.0813 -0.1144
 2885SOL     OW20116   0.361   4.211  16.000 -0.4546  0.3492 -0.1910
 2885SOL    HW120117   0.437   4.215  15.942  2.4154 -2.4957  3.3482
 2885SOL    HW220118   0.332   4.302  16.005  1.1491  0.8406  0.1463
 2886SOL     OW20119   0.512   4.059   9.708  0.0423 -0.6859 -0.2093
 2886SOL    HW120120   0.455   3.982   9.699 -1.4274  0.4101 -0.2226
 2886SOL    HW220121   0.484   4.085   9.796  1.9895 -1.0350  0.5119
 2887SOL     OW20122   0.865   3.172   4.649  0.8846  0.2756  0.8264
 2887SOL    HW120123   0.813   3.213   4.719  0.0137 -0.7109  0.7586
 2887SOL    HW220124   0.950   3.180   4.692  0.4026 -1.1992  2.0736
 2888SOL     OW20125   4.110   0.459  16.964 -0.1419 -0.1025 -0.1472
 2888SOL    HW120126   4.022   0.490  16.982 -0.3368 -1.6601  1.5856
 2888SOL    HW220127   4.118   0.378  17.015 -0.6037 -0.3139 -0.4117
 2889SOL     OW20128   2.360   2.483  11.343 -0.0253 -0.4541  0.9712
 2889SOL    HW120129   2.387   2.395  11.316  0.7474  0.4391 -1.2257
 2889SOL    HW220130   2.338   2.484  11.436  0.5729  0.0194  1.1113
 2890SOL     OW20131   4.474   3.403   4.062 -0.0200  0.4646 -0.2089
 2890SOL    HW120132   4.494   3.325   4.114  1.8124  0.8904 -0.2817
 2890SOL    HW220133   4.382   3.392   4.038  0.4569  0.3292 -1.9736
 2891SOL     OW20134   1.191   4.342   5.276 -0.4862  0.1174  0.1677
 2891SOL    HW120135   1.220   4.327   5.366  1.8614  0.8206 -0.4576
 2891SOL    HW220136   1.118   4.403   5.287 -0.8345 -0.4334  0.8757
 2892SOL     OW20137   0.246   4.208   4.367  0.2877  0.3041 -0.4575
 2892SOL    HW120138   0.223   4.219   4.275  0.6925  0.3604 -0.5528
 2892SOL    HW220139   0.320   4.265   4.349  0.5376 -0.2002 -1.0239
 2893SOL     OW20140   1.022   3.486   1.025  1.2191 -0.3876  0.1161
 2893SOL    HW120141   1.033   3.451   1.114 -1.8490  0.9213  1.0284
 2893SOL    HW220142   0.936   3.446   1.008  1.1907 -0.6130  0.7539
 2894SOL     OW20143   1.020   2.431   5.357 -0.0884  0.2516 -0.7500
 2894SOL    HW120144   0.933   2.391   5.360 -0.5540  1.3709  1.2892
 2894SOL    HW220145   0.997   2.523   5.347  2.0391  1.2791  3.5345
 2895SOL     OW20146   3.419   3.080   9.712 -0.3780  0.6693 -0.8189
 2895SOL    HW120147   3.447   3.034   9.791 -0.5538 -1.6690 -2.1198
 2895SOL    HW220148   3.386   3.005   9.662  0.6934 -0.5243  0.2869
 2896SOL     OW20149   4.651   2.875   4.118 -0.0872  0.9404  0.6460
 2896SOL    HW120150   4.571   2.860   4.168  0.0663  0.9739  0.9040
 2896SOL    HW220151   4.707   2.808   4.158 -0.2709 -1.1683 -2.6425
 2897SOL     OW20152   1.406   4.322  16.474 -0.1765  0.4104  0.7275
 2897SOL    HW120153   1.404   4.417  16.476 -0.2856  0.3890  1.3411
 2897SOL    HW220154   1.502   4.312  16.474 -0.5118 -3.1484 -0.9884
 2898SOL     OW20155   3.354   4.711   4.326  0.1684  0.1353 -0.1770
 2898SOL    HW120156   3.309   0.070   4.343 -1.8312 -1.3921  2.0111
 2898SOL    HW220157   3.384   4.716   4.235  0.6455  2.2697  0.1036
 2899SOL     OW20158   2.726   0.977   5.394 -0.3129 -0.0499 -0.2439
 2899SOL    HW120159   2.800   0.917   5.385 -0.4990 -0.6065  1.9392
 2899SOL    HW220160   2.725   0.996   5.487 -1.0011 -2.3218  0.2309
 2900SOL     OW20161   3.722   1.692  16.809  0.2536  0.2921 -0.3233
 2900SOL    HW120162   3.642   1.695  16.757  0.6962  1.0736 -0.9684
 2900SOL    HW220163   3.774   1.756  16.761  2.4803 -0.4520  1.0553
 2901SOL     OW20164   2.753   2.472  11.223  0.1679  0.1436 -0.4787
 2901SOL    HW120165   2.834   2.522  11.221 -0.7757  1.6095 -1.8303
 2901SOL    HW220166   2.758   2.425  11.140  0.3305 -0.9171  0.1336
 2902SOL     OW20167   4.173   4.160   2.844 -0.1884  0.4339  0.1011
 2902SOL    HW120168   4.118   4.182   2.768  1.4897  1.8847 -0.6841
 2902SOL    HW220169   4.258   4.195   2.818  0.0009 -0.9080 -1.1201
 2903SOL     OW20170   2.722   1.748   9.438  0.2046 -0.0628 -0.6316
 2903SOL    HW120171   2.781   1.673   9.428  0.9543  0.3547  0.6454
 2903SOL    HW220172   2.744   1.799   9.360 -2.2795  2.8158  0.5321
 2904SOL     OW20173   1.039   1.497   9.967  0.3252  0.5352  0.0138
 2904SOL    HW120174   1.034   1.405   9.944  1.5415  0.3017  0.7027
 2904SOL    HW220175   1.082   1.499  10.053 -0.4271 -1.7190  0.4381
 2905SOL     OW20176   4.666   0.119   3.412  0.9782 -0.6158  0.2495
 2905SOL    HW120177   0.021   0.108   3.467  1.7886 -0.1165 -0.8025
 2905SOL    HW220178   4.697   0.067   3.338 -0.3513 -1.8279  0.5653
 2906SOL     OW20179   3.930   2.040   5.618 -0.0748 -0.2650  0.3074
 2906SOL    HW120180   3.870   2.064   5.547  0.9611  0.6318 -0.2697
 2906SOL    HW220181   3.884   2.079   5.692 -1.0620 -1.6293  0.4032
 2907SOL     OW20182   0.177   0.531  11.970 -0.3283  0.6083  0.1268
 2907SOL    HW120183   0.252   0.578  11.935  1.1000 -1.5111  0.3167
 2907SOL    HW220184   0.137   0.505  11.886  0.8392 -3.3829  0.7951
 2908SOL     OW20185   0.650   4.498   7.134  0.2853  0.1354  0.4769
 2908SOL    HW120186   0.721   4.455   7.086 -1.2391 -0.2017 -1.4475
 2908SOL    HW220187   0.698   4.521   7.214  1.3434 -3.1869  0.7770
 2909SOL     OW20188   2.298   1.009   7.805  0.8585  0.4746  0.0813
 2909SOL    HW120189   2.273   1.092   7.846  1.7669  0.2000  1.1936
 2909SOL    HW220190   2.354   1.038   7.734 -0.7240 -0.5515 -1.6036
 2910SOL     OW20191   1.943   1.548   5.006  0.5256 -0.5331 -0.4775
 2910SOL    HW120192   1.866   1.528   5.059 -1.0441  0.4838 -2.3889
 2910SOL    HW220193   1.928   1.495   4.928 -2.0326 -0.7085  0.1299
 2911SOL     OW20194   2.327   4.535   9.268 -0.6422 -0.0394  0.1598
 2911SOL    HW120195   2.407   4.586   9.282 -1.6133  1.0620  1.6176
 2911SOL    HW220196   2.262   4.604   9.275 -2.1232 -1.1450 -2.6773
 2912SOL     OW20197   1.245   0.156   8.973  0.4931 -0.0071 -0.4525
 2912SOL    HW120198   1.264   0.188   9.061  1.1202  0.6306 -0.8140
 2912SOL    HW220199   1.242   0.068   9.008 -0.9724  0.5377  0.7677
 2913SOL     OW20200   1.693   4.431   4.316  0.0617 -0.4131  0.6272
 2913SOL    HW120201   1.754   4.358   4.324  0.2572 -0.5298 -1.9416
 2913SOL    HW220202   1.620   4.388   4.362 -0.0780 -2.1540 -1.2139
 2914SOL     OW20203   3.997   4.246  16.768  0.0396 -0.0294 -0.0606
 2914SOL    HW120204   3.911   4.224  16.731 -1.0723  1.9155  1.3809
 2914SOL    HW220205   4.064   4.195  16.722 -0.7915 -1.7673  0.6658
 2915SOL     OW20206   2.208   3.707   7.633 -0.8465  1.0560  0.0420
 2915SOL    HW120207   2.194   3.660   7.550 -2.0375  0.2181  0.7171
 2915SOL    HW220208   2.279   3.766   7.609  1.6298 -2.3327 -0.9874
 2916SOL     OW20209   1.281   3.351  11.450 -0.5816  0.1995  0.6655
 2916SOL    HW120210   1.288   3.257  11.434  0.9681  0.1697  1.5619
 2916SOL    HW220211   1.326   3.396  11.379  0.5314 -2.9416 -0.5932
 2917SOL     OW20212   1.396   2.797  17.506  0.2062 -0.8359  0.1099
 2917SOL    HW120213   1.421   2.706  17.522  0.1462 -0.7158  0.9138
 2917SOL    HW220214   1.308   2.780  17.472 -0.1122  2.7096 -0.8748
 2918SOL     OW20215   1.531   4.138   2.550  0.1905  0.0997 -0.3495
 2918SOL    HW120216   1.622   4.107   2.546 -0.2029 -1.2738  1.4572
 2918SOL    HW220217   1.509   4.136   2.643 -0.6834 -1.1937 -0.5854
 2919SOL     OW20218   0.018   2.786  11.090  0.1515 -0.1461 -0.1944
 2919SOL    HW120219   0.024   2.879  11.109  4.0293 -0.2074 -1.0663
 2919SOL    HW220220   4.666   2.794  11.033  0.7861  1.9943 -0.7378
 2920SOL     OW20221   2.797   1.284  13.484 -0.2858 -0.3503 -0.3636
 2920SOL    HW120222   2.863   1.228  13.524 -0.1251 -0.3304 -0.6022
 2920SOL    HW220223   2.767   1.334  13.560  0.6877 -0.6240  0.1922
 2921SOL     OW20224   3.128   0.484   6.244 -0.2636  0.0408  0.5065
 2921SOL    HW120225   3.098   0.453   6.159 -0.3381 -0.3936  0.6963
 2921SOL    HW220226   3.089   0.412   6.292  0.5753 -1.6592 -1.3742
 2922SOL     OW20227   3.177   3.850  14.956  0.0529 -0.0835 -0.4986
 2922SOL    HW120228   3.101   3.877  15.007 -0.0367  0.0824 -0.7184
 2922SOL    HW220229   3.140   3.768  14.922  0.6810 -0.8032  0.5492
 2923SOL     OW20230   3.068   1.526   4.542  0.1515  0.1468  0.0494
 2923SOL    HW120231   3.074   1.436   4.574  0.0966 -0.3098 -1.2010
 2923SOL    HW220232   3.150   1.523   4.493  1.3224  4.2357  1.7553
 2924SOL     OW20233   0.479   1.192   6.345  0.1625  0.0810 -0.2721
 2924SOL    HW120234   0.543   1.138   6.392 -0.5018 -2.2991 -2.1371
 2924SOL    HW220235   0.517   1.279   6.359  3.6195 -2.0054  3.4521
 2925SOL     OW20236   3.074   4.618   7.895 -0.0797 -0.3855  0.0815
 2925SOL    HW120237   3.165   4.590   7.901  0.5003  1.9312  1.6748
 2925SOL    HW220238   3.085   4.708   7.924 -1.4013  0.5863 -2.3656
 2926SOL     OW20239   0.106   0.619   3.741  0.0127 -0.3430 -0.1934
 2926SOL    HW120240   0.178   0.557   3.734 -0.1053 -0.4891 -0.1218
 2926SOL    HW220241   0.084   0.636   3.650 -2.3013 -2.1332  0.0350
 2927SOL     OW20242   3.553   2.543  10.227 -0.0801 -0.5121 -0.1525
 2927SOL    HW120243   3.573   2.463  10.277  1.6029  0.3566  0.5466
 2927SOL    HW220244   3.539   2.516  10.137  1.2539  0.8749 -0.7720
 2928SOL     OW20245   3.623   2.048   5.010  0.0947  0.2830  0.5468
 2928SOL    HW120246   3.622   1.952   5.019  0.7344  0.1855 -0.3844
 2928SOL    HW220247   3.718   2.061   5.015  0.4265 -1.5773 -0.8508
 2929SOL     OW20248   2.170   2.836  13.326 -0.3675  0.3832 -0.3515
 2929SOL    HW120249   2.077   2.863  13.323 -0.0938  1.4309  0.3780
 2929SOL    HW220250   2.180   2.773  13.255 -0.1959 -0.1340  0.1352
 2930SOL     OW20251   3.077   0.637   3.427  0.7318  0.7759 -0.3008
 2930SOL    HW120252   3.031   0.720   3.416 -2.6147 -0.6768  2.4998
 2930SOL    HW220253   3.129   0.636   3.347 -0.2061  0.3367 -0.9086
 2931SOL     OW20254   0.551   3.122  14.998 -0.3028  0.6131 -0.0451
 2931SOL    HW120255   0.571   3.067  15.073 -1.8653  0.3762  0.2077
 2931SOL    HW220256   0.636   3.166  14.991  0.4919 -1.0515 -0.7428
 2932SOL     OW20257   4.349   3.623   8.923 -0.5517 -0.0764 -0.1238
 2932SOL    HW120258   4.336   3.667   9.007  2.2590 -0.3052  0.4339
 2932SOL    HW220259   4.371   3.699   8.869  2.4451 -0.5115  0.5170
 2933SOL     OW20260   1.403   3.550   7.414  0.0968 -0.5014 -0.1777
 2933SOL    HW120261   1.430   3.635   7.379 -2.0751  0.6941  1.0331
 2933SOL    HW220262   1.491   3.514   7.402 -0.0638  0.1389 -3.2383
 2934SOL     OW20263   0.430   0.098  14.013  0.3016  0.0808  0.2153
 2934SOL    HW120264   0.477   0.016  14.007  0.3459  0.2395 -1.5647
 2934SOL    HW220265   0.340   0.067  14.001  0.1692  1.0576 -1.3370
 2935SOL     OW20266   3.256   3.915   8.879 -0.8252  0.8549  0.6144
 2935SOL    HW120267   3.253   3.840   8.939 -1.1743  0.7586  0.4750
 2935SOL    HW220268   3.297   3.976   8.941 -0.7184  1.5303 -0.1149
 2936SOL     OW20269   3.902   4.092   1.191  0.1106  0.6175  0.2295
 2936SOL    HW120270   3.922   4.000   1.169  1.3507  0.9290  0.0428
 2936SOL    HW220271   3.889   4.090   1.285 -0.7921 -0.6386  0.0805
 2937SOL     OW20272   1.853   4.374   0.991  0.1139  0.0848  0.2654
 2937SOL    HW120273   1.922   4.333   1.043  0.3100 -0.5421 -0.4824
 2937SOL    HW220274   1.783   4.370   1.057 -0.4553 -0.6321 -0.3775
 2938SOL     OW20275   0.942   0.495   7.318 -0.5886 -0.3085 -0.2106
 2938SOL    HW120276   0.849   0.517   7.313 -0.7257 -0.6738  0.7164
 2938SOL    HW220277   0.991   0.577   7.325 -1.5656  0.1956  0.6183
 2939SOL     OW20278   4.081   4.184   3.107  0.3171  0.2720  0.0335
 2939SOL    HW120279   3.997   4.142   3.088  1.5605 -2.1876  0.0341
 2939SOL    HW220280   4.121   4.170   3.021 -0.7402  1.0847 -0.5965
 2940SOL     OW20281   3.980   2.665  16.420  0.3558  0.5148  0.1448
 2940SOL    HW120282   3.902   2.653  16.475  1.0410 -0.4690  0.8977
 2940SOL    HW220283   3.957   2.747  16.378 -1.5686  0.8789  1.9230
 2941SOL     OW20284   0.405   0.720  15.952  0.1127  0.2334 -0.2804
 2941SOL    HW120285   0.323   0.713  16.000  1.7679  0.7304  2.6640
 2941SOL    HW220286   0.391   0.670  15.872  0.0385  0.2859 -0.3007
 2942SOL     OW20287   2.706   3.809   4.167 -0.0933 -0.9842  0.1763
 2942SOL    HW120288   2.643   3.747   4.204 -2.2075  0.6215 -0.7474
 2942SOL    HW220289   2.710   3.882   4.230 -1.0703 -0.4891 -0.3294
 2943SOL     OW20290   1.254   2.204   9.311  0.5940 -0.5010 -0.0745
 2943SOL    HW120291   1.196   2.261   9.261 -1.6010 -1.3291  1.5348
 2943SOL    HW220292   1.184   2.153   9.351  0.9170 -0.3300  0.7067
 2944SOL     OW20293   2.549   4.595   2.036 -0.3494  0.2207 -0.6410
 2944SOL    HW120294   2.564   4.523   1.975  0.7308 -0.9918  1.0279
 2944SOL    HW220295   2.539   4.670   1.978 -1.6893  0.2692 -0.3518
 2945SOL     OW20296   2.354   0.740  16.549  0.2332  0.2894 -0.2791
 2945SOL    HW120297   2.329   0.787  16.470 -0.5741 -0.6662 -0.5974
 2945SOL    HW220298   2.373   0.654  16.510  1.3435  0.3826  0.0498
 2946SOL     OW20299   0.375   2.125   7.133  0.4293 -0.2732 -0.2249
 2946SOL    HW120300   0.421   2.206   7.154 -2.1979  1.0293  0.5312
 2946SOL    HW220301   0.306   2.122   7.199  0.8839 -1.8272  0.1907
 2947SOL     OW20302   0.846   3.172   9.124  0.2165  0.6251  0.4890
 2947SOL    HW120303   0.884   3.116   9.191 -1.1604 -0.4621  0.3647
 2947SOL    HW220304   0.918   3.234   9.111  0.7737 -0.0434  0.4057
 2948SOL     OW20305   3.537   3.466   5.363 -0.4417 -0.2911 -0.2507
 2948SOL    HW120306   3.519   3.428   5.277  0.1208  0.5070 -0.7265
 2948SOL    HW220307   3.512   3.403   5.430  2.8729 -0.9899  0.3538
 2949SOL     OW20308   1.545   3.816  11.087 -0.6832  0.0567  0.0871
 2949SOL    HW120309   1.479   3.748  11.075  1.4414 -1.7271 -1.5078
 2949SOL    HW220310   1.537   3.880  11.016  0.1884  0.2267  0.1504
 2950SOL     OW20311   3.755   3.047   6.475  0.0411 -0.3924  0.1041
 2950SOL    HW120312   3.827   3.106   6.451 -0.9236  0.5796 -0.3702
 2950SOL    HW220313   3.726   3.084   6.559  1.5344 -1.2904  1.0273
 2951SOL     OW20314   3.965   1.327   3.825 -0.3271 -0.1351  0.4266
 2951SOL    HW120315   3.926   1.286   3.747 -2.1100  2.8947 -0.2906
 2951SOL    HW220316   4.053   1.292   3.816 -1.1252 -1.8786 -0.7540
 2952SOL     OW20317   1.352   2.901   1.561  0.5844  0.1483  0.6156
 2952SOL    HW120318   1.326   2.836   1.626  0.2085  0.0188  0.3319
 2952SOL    HW220319   1.335   2.860   1.476  1.6510  1.0551 -0.0505
 2953SOL     OW20320   4.391   0.545   2.850  0.0256 -0.3344  0.0903
 2953SOL    HW120321   4.465   0.605   2.862 -0.2779 -0.1863  1.2333
 2953SOL    HW220322   4.423   0.498   2.773 -0.6280 -1.4520  0.5002
 2954SOL     OW20323   3.051   4.032   4.611  0.1051  0.5906  1.0430
 2954SOL    HW120324   3.090   3.956   4.654  0.1651  0.2680  0.4115
 2954SOL    HW220325   2.967   4.037   4.656 -1.0292  1.2274 -1.1303
 2955SOL     OW20326   4.001   1.821   8.261  1.0018  0.0230  0.0327
 2955SOL    HW120327   3.961   1.735   8.254 -0.0001  0.4305  0.9038
 2955SOL    HW220328   4.052   1.804   8.340  0.2976  1.1671  0.7384
 2956SOL     OW20329   2.872   3.019   3.237  0.1063 -0.1361 -0.3586
 2956SOL    HW120330   2.847   3.085   3.302 -1.3022 -0.9847 -0.0523
 2956SOL    HW220331   2.918   3.078   3.177  0.2420 -0.5276 -0.6407
 2957SOL     OW20332   4.617   1.400  13.861  0.0417 -0.5386 -0.2427
 2957SOL    HW120333   4.617   1.387  13.767  0.0957 -0.3006 -0.2762
 2957SOL    HW220334   4.526   1.399  13.889  1.4622 -2.7763  4.3700
 2958SOL     OW20335   1.601   3.824   2.711  0.7900  0.1040  1.2052
 2958SOL    HW120336   1.672   3.855   2.654  0.3748 -2.0395 -0.4724
 2958SOL    HW220337   1.636   3.843   2.798  2.0644 -2.4977  1.2480
 2959SOL     OW20338   1.784   0.455   5.292 -0.5977 -0.3636  0.1629
 2959SOL    HW120339   1.774   0.431   5.384  0.3883 -2.4834 -0.2680
 2959SOL    HW220340   1.849   0.394   5.256 -1.2925 -0.2417 -1.2735
 2960SOL     OW20341   4.095   2.461   0.796  0.0956 -0.2627  0.1210
 2960SOL    HW120342   4.044   2.537   0.769  3.1124  1.7947  0.2517
 2960SOL    HW220343   4.025   2.407   0.834  1.6125  0.0806  3.4053
 2961SOL     OW20344   1.197   0.953   7.413 -0.4142 -0.0990  0.3891
 2961SOL    HW120345   1.143   1.020   7.455  0.8664  0.6587  0.8248
 2961SOL    HW220346   1.135   0.880   7.414  0.3789 -0.7684  0.7248
 2962SOL     OW20347   0.671   3.542   1.193 -0.2205  0.1244  0.2688
 2962SOL    HW120348   0.580   3.533   1.163  0.5606 -2.9940 -1.1663
 2962SOL    HW220349   0.710   3.500   1.116 -0.6621  1.7665 -0.8709
 2963SOL     OW20350   0.913   3.756   2.092  0.0755 -0.6166  0.2697
 2963SOL    HW120351   0.970   3.759   2.169 -1.8059 -2.0700  1.7226
 2963SOL    HW220352   0.962   3.686   2.049 -0.9772 -2.1329  1.4774
 2964SOL     OW20353   3.467   4.664   2.661  0.0053  0.2117  0.3084
 2964SOL    HW120354   3.512   4.647   2.578 -1.7784 -0.0812 -0.6087
 2964SOL    HW220355   3.460   0.036   2.667 -0.1078  0.1671  0.8504
 2965SOL     OW20356   4.179   4.476   3.711  0.2552 -0.1400 -0.0094
 2965SOL    HW120357   4.137   4.522   3.784 -0.8997  0.6559 -1.1838
 2965SOL    HW220358   4.270   4.481   3.740  0.4771 -0.5627 -0.6309
 2966SOL     OW20359   2.133   4.253  16.546 -0.4499 -0.2494 -0.8053
 2966SOL    HW120360   2.081   4.328  16.573  0.2072  0.1846 -0.7562
 2966SOL    HW220361   2.078   4.206  16.482 -2.1127  0.0487  0.4020
 2967SOL     OW20362   4.539   3.389   4.412 -0.2458  0.0511  0.1127
 2967SOL    HW120363   4.509   3.424   4.495 -1.1068 -1.5449  0.4757
 2967SOL    HW220364   4.629   3.365   4.434 -0.7363  0.1167  2.1477
 2968SOL     OW20365   0.880   3.747   7.278  0.0583  0.0327  0.2147
 2968SOL    HW120366   0.788   3.754   7.254 -0.0359  1.2871  0.9563
 2968SOL    HW220367   0.916   3.682   7.218 -1.3394 -0.2384 -0.3378
 2969SOL     OW20368   1.977   0.305   4.528 -0.0879 -0.0501  0.1433
 2969SOL    HW120369   2.054   0.259   4.494 -0.0816  0.1116 -0.0630
 2969SOL    HW220370   1.992   0.291   4.621 -2.9933 -0.4684  0.5360
 2970SOL     OW20371   0.166   4.284   5.083  0.2946  0.1790 -0.6496
 2970SOL    HW120372   0.071   4.270   5.082  0.1388  1.3060 -1.3054
 2970SOL    HW220373   0.176   4.365   5.033 -0.3710  0.5631 -0.1608
 2971SOL     OW20374   0.477   0.935  17.495 -0.1876  0.2539 -0.3669
 2971SOL    HW120375   0.532   0.887  17.557  1.0327  1.6822 -0.3465
 2971SOL    HW220376   0.418   0.971  17.562  0.8077 -1.0119  1.2126
 2972SOL     OW20377   2.137   4.337   4.867 -0.1581 -0.0648 -0.3388
 2972SOL    HW120378   2.063   4.342   4.806  0.8749  0.5905 -1.5249
 2972SOL    HW220379   2.120   4.394   4.943 -3.7590  0.5231 -1.5583
 2973SOL     OW20380   4.160   3.493   3.823  0.0658  0.7162  0.3394
 2973SOL    HW120381   4.111   3.411   3.819  3.8916 -1.4162 -1.5995
 2973SOL    HW220382   4.176   3.505   3.729  2.3552 -3.4082  0.2172
 2974SOL     OW20383   1.616   1.750   7.421  0.3071  0.5285 -0.4811
 2974SOL    HW120384   1.640   1.786   7.506  1.0396 -1.6107  0.2161
 2974SOL    HW220385   1.691   1.702   7.385 -0.2829 -1.6558  1.1880
 2975SOL     OW20386   0.111   3.360   1.833  0.6492 -0.2029 -0.1582
 2975SOL    HW120387   0.126   3.325   1.745 -1.2996 -1.3306 -0.0421
 2975SOL    HW220388   0.140   3.451   1.832  2.6189 -0.8314  0.7369
 2976SOL     OW20389   0.651   0.450   6.231  0.3823 -0.5215  0.6072
 2976SOL    HW120390   0.618   0.495   6.154  0.5341  0.4137  1.0818
 2976SOL    HW220391   0.627   0.361   6.207 -1.6647  0.4155 -0.8484
 2977SOL     OW20392   3.565   0.494   6.385  0.0697  0.1203 -0.0308
 2977SOL    HW120393   3.512   0.418   6.407 -0.0427 -0.3944 -2.0835
 2977SOL    HW220394   3.503   0.566   6.382  0.4359  0.4677  0.8410
 2978SOL     OW20395   2.533   1.597   1.304  0.2397 -0.6860 -0.6054
 2978SOL    HW120396   2.587   1.519   1.318 -1.1548 -1.5004  0.2481
 2978SOL    HW220397   2.603   1.650   1.265  0.3939 -0.3881  0.0738
 2979SOL     OW20398   0.529   2.805   5.642 -0.1000 -0.8036  0.2581
 2979SOL    HW120399   0.592   2.779   5.710 -1.2544 -0.1453  1.5655
 2979SOL    HW220400   0.574   2.883   5.609 -0.8725  0.7422  2.8619
 2980SOL     OW20401   4.657   4.102   8.687 -0.1931  0.0073 -0.1214
 2980SOL    HW120402   4.643   4.077   8.596 -0.8823 -1.5520  0.4197
 2980SOL    HW220403   4.715   4.028   8.704  1.3338  1.0662 -0.6380
 2981SOL     OW20404   0.462   0.938   5.088 -0.3536 -0.3105  0.0735
 2981SOL    HW120405   0.452   0.877   5.161  2.7311 -0.5387  0.2745
 2981SOL    HW220406   0.513   1.002   5.138 -1.2118  0.2846  0.1857
 2982SOL     OW20407   2.870   2.991  11.055 -0.2621  0.2783 -0.1674
 2982SOL    HW120408   2.834   3.028  10.975  1.7257  1.1507 -0.6535
 2982SOL    HW220409   2.936   2.932  11.017  1.4498  1.8450  0.3630
 2983SOL     OW20410   0.813   2.513   2.114 -0.2437 -0.2600 -0.2548
 2983SOL    HW120411   0.830   2.448   2.046 -2.5591  0.4224 -1.4840
 2983SOL    HW220412   0.753   2.471   2.176  3.5297 -0.5931  3.2008
 2984SOL     OW20413   0.770   3.531   0.603 -0.1983 -0.1154 -0.2991
 2984SOL    HW120414   0.787   3.623   0.584 -2.3215 -0.0796 -1.9881
 2984SOL    HW220415   0.776   3.490   0.517  0.2526 -0.7017  0.0101
 2985SOL     OW20416   1.500   1.541   8.615  0.7366  0.4713  0.5093
 2985SOL    HW120417   1.413   1.514   8.588  1.2498 -1.3669  0.7378
 2985SOL    HW220418   1.548   1.484   8.556  1.0354  0.3520  0.8666
 2986SOL     OW20419   3.502   4.297   6.803  0.0259 -0.4501  0.4833
 2986SOL    HW120420   3.449   4.221   6.778 -0.3836  1.4032 -4.1143
 2986SOL    HW220421   3.455   4.369   6.761  0.9021  0.3518  0.8764
 2987SOL     OW20422   0.110   2.154   6.206  0.6422  0.2162  0.1013
 2987SOL    HW120423   0.137   2.063   6.206 -0.2798 -0.0573  0.4995
 2987SOL    HW220424   0.023   2.141   6.243  1.2906  0.9430  1.8960
 2988SOL     OW20425   0.115   1.846   1.809  0.3112 -0.7157 -0.0966
 2988SOL    HW120426   0.069   1.928   1.824  1.5669 -0.0047 -0.1019
 2988SOL    HW220427   0.052   1.812   1.746  0.1347 -0.5159 -0.0278
 2989SOL     OW20428   2.889   0.661   1.185  0.8131  0.5119 -0.0799
 2989SOL    HW120429   2.964   0.721   1.190  0.4562  0.8679  0.9537
 2989SOL    HW220430   2.931   0.583   1.149  1.1888  0.0188  1.4428
 2990SOL     OW20431   2.827   3.842  15.732  0.1975  0.5986 -0.6198
 2990SOL    HW120432   2.881   3.806  15.662 -1.3622 -0.0472 -1.4964
 2990SOL    HW220433   2.844   3.768  15.790 -1.8478 -0.2090 -1.0654
 2991SOL     OW20434   0.371   2.461   3.011  0.5692  0.7714  0.4860
 2991SOL    HW120435   0.411   2.532   3.061 -0.6698  0.8241  1.4198
 2991SOL    HW220436   0.283   2.457   3.050  0.2380  1.5765 -0.1743
 2992SOL     OW20437   0.189   4.178   8.204 -0.1820  0.1165  0.0350
 2992SOL    HW120438   0.150   4.184   8.291  0.4326 -1.0026  0.3949
 2992SOL    HW220439   0.250   4.104   8.211 -1.1156 -0.8408 -1.9318
 2993SOL     OW20440   0.788   1.998   3.156  0.4154 -0.1070 -0.1896
 2993SOL    HW120441   0.768   1.974   3.066 -0.5741  0.6494 -0.1720
 2993SOL    HW220442   0.876   1.963   3.168  0.6827  0.8023  0.5055
 2994SOL     OW20443   1.657   3.111   7.868 -0.1855  0.1280 -0.2420
 2994SOL    HW120444   1.728   3.047   7.863 -0.6182 -0.2486 -1.6629
 2994SOL    HW220445   1.702   3.174   7.923 -0.8926  1.6757 -1.4306
 2995SOL     OW20446   1.486   2.715  15.562  0.0056  0.7542  0.2435
 2995SOL    HW120447   1.401   2.758  15.576 -0.6807 -0.5565  0.1251
 2995SOL    HW220448   1.461   2.622  15.560  0.9208  0.4895  1.2263
 2996SOL     OW20449   2.285   1.618   7.541  0.5219  0.2063  0.5069
 2996SOL    HW120450   2.256   1.597   7.451  1.2437 -1.0834  0.5710
 2996SOL    HW220451   2.352   1.683   7.520  0.1373  0.3695 -0.2387
 2997SOL     OW20452   4.494   0.454  16.761  0.1044 -0.2909  0.2267
 2997SOL    HW120453   4.400   0.443  16.746  0.1058 -0.1038  0.0758
 2997SOL    HW220454   4.523   0.364  16.746  1.8220  0.8307 -3.2400
 2998SOL     OW20455   1.682   3.104  13.915  0.0888 -0.7058 -0.2551
 2998SOL    HW120456   1.744   3.132  13.849 -0.0135  1.5878  0.6288
 2998SOL    HW220457   1.705   3.168  13.982  2.2780 -0.7490 -0.9625
 2999SOL     OW20458   1.801   3.785   5.520 -0.1999 -0.0989 -0.1929
 2999SOL    HW120459   1.881   3.779   5.467 -1.0750 -2.5989 -1.2246
 2999SOL    HW220460   1.824   3.850   5.586  0.6273 -0.2020 -0.3766
 3000SOL     OW20461   3.666   3.902   6.336  0.6449  0.9950 -0.1867
 3000SOL    HW120462   3.709   3.833   6.386 -0.7037  0.0764 -0.2814
 3000SOL    HW220463   3.577   3.866   6.328  0.4326  1.2837  0.7643
 3001SOL     OW20464   3.228   1.017   2.436  0.5589 -0.4352 -0.1365
 3001SOL    HW120465   3.180   1.045   2.358  0.4879 -0.7524 -0.2049
 3001SOL    HW220466   3.312   0.995   2.396  1.0199 -0.6104  0.9048
 3002SOL     OW20467   2.148   1.080   8.640 -0.3676 -0.2321  0.3535
 3002SOL    HW120468   2.053   1.086   8.636 -0.1337  1.4081 -2.2767
 3002SOL    HW220469   2.168   1.170   8.618  1.1511 -0.5700  0.3677
 3003SOL     OW20470   1.518   2.511   7.317 -0.3221  0.1134  0.1576
 3003SOL    HW120471   1.524   2.522   7.412  2.4890  1.7455 -0.2078
 3003SOL    HW220472   1.478   2.593   7.289  1.0200  1.6469  2.7503
 3004SOL     OW20473   2.427   2.414   9.839 -0.3841 -0.1133  0.0393
 3004SOL    HW120474   2.355   2.375   9.791 -0.0517  0.0953 -0.6347
 3004SOL    HW220475   2.391   2.414   9.927  1.9071  0.4587  0.9831
 3005SOL     OW20476   1.725   3.964   3.542 -0.1146  0.0818 -0.3117
 3005SOL    HW120477   1.681   3.890   3.499  3.7587 -1.8319 -1.0253
 3005SOL    HW220478   1.703   4.041   3.490 -1.4607  0.4812  0.8825
 3006SOL     OW20479   2.495   1.424   1.747  0.3329  0.1128  0.4872
 3006SOL    HW120480   2.544   1.493   1.702 -1.4503  0.0918 -1.4730
 3006SOL    HW220481   2.562   1.356   1.750 -0.6434 -0.9304 -1.5851
 3007SOL     OW20482   1.476   2.366  14.494  0.0170  0.3241  0.2623
 3007SOL    HW120483   1.561   2.353  14.450  0.0856 -0.5355  0.6462
 3007SOL    HW220484   1.498   2.364  14.587 -0.0378 -0.5234  0.2623
 3008SOL     OW20485   3.143   3.325  10.117  0.6446 -0.2916  0.1234
 3008SOL    HW120486   3.055   3.295  10.137  1.0080 -1.2915  0.2338
 3008SOL    HW220487   3.180   3.237  10.111  0.3664 -0.3924 -0.0704
 3009SOL     OW20488   4.098   0.792  12.272  0.0048  0.0211  0.6319
 3009SOL    HW120489   4.027   0.838  12.227  0.3026  1.4280  1.5994
 3009SOL    HW220490   4.156   0.861  12.306 -1.4514  0.5391  2.0535
 3010SOL     OW20491   2.966   1.174   0.511 -0.1020  0.1275 -0.2376
 3010SOL    HW120492   2.916   1.150   0.589 -0.3638  2.3098  0.2681
 3010SOL    HW220493   3.017   1.095   0.495 -1.9112 -1.2882  0.9253
 3011SOL     OW20494   4.547   4.555   5.288 -0.1835 -0.4257 -0.9105
 3011SOL    HW120495   4.471   4.537   5.343 -0.7418  0.7334 -1.3099
 3011SOL    HW220496   4.597   4.586   5.363 -1.3625 -0.9235  0.0814
 3012SOL     OW20497   1.001   1.810  15.975 -0.0342 -0.8556 -0.0260
 3012SOL    HW120498   1.092   1.795  16.002 -0.1460 -1.6553 -0.1147
 3012SOL    HW220499   0.949   1.741  16.015  1.1926 -1.4218  0.5974
 3013SOL     OW20500   1.137   3.887   0.447 -0.0751  0.1222 -0.0625
 3013SOL    HW120501   1.193   3.941   0.504 -0.2968  0.7049 -0.3954
 3013SOL    HW220502   1.086   3.960   0.412 -2.0696 -0.1809  2.1932
 3014SOL     OW20503   2.162   0.369  13.310  0.2337 -0.0777  0.8057
 3014SOL    HW120504   2.241   0.372  13.255  0.4851 -1.2097  1.1179
 3014SOL    HW220505   2.097   0.405  13.251  0.4384 -0.6455  0.2377
 3015SOL     OW20506   2.422   0.233   5.280  0.4746 -0.2621 -0.3947
 3015SOL    HW120507   2.518   0.222   5.278  0.2254 -2.4856 -0.0675
 3015SOL    HW220508   2.399   0.259   5.369 -0.0323 -0.7330 -0.3898
 3016SOL     OW20509   1.423   1.451   4.586  0.1580 -0.0825  0.8300
 3016SOL    HW120510   1.406   1.437   4.679  0.2729  1.1394  1.0264
 3016SOL    HW220511   1.507   1.496   4.587 -0.2599  0.6544  1.8704
 3017SOL     OW20512   1.971   0.800  11.043 -0.1366 -0.0557 -0.4363
 3017SOL    HW120513   2.046   0.859  11.053 -2.8439  3.0395  1.5284
 3017SOL    HW220514   1.939   0.847  10.967  0.3661 -2.4877 -2.1409
 3018SOL     OW20515   2.455   3.245   8.781 -0.0112 -0.2406  0.0355
 3018SOL    HW120516   2.436   3.156   8.750 -1.0882  0.0102 -0.0246
 3018SOL    HW220517   2.492   3.291   8.706  2.7945 -0.5162  1.2667
 3019SOL     OW20518   3.439   3.462   7.886 -0.5403  0.6725 -0.3350
 3019SOL    HW120519   3.440   3.456   7.982 -0.4265  3.4375 -0.1432
 3019SOL    HW220520   3.347   3.451   7.862 -0.7461  1.2755  0.1888
 3020SOL     OW20521   0.648   3.827  17.404 -0.1831 -0.2167 -0.5936
 3020SOL    HW120522   0.581   3.892  17.383 -0.1727 -0.2974 -0.8674
 3020SOL    HW220523   0.599   3.745  17.390 -1.0331  0.3292 -0.8265
 3021SOL     OW20524   1.050   1.795   9.360  0.2417  0.3476  0.1920
 3021SOL    HW120525   0.966   1.774   9.318 -0.1459  0.3090  0.9834
 3021SOL    HW220526   1.109   1.736   9.313  1.1531  2.6315 -1.5341
 3022SOL     OW20527   4.312   2.390   9.073 -0.5818  0.3605 -0.3127
 3022SOL    HW120528   4.223   2.411   9.102 -0.9841 -1.7993 -0.0296
 3022SOL    HW220529   4.302   2.318   9.011 -1.4566 -1.3633  1.8275
 3023SOL     OW20530   0.677   3.951   3.197  0.3210  0.1598  0.2576
 3023SOL    HW120531   0.612   3.960   3.267  1.0493  0.3008  0.9118
 3023SOL    HW220532   0.692   4.046   3.189  1.2733  0.0758  1.1350
 3024SOL     OW20533   4.498   0.492   7.453  0.0007  0.0567 -0.0216
 3024SOL    HW120534   4.592   0.505   7.451  0.0163 -0.1444 -0.4245
 3024SOL    HW220535   4.484   0.546   7.532 -1.4406  0.5661 -0.6150
 3025SOL     OW20536   4.577   3.139   9.023 -0.1071  0.2077 -0.0937
 3025SOL    HW120537   4.509   3.168   8.963  0.4664 -0.5345 -1.0994
 3025SOL    HW220538   4.559   3.046   9.008  1.6729  0.0286 -1.0592
 3026SOL     OW20539   4.090   3.906  10.986 -0.5369  0.0042 -0.6930
 3026SOL    HW120540   4.046   3.829  11.024  1.3999 -0.3338  0.8644
 3026SOL    HW220541   4.154   3.923  11.055  0.7407 -2.5151 -1.2502
 3027SOL     OW20542   4.585   1.386  17.087 -0.1504 -0.0431  0.2317
 3027SOL    HW120543   4.639   1.329  17.033  0.8199  0.2394  0.9124
 3027SOL    HW220544   4.523   1.423  17.024 -1.8592 -2.1183  0.6626
 3028SOL     OW20545   0.664   1.628  16.760 -0.3650  0.6183  0.0676
 3028SOL    HW120546   0.703   1.583  16.836  3.0497  2.0402 -0.8481
 3028SOL    HW220547   0.571   1.607  16.768 -0.6236  1.5242 -0.6002
 3029SOL     OW20548   3.144   0.808   4.295  0.9548 -0.1079 -0.2613
 3029SOL    HW120549   3.077   0.874   4.277 -0.2629 -1.3198 -0.1841
 3029SOL    HW220550   3.076   0.742   4.299 -0.4790  1.3171 -1.1466
 3030SOL     OW20551   2.465   3.630  13.764 -0.5394  0.1424 -0.0290
 3030SOL    HW120552   2.385   3.681  13.778 -1.1569 -0.8420 -0.0026
 3030SOL    HW220553   2.452   3.593  13.677  0.9918  0.9830 -0.6073
 3031SOL     OW20554   3.500   4.136   7.318  0.7725 -0.1250  0.8936
 3031SOL    HW120555   3.571   4.195   7.345 -1.1758  3.0521 -0.8959
 3031SOL    HW220556   3.486   4.170   7.229 -1.6707 -0.2956  1.2276
 3032SOL     OW20557   0.919   2.362   7.410  0.3925  0.3825 -0.5196
 3032SOL    HW120558   0.921   2.274   7.450 -1.2669  0.0391 -1.1842
 3032SOL    HW220559   0.981   2.413   7.462  0.3180  1.9971 -2.0332
 3033SOL     OW20560   2.030   2.829   8.155  0.2557  0.2832 -0.3725
 3033SOL    HW120561   2.031   2.735   8.176  0.9419  0.4199  0.1922
 3033SOL    HW220562   2.122   2.826   8.128 -0.1734 -2.4524 -1.5756
 3034SOL     OW20563   1.703   1.313   2.553  0.3127 -0.2225  0.3493
 3034SOL    HW120564   1.650   1.354   2.486  0.9716 -1.9476 -1.2141
 3034SOL    HW220565   1.790   1.320   2.513 -0.5190  1.0795 -1.2199
 3035SOL     OW20566   1.133   0.892  16.890 -0.2229  0.3705 -0.3288
 3035SOL    HW120567   1.211   0.923  16.937  0.8058 -2.0721 -0.4622
 3035SOL    HW220568   1.109   0.815  16.942  0.5512  0.1232 -0.3331
 3036SOL     OW20569   1.392   0.500   4.703  0.3809 -0.0027 -0.1928
 3036SOL    HW120570   1.315   0.459   4.741 -0.2468  0.0214 -1.4272
 3036SOL    HW220571   1.462   0.458   4.753  1.2097  1.5911 -0.0254
 3037SOL     OW20572   0.386   2.816   1.297 -0.2262 -0.1973  0.2595
 3037SOL    HW120573   0.461   2.760   1.315 -1.0985 -2.1800 -2.2227
 3037SOL    HW220574   0.360   2.800   1.206  0.4975  2.0863 -0.3569
 3038SOL     OW20575   0.194   2.931  12.481 -0.0457 -0.5798 -0.0253
 3038SOL    HW120576   0.218   2.850  12.436 -0.9336 -1.1699  0.5655
 3038SOL    HW220577   0.121   2.960  12.426 -1.9358 -1.0276  2.2441
 3039SOL     OW20578   4.491   0.869   8.022 -0.5366  0.3509 -0.5922
 3039SOL    HW120579   4.416   0.810   8.014  0.7056 -1.1635 -1.0145
 3039SOL    HW220580   4.445   0.953   8.024  1.2196  1.3006 -0.3515
 3040SOL     OW20581   3.737   3.565   8.333 -0.2007  0.4779 -0.1030
 3040SOL    HW120582   3.780   3.647   8.360  1.0202  0.7506 -2.8558
 3040SOL    HW220583   3.648   3.576   8.367 -0.1539 -0.8521  0.4348
 3041SOL     OW20584   1.254   3.553   8.864 -0.6068  0.1612 -0.2098
 3041SOL    HW120585   1.323   3.509   8.814  1.1587  1.9585  0.6024
 3041SOL    HW220586   1.283   3.530   8.952  1.2053  1.4718 -0.4432
 3042SOL     OW20587   2.344   4.135   7.954 -0.4447 -0.4935 -1.2023
 3042SOL    HW120588   2.387   4.076   8.017  2.6752  1.2097 -1.7275
 3042SOL    HW220589   2.277   4.082   7.911  0.8969 -1.7633 -1.7143
 3043SOL     OW20590   3.553   1.972   3.690  0.1249 -0.0276 -0.0597
 3043SOL    HW120591   3.616   1.930   3.749 -2.1137 -1.6606  1.1907
 3043SOL    HW220592   3.495   1.901   3.663 -1.1488  1.3197 -0.8417
 3044SOL     OW20593   3.963   2.132   7.213 -0.1099  0.3822 -0.4729
 3044SOL    HW120594   3.966   2.078   7.134  2.0953  1.0037 -0.8326
 3044SOL    HW220595   4.053   2.165   7.221 -1.0444  3.2892 -2.3565
 3045SOL     OW20596   1.017   2.063   5.597 -0.0400  0.1911 -0.3402
 3045SOL    HW120597   0.997   2.078   5.505  0.2623  2.0474 -0.1069
 3045SOL    HW220598   1.110   2.082   5.590 -0.6259  2.6411 -1.3920
 3046SOL     OW20599   4.672   1.709  15.157  0.4609 -0.1410  0.2727
 3046SOL    HW120600   4.713   1.792  15.130 -2.8353  1.3846 -0.0384
 3046SOL    HW220601   4.656   1.663  15.075 -0.3278  0.1903  0.2473
 3047SOL     OW20602   4.386   0.514   8.261 -0.2442 -0.7701 -0.2959
 3047SOL    HW120603   4.313   0.572   8.241 -0.2951 -1.9070 -3.3606
 3047SOL    HW220604   4.342   0.453   8.321 -0.0300 -0.0872  0.5596
 3048SOL     OW20605   3.025   4.430   4.594 -0.4839 -0.0890 -0.2006
 3048SOL    HW120606   2.934   4.424   4.564 -0.1181  2.8288 -1.9127
 3048SOL    HW220607   3.035   4.525   4.589  0.4724 -0.2122 -0.6830
 3049SOL     OW20608   0.638   2.588   8.364 -0.1411  0.8971  0.0214
 3049SOL    HW120609   0.678   2.579   8.277  1.1420  1.6338  0.5379
 3049SOL    HW220610   0.549   2.617   8.344 -0.1357  0.3596 -0.8239
 3050SOL     OW20611   3.167   4.671   5.462 -0.1815  0.3139  0.3615
 3050SOL    HW120612   3.169   4.586   5.416  3.9623  1.3711 -1.3938
 3050SOL    HW220613   3.078   4.670   5.499 -0.5123  0.4978 -0.4257
 3051SOL     OW20614   3.121   0.370   0.603 -0.3394 -0.3901 -0.3262
 3051SOL    HW120615   3.040   0.356   0.553 -1.9426  2.9748  1.2816
 3051SOL    HW220616   3.096   0.347   0.692 -0.5975  0.9730 -0.0427
 3052SOL     OW20617   2.745   2.162  11.271 -0.4231 -0.2690  0.2537
 3052SOL    HW120618   2.749   2.230  11.339  0.3751  0.8390 -0.9042
 3052SOL    HW220619   2.820   2.108  11.298 -0.1252 -0.9047 -1.8880
 3053SOL     OW20620   2.799   0.112   6.807  0.3452 -0.2567 -0.5427
 3053SOL    HW120621   2.775   0.073   6.723 -0.8834 -2.2499  0.7277
 3053SOL    HW220622   2.894   0.127   6.804  0.4598 -0.5002  1.3588
 3054SOL     OW20623   3.661   2.201   4.763  0.6656 -0.2856  0.5520
 3054SOL    HW120624   3.570   2.203   4.734  0.6198  0.3664  0.7555
 3054SOL    HW220625   3.649   2.174   4.854 -2.2116 -0.9998 -0.0149
 3055SOL     OW20626   3.890   1.647   1.650 -0.1716 -0.0870 -0.0521
 3055SOL    HW120627   3.814   1.592   1.670 -0.1474  0.1209  0.6161
 3055SOL    HW220628   3.952   1.630   1.721  0.8975  0.2845 -0.8888
 3056SOL     OW20629   3.915   4.689   6.682  0.1902 -0.2592  0.1603
 3056SOL    HW120630   3.963   4.646   6.753  0.6275 -3.2224 -1.8847
 3056SOL    HW220631   3.968   4.668   6.604  0.6814  1.9888 -0.1192
 3057SOL     OW20632   0.125   1.999  10.588  0.0221  0.7034 -0.0317
 3057SOL    HW120633   0.076   1.978  10.668  0.3818  2.0740  0.5513
 3057SOL    HW220634   0.198   2.046  10.628 -0.5981  1.4396  0.2183
 3058SOL     OW20635   1.179   4.381   4.387  0.2417  0.4134  0.4688
 3058SOL    HW120636   1.091   4.346   4.399  0.5626 -0.0255  1.5980
 3058SOL    HW220637   1.165   4.474   4.368  1.9545  0.4673 -0.5193
 3059SOL     OW20638   2.147   3.977   5.044 -0.2130 -0.1520 -0.8769
 3059SOL    HW120639   2.083   4.013   5.105  0.4669 -0.6788  0.1449
 3059SOL    HW220640   2.095   3.924   4.983 -0.5411 -0.6746 -0.1471
 3060SOL     OW20641   2.179   2.886   3.392  0.2921 -0.0185 -0.1498
 3060SOL    HW120642   2.210   2.975   3.410 -3.0087  1.3202 -1.1551
 3060SOL    HW220643   2.197   2.868   3.299  0.1824 -1.9117  0.1925
 3061SOL     OW20644   4.213   2.062  12.919 -0.0005  0.4074  0.8457
 3061SOL    HW120645   4.154   2.136  12.933 -0.1085  0.4011  0.4388
 3061SOL    HW220646   4.203   2.017  13.003 -0.8785 -0.4132  0.3129
 3062SOL     OW20647   4.548   2.828  10.137 -1.2684  0.5646 -0.3361
 3062SOL    HW120648   4.618   2.804  10.197 -0.8069  1.0726 -0.6775
 3062SOL    HW220649   4.591   2.798  10.056 -2.8898 -3.1336  0.1332
 3063SOL     OW20650   4.076   3.835   0.587  0.0957  0.0713 -0.2131
 3063SOL    HW120651   4.096   3.799   0.673  1.5430  0.2120 -0.4947
 3063SOL    HW220652   4.003   3.785   0.550  1.1723 -0.8721 -1.0297
 3064SOL     OW20653   0.451   4.375  15.442 -0.4707  0.6009  0.4492
 3064SOL    HW120654   0.535   4.411  15.470 -0.6272 -0.4686  2.2739
 3064SOL    HW220655   0.387   4.409  15.505  1.2011 -0.5765  2.7868
 3065SOL     OW20656   4.066   2.704   2.791  0.5166 -0.5462 -0.3593
 3065SOL    HW120657   4.153   2.669   2.772  0.8375  0.2138 -0.2785
 3065SOL    HW220658   4.026   2.630   2.838 -0.8921  1.6420  1.8419
 3066SOL     OW20659   4.021   3.460  14.954 -1.1072  0.6169  0.4987
 3066SOL    HW120660   4.027   3.503  15.039 -1.2043  4.3227 -1.3607
 3066SOL    HW220661   3.958   3.390  14.965 -1.2499  0.3697 -1.7805
 3067SOL     OW20662   3.093   0.715   9.048  0.7699 -0.6034  0.0474
 3067SOL    HW120663   3.163   0.738   9.110 -0.2849 -0.5991  1.2510
 3067SOL    HW220664   3.072   0.626   9.077  1.3789 -1.0606 -0.9353
 3068SOL     OW20665   2.637   4.224   7.033  0.2383  0.0594  0.1474
 3068SOL    HW120666   2.727   4.198   7.018  0.2959  1.5682 -2.0857
 3068SOL    HW220667   2.604   4.240   6.945 -0.8249  1.6234  0.8247
 3069SOL     OW20668   3.337   2.184   6.710 -0.2496 -0.1924 -0.1687
 3069SOL    HW120669   3.403   2.237   6.664 -2.6394  2.5256 -0.4792
 3069SOL    HW220670   3.376   2.098   6.699  2.6179  0.8555  1.8180
 3070SOL     OW20671   2.146   1.991   8.727  0.6927  0.1647 -0.4815
 3070SOL    HW120672   2.175   2.000   8.818 -0.9683  1.0818 -0.0405
 3070SOL    HW220673   2.053   1.978   8.747  0.9885  0.7613  1.2707
 3071SOL     OW20674   2.108   0.762   7.298 -0.7895 -0.1677 -0.1875
 3071SOL    HW120675   2.088   0.669   7.300 -1.2731 -0.0961 -2.1289
 3071SOL    HW220676   2.204   0.766   7.294 -0.8494 -0.7444 -2.2908
 3072SOL     OW20677   0.913   4.348  11.189 -0.1964 -0.1480  0.2996
 3072SOL    HW120678   0.822   4.367  11.211 -0.9403 -2.7695 -0.4924
 3072SOL    HW220679   0.961   4.351  11.271  1.6083  1.8303 -0.8392
 3073SOL     OW20680   0.495   2.324   3.449 -0.0474 -0.9636  0.2842
 3073SOL    HW120681   0.459   2.385   3.513  0.4203 -2.6453  2.1670
 3073SOL    HW220682   0.587   2.316   3.477 -0.1079 -0.2621  0.6714
 3074SOL     OW20683   1.005   3.686   2.497  0.2616  0.1803 -0.4776
 3074SOL    HW120684   0.929   3.668   2.442  1.4827 -1.8646 -1.4778
 3074SOL    HW220685   1.019   3.593   2.515  2.1330  0.7078  0.8906
 3075SOL     OW20686   0.698   4.437   4.457 -0.0432 -0.2313 -0.1866
 3075SOL    HW120687   0.686   4.403   4.546  0.4451 -1.7849 -0.7121
 3075SOL    HW220688   0.690   4.530   4.477 -3.6552 -0.8766  1.5183
 3076SOL     OW20689   1.747   2.479   4.230 -0.6223  0.5002  0.4236
 3076SOL    HW120690   1.756   2.509   4.320 -4.0670  1.0715  0.5710
 3076SOL    HW220691   1.817   2.414   4.237  0.0248  0.8694 -2.6573
 3077SOL     OW20692   2.716   1.245  16.502 -0.3481 -0.0251 -0.4240
 3077SOL    HW120693   2.742   1.326  16.546 -2.3978  1.7158 -2.4262
 3077SOL    HW220694   2.690   1.193  16.578  1.0053 -0.0206  0.0477
 3078SOL     OW20695   0.915   4.397   6.523 -0.4703 -0.3359  0.6975
 3078SOL    HW120696   0.995   4.366   6.480  0.2892 -0.5109  2.2359
 3078SOL    HW220697   0.929   4.492   6.514 -0.2284 -0.1991  2.5728
 3079SOL     OW20698   0.651   1.394   6.381 -0.1053  0.0066 -0.1973
 3079SOL    HW120699   0.734   1.402   6.428  0.0720  0.0562 -0.5155
 3079SOL    HW220700   0.643   1.483   6.346 -2.0940 -1.0056 -2.3158
 3080SOL     OW20701   3.922   3.839  16.656  0.7566 -0.5392 -0.4519
 3080SOL    HW120702   3.891   3.888  16.580 -1.9731  0.7569  1.4756
 3080SOL    HW220703   4.011   3.817  16.630  0.6027 -0.1014 -1.3458
 3081SOL     OW20704   3.148   1.724  10.274  0.3898  0.2864 -0.2076
 3081SOL    HW120705   3.104   1.642  10.298  1.1950  0.1064  0.6580
 3081SOL    HW220706   3.130   1.785  10.346  1.7859 -0.5351  0.8260
 3082SOL     OW20707   3.360   2.992   1.543  0.0806 -0.0315  0.5248
 3082SOL    HW120708   3.312   2.910   1.531 -0.3553  0.1410  1.0762
 3082SOL    HW220709   3.448   2.954   1.538 -0.0695  0.0085 -2.4109
 3083SOL     OW20710   2.447   4.508   6.381  0.4124 -0.5561  0.2219
 3083SOL    HW120711   2.435   4.423   6.424  0.5043 -0.1196  1.0965
 3083SOL    HW220712   2.361   4.534   6.347  0.4245 -0.7382  0.0514
 3084SOL     OW20713   2.355   3.294   5.661  0.0326 -0.1410 -0.0186
 3084SOL    HW120714   2.286   3.277   5.598 -0.7811  0.9113  0.5836
 3084SOL    HW220715   2.410   3.344   5.600  2.7892 -0.8092  1.8823
 3085SOL     OW20716   3.141   1.764   4.615  0.0645  0.3266 -0.0313
 3085SOL    HW120717   3.228   1.725   4.620 -0.1555 -0.1332  0.2740
 3085SOL    HW220718   3.092   1.686   4.589  2.5722 -1.4321  0.5575
 3086SOL     OW20719   0.456   2.947   6.053 -0.5078 -0.0290 -0.7907
 3086SOL    HW120720   0.488   2.865   6.014  1.2739  0.6980 -0.8461
 3086SOL    HW220721   0.397   2.913   6.120  0.9624  2.6901  1.8491
 3087SOL     OW20722   2.305   0.768   3.158 -0.3256  0.7488  0.4963
 3087SOL    HW120723   2.381   0.747   3.104 -0.3912  2.4794 -0.2712
 3087SOL    HW220724   2.344   0.783   3.245 -0.9272  0.6424  0.7853
 3088SOL     OW20725   2.514   0.840  13.940  0.3762 -0.0601  0.3604
 3088SOL    HW120726   2.562   0.912  13.982 -0.8347  1.8021 -1.4968
 3088SOL    HW220727   2.515   0.865  13.848 -2.2348 -1.1774  0.0559
 3089SOL     OW20728   3.720   1.185  15.746  0.3123 -0.0223 -0.2593
 3089SOL    HW120729   3.683   1.173  15.833  1.4844  0.1959  0.2678
 3089SOL    HW220730   3.670   1.116  15.704  0.6264 -1.3521  1.5713
 3090SOL     OW20731   1.684   0.005   4.508  0.3539  0.5660  0.2195
 3090SOL    HW120732   1.600   0.018   4.465  0.9924 -0.8957 -1.5006
 3090SOL    HW220733   1.657   4.680   4.586 -1.7363 -1.9588 -2.0620
 3091SOL     OW20734   4.633   1.421   8.881  0.3540 -0.0313 -0.3935
 3091SOL    HW120735   4.624   1.342   8.934 -0.0534 -0.2478 -0.7823
 3091SOL    HW220736   4.613   1.481   8.953  0.5192  0.7874 -1.0298
 3092SOL     OW20737   4.542   3.982   7.057 -0.4991 -0.4870  0.2762
 3092SOL    HW120738   4.492   3.943   6.986  0.2402 -1.3458  0.2268
 3092SOL    HW220739   4.499   4.067   7.071  2.7443  0.7870  2.3923
 3093SOL     OW20740   2.033   3.491   5.900  0.8482 -0.1484  0.3114
 3093SOL    HW120741   1.952   3.490   5.951  0.1576 -1.1900 -0.8136
 3093SOL    HW220742   2.021   3.408   5.855 -0.3018  0.0499  0.2557
 3094SOL     OW20743   3.865   1.772   5.968 -0.0438  0.0852  0.2813
 3094SOL    HW120744   3.878   1.774   6.063  0.7891 -0.5441  0.1855
 3094SOL    HW220745   3.780   1.730   5.954 -0.4943  1.7468 -1.8926
 3095SOL     OW20746   4.241   0.000   5.375 -0.0299 -0.0886 -0.2802
 3095SOL    HW120747   4.315   0.055   5.348  1.2312 -1.2871  0.7901
 3095SOL    HW220748   4.214   4.677   5.296  3.6076  1.0732 -2.1830
 3096SOL     OW20749   4.667   2.265   3.633  0.2396 -0.0283  0.1645
 3096SOL    HW120750   4.676   2.257   3.728 -0.5773  2.1178  0.4028
 3096SOL    HW220751   4.699   2.352   3.612  1.0412 -0.2101  0.5935
 3097SOL     OW20752   1.349   4.186  16.089 -0.2854 -0.0921 -0.4518
 3097SOL    HW120753   1.262   4.148  16.080 -0.8607  1.4119 -1.2912
 3097SOL    HW220754   1.334   4.280  16.104 -1.1241 -0.1448 -0.9378
 3098SOL     OW20755   2.382   4.635   5.713 -0.6291 -0.6962  0.7415
 3098SOL    HW120756   2.292   4.611   5.734 -0.9926  0.4897  0.5377
 3098SOL    HW220757   2.427   4.574   5.771 -1.3036 -1.2096  0.7221
 3099SOL     OW20758   1.451   1.399  15.747  0.1315 -0.7128 -0.8363
 3099SOL    HW120759   1.458   1.332  15.815 -2.3945 -0.3647 -0.2476
 3099SOL    HW220760   1.496   1.477  15.782  0.5446 -1.2017 -0.2855
 3100SOL     OW20761   3.737   1.519  16.033 -0.0681 -0.6895 -0.3896
 3100SOL    HW120762   3.776   1.551  15.952  1.5001  1.4945  1.2039
 3100SOL    HW220763   3.754   1.425  16.031  0.8975 -0.4867 -1.4072
 3101SOL     OW20764   0.252   4.692  10.330 -0.2578  0.0387 -0.0726
 3101SOL    HW120765   0.173   4.677  10.278 -0.8847  0.6343  0.7142
 3101SOL    HW220766   0.290   0.038  10.276 -0.2994 -0.2261 -0.4455
 3102SOL     OW20767   1.371   4.436   6.502 -0.3422 -0.4094  0.6549
 3102SOL    HW120768   1.337   4.388   6.577  0.0837 -0.1758  0.9963
 3102SOL    HW220769   1.430   4.366   6.473 -0.1757 -0.4773  1.1639
 3103SOL     OW20770   4.165   4.634   7.449 -0.0117 -0.1811  0.5169
 3103SOL    HW120771   4.158   4.683   7.530 -0.4252  0.8466 -0.1472
 3103SOL    HW220772   4.076   4.636   7.415 -0.4684  0.8509  1.7909
 3104SOL     OW20773   1.811   2.045  13.861 -0.1331  0.1063  0.4536
 3104SOL    HW120774   1.718   2.028  13.843  0.0337  0.4675 -0.7901
 3104SOL    HW220775   1.819   2.022  13.953  1.3232 -1.6710 -0.1193
 3105SOL     OW20776   0.516   1.009   7.412 -0.4288 -0.0244  0.0149
 3105SOL    HW120777   0.449   1.055   7.462  0.6006  0.2258  1.1621
 3105SOL    HW220778   0.492   0.917   7.424 -0.6046  0.0109 -0.0698
 3106SOL     OW20779   1.736   3.540   5.434 -0.8623  0.3486 -0.4900
 3106SOL    HW120780   1.720   3.581   5.349 -0.7042  0.2244 -0.5794
 3106SOL    HW220781   1.762   3.626   5.469 -0.0379  0.4278 -1.2960
 3107SOL     OW20782   4.138   4.553   9.926 -0.3026  0.4499 -0.4408
 3107SOL    HW120783   4.217   4.504   9.951 -1.6402 -1.7080 -0.4367
 3107SOL    HW220784   4.106   4.570  10.014 -0.5218  1.3079 -0.6819
 3108SOL     OW20785   4.694   4.381   7.236  0.4604  0.3541 -0.0260
 3108SOL    HW120786   0.058   4.396   7.272  0.3693 -2.2192  1.2749
 3108SOL    HW220787   4.676   4.474   7.223 -0.9680  0.0748 -0.0443
 3109SOL     OW20788   3.728   0.470   7.787 -0.3452  0.0896  0.3624
 3109SOL    HW120789   3.734   0.565   7.789 -0.8977  0.1184  0.6118
 3109SOL    HW220790   3.799   0.449   7.848 -0.4106  1.1313  0.7872
 3110SOL     OW20791   3.947   0.142   8.046 -0.3119 -0.8381 -0.2442
 3110SOL    HW120792   3.961   0.050   8.025  0.6314 -0.4772 -1.2296
 3110SOL    HW220793   3.891   0.131   8.122 -0.8651 -0.7268 -0.6343
 3111SOL     OW20794   0.857   2.211   7.087 -0.8485 -0.5043  0.2777
 3111SOL    HW120795   0.886   2.300   7.107  1.1324 -1.0563 -0.2093
 3111SOL    HW220796   0.835   2.183   7.176 -0.2992  1.1573  0.9309
 3112SOL     OW20797   1.378   4.690  16.768  0.2954 -0.4967  0.0715
 3112SOL    HW120798   1.413   4.642  16.693  2.2378 -0.9616  1.2645
 3112SOL    HW220799   1.376   0.057  16.736 -1.1544 -0.2705  0.7860
 3113SOL     OW20800   1.212   3.510  11.906  0.6175 -0.0198 -0.4610
 3113SOL    HW120801   1.155   3.498  11.830  2.1281 -1.0625 -1.4161
 3113SOL    HW220802   1.299   3.514  11.867  0.4630 -0.3193 -0.8413
 3114SOL     OW20803   2.490   4.040   4.109  0.3223 -0.1054 -0.6629
 3114SOL    HW120804   2.455   3.955   4.136  0.6758  0.0974  0.4441
 3114SOL    HW220805   2.407   4.086   4.119  0.9277  0.8006  0.2035
 3115SOL     OW20806   1.002   4.573   0.590 -0.3521 -0.1010 -0.3425
 3115SOL    HW120807   0.969   4.491   0.629 -1.8500  0.4422 -0.4671
 3115SOL    HW220808   0.924   4.624   0.609 -0.9079 -0.7807 -0.7966
 3116SOL     OW20809   4.415   4.092   7.510  0.1845 -0.8193  0.5245
 3116SOL    HW120810   4.476   4.102   7.583 -1.1540  1.4557  1.3464
 3116SOL    HW220811   4.464   4.031   7.455  0.1443 -0.5125  0.1404
 3117SOL     OW20812   2.917   0.363   2.250  0.0845  0.0979 -0.2069
 3117SOL    HW120813   2.842   0.404   2.294  0.7800 -0.7741  1.8236
 3117SOL    HW220814   2.991   0.379   2.309  0.2056  2.0011 -0.8819
 3118SOL     OW20815   0.377   4.572   8.887 -0.0291 -0.4717  0.3771
 3118SOL    HW120816   0.311   4.584   8.955  1.6673  1.2182  1.7433
 3118SOL    HW220817   0.369   4.480   8.864  2.0855 -0.8408  1.0650
 3119SOL     OW20818   2.912   4.507  13.617 -0.7328 -0.6876  0.0748
 3119SOL    HW120819   2.866   4.480  13.696 -0.7972  0.7116  0.5137
 3119SOL    HW220820   2.852   4.481  13.548 -1.7103 -0.4400  0.8260
 3120SOL     OW20821   0.200   4.517   2.468  0.1044 -0.6194  0.0245
 3120SOL    HW120822   0.263   4.465   2.419  1.2344  0.6184  0.1643
 3120SOL    HW220823   0.259   4.552   2.536 -0.5952 -3.2069  1.9461
 3121SOL     OW20824   3.570   3.440   0.614 -0.9568  0.6279 -0.1632
 3121SOL    HW120825   3.583   3.351   0.579 -2.1603  0.7189 -0.8446
 3121SOL    HW220826   3.562   3.430   0.709 -1.4583 -2.6146 -0.5353
 3122SOL     OW20827   1.440   1.770   5.048 -0.3462 -0.3171  0.0652
 3122SOL    HW120828   1.350   1.788   5.019  0.7590  2.3068 -1.7238
 3122SOL    HW220829   1.426   1.758   5.142 -1.0211 -0.5426 -0.0647
 3123SOL     OW20830   1.028   2.028   7.004 -0.0823 -0.0024 -0.0764
 3123SOL    HW120831   0.960   2.082   7.043  1.4359  1.3084  0.7465
 3123SOL    HW220832   0.994   1.938   7.002  0.6715 -0.3161  1.1089
 3124SOL     OW20833   3.158   3.045   2.522 -0.6190 -0.2575  0.2646
 3124SOL    HW120834   3.072   3.083   2.505 -0.9816 -0.9271  0.6039
 3124SOL    HW220835   3.142   2.951   2.518 -0.1312 -0.3278 -0.0068
 3125SOL     OW20836   1.109   2.763   6.644 -0.0739 -0.1230  0.1254
 3125SOL    HW120837   1.104   2.753   6.549 -0.2127 -1.8025  0.3150
 3125SOL    HW220838   1.194   2.726   6.667 -0.1493  0.5222  1.4664
 3126SOL     OW20839   3.618   2.753   5.318  0.1557  0.6960  0.0246
 3126SOL    HW120840   3.550   2.778   5.380  0.3153 -1.7500  1.1715
 3126SOL    HW220841   3.664   2.837   5.316 -0.7715  1.1665 -1.7070
 3127SOL     OW20842   0.588   1.419   8.693  0.0959  0.3094  0.3373
 3127SOL    HW120843   0.521   1.487   8.693 -0.3049 -0.1007 -2.1411
 3127SOL    HW220844   0.618   1.415   8.784  0.0667  0.5338  0.3570
 3128SOL     OW20845   1.040   0.287   1.249 -0.1393  0.1452  0.3576
 3128SOL    HW120846   1.064   0.223   1.182 -0.0969 -0.3029  0.8006
 3128SOL    HW220847   1.103   0.271   1.320 -0.7455  1.1584  1.1285
 3129SOL     OW20848   0.780   3.372   6.866  0.3836  0.1838 -0.1161
 3129SOL    HW120849   0.866   3.330   6.870  1.1553  1.9651  1.7447
 3129SOL    HW220850   0.803   3.444   6.808 -0.8410  0.8056  0.1639
 3130SOL     OW20851   3.907   2.015   3.077  0.0084 -0.1208  0.1706
 3130SOL    HW120852   3.963   2.041   3.003 -2.8108  2.4021 -1.0772
 3130SOL    HW220853   3.860   2.096   3.097 -0.7783 -0.2777 -1.0124
 3131SOL     OW20854   0.216   2.097  15.869 -0.1994 -0.1696  0.4453
 3131SOL    HW120855   0.245   2.167  15.811 -2.4388  0.4219  0.0269
 3131SOL    HW220856   0.206   2.141  15.954 -1.9346  1.0918 -0.4129
 3132SOL     OW20857   3.886   2.319   5.039  0.0888  0.2463  0.2704
 3132SOL    HW120858   3.917   2.230   5.023 -0.0584 -0.0844  1.8057
 3132SOL    HW220859   3.965   2.367   5.061  1.2665 -1.1076 -0.9794
 3133SOL     OW20860   0.804   3.361  12.063  0.4472  0.5704  0.3276
 3133SOL    HW120861   0.801   3.271  12.029 -1.2829  1.6435 -2.3579
 3133SOL    HW220862   0.763   3.348  12.149  0.6446 -1.3323  0.1331
 3134SOL     OW20863   0.172   3.123   8.525  0.1928  0.2115  0.5399
 3134SOL    HW120864   0.175   3.066   8.449 -1.3242  0.1196  0.5416
 3134SOL    HW220865   0.078   3.130   8.541  0.3022  0.4871  1.0872
 3135SOL     OW20866   2.725   0.847  11.988  0.4816 -0.3247  0.0452
 3135SOL    HW120867   2.640   0.850  12.034 -0.8649  0.5530 -2.5146
 3135SOL    HW220868   2.747   0.938  11.972  0.7986 -0.3196  0.5046
 3136SOL     OW20869   1.877   1.997  16.092  0.0474 -0.4899 -0.0327
 3136SOL    HW120870   1.916   2.056  16.029  0.0294  0.4011  0.7867
 3136SOL    HW220871   1.895   2.046  16.173  0.8883  1.1479 -1.2261
 3137SOL     OW20872   3.607   1.416   4.340 -0.1961  0.3088  0.5405
 3137SOL    HW120873   3.623   1.365   4.419  0.4946  1.2386  0.9874
 3137SOL    HW220874   3.578   1.504   4.364 -2.2000 -1.0460  3.1706
 3138SOL     OW20875   1.751   3.608   6.234  0.3913 -0.1146 -0.1384
 3138SOL    HW120876   1.714   3.634   6.150 -1.2647  1.6118  1.1314
 3138SOL    HW220877   1.734   3.680   6.295  0.7889 -0.7234  0.6919
 3139SOL     OW20878   1.030   3.480   1.709  0.2357 -0.1300 -0.0460
 3139SOL    HW120879   1.086   3.443   1.641  1.8236  1.8851  0.1545
 3139SOL    HW220880   0.965   3.518   1.650 -1.1610 -0.6058  1.1781
 3140SOL     OW20881   0.581   1.450   0.777  1.0925  0.7274  0.1503
 3140SOL    HW120882   0.627   1.529   0.805 -1.7904  1.8847  1.6027
 3140SOL    HW220883   0.654   1.416   0.726 -0.4799  0.8044 -2.1748
 3141SOL     OW20884   3.685   2.898   3.426 -0.2941 -0.0454 -0.4846
 3141SOL    HW120885   3.737   2.976   3.407  1.4170 -1.1291 -0.2070
 3141SOL    HW220886   3.684   2.882   3.520 -1.5110 -0.0050 -0.4888
 3142SOL     OW20887   0.407   2.293   8.376 -0.0368 -0.1349 -0.0522
 3142SOL    HW120888   0.436   2.299   8.467 -0.5675 -1.6533  0.2290
 3142SOL    HW220889   0.332   2.352   8.381  2.2379  2.8005 -1.4540
 3143SOL     OW20890   2.074   0.871   7.026  0.0358  0.2329 -0.4239
 3143SOL    HW120891   2.049   0.868   7.118 -0.5354 -0.0593 -0.5928
 3143SOL    HW220892   2.141   0.802   7.025 -0.8694 -0.6505  0.9356
 3144SOL     OW20893   2.865   2.271   8.574  0.2937  0.0687  0.2286
 3144SOL    HW120894   2.807   2.345   8.589  0.3406 -0.0307  0.9060
 3144SOL    HW220895   2.932   2.303   8.634 -1.1543  2.0506  0.7820
 3145SOL     OW20896   4.258   3.651   8.304  0.4884 -0.6068 -0.6792
 3145SOL    HW120897   4.201   3.722   8.273  3.0474  2.6563  2.0729
 3145SOL    HW220898   4.193   3.583   8.318 -2.0513  1.7864 -0.6848
 3146SOL     OW20899   2.951   1.445   0.537  0.0585  0.2461 -0.2079
 3146SOL    HW120900   2.969   1.351   0.525 -0.2986 -0.1379  2.3607
 3146SOL    HW220901   3.034   1.469   0.577  1.2799 -3.2689 -0.5743
 3147SOL     OW20902   1.071   0.861   4.875  0.4682  0.1518 -0.2259
 3147SOL    HW120903   1.162   0.830   4.873 -0.2463 -2.0138  0.2464
 3147SOL    HW220904   1.022   0.778   4.874 -1.6429  1.4151 -1.3673
 3148SOL     OW20905   1.540   3.603   2.535 -0.0345  0.3385  0.1125
 3148SOL    HW120906   1.586   3.668   2.587 -0.8807  0.3205  0.8657
 3148SOL    HW220907   1.600   3.593   2.461 -1.0957  0.2761 -0.7398
 3149SOL     OW20908   4.654   0.938   7.097  0.3147 -0.8211  0.2582
 3149SOL    HW120909   4.562   0.922   7.075 -0.0310  1.1794  0.3007
 3149SOL    HW220910   4.680   0.968   7.011 -1.2594  1.2708  0.5207
 3150SOL     OW20911   3.462   3.370   5.125  0.4855 -0.2196  0.3034
 3150SOL    HW120912   3.485   3.454   5.086 -2.1632  1.0241  1.4083
 3150SOL    HW220913   3.510   3.304   5.077  0.4060 -1.2327  1.6094
 3151SOL     OW20914   4.573   0.188  16.790 -0.0647  0.1238 -0.0282
 3151SOL    HW120915   4.554   0.143  16.707 -0.3345  0.4577 -0.1478
 3151SOL    HW220916   4.668   0.194  16.792 -0.1293  0.5563  1.6259
 3152SOL     OW20917   2.634   1.978   7.818 -0.1357  0.4710  0.1346
 3152SOL    HW120918   2.696   2.021   7.877  0.9988  0.1580 -0.8210
 3152SOL    HW220919   2.587   1.931   7.887  1.0027 -2.3492 -0.9806
 3153SOL     OW20920   3.079   0.179   6.795 -0.0501 -0.9437 -0.4019
 3153SOL    HW120921   3.162   0.149   6.830  0.2556 -1.4602 -1.5570
 3153SOL    HW220922   3.108   0.173   6.704  2.3159  1.4920  0.2083
 3154SOL     OW20923   0.812   3.809  14.068 -0.1598  0.2649 -0.0560
 3154SOL    HW120924   0.812   3.810  13.972  0.2100 -0.3541 -0.0654
 3154SOL    HW220925   0.856   3.893  14.083  0.2912 -0.0170  0.2183
 3155SOL     OW20926   3.812   3.967   7.837 -0.1328  0.4230 -0.3262
 3155SOL    HW120927   3.741   4.004   7.890  1.7819  0.4323  2.2472
 3155SOL    HW220928   3.861   4.043   7.806  1.7172  1.1182  4.3390
 3156SOL     OW20929   0.241   0.858  17.692 -0.1706 -1.0946  0.0967
 3156SOL    HW120930   0.205   0.812  17.616  1.7558 -0.8255 -0.9964
 3156SOL    HW220931   0.170   0.844   0.058 -1.1648 -1.6213 -1.1829
 3157SOL     OW20932   1.302   2.992   2.991  0.1377 -0.9571 -0.0852
 3157SOL    HW120933   1.313   3.076   3.035 -0.3315 -0.4690 -0.8820
 3157SOL    HW220934   1.370   2.942   3.035  0.1940 -0.2393  0.6373
 3158SOL     OW20935   0.872   0.144  13.360 -0.0446 -0.1745 -0.8881
 3158SOL    HW120936   0.866   0.093  13.278 -0.5512 -2.2701  0.4458
 3158SOL    HW220937   0.808   0.099  13.416  0.0338  1.9506  0.8820
 3159SOL     OW20938   4.340   2.866   8.643  0.5010 -0.3118  0.3850
 3159SOL    HW120939   4.351   2.913   8.725  3.2103  2.5331 -1.6354
 3159SOL    HW220940   4.411   2.907   8.594  0.2630 -0.2349  0.1020
 3160SOL     OW20941   4.067   0.598   8.181  0.8505 -0.6498 -0.1777
 3160SOL    HW120942   4.076   0.664   8.250  0.8737 -1.2456  0.3908
 3160SOL    HW220943   3.988   0.555   8.214 -0.4342  1.3587 -0.5903
 3161SOL     OW20944   2.327   2.766   8.120 -0.2975  0.2460 -0.8675
 3161SOL    HW120945   2.415   2.731   8.135 -0.2920  0.1265 -1.1894
 3161SOL    HW220946   2.272   2.694   8.150 -0.2289  0.9066  0.8323
 3162SOL     OW20947   3.146   3.865   2.885 -0.6882 -0.0404 -0.0319
 3162SOL    HW120948   3.222   3.922   2.881 -0.4876 -0.2786  0.4004
 3162SOL    HW220949   3.184   3.779   2.902  3.0529  1.0566 -2.9515
 3163SOL     OW20950   0.051   2.103  12.241  0.8506 -0.2049  0.1957
 3163SOL    HW120951   0.010   2.084  12.326  1.9323 -1.2484  0.4985
 3163SOL    HW220952   4.717   2.168  12.203  0.6113 -0.1785  0.6036
 3164SOL     OW20953   3.863   1.085   6.791  0.1799 -0.0515 -0.2792
 3164SOL    HW120954   3.816   1.009   6.757  0.2901 -0.5577  0.7322
 3164SOL    HW220955   3.938   1.074   6.733  1.4827  1.4554  1.1223
 3165SOL     OW20956   3.169   1.173  11.889 -0.3646  0.0962 -0.4335
 3165SOL    HW120957   3.185   1.194  11.981  1.1154 -0.0064 -0.6690
 3165SOL    HW220958   3.261   1.170  11.864 -0.4425  1.7806 -0.8989
 3166SOL     OW20959   0.200   2.331   5.210  0.6891  0.0951 -0.0630
 3166SOL    HW120960   0.243   2.402   5.163  2.4388 -1.2636 -0.4936
 3166SOL    HW220961   0.256   2.254   5.197  0.2141 -0.1372 -0.7125
 3167SOL     OW20962   2.144   2.132   4.318 -0.2538  0.6222  0.0353
 3167SOL    HW120963   2.175   2.189   4.388  1.3295  0.1234 -0.2546
 3167SOL    HW220964   2.148   2.046   4.360  0.4921 -0.1673 -1.6503
 3168SOL     OW20965   2.695   4.193   2.842 -0.2713 -0.2323 -0.2002
 3168SOL    HW120966   2.702   4.177   2.748 -2.3199 -0.7729 -0.2559
 3168SOL    HW220967   2.680   4.288   2.847  0.6229 -0.1586  1.3665
 3169SOL     OW20968   2.110   0.550   9.520  0.3964  0.1001 -0.7071
 3169SOL    HW120969   2.196   0.584   9.545  0.5675 -0.3748 -0.6530
 3169SOL    HW220970   2.135   0.466   9.482  1.7639  0.6730 -1.0927
 3170SOL     OW20971   4.301   2.563  11.672 -0.5212 -0.1606 -0.3867
 3170SOL    HW120972   4.368   2.501  11.643 -0.1941  0.7893 -1.6646
 3170SOL    HW220973   4.268   2.519  11.751  0.5680  0.7379  0.5638
 3171SOL     OW20974   0.246   0.332  13.924 -0.0929  0.2415  0.1938
 3171SOL    HW120975   0.320   0.327  13.865 -1.3756 -0.7390 -1.3154
 3171SOL    HW220976   0.233   0.240  13.947  1.9774 -0.0258  0.3118
 3172SOL     OW20977   4.142   3.392  14.398  0.2940 -0.2736  0.4250
 3172SOL    HW120978   4.116   3.474  14.356 -0.6395  0.5870  2.7125
 3172SOL    HW220979   4.227   3.408  14.440  0.9874  1.7467 -1.7211
 3173SOL     OW20980   0.948   3.582   5.964 -0.0261  0.1339  0.3484
 3173SOL    HW120981   0.939   3.677   5.976  0.6261  0.3482 -0.8634
 3173SOL    HW220982   1.021   3.574   5.903  0.4315 -0.7959  1.0349
 3174SOL     OW20983   1.875   2.226   9.298 -0.3040  0.1253 -0.3874
 3174SOL    HW120984   1.820   2.220   9.376  1.3830 -0.3565  0.7732
 3174SOL    HW220985   1.810   2.236   9.229 -2.1921 -1.4860  1.1670
 3175SOL     OW20986   0.507   0.106   2.249 -0.1513 -0.3716 -0.2587
 3175SOL    HW120987   0.580   0.144   2.200  0.0295 -0.3543  0.0240
 3175SOL    HW220988   0.543   0.018   2.256  0.2499 -0.1841  0.0900
 3176SOL     OW20989   4.464   4.322   0.444  0.4407 -0.3940  0.2697
 3176SOL    HW120990   4.473   4.326   0.348 -0.6310 -1.0423  0.1473
 3176SOL    HW220991   4.530   4.256   0.466  0.2096 -0.5857  0.3742
 3177SOL     OW20992   0.249   0.230   7.249  0.0807 -0.8009 -0.3767
 3177SOL    HW120993   0.344   0.229   7.237  0.2558 -0.0241  0.8691
 3177SOL    HW220994   0.232   0.290   7.322 -3.6078  0.8723 -2.5917
 3178SOL     OW20995   0.555   2.932  10.459  0.5235  0.2262 -0.1738
 3178SOL    HW120996   0.567   2.874  10.384  0.4742 -0.9398  0.7096
 3178SOL    HW220997   0.630   2.990  10.447  1.4479 -1.0975 -0.8669
 3179SOL     OW20998   1.808   4.614   9.586 -0.0349 -0.2161  0.5034
 3179SOL    HW120999   1.814   4.523   9.557 -1.5369 -0.6263  1.4832
 3179SOL    HW221000   1.893   4.645   9.554 -0.6685 -0.6939 -1.6345
 3180SOL     OW21001   1.813   1.254  12.683  0.2474 -0.5453  0.2272
 3180SOL    HW121002   1.814   1.216  12.595 -0.5135 -1.7961  0.7388
 3180SOL    HW221003   1.725   1.235  12.717  0.1151 -2.0942 -0.9877
 3181SOL     OW21004   4.673   0.613   4.982  0.0087 -0.0884  0.4699
 3181SOL    HW121005   4.622   0.681   4.938  0.8450 -0.1315 -0.5618
 3181SOL    HW221006   0.037   0.634   4.950 -0.0638 -1.1078 -0.4008
 3182SOL     OW21007   1.617   3.067  16.982  0.0341  0.5827 -0.3350
 3182SOL    HW121008   1.537   3.109  16.951  0.4137  1.5340  0.0008
 3182SOL    HW221009   1.650   3.035  16.898  2.3246 -0.2054  0.8530
 3183SOL     OW21010   0.817   0.131   2.478  0.0845  0.2340 -0.1460
 3183SOL    HW121011   0.844   0.222   2.462  0.5405  0.0549 -0.3891
 3183SOL    HW221012   0.851   0.083   2.402 -0.7514  1.4192 -1.2778
 3184SOL     OW21013   2.799   1.686  10.718  0.1281  0.2594 -0.4296
 3184SOL    HW121014   2.853   1.747  10.768 -0.6378  1.5591 -1.1823
 3184SOL    HW221015   2.811   1.598  10.753 -0.2955  0.5502  0.4280
 3185SOL     OW21016   2.371   1.424   3.325  0.3029 -0.1929 -0.1407
 3185SOL    HW121017   2.399   1.478   3.250 -2.4192  0.9378 -0.3288
 3185SOL    HW221018   2.276   1.426   3.324  0.2949 -0.0559  3.7149
 3186SOL     OW21019   3.863   3.748   5.708  0.0829  0.1897  0.3999
 3186SOL    HW121020   3.774   3.770   5.683  0.3668 -0.4179 -1.1179
 3186SOL    HW221021   3.921   3.801   5.654  2.2310 -1.9329  0.6091
 3187SOL     OW21022   3.924   0.866   8.845  0.4774 -0.0170 -0.3471
 3187SOL    HW121023   3.851   0.916   8.808  0.2091 -1.9644 -2.5007
 3187SOL    HW221024   4.000   0.922   8.829  2.6493 -2.8443  0.0494
 3188SOL     OW21025   3.774   4.175   7.059 -0.0458  0.5593 -0.1621
 3188SOL    HW121026   3.829   4.104   7.092 -0.4531  0.6247  0.6601
 3188SOL    HW221027   3.689   4.133   7.072 -0.6278  1.5391 -0.7743
 3189SOL     OW21028   0.706   1.227   3.581  0.1082 -0.7248  0.1960
 3189SOL    HW121029   0.644   1.282   3.533 -0.8351 -1.5842  0.4284
 3189SOL    HW221030   0.650   1.204   3.655 -0.0248  1.4061  0.7684
 3190SOL     OW21031   4.308   2.201   7.951 -0.6331  0.0944 -0.1561
 3190SOL    HW121032   4.285   2.138   8.019  0.4703  2.4712  2.4579
 3190SOL    HW221033   4.235   2.199   7.890 -0.8524  0.4364  0.0953
 3191SOL     OW21034   3.431   2.065  14.185 -0.4225  0.3220  0.2300
 3191SOL    HW121035   3.432   2.115  14.103  0.9881  0.9027  0.5936
 3191SOL    HW221036   3.376   1.989  14.168 -0.4389 -0.1797  2.6710
 3192SOL     OW21037   2.118   1.959  12.846 -0.3386 -0.3069 -0.4026
 3192SOL    HW121038   2.175   2.019  12.799  0.4413  0.2892  1.3303
 3192SOL    HW221039   2.095   1.909  12.767 -1.6089 -0.0401 -0.1993
 3193SOL     OW21040   2.953   1.861   7.167  0.3253 -0.1578  0.1666
 3193SOL    HW121041   2.950   1.790   7.232 -0.2303 -0.4812 -0.2126
 3193SOL    HW221042   2.877   1.909   7.200 -1.5740 -0.4257 -3.8875
 3194SOL     OW21043   1.688   3.686   0.255  0.4039 -0.2109 -0.4551
 3194SOL    HW121044   1.722   3.652   0.338 -1.7324 -0.0270  0.5143
 3194SOL    HW221045   1.642   3.765   0.284  1.9859  1.9593 -3.8055
 3195SOL     OW21046   3.229   3.357   2.787  0.0812  0.4277  0.3191
 3195SOL    HW121047   3.148   3.389   2.827 -0.8842 -2.0716  0.4127
 3195SOL    HW221048   3.257   3.287   2.846  0.2747  1.0591  0.9654
 3196SOL     OW21049   4.177   0.459   3.545  0.0924 -0.0748  0.3619
 3196SOL    HW121050   4.161   0.550   3.518  0.0695  0.1264  1.0365
 3196SOL    HW221051   4.234   0.478   3.619  0.1660  2.1880 -0.2633
 3197SOL     OW21052   2.992   3.345  14.137  0.1112 -0.2129 -0.2537
 3197SOL    HW121053   3.022   3.416  14.195 -1.3042 -0.3487  0.6550
 3197SOL    HW221054   2.941   3.378  14.064 -0.6527  0.8082  0.7373
 3198SOL     OW21055   4.004   0.762  14.792 -0.2573 -0.0341  0.2726
 3198SOL    HW121056   3.939   0.757  14.861  0.8040 -2.2011  1.1161
 3198SOL    HW221057   3.971   0.686  14.743 -0.7990  1.1660 -1.2568
 3199SOL     OW21058   1.210   1.830   4.914 -0.0077 -0.1008  0.0739
 3199SOL    HW121059   1.146   1.877   4.860  0.4219  1.1164  0.6219
 3199SOL    HW221060   1.189   1.862   5.002  2.6079 -0.5792  0.8629
 3200SOL     OW21061   2.402   1.342  15.459 -0.4397  0.0327  0.1370
 3200SOL    HW121062   2.334   1.300  15.405  0.1692  0.1307 -0.7105
 3200SOL    HW221063   2.352   1.424  15.462 -1.4090 -0.6512  2.6751
 3201SOL     OW21064   3.231   2.640  12.100 -0.9928 -0.0781  0.1041
 3201SOL    HW121065   3.167   2.663  12.033 -0.0374 -0.8279 -1.0625
 3201SOL    HW221066   3.262   2.561  12.057 -2.6125 -1.5703  1.7103
 3202SOL     OW21067   1.988   1.276  13.314 -0.1466 -0.6136  0.0300
 3202SOL    HW121068   2.048   1.333  13.266 -0.7497 -0.4176 -0.4951
 3202SOL    HW221069   1.907   1.326  13.303  0.7582  0.4432 -1.6996
 3203SOL     OW21070   4.149   1.943   0.427 -0.1277  0.0849 -0.3602
 3203SOL    HW121071   4.180   1.907   0.343 -0.1385  0.1466 -0.3907
 3203SOL    HW221072   4.147   1.868   0.486  2.4846 -1.0580 -1.6909
 3204SOL     OW21073   3.606   3.633   7.250  0.0049  0.2571 -0.4410
 3204SOL    HW121074   3.642   3.629   7.161 -0.4218  1.1967 -0.6613
 3204SOL    HW221075   3.680   3.655   7.306  0.1142 -1.1801 -0.0126
 3205SOL     OW21076   3.734   1.843  14.089 -0.5755 -0.7322  0.1986
 3205SOL    HW121077   3.679   1.884  14.023  1.6345  3.2787  0.8704
 3205SOL    HW221078   3.680   1.767  14.112 -1.1676 -0.3959 -0.0920
 3206SOL     OW21079   0.919   4.538   2.454 -0.2489  0.1935 -0.6917
 3206SOL    HW121080   0.986   4.601   2.429 -1.3312  0.7861 -2.1174
 3206SOL    HW221081   0.965   4.477   2.512 -1.3687 -1.2446 -1.3163
 3207SOL     OW21082   3.470   4.251   8.340  0.6602 -0.3850 -0.0797
 3207SOL    HW121083   3.479   4.314   8.269 -0.7825  0.0884  0.1653
 3207SOL    HW221084   3.400   4.190   8.319  0.7387 -1.0715  1.6889
 3208SOL     OW21085   4.336   2.985  10.085 -0.4828 -0.1714 -0.0328
 3208SOL    HW121086   4.395   2.923  10.127  0.8939  2.3290  1.7375
 3208SOL    HW221087   4.392   3.043  10.033  0.8675 -2.2442 -0.8685
 3209SOL     OW21088   2.480   1.234  12.242 -0.4085  0.3420 -0.1587
 3209SOL    HW121089   2.395   1.270  12.214 -0.2829  0.5672 -0.2542
 3209SOL    HW221090   2.545   1.292  12.201  0.3362  0.4698  1.2121
 3210SOL     OW21091   0.088   4.380   3.789  0.0887 -0.0407  0.1081
 3210SOL    HW121092   0.063   4.374   3.881  0.4575 -1.6414  0.0934
 3210SOL    HW221093   0.018   4.331   3.746  1.3432 -0.3866 -1.5382
 3211SOL     OW21094   2.173   1.183   2.001 -0.0280 -0.3786  0.1086
 3211SOL    HW121095   2.188   1.270   1.965 -3.0188 -0.2755 -0.8687
 3211SOL    HW221096   2.260   1.148   1.982 -0.1417  0.1331 -1.3465
 3212SOL     OW21097   0.160   2.104   8.020  0.4898 -0.5346 -0.1440
 3212SOL    HW121098   0.251   2.084   7.999  0.2056  0.1402 -2.0468
 3212SOL    HW221099   0.122   2.118   7.934  1.7873 -1.2476 -0.8324
 3213SOL     OW21100   4.416   1.106   3.751 -0.6555 -0.0599  0.4739
 3213SOL    HW121101   4.431   1.033   3.812  2.2053  1.3939  1.4778
 3213SOL    HW221102   4.490   1.161   3.775  0.2240 -1.2512  0.5136
 3214SOL     OW21103   3.360   4.529  10.854  0.0570 -0.1066  0.0163
 3214SOL    HW121104   3.412   4.449  10.860 -0.7532 -0.7270 -1.0616
 3214SOL    HW221105   3.436   4.581  10.827 -0.5339  1.1233  0.7405
 3215SOL     OW21106   3.838   1.522   1.190  0.4392 -0.0606 -0.0572
 3215SOL    HW121107   3.770   1.576   1.149 -0.6518 -1.3119  0.1362
 3215SOL    HW221108   3.846   1.566   1.275  1.7778  1.2935 -0.8713
 3216SOL     OW21109   4.385   4.057   9.393 -0.3580  0.0091  0.1854
 3216SOL    HW121110   4.443   3.981   9.398  0.6957  0.7729 -0.5672
 3216SOL    HW221111   4.356   4.035   9.305  1.4242  0.1889 -0.4270
 3217SOL     OW21112   4.597   0.033   4.056  0.3864  0.1657  0.6915
 3217SOL    HW121113   4.609   0.078   3.972  2.5368 -0.6522  0.5601
 3217SOL    HW221114   4.533   0.087   4.101 -0.7200  0.8922 -1.7321
 3218SOL     OW21115   3.274   1.832   5.833 -0.3478 -0.3059 -0.2297
 3218SOL    HW121116   3.292   1.803   5.922 -0.4020  0.3074 -0.0198
 3218SOL    HW221117   3.179   1.834   5.845  0.0268  4.4721  1.6549
 3219SOL     OW21118   4.086   4.625   3.925 -0.1046  0.2586  0.1449
 3219SOL    HW121119   4.129   4.709   3.915  0.0024 -0.0198 -1.6550
 3219SOL    HW221120   4.146   4.588   3.990 -0.7785 -3.3195 -1.2688
 3220SOL     OW21121   3.698   3.713   1.352 -0.2404 -0.1518  0.0984
 3220SOL    HW121122   3.773   3.702   1.411 -0.4776 -2.7009 -0.0787
 3220SOL    HW221123   3.634   3.768   1.396  0.8605  1.3146 -0.1250
 3221SOL     OW21124   3.629   4.343   5.873  0.6033  0.1018 -0.1159
 3221SOL    HW121125   3.554   4.402   5.871  0.3506 -0.1848  0.7864
 3221SOL    HW221126   3.582   4.259   5.876 -0.3515  0.7207  2.3412
 3222SOL     OW21127   1.422   3.967   3.031 -0.3750 -0.0311 -0.5081
 3222SOL    HW121128   1.487   3.944   3.098  2.1920  1.4680 -2.4669
 3222SOL    HW221129   1.374   3.885   3.027  0.6476 -0.6418 -0.3175
 3223SOL     OW21130   4.525   2.860  10.956 -0.6119  0.1022  0.3151
 3223SOL    HW121131   4.509   2.953  10.937 -0.7966  0.2966  1.4325
 3223SOL    HW221132   4.495   2.816  10.877 -0.1386  1.6996 -0.7579
 3224SOL     OW21133   3.038   2.886  16.964  0.2467  0.5761 -0.0167
 3224SOL    HW121134   3.083   2.840  17.035  0.2063  0.1862 -0.2436
 3224SOL    HW221135   2.973   2.941  17.006  1.3012  1.4579  0.4414
 3225SOL     OW21136   1.989   2.057  17.436  0.2570 -0.2132  0.9525
 3225SOL    HW121137   2.061   2.111  17.403 -0.0148 -1.5317 -1.7730
 3225SOL    HW221138   2.039   1.983  17.470  0.6638 -0.3113  0.1492
 3226SOL     OW21139   1.555   2.547   4.864 -0.1376  0.2022  0.1430
 3226SOL    HW121140   1.590   2.635   4.874  2.0938 -0.8712  1.6815
 3226SOL    HW221141   1.533   2.526   4.955 -0.9880  0.3350 -0.0311
 3227SOL     OW21142   0.712   1.245  12.771 -0.0869  0.3094 -0.1468
 3227SOL    HW121143   0.779   1.313  12.766  0.8966 -0.5946  0.6752
 3227SOL    HW221144   0.629   1.290  12.758 -1.1460 -1.1416  1.6346
 3228SOL     OW21145   3.209   2.187   7.785 -0.2762  0.2689 -0.2357
 3228SOL    HW121146   3.169   2.244   7.850 -0.3743 -2.1206  1.8080
 3228SOL    HW221147   3.246   2.122   7.845 -0.4749  0.4448  0.0752
 3229SOL     OW21148   4.379   3.165   8.828 -0.3966  0.8553 -0.0265
 3229SOL    HW121149   4.398   3.252   8.791  1.8501 -0.2308 -1.3719
 3229SOL    HW221150   4.283   3.166   8.837 -0.5237  0.5689 -1.3047
 3230SOL     OW21151   1.649   4.611   7.228 -0.2426  0.0145 -0.3547
 3230SOL    HW121152   1.730   4.561   7.227 -0.0896  0.2853 -3.2652
 3230SOL    HW221153   1.619   4.605   7.318  1.6421  1.5841  0.3791
 3231SOL     OW21154   0.931   0.764  16.020  0.2274  0.0596  0.3492
 3231SOL    HW121155   0.939   0.669  16.023  2.4145  0.1290 -2.1378
 3231SOL    HW221156   0.848   0.781  15.976  0.7948  1.2954 -0.2732
 3232SOL     OW21157   1.065   1.875   3.186  0.9080  0.8099 -0.0621
 3232SOL    HW121158   1.091   1.903   3.098 -0.3564  0.1984 -0.6227
 3232SOL    HW221159   1.129   1.922   3.239  0.1417  1.0715  0.6241
 3233SOL     OW21160   4.490   4.208   5.997 -0.1081 -0.7702  0.1517
 3233SOL    HW121161   4.397   4.229   5.998  0.0725 -0.0705  2.6365
 3233SOL    HW221162   4.474   4.114   6.001  0.4724 -0.8991 -0.6587
 3234SOL     OW21163   4.492   4.594   7.486 -0.4522 -0.3801 -0.1588
 3234SOL    HW121164   4.559   4.583   7.418  0.6328  1.3578  0.5960
 3234SOL    HW221165   4.454   4.682   7.476  0.9460  0.3888  1.2022
 3235SOL     OW21166   4.098   1.572   6.388  0.9011 -0.4940  0.4177
 3235SOL    HW121167   4.149   1.602   6.313 -0.5322  1.2203  0.1352
 3235SOL    HW221168   4.119   1.478   6.385 -0.9955 -0.9999  2.7075
 3236SOL     OW21169   1.261   1.867  16.566  0.3005  0.6403 -0.1803
 3236SOL    HW121170   1.262   1.963  16.559  0.3894  0.5775 -1.0935
 3236SOL    HW221171   1.328   1.840  16.503  2.4567  0.8913  2.0107
 3237SOL     OW21172   1.391   2.541   1.952 -0.7347  0.0747 -0.0868
 3237SOL    HW121173   1.385   2.462   1.900 -3.0358 -0.2913  0.7640
 3237SOL    HW221174   1.328   2.601   1.912  0.3333  1.7523  0.7305
 3238SOL     OW21175   1.214   3.202   8.092 -0.0274 -0.1805  0.6929
 3238SOL    HW121176   1.282   3.141   8.063  0.1038 -0.1431  0.9208
 3238SOL    HW221177   1.279   3.265   8.122 -0.7428  1.6572 -1.6298
 3239SOL     OW21178   2.417   4.514   6.701 -0.2583 -0.0548  0.1681
 3239SOL    HW121179   2.398   4.474   6.616 -0.8773  0.1805  0.1989
 3239SOL    HW221180   2.439   4.604   6.676  1.1609 -0.4931 -0.1721
 3240SOL     OW21181   0.269   4.138   8.498 -0.3129  0.2000 -0.6651
 3240SOL    HW121182   0.327   4.086   8.443  2.8962  2.1444  0.8796
 3240SOL    HW221183   0.191   4.083   8.499 -0.3857  0.2981 -0.8503
 3241SOL     OW21184   4.195   0.591   0.251 -0.1789  0.0422 -0.2527
 3241SOL    HW121185   4.145   0.656   0.301  2.6884  0.4800  2.0272
 3241SOL    HW221186   4.280   0.592   0.295  0.4873 -1.4640 -1.5215
 3242SOL     OW21187   3.067   1.149   1.907  0.0242 -0.1187 -0.3988
 3242SOL    HW121188   3.018   1.162   1.988  0.4706 -1.8662  0.1492
 3242SOL    HW221189   3.055   1.231   1.860 -0.1275  0.1036  0.0375
 3243SOL     OW21190   4.651   2.781   7.355  0.2880 -0.3993  0.3935
 3243SOL    HW121191   4.714   2.830   7.408  2.4016 -3.3814  0.6304
 3243SOL    HW221192   4.676   2.805   7.265  1.4065  1.2155  1.1450
 3244SOL     OW21193   4.426   2.879  11.215 -0.2271 -0.1837 -0.6760
 3244SOL    HW121194   4.421   2.797  11.263 -0.1469  0.5545  0.5938
 3244SOL    HW221195   4.433   2.840  11.127 -0.9956  0.4212 -1.0037
 3245SOL     OW21196   2.448   0.928   5.595  0.3669  0.6444 -0.4279
 3245SOL    HW121197   2.534   0.914   5.633 -1.6973 -3.2042  2.8319
 3245SOL    HW221198   2.459   0.897   5.505  2.0468 -0.6937  0.2329
 3246SOL     OW21199   2.424   3.732   4.112 -0.0438  0.8416  0.3843
 3246SOL    HW121200   2.347   3.716   4.058  0.1999  1.1202 -0.0372
 3246SOL    HW221201   2.396   3.753   4.202 -1.9170  1.4211 -0.3226
 3247SOL     OW21202   3.110   3.640  16.371 -0.2594 -0.8798  0.6261
 3247SOL    HW121203   3.083   3.695  16.444 -0.5218 -1.4808  0.9750
 3247SOL    HW221204   3.049   3.653  16.298 -1.9297 -2.4474  1.7517
 3248SOL     OW21205   4.441   2.482   6.955 -0.5656  0.1701  0.4249
 3248SOL    HW121206   4.431   2.572   6.986  2.9616  0.8460 -0.3874
 3248SOL    HW221207   4.451   2.498   6.862 -0.8595  0.2943  0.4159
 3249SOL     OW21208   3.801   0.054   8.565 -0.5520 -0.1144  0.2540
 3249SOL    HW121209   3.869   0.005   8.520  1.5602  1.0175  2.2233
 3249SOL    HW221210   3.720   0.001   8.565  0.2069 -1.2781 -0.5819
 3250SOL     OW21211   2.897   3.964   2.346 -0.1525  0.4153 -0.0545
 3250SOL    HW121212   2.835   3.903   2.306 -0.9164  0.0809  1.6498
 3250SOL    HW221213   2.985   3.945   2.313  0.1492  1.3306  0.2201
 3251SOL     OW21214   2.064   4.492   6.027 -0.4259  0.6029 -0.4687
 3251SOL    HW121215   2.130   4.459   6.088  0.7147  1.6773 -1.1191
 3251SOL    HW221216   1.988   4.441   6.055  1.5573 -0.6638  2.5274
 3252SOL     OW21217   2.029   1.199   5.028 -0.4422  0.4901 -0.0077
 3252SOL    HW121218   1.942   1.177   4.995  0.0544 -1.3043 -0.1538
 3252SOL    HW221219   2.010   1.257   5.102  0.9664  2.3075 -1.0694
 3253SOL     OW21220   2.542   4.470   4.553 -0.0844  0.1283 -0.3871
 3253SOL    HW121221   2.481   4.470   4.479  0.4693 -1.9018 -0.8461
 3253SOL    HW221222   2.477   4.449   4.620 -1.0069  0.1818 -1.2732
 3254SOL     OW21223   0.088   0.375   3.266 -0.1514  0.0016  0.3371
 3254SOL    HW121224   0.170   0.378   3.218 -1.6992 -0.4617 -2.3325
 3254SOL    HW221225   0.021   0.360   3.200  0.0218 -0.2376  0.2168
 3255SOL     OW21226   4.401   0.611   9.886  0.0198 -0.1061 -0.4372
 3255SOL    HW121227   4.432   0.638   9.972  0.0566  1.6361 -1.0096
 3255SOL    HW221228   4.402   0.696   9.842 -0.4816  0.3265  0.3876
 3256SOL     OW21229   0.522   2.452   4.116 -0.2645  0.9988  0.0549
 3256SOL    HW121230   0.479   2.382   4.066 -0.9120  0.7561  0.9489
 3256SOL    HW221231   0.602   2.462   4.064  0.0934 -0.0586  0.3960
 3257SOL     OW21232   0.153   2.216  15.119  0.1911 -0.1434 -0.0323
 3257SOL    HW121233   0.084   2.236  15.056  1.3086  2.4131 -0.4163
 3257SOL    HW221234   0.108   2.147  15.168  1.7760 -1.0702  0.1392
 3258SOL     OW21235   3.570   1.353   8.384  0.4692  0.3451  0.5954
 3258SOL    HW121236   3.529   1.272   8.352  0.1432  1.1655 -1.0536
 3258SOL    HW221237   3.494   1.396   8.423  0.6464  0.1838  1.1187
 3259SOL     OW21238   3.229   2.112  13.767 -0.1479 -0.8597 -0.2364
 3259SOL    HW121239   3.238   2.135  13.860  1.0620 -0.3452 -0.4810
 3259SOL    HW221240   3.163   2.047  13.789 -0.8280 -0.3917 -0.8933
 3260SOL     OW21241   2.721   4.502   5.650 -0.0053 -0.0051 -0.1668
 3260SOL    HW121242   2.703   4.536   5.738  0.8593  0.1131 -0.0398
 3260SOL    HW221243   2.816   4.493   5.653 -0.2110 -2.4189 -0.4032
 3261SOL     OW21244   2.298   3.807   2.838 -0.0556  0.3543 -0.7300
 3261SOL    HW121245   2.273   3.721   2.805  1.7243 -1.1816  1.9110
 3261SOL    HW221246   2.264   3.861   2.766  0.2175  1.6380  0.1055
 3262SOL     OW21247   0.694   2.389   3.901  0.0787 -0.1340 -0.4287
 3262SOL    HW121248   0.638   2.323   3.861  0.2621  0.1136 -1.0915
 3262SOL    HW221249   0.697   2.455   3.831  1.5903 -0.8245 -1.0196
 3263SOL     OW21250   2.661   0.915   9.335 -0.0346 -0.6419 -0.4095
 3263SOL    HW121251   2.696   1.004   9.347 -0.5533 -0.5366  0.3415
 3263SOL    HW221252   2.651   0.909   9.240 -1.5740 -2.0753 -0.1349
 3264SOL     OW21253   0.215   4.690   7.153  0.1407 -0.5879 -0.2308
 3264SOL    HW121254   0.235   0.058   7.171 -0.6105 -0.8860  2.1140
 3264SOL    HW221255   0.303   4.657   7.135 -0.6679 -3.2183  0.6078
 3265SOL     OW21256   2.916   1.555   8.121  0.4933  0.0512  0.0877
 3265SOL    HW121257   3.008   1.530   8.132  0.4147 -0.1635  0.2595
 3265SOL    HW221258   2.871   1.472   8.102 -0.2593  0.1836  1.3091
 3266SOL     OW21259   0.253   3.409  10.446 -0.3923 -0.3200  0.1067
 3266SOL    HW121260   0.231   3.345  10.514 -0.2801 -0.1381  0.3177
 3266SOL    HW221261   0.324   3.450  10.496 -0.3821 -0.9265  0.5912
 3267SOL     OW21262   1.964   3.011   8.645  1.0609 -0.2663 -0.2102
 3267SOL    HW121263   1.963   2.946   8.715  0.4447 -1.6307 -1.4623
 3267SOL    HW221264   2.000   3.081   8.698 -1.1895 -0.6082  1.7781
 3268SOL     OW21265   2.517   2.322   5.687 -0.2983 -0.2368  0.6224
 3268SOL    HW121266   2.467   2.340   5.608  0.5633  2.4027  0.6869
 3268SOL    HW221267   2.446   2.315   5.751 -2.1119 -0.6440 -1.4417
 3269SOL     OW21268   1.999   2.363   2.685 -0.4279 -0.0067  0.2823
 3269SOL    HW121269   1.947   2.438   2.713 -0.2702 -0.0070  0.5793
 3269SOL    HW221270   2.083   2.398   2.655 -1.5966  3.0569  0.6113
 3270SOL     OW21271   3.588   0.639   2.814 -0.3076  0.2893 -0.4792
 3270SOL    HW121272   3.499   0.639   2.850  0.5049 -4.0722  1.4383
 3270SOL    HW221273   3.620   0.557   2.852 -0.2677 -0.4998 -2.2449
 3271SOL     OW21274   3.246   4.311  15.427  0.1508 -0.1725 -0.3099
 3271SOL    HW121275   3.301   4.248  15.381  1.8511  1.0308  0.0624
 3271SOL    HW221276   3.318   4.350  15.476 -2.0679  0.4207  2.4892
 3272SOL     OW21277   4.100   3.558   5.570 -0.5904  0.3996  0.2870
 3272SOL    HW121278   4.121   3.497   5.641  1.2880  1.9036  1.0515
 3272SOL    HW221279   4.099   3.635   5.628 -1.4335 -0.0201  0.8254
 3273SOL     OW21280   1.395   1.071   7.605  0.7926 -0.1051  0.3035
 3273SOL    HW121281   1.389   1.011   7.680 -2.8009 -1.3587 -1.0007
 3273SOL    HW221282   1.349   1.025   7.535 -0.5631  0.4977  0.7931
 3274SOL     OW21283   1.970   2.434   0.514 -0.0254  0.0369 -0.2097
 3274SOL    HW121284   1.983   2.417   0.608  1.4608 -0.9787 -0.6062
 3274SOL    HW221285   1.882   2.473   0.511 -0.5394 -1.0125  0.9532
 3275SOL     OW21286   3.236   2.239  14.032 -0.0361 -0.2318  0.0864
 3275SOL    HW121287   3.155   2.269  13.990 -1.9496 -1.9190  2.5104
 3275SOL    HW221288   3.259   2.320  14.078 -1.7743 -0.2164  0.9461
 3276SOL     OW21289   0.080   0.661  11.563 -0.5870 -0.2130 -0.2727
 3276SOL    HW121290   0.001   0.707  11.592 -0.3508 -0.0974  0.1745
 3276SOL    HW221291   0.139   0.735  11.557  0.2124 -0.9229 -1.1077
 3277SOL     OW21292   3.261   1.197   8.724 -0.6427  0.0928  0.8149
 3277SOL    HW121293   3.293   1.199   8.814  3.1632 -4.3986 -0.4075
 3277SOL    HW221294   3.328   1.253   8.685  1.3395 -2.2947  0.7487
 3278SOL     OW21295   4.073   0.560   7.325  0.2693 -0.2684  0.5072
 3278SOL    HW121296   3.983   0.588   7.342  0.6756  0.4272  1.4979
 3278SOL    HW221297   4.072   0.478   7.375 -3.1687 -1.0594 -0.8018
 3279SOL     OW21298   0.353   0.508  17.517 -0.0534  0.0610 -0.0201
 3279SOL    HW121299   0.349   0.597  17.484 -1.3464  0.3944  1.0281
 3279SOL    HW221300   0.444   0.489  17.492  0.0181 -1.0448  1.0479
 3280SOL     OW21301   3.261   0.102   7.744  0.5747 -0.0969 -0.1291
 3280SOL    HW121302   3.205   0.178   7.754  0.6149  0.1174 -1.6637
 3280SOL    HW221303   3.296   0.112   7.656 -1.0808  0.6459 -0.6840
 3281SOL     OW21304   3.318   3.631   8.942 -0.2816  0.4433 -0.2193
 3281SOL    HW121305   3.245   3.572   8.919 -0.7916  0.6022  0.9957
 3281SOL    HW221306   3.299   3.651   9.033 -1.1402  0.4573 -0.4004
 3282SOL     OW21307   4.020   3.800   7.707  0.4697  0.3104  0.0164
 3282SOL    HW121308   4.090   3.853   7.669  0.4699  0.3647  0.0919
 3282SOL    HW221309   3.960   3.871   7.732  0.3246  0.3267 -0.3679
 3283SOL     OW21310   0.837   2.185  15.897 -0.5291  0.0210 -0.0171
 3283SOL    HW121311   0.869   2.200  15.809 -0.3594  2.3036  0.4466
 3283SOL    HW221312   0.918   2.179  15.948 -0.9639  1.1491  0.8132
 3284SOL     OW21313   0.174   0.396   2.422 -0.4487  0.4103 -0.6901
 3284SOL    HW121314   0.157   0.394   2.516  1.1482 -0.1947 -0.4018
 3284SOL    HW221315   0.270   0.393   2.422 -0.4755 -0.4223 -1.5946
 3285SOL     OW21316   4.701   2.346   0.454  0.0849  0.1187 -0.2297
 3285SOL    HW121317   4.681   2.392   0.535  0.5713 -0.0159 -0.0317
 3285SOL    HW221318   4.697   2.253   0.478 -0.1246 -0.5281 -2.7142
 3286SOL     OW21319   4.333   3.440   1.462  0.0559  0.3591  0.1941
 3286SOL    HW121320   4.301   3.356   1.494  0.0433  0.9685  1.7845
 3286SOL    HW221321   4.408   3.414   1.408  0.5880  0.3134  0.9409
 3287SOL     OW21322   0.871   2.517   4.258 -0.4501  0.1846 -0.0642
 3287SOL    HW121323   0.901   2.588   4.202  0.6562 -0.6827 -0.5617
 3287SOL    HW221324   0.901   2.435   4.218 -0.9369  0.0236 -0.1026
 3288SOL     OW21325   0.049   0.554   5.574  0.6922  0.4276 -0.0996
 3288SOL    HW121326   0.090   0.482   5.527  0.7983 -0.4545  1.3380
 3288SOL    HW221327   4.687   0.513   5.579  0.9149 -0.2573 -2.2875
 3289SOL     OW21328   3.988   4.584   6.436  0.4108  0.7815 -0.4063
 3289SOL    HW121329   4.073   4.542   6.454 -0.0872  0.3749  1.0511
 3289SOL    HW221330   3.998   4.598   6.342 -2.9983  2.8918 -0.4523
 3290SOL     OW21331   1.525   0.868   7.408  0.1576  0.1635 -0.4322
 3290SOL    HW121332   1.527   0.955   7.448  2.1994  0.4032 -1.0527
 3290SOL    HW221333   1.452   0.870   7.345  1.4298  0.6697 -1.8879
 3291SOL     OW21334   2.010   0.429   6.766 -0.3852 -0.1037 -0.1295
 3291SOL    HW121335   1.927   0.475   6.756  0.0237  0.4929 -0.8712
 3291SOL    HW221336   1.989   0.342   6.797 -3.1251  0.5773 -0.0568
 3292SOL     OW21337   2.944   3.037   5.359  0.1315  0.2111 -0.5247
 3292SOL    HW121338   2.964   2.943   5.364  1.1015  0.4817  0.7692
 3292SOL    HW221339   3.026   3.068   5.397 -0.1279  0.2205  0.0391
 3293SOL     OW21340   1.902   2.853  13.287 -0.4926  0.0127  0.2056
 3293SOL    HW121341   1.844   2.842  13.363  0.2712  0.7206  0.9007
 3293SOL    HW221342   1.872   2.783  13.230 -3.4038  0.8279  0.7391
 3294SOL     OW21343   1.851   4.563   4.972  0.6512 -0.1628  0.0408
 3294SOL    HW121344   1.783   4.554   5.039 -0.8066 -1.0884 -1.5713
 3294SOL    HW221345   1.826   4.492   4.913 -0.2691 -0.8023  1.1813
 3295SOL     OW21346   3.869   0.779   8.054 -0.2189 -0.2263  0.4350
 3295SOL    HW121347   3.809   0.781   8.128 -1.5674  2.9432 -0.7700
 3295SOL    HW221348   3.923   0.704   8.082 -0.9972 -0.4317  1.3700
 3296SOL     OW21349   4.018   1.175   3.105 -0.3155 -0.3892 -0.3116
 3296SOL    HW121350   3.976   1.089   3.100 -1.2421  0.0242  0.4758
 3296SOL    HW221351   4.099   1.148   3.149 -2.2143 -0.9834  2.7955
 3297SOL     OW21352   2.723   2.469   5.207  0.0312 -0.5774  0.5617
 3297SOL    HW121353   2.757   2.509   5.127 -1.7722 -2.7598 -1.3076
 3297SOL    HW221354   2.805   2.459   5.256  0.8692 -0.0951 -0.7282
 3298SOL     OW21355   1.869   4.420   7.308 -0.3587 -0.2271  0.7670
 3298SOL    HW121356   1.915   4.362   7.247  2.6129  3.2646 -0.2492
 3298SOL    HW221357   1.939   4.467   7.352 -0.4032  1.3143 -0.8112
 3299SOL     OW21358   0.765   2.468  16.101  0.0411 -0.3207 -0.2144
 3299SOL    HW121359   0.780   2.523  16.024  0.6043 -0.4647 -0.2090
 3299SOL    HW221360   0.714   2.404  16.052  1.4875 -3.0728  1.8697
 3300SOL     OW21361   0.018   4.720  10.647  0.2573  0.2961  0.8197
 3300SOL    HW121362   0.087   0.023  10.708  1.6393  1.1015 -1.0815
 3300SOL    HW221363   4.672   4.705  10.712  1.1099 -0.4693  1.5578
 3301SOL     OW21364   3.460   4.386   2.743  0.1632 -0.4747  0.1857
 3301SOL    HW121365   3.463   4.380   2.839 -0.8517  3.2313  0.4542
 3301SOL    HW221366   3.458   4.481   2.739 -0.3863 -0.3641  3.1797
 3302SOL     OW21367   2.317   1.395  13.516  0.3476  0.0109  0.2025
 3302SOL    HW121368   2.363   1.389  13.432  0.0692 -1.2473  0.1412
 3302SOL    HW221369   2.226   1.420  13.500  0.1985 -1.4573 -1.2887
 3303SOL     OW21370   4.288   2.744   3.787 -0.3092  0.1528  0.3134
 3303SOL    HW121371   4.369   2.742   3.838 -0.3064 -0.8335  0.2828
 3303SOL    HW221372   4.317   2.688   3.715  0.7232  0.2988  0.6109
 3304SOL     OW21373   2.992   0.159   4.567 -1.1733  0.3343  0.8700
 3304SOL    HW121374   3.038   0.075   4.571  1.0050  1.5625  1.5456
 3304SOL    HW221375   2.982   0.183   4.475 -2.0015 -0.9847  0.6248
 3305SOL     OW21376   0.229   0.386   4.945 -0.1157 -0.3572 -0.2764
 3305SOL    HW121377   0.200   0.339   5.023  1.3541 -1.8639 -0.6459
 3305SOL    HW221378   0.222   0.480   4.964  0.5930 -0.2992 -0.3056
 3306SOL     OW21379   0.742   2.279   5.820  0.1120  0.2642 -0.3420
 3306SOL    HW121380   0.715   2.321   5.902 -1.9556 -0.6299 -0.5620
 3306SOL    HW221381   0.787   2.351   5.775  2.2870 -0.1597  1.1687
 3307SOL     OW21382   4.631   1.395   4.763  1.0170 -0.3805  0.0905
 3307SOL    HW121383   4.648   1.317   4.816  2.5122  0.2585  0.5586
 3307SOL    HW221384   4.695   1.378   4.694 -0.7636 -0.7384 -1.4850
 3308SOL     OW21385   4.522   3.969   6.565 -0.1390  0.8899 -0.1689
 3308SOL    HW121386   4.439   4.000   6.603 -0.9269  0.5326 -1.5735
 3308SOL    HW221387   4.561   4.043   6.518  2.6742 -1.1209 -0.9756
 3309SOL     OW21388   1.593   2.807  13.910 -0.8335  0.0504  0.7138
 3309SOL    HW121389   1.518   2.780  13.857 -0.0711 -1.9694  0.6761
 3309SOL    HW221390   1.654   2.813  13.837 -0.8603 -1.8966  0.5294
 3310SOL     OW21391   3.163   2.378   7.245  0.0800 -0.0676  0.8308
 3310SOL    HW121392   3.086   2.321   7.258  0.1506  0.0390  1.6729
 3310SOL    HW221393   3.205   2.357   7.161 -0.3169  1.4137  0.2693
 3311SOL     OW21394   3.834   0.578  16.733 -0.2294 -0.7000 -0.0588
 3311SOL    HW121395   3.757   0.575  16.789 -1.1503  2.9171 -1.0912
 3311SOL    HW221396   3.779   0.589  16.655  0.0677  0.1145 -0.1526
 3312SOL     OW21397   3.500   0.957   8.911  0.5795  0.5265  0.1593
 3312SOL    HW121398   3.412   0.942   8.875  1.2037  0.6064 -1.3875
 3312SOL    HW221399   3.550   0.970   8.830 -2.1692  1.0392 -1.4534
 3313SOL     OW21400   0.808   1.407  15.068  0.0423 -0.1458  0.6051
 3313SOL    HW121401   0.850   1.422  14.983  1.8929 -3.5803  0.9446
 3313SOL    HW221402   0.886   1.422  15.122  2.4607  0.3552 -3.0493
 3314SOL     OW21403   2.355   0.036   8.474 -0.0226  0.0739 -0.0449
 3314SOL    HW121404   2.416   0.088   8.421  0.7734 -1.6199 -0.7778
 3314SOL    HW221405   2.275   0.041   8.422  0.5724 -1.3829 -1.1045
 3315SOL     OW21406   4.180   3.223   3.098  0.2028 -0.3417  0.0614
 3315SOL    HW121407   4.185   3.228   3.002  1.4983  0.0031  0.1485
 3315SOL    HW221408   4.108   3.285   3.107  1.8907  1.2762  2.5679
 3316SOL     OW21409   0.348   0.497  14.389 -0.2862 -0.0040  0.0759
 3316SOL    HW121410   0.379   0.408  14.368 -0.5510 -0.3897  1.3175
 3316SOL    HW221411   0.375   0.539  14.307  1.8723  2.5920  2.1139
 3317SOL     OW21412   2.795   1.754   5.621  0.2804 -0.3986  0.0570
 3317SOL    HW121413   2.793   1.692   5.694  0.9042 -1.3464 -0.7346
 3317SOL    HW221414   2.856   1.820   5.653  0.2370  1.0593 -2.8658
 3318SOL     OW21415   1.518   4.299  13.165 -0.3523 -1.1690  0.0438
 3318SOL    HW121416   1.596   4.329  13.118 -0.9646  0.2503 -0.0688
 3318SOL    HW221417   1.457   4.303  13.091 -0.3770  0.3696  0.1510
 3319SOL     OW21418   2.552   3.187   6.165 -0.1903 -0.4280 -0.3762
 3319SOL    HW121419   2.640   3.215   6.139 -0.1420 -0.9335 -0.7504
 3319SOL    HW221420   2.568   3.107   6.214  0.6788  0.5696  0.9776
 3320SOL     OW21421   0.740   4.599   7.365 -0.1936  0.4881 -0.2310
 3320SOL    HW121422   0.811   4.660   7.383  1.2549 -0.9093 -1.1352
 3320SOL    HW221423   0.733   4.547   7.445 -0.3893 -0.1713 -0.6749
 3321SOL     OW21424   3.650   2.353   6.921  0.1396  0.0114  0.1504
 3321SOL    HW121425   3.618   2.439   6.947  1.8423  0.3007  1.3254
 3321SOL    HW221426   3.730   2.351   6.974  0.9958 -0.8689 -1.1612
 3322SOL     OW21427   4.205   3.044   6.544 -0.4687 -0.8064 -0.7651
 3322SOL    HW121428   4.242   3.003   6.467  0.2610 -0.5055 -0.5725
 3322SOL    HW221429   4.162   2.962   6.571  0.2448 -0.7451  0.5756
 3323SOL     OW21430   3.964   3.913   6.100  0.0212 -0.6458  0.3052
 3323SOL    HW121431   4.043   3.907   6.154 -0.8042 -0.6029  1.5327
 3323SOL    HW221432   3.943   3.820   6.101 -0.9061 -0.4583 -2.0928
 3324SOL     OW21433   0.967   3.215   4.393 -0.1554 -0.2515 -0.1585
 3324SOL    HW121434   0.917   3.246   4.469 -0.0878  1.0131 -0.6303
 3324SOL    HW221435   0.952   3.286   4.331  0.2442 -1.3758 -1.5359
 3325SOL     OW21436   1.949   0.653   2.456 -0.4973 -0.0741 -0.1766
 3325SOL    HW121437   1.963   0.564   2.490 -0.0941  0.2629  0.5454
 3325SOL    HW221438   1.981   0.708   2.528  0.5021  0.6150 -1.1453
 3326SOL     OW21439   1.697   0.795   2.964  0.4416  0.4724 -0.1277
 3326SOL    HW121440   1.678   0.758   2.878 -1.6687  1.7729 -0.2284
 3326SOL    HW221441   1.730   0.722   3.017  0.8338  1.7542  1.3987
 3327SOL     OW21442   4.411   0.883  17.338 -0.2994 -0.1682  0.2270
 3327SOL    HW121443   4.320   0.889  17.367 -0.6102 -3.3731 -0.1084
 3327SOL    HW221444   4.453   0.960  17.376  0.5983 -1.7737  2.4718
 3328SOL     OW21445   1.707   3.701   9.276  0.3057 -0.0137  0.6499
 3328SOL    HW121446   1.654   3.752   9.215  0.9100 -0.3226 -0.1344
 3328SOL    HW221447   1.786   3.755   9.275 -0.4734  1.0645 -2.7350
 3329SOL     OW21448   1.256   1.761  10.346 -0.2469 -0.1734  0.5777
 3329SOL    HW121449   1.316   1.697  10.383 -0.9541 -1.8627 -1.2152
 3329SOL    HW221450   1.170   1.720  10.356 -0.5681  0.2377 -0.4595
 3330SOL     OW21451   0.901   1.065   3.255  0.2693  0.3761  0.1235
 3330SOL    HW121452   0.919   1.078   3.348  2.5766 -3.0277  0.1407
 3330SOL    HW221453   0.863   1.151   3.238  0.1058  0.2682 -0.0688
 3331SOL     OW21454   0.320   2.349  15.771  0.0405  0.2658  0.4435
 3331SOL    HW121455   0.337   2.429  15.821 -0.7513  0.1527  0.8761
 3331SOL    HW221456   0.342   2.374  15.681  1.4950 -0.7606  0.5123
 3332SOL     OW21457   0.024   1.844   7.788 -0.6762 -0.6990  0.7827
 3332SOL    HW121458   0.096   1.871   7.731 -1.4980 -0.1649 -0.0192
 3332SOL    HW221459   4.680   1.824   7.722  0.8400 -1.1033 -0.6510
 3333SOL     OW21460   2.750   1.676   9.149  0.2913 -0.1525  0.7086
 3333SOL    HW121461   2.823   1.726   9.113  1.4602 -0.8064  2.1721
 3333SOL    HW221462   2.770   1.589   9.113  0.2143 -0.1110  0.5658
 3334SOL     OW21463   2.932   3.776  17.074 -0.0166  0.0159 -0.0532
 3334SOL    HW121464   3.020   3.750  17.050  0.5375 -0.2617  2.2610
 3334SOL    HW221465   2.884   3.738  17.000 -1.0646  1.5859 -0.1767
 3335SOL     OW21466   1.559   3.410   6.164  0.1617 -0.3652  0.0815
 3335SOL    HW121467   1.532   3.407   6.255  0.7013  0.4777  0.2667
 3335SOL    HW221468   1.549   3.503   6.141 -1.9909 -0.6565 -0.1416
 3336SOL     OW21469   0.626   4.026  14.745 -0.2210  0.0767  0.3288
 3336SOL    HW121470   0.628   4.070  14.829  3.4232 -2.3537  1.5169
 3336SOL    HW221471   0.585   4.089  14.687 -0.9511  0.8452  1.6984
 3337SOL     OW21472   1.259   3.091  16.130  0.1746 -0.0503  0.5007
 3337SOL    HW121473   1.300   3.004  16.126  0.5341  0.2134 -1.8073
 3337SOL    HW221474   1.328   3.137  16.083 -0.0279  0.9973  1.2297
 3338SOL     OW21475   3.500   2.654   1.785  0.3887  1.1469  0.3127
 3338SOL    HW121476   3.498   2.624   1.875  0.7175  0.0240 -0.0515
 3338SOL    HW221477   3.468   2.742   1.804 -4.5291 -0.9141  1.5477
 3339SOL     OW21478   0.163   4.407   8.055  0.5768 -0.1318 -0.0449
 3339SOL    HW121479   0.155   4.324   8.104  1.0690 -0.3931 -0.4106
 3339SOL    HW221480   0.254   4.433   8.065  0.7278 -0.4335 -0.6416
 3340SOL     OW21481   4.684   1.256   7.857 -0.2676 -0.2715  0.2461
 3340SOL    HW121482   4.684   1.294   7.945 -0.4160 -1.4016  0.7265
 3340SOL    HW221483   0.005   1.322   7.804  0.6512  0.0991  1.4501
 3341SOL     OW21484   4.526   0.323   3.199  0.5116  0.1287 -0.0459
 3341SOL    HW121485   4.532   0.273   3.280  3.5923  0.6099  0.0517
 3341SOL    HW221486   4.465   0.392   3.225  0.0052  0.0507 -1.0325
 3342SOL     OW21487   4.671   0.132   8.901  0.7403  0.1899 -0.0406
 3342SOL    HW121488   4.687   0.038   8.902 -0.1443  0.0193 -2.2850
 3342SOL    HW221489   0.033   0.166   8.875 -0.0346  1.1598 -1.3142
 3343SOL     OW21490   4.453   2.552   1.647 -0.0245  0.3750 -0.1332
 3343SOL    HW121491   4.411   2.630   1.684 -0.7910  0.6442 -1.5655
 3343SOL    HW221492   4.530   2.547   1.704 -0.6801  1.9962  0.9000
 3344SOL     OW21493   4.448   3.588   3.302  0.1508  0.2793 -0.1631
 3344SOL    HW121494   4.468   3.578   3.209  0.3606  2.1588 -0.3159
 3344SOL    HW221495   4.352   3.594   3.304  0.1079 -1.3058  3.0158
 3345SOL     OW21496   0.555   2.862   3.339 -0.0954  0.1546 -0.0310
 3345SOL    HW121497   0.646   2.877   3.364 -0.2178 -0.4299  0.7457
 3345SOL    HW221498   0.562   2.813   3.257  0.3734 -0.2092  0.2297
 3346SOL     OW21499   1.239   1.387   8.614  0.5061  0.2260 -0.0261
 3346SOL    HW121500   1.196   1.355   8.535  2.1526  1.2508 -1.3201
 3346SOL    HW221501   1.308   1.322   8.623  0.3086  0.1595  1.0730
 3347SOL     OW21502   2.337   3.954   0.251  0.6672 -0.0444 -0.4355
 3347SOL    HW121503   2.337   3.936   0.345  1.4948  0.3285 -0.3618
 3347SOL    HW221504   2.315   4.047   0.251  0.2158 -0.1403  1.9739
 3348SOL     OW21505   4.282   1.375   7.063 -0.4031 -0.3459  0.2715
 3348SOL    HW121506   4.363   1.390   7.113  0.1965 -2.0590 -0.1722
 3348SOL    HW221507   4.271   1.281   7.077  0.0917 -0.4049  0.2807
 3349SOL     OW21508   0.463   4.212  15.219 -0.0749  0.1972 -0.0770
 3349SOL    HW121509   0.390   4.159  15.187  0.4265  0.2553 -1.3358
 3349SOL    HW221510   0.447   4.221  15.312  0.8622  0.1034  0.0974
 3350SOL     OW21511   4.001   0.682   2.734  0.0855  0.1407  0.4601
 3350SOL    HW121512   4.001   0.653   2.825 -1.1819 -0.3021  0.3165
 3350SOL    HW221513   3.918   0.728   2.741  0.5616  1.3727 -1.7952
 3351SOL     OW21514   1.899   3.342   5.483  0.2483 -0.1679  0.1419
 3351SOL    HW121515   1.847   3.416   5.452  1.4472  1.8124  2.8285
 3351SOL    HW221516   1.833   3.277   5.504  0.2330  0.4284  1.9542
 3352SOL     OW21517   2.081   2.169   7.832 -0.1852 -0.4431  0.3034
 3352SOL    HW121518   1.995   2.187   7.869  0.2618  1.0489  0.6310
 3352SOL    HW221519   2.060   2.100   7.769 -0.3303  1.4031 -1.6579
 3353SOL     OW21520   1.568   1.158  11.747  0.4381  0.5370 -0.4386
 3353SOL    HW121521   1.600   1.203  11.669 -0.8235  0.6160 -0.8944
 3353SOL    HW221522   1.621   1.201  11.814  2.0169 -1.2077 -0.5563
 3354SOL     OW21523   3.654   1.625   5.926 -1.0201  0.3894 -0.3174
 3354SOL    HW121524   3.593   1.597   5.994 -0.8646 -3.1018 -1.5907
 3354SOL    HW221525   3.624   1.575   5.850  0.0292  2.5256 -2.1313
 3355SOL     OW21526   0.777   0.177   3.074  0.3210  0.0193  0.0250
 3355SOL    HW121527   0.744   0.183   2.985 -1.0457 -1.3327  0.4368
 3355SOL    HW221528   0.867   0.194   3.047  0.0627  0.2356 -0.6783
 3356SOL     OW21529   1.705   1.773   9.737 -0.3653  0.2697  0.3472
 3356SOL    HW121530   1.618   1.742   9.710 -1.1162  2.0302  0.6976
 3356SOL    HW221531   1.684   1.850   9.790  2.1845 -0.8383  2.9812
 3357SOL     OW21532   0.807   1.410   9.633 -0.2143 -0.1855  0.0423
 3357SOL    HW121533   0.857   1.370   9.704  1.0079 -0.9251 -1.2352
 3357SOL    HW221534   0.853   1.400   9.550 -0.8103 -2.3857 -0.0216
 3358SOL     OW21535   1.871   2.494   3.759  0.1850  0.2184  0.0074
 3358SOL    HW121536   1.829   2.536   3.834  0.5107  0.7752 -0.1232
 3358SOL    HW221537   1.816   2.526   3.688 -0.7240 -0.6670  0.3082
 3359SOL     OW21538   1.462   1.493  15.493 -0.5570 -0.1890 -0.4491
 3359SOL    HW121539   1.503   1.416  15.455 -3.6636 -0.6773 -2.9028
 3359SOL    HW221540   1.450   1.472  15.585  0.7302 -1.7914 -0.6614
 3360SOL     OW21541   4.590   1.230   2.238 -0.2651  0.3994 -0.1123
 3360SOL    HW121542   4.498   1.258   2.236  0.1978  1.7825 -1.9850
 3360SOL    HW221543   4.582   1.135   2.233  1.4603  0.3855 -2.7084
 3361SOL     OW21544   4.183   4.299   7.000 -0.3983 -0.1170 -0.1480
 3361SOL    HW121545   4.127   4.268   7.071 -1.2286 -0.7274 -1.0754
 3361SOL    HW221546   4.267   4.311   7.045 -0.7510  0.4188  0.3752
 3362SOL     OW21547   1.177   4.666   5.538 -0.0199 -0.0072 -0.0280
 3362SOL    HW121548   1.175   4.627   5.451  1.4794  0.3514 -0.2080
 3362SOL    HW221549   1.084   4.654   5.558 -0.0392  0.0615 -0.0764
 3363SOL     OW21550   3.541   3.584   4.394 -0.0800  0.2641 -0.5213
 3363SOL    HW121551   3.489   3.616   4.321  1.6684  1.6290 -1.1437
 3363SOL    HW221552   3.589   3.510   4.356  0.4523  0.3761 -0.0471
 3364SOL     OW21553   0.671   0.748   2.594  0.0185  0.4234 -0.2114
 3364SOL    HW121554   0.726   0.720   2.667  0.8548  1.0658 -0.5994
 3364SOL    HW221555   0.735   0.782   2.532  0.9764 -1.7454 -0.4290
 3365SOL     OW21556   3.888   0.553   1.284  0.1922 -0.6652  0.0081
 3365SOL    HW121557   3.864   0.626   1.227  1.8915 -0.2021 -0.1109
 3365SOL    HW221558   3.806   0.543   1.333 -0.0135  1.3009  0.0834
 3366SOL     OW21559   0.973   2.535   2.523  0.3192 -0.5197 -0.5135
 3366SOL    HW121560   1.044   2.471   2.527  2.6594  2.1197  0.9333
 3366SOL    HW221561   0.959   2.546   2.617  1.0942 -1.3944 -0.2988
 3367SOL     OW21562   2.760   3.547   2.793 -0.5394  0.2601 -0.3633
 3367SOL    HW121563   2.777   3.470   2.739 -0.7178 -1.1098  1.5123
 3367SOL    HW221564   2.718   3.598   2.724  0.5997 -0.2102 -1.3930
 3368SOL     OW21565   3.950   3.264   8.178 -0.5605  0.3059 -0.2523
 3368SOL    HW121566   3.887   3.263   8.106  2.8344  1.6266 -3.2764
 3368SOL    HW221567   4.021   3.314   8.136  1.6552 -0.3935  2.6195
 3369SOL     OW21568   1.336   1.862   1.302 -0.0200 -0.2610  0.1061
 3369SOL    HW121569   1.333   1.920   1.226 -0.5449 -2.6163 -1.6678
 3369SOL    HW221570   1.252   1.880   1.344 -0.7550 -0.0180 -1.4801
 3370SOL     OW21571   3.183   2.098   3.138  0.5329 -0.2851 -0.1035
 3370SOL    HW121572   3.158   2.006   3.124  2.6595 -1.0065  0.9463
 3370SOL    HW221573   3.211   2.108   3.229  0.5152  0.5222 -0.1855
 3371SOL     OW21574   3.774   1.465   3.664 -0.2273  0.0016  0.1699
 3371SOL    HW121575   3.765   1.555   3.694  1.4920  0.4707 -0.7025
 3371SOL    HW221576   3.834   1.437   3.733 -0.8534  0.1550  0.7759
 3372SOL     OW21577   1.173   3.494   0.813 -0.2154 -0.1260 -0.5458
 3372SOL    HW121578   1.117   3.488   0.890 -1.2106  1.6160 -1.1508
 3372SOL    HW221579   1.240   3.428   0.832 -1.6229 -0.8359  1.8469
 3373SOL     OW21580   0.063   2.524   8.345  0.7055 -0.9044  0.6359
 3373SOL    HW121581   0.097   2.457   8.286  0.8591 -0.7797  0.5797
 3373SOL    HW221582   0.113   2.507   8.425  0.8075 -0.6137  0.6336
 3374SOL     OW21583   4.659   2.038   8.154 -0.1070  0.2286 -0.4871
 3374SOL    HW121584   0.004   2.051   8.089  0.2338  0.1219 -0.1420
 3374SOL    HW221585   4.582   2.020   8.100 -0.5999  1.5361 -0.2389
 3375SOL     OW21586   0.451   4.376   6.280  0.6943 -0.2303 -0.2814
 3375SOL    HW121587   0.440   4.372   6.375 -0.4973  0.6211 -0.3898
 3375SOL    HW221588   0.438   4.468   6.259 -0.1243 -0.3482 -0.2848
 3376SOL     OW21589   3.067   1.497  10.394  0.3409 -0.0419 -0.5812
 3376SOL    HW121590   2.992   1.495  10.454 -0.4915 -1.6570 -1.6631
 3376SOL    HW221591   3.046   1.429  10.330  2.3327 -1.1575 -0.0314
 3377SOL     OW21592   0.265   3.875   9.291 -0.0968  0.2126  0.6225
 3377SOL    HW121593   0.321   3.946   9.324  1.2508 -0.0150 -1.1894
 3377SOL    HW221594   0.308   3.790   9.295 -0.3385 -0.0420 -1.7794
 3378SOL     OW21595   3.599   2.639   6.639 -0.0960 -0.1245 -0.3865
 3378SOL    HW121596   3.650   2.651   6.720 -0.2614  1.9667 -0.5812
 3378SOL    HW221597   3.562   2.727   6.627  0.1953  0.3182  1.8349
 3379SOL     OW21598   1.020   4.049   0.805 -0.5696 -0.4806 -0.4467
 3379SOL    HW121599   1.071   4.020   0.881  0.5206  0.7982 -0.6979
 3379SOL    HW221600   1.094   4.075   0.751 -0.7229 -1.3996 -1.1008
 3380SOL     OW21601   4.142   4.356  12.671  0.3645 -0.1335 -0.4683
 3380SOL    HW121602   4.124   4.450  12.665 -0.7006 -0.3636 -0.7659
 3380SOL    HW221603   4.206   4.357  12.742  1.0203 -1.2321 -1.0502
 3381SOL     OW21604   0.138   1.977   4.144  0.1112  0.5578  0.3177
 3381SOL    HW121605   0.130   1.896   4.194 -1.9954 -0.1784 -1.2356
 3381SOL    HW221606   0.083   2.039   4.192 -1.3614  0.1289 -0.8083
 3382SOL     OW21607   2.425   0.634   9.225  0.2883  0.3846  0.6956
 3382SOL    HW121608   2.379   0.714   9.200  3.3385  1.9573  0.0788
 3382SOL    HW221609   2.516   0.663   9.233 -0.4857  2.5837  1.2420
 3383SOL     OW21610   0.928   1.328   6.185  0.2067 -0.0960  0.3532
 3383SOL    HW121611   0.954   1.417   6.209 -1.8107  0.3068  0.9938
 3383SOL    HW221612   0.860   1.342   6.120 -1.5842 -0.0456  2.2272
 3384SOL     OW21613   1.376   4.486  15.306  0.3838  0.0967  0.8194
 3384SOL    HW121614   1.471   4.500  15.307  0.4750 -0.4122 -0.1971
 3384SOL    HW221615   1.348   4.491  15.397  0.7434  0.0373  0.9333
 3385SOL     OW21616   0.765   0.808   6.272  0.0119 -0.9214  1.2424
 3385SOL    HW121617   0.789   0.773   6.358  1.5653 -1.5597  0.5620
 3385SOL    HW221618   0.717   0.882   6.307 -3.0131 -2.3491  0.0719
 3386SOL     OW21619   2.975   2.512   2.895 -0.5542 -0.0189  0.1621
 3386SOL    HW121620   3.009   2.472   2.975  1.4042  2.1648  0.4245
 3386SOL    HW221621   2.896   2.460   2.879 -1.4029  1.1723  0.4988
 3387SOL     OW21622   2.826   2.064   2.174 -0.2339  0.2154 -0.0741
 3387SOL    HW121623   2.757   2.005   2.142 -1.2070  1.8594 -0.9998
 3387SOL    HW221624   2.876   2.071   2.093  0.4217  0.1179  0.3254
 3388SOL     OW21625   2.004   2.779   8.853  0.2698 -0.0797 -0.1021
 3388SOL    HW121626   1.926   2.760   8.906 -1.3652  0.6833 -2.2193
 3388SOL    HW221627   2.058   2.715   8.899  0.4107 -0.3103 -0.5881
 3389SOL     OW21628   1.929   2.655  10.147 -0.1780 -0.5019  0.0216
 3389SOL    HW121629   1.866   2.721  10.117 -0.8757 -1.8453 -1.4770
 3389SOL    HW221630   1.932   2.687  10.237  1.1037 -0.1121 -0.1632
 3390SOL     OW21631   3.607   0.186  11.661  0.5420 -0.7646  0.2450
 3390SOL    HW121632   3.693   0.147  11.643  1.0384 -0.2540  1.5171
 3390SOL    HW221633   3.558   0.195  11.579  0.0441  2.4090  0.8970
 3391SOL     OW21634   3.576   2.486   5.275  0.1586  0.2301  0.0685
 3391SOL    HW121635   3.659   2.439   5.281  0.8977  1.1478 -2.7269
 3391SOL    HW221636   3.615   2.571   5.294 -2.6847  1.3240  1.0913
 3392SOL     OW21637   4.645   1.841   8.762 -0.1335 -0.3848  0.1619
 3392SOL    HW121638   4.573   1.885   8.806 -1.3519 -0.4791 -1.7419
 3392SOL    HW221639   4.656   1.893   8.683  0.6396 -0.4717  0.2120
 3393SOL     OW21640   2.889   4.035  16.959 -0.5418 -0.0018 -0.6692
 3393SOL    HW121641   2.796   4.048  16.980 -0.5695 -1.4472  0.0898
 3393SOL    HW221642   2.910   3.957  17.010  0.3559 -0.9679 -2.5166
 3394SOL     OW21643   0.286   4.025   1.785 -1.2236  0.1713 -0.9108
 3394SOL    HW121644   0.247   4.059   1.704  0.9110 -2.5631 -3.0893
 3394SOL    HW221645   0.378   4.011   1.763 -1.0807 -1.9757  1.0921
 3395SOL     OW21646   3.304   0.329   2.998 -0.2161 -0.3053 -0.4336
 3395SOL    HW121647   3.358   0.348   3.075 -0.6464  3.9972 -1.2153
 3395SOL    HW221648   3.276   0.241   3.023  1.0047 -0.3554  0.8061
 3396SOL     OW21649   0.416   1.434   9.141  0.2733 -0.0165  1.2384
 3396SOL    HW121650   0.352   1.505   9.137  0.1241 -0.2055  0.2909
 3396SOL    HW221651   0.367   1.355   9.119  0.8145  0.1493 -0.5935
 3397SOL     OW21652   1.026   1.481   2.940  0.6285 -0.0612 -0.1615
 3397SOL    HW121653   0.967   1.553   2.962  0.5436 -0.2627  0.2746
 3397SOL    HW221654   1.091   1.518   2.880 -0.3244 -1.5943 -2.1734
 3398SOL     OW21655   3.993   1.861   4.488 -0.4708  0.3302 -0.0253
 3398SOL    HW121656   3.961   1.836   4.575 -1.5608 -0.0266 -0.5208
 3398SOL    HW221657   4.085   1.844   4.506 -0.2880  1.0158 -0.3294
 3399SOL     OW21658   0.408   3.822   1.154  0.2285 -0.2377  0.0186
 3399SOL    HW121659   0.479   3.857   1.208  0.8816  1.8019 -2.1799
 3399SOL    HW221660   0.338   3.862   1.206 -1.1454  1.7934 -3.4144
 3400SOL     OW21661   1.109   3.356  12.396 -0.3760  0.3026  0.0510
 3400SOL    HW121662   1.164   3.278  12.396 -1.6779 -0.6128  0.4982
 3400SOL    HW221663   1.104   3.391  12.307  2.9908 -0.2318 -0.3420
 3401SOL     OW21664   0.366   2.557   5.215  0.5582 -0.0595  0.2979
 3401SOL    HW121665   0.377   2.639   5.167  0.1412 -0.3957 -0.3758
 3401SOL    HW221666   0.361   2.588   5.306  0.1707  1.3252 -0.1963
 3402SOL     OW21667   4.251   2.199   8.908 -0.3276  0.3568  0.1182
 3402SOL    HW121668   4.177   2.140   8.924  2.2333 -2.4416  1.3787
 3402SOL    HW221669   4.227   2.249   8.830  0.2952  1.3058  0.5351
 3403SOL     OW21670   3.356   3.186   2.608 -0.0458  0.2180  0.0375
 3403SOL    HW121671   3.319   3.262   2.653  1.5549 -0.0598  1.7776
 3403SOL    HW221672   3.284   3.125   2.592 -0.7196  0.9766  0.1705
 3404SOL     OW21673   0.304   2.187   0.365  0.2399 -0.4430 -0.5946
 3404SOL    HW121674   0.367   2.115   0.368  0.0507 -0.5325  1.4449
 3404SOL    HW221675   0.236   2.149   0.420  1.6958  1.2404  2.3819
 3405SOL     OW21676   1.160   3.621  15.694 -0.0657 -0.1024 -0.2417
 3405SOL    HW121677   1.135   3.529  15.702  1.3828 -0.4735 -0.0354
 3405SOL    HW221678   1.199   3.608  15.608 -0.8285 -3.2130 -0.1058
 3406SOL     OW21679   4.215   0.000   0.213 -0.2654  0.6421  0.2953
 3406SOL    HW121680   4.139   0.046   0.177 -0.7359 -0.7149 -0.4353
 3406SOL    HW221681   4.163   4.652   0.250  2.0507 -0.7171  0.9058
 3407SOL     OW21682   1.162   4.654   2.357 -0.1488  0.2934 -0.1955
 3407SOL    HW121683   1.162   4.601   2.278  1.8016 -0.4157  0.2962
 3407SOL    HW221684   1.137   0.017   2.323  0.4338 -0.4512 -2.5524
 3408SOL     OW21685   3.833   3.374  12.879 -0.4438  0.0670  0.5303
 3408SOL    HW121686   3.895   3.446  12.885  0.1832 -0.5038  0.8867
 3408SOL    HW221687   3.857   3.341  12.966 -1.9084  1.4655  1.4605
 3409SOL     OW21688   0.039   0.476   7.900 -0.5766  0.3042  0.1149
 3409SOL    HW121689   0.011   0.568   7.899 -1.0381  0.1532 -1.6112
 3409SOL    HW221690   4.706   0.451   7.826  1.6329 -0.5305 -1.3123
 3410SOL     OW21691   1.213   1.419  14.957 -0.6608 -0.3074 -0.5772
 3410SOL    HW121692   1.145   1.400  15.021 -0.2093 -0.3575 -0.1066
 3410SOL    HW221693   1.164   1.440  14.878  1.1634 -1.1155 -1.9299
 3411SOL     OW21694   3.285   4.055   4.803 -0.1783  0.9936 -0.6662
 3411SOL    HW121695   3.233   4.134   4.819 -0.2922  0.8673 -0.4034
 3411SOL    HW221696   3.218   3.992   4.828 -0.5644  1.8625  0.5298
 3412SOL     OW21697   3.431   0.494   5.938  0.5031 -0.1569 -0.0193
 3412SOL    HW121698   3.502   0.473   5.877 -0.4470 -1.9813 -0.5165
 3412SOL    HW221699   3.423   0.409   5.983  1.0559  0.6222  1.5255
 3413SOL     OW21700   0.410   1.678  12.442 -0.3205  1.3275  0.0405
 3413SOL    HW121701   0.459   1.676  12.360 -0.5819  1.7853 -0.1248
 3413SOL    HW221702   0.394   1.588  12.469  1.8499  0.6192 -1.0728
 3414SOL     OW21703   4.331   0.856   4.271 -0.1137 -0.7392 -0.2437
 3414SOL    HW121704   4.343   0.947   4.298  2.1002 -0.4555 -2.1857
 3414SOL    HW221705   4.269   0.830   4.339  0.7306 -0.2074  0.7181
 3415SOL     OW21706   1.239   2.710   5.614 -0.2212 -0.3548 -0.0784
 3415SOL    HW121707   1.315   2.654   5.606  0.2255  0.3148 -0.5372
 3415SOL    HW221708   1.262   2.779   5.552  0.4168 -1.9496 -1.5854
 3416SOL     OW21709   3.886   0.217   6.496 -0.3323  0.6685 -0.5934
 3416SOL    HW121710   3.870   0.182   6.408 -1.3687  0.3637 -0.2842
 3416SOL    HW221711   3.889   0.133   6.541  0.8763  1.8077  1.4379
 3417SOL     OW21712   3.497   2.178   3.079 -0.1988  0.0788  0.0133
 3417SOL    HW121713   3.460   2.132   3.155  1.3528 -0.8642  0.2003
 3417SOL    HW221714   3.475   2.268   3.104 -0.1107 -0.0020  0.3906
 3418SOL     OW21715   2.119   3.743   7.130 -0.1316 -0.3844 -0.2078
 3418SOL    HW121716   2.041   3.797   7.120  0.5180  0.8166  1.1182
 3418SOL    HW221717   2.100   3.716   7.220  1.1310 -0.5811  0.0074
 3419SOL     OW21718   4.348   1.931   3.760 -0.2570  0.6303  0.1172
 3419SOL    HW121719   4.310   2.013   3.789  0.6177  0.9583  0.3237
 3419SOL    HW221720   4.423   1.959   3.707 -0.3763 -1.6478 -1.2975
 3420SOL     OW21721   3.392   2.151   3.319 -0.5793  0.5353  0.6568
 3420SOL    HW121722   3.390   2.076   3.378 -0.3116 -0.0501 -0.0754
 3420SOL    HW221723   3.449   2.207   3.372 -0.2658  0.6806  0.1674
 3421SOL     OW21724   0.513   3.928   7.382 -0.4210 -0.3745  0.1303
 3421SOL    HW121725   0.570   3.935   7.458  1.8088 -2.4574 -1.3530
 3421SOL    HW221726   0.443   3.988   7.409  0.4219 -0.2808  2.0443
 3422SOL     OW21727   1.074   4.424  13.813 -0.0556  0.2394  0.6166
 3422SOL    HW121728   1.009   4.401  13.879 -1.6545 -1.3647 -1.4951
 3422SOL    HW221729   1.117   4.476  13.880  0.3012  1.0811 -0.2701
 3423SOL     OW21730   0.033   1.172   4.854  0.2088  0.5735  0.3406
 3423SOL    HW121731   0.096   1.112   4.814 -3.0197 -1.8962 -1.0442
 3423SOL    HW221732   0.081   1.234   4.909 -1.1017  0.7831  1.2386
 3424SOL     OW21733   0.711   1.115   5.409 -0.7431  0.1242 -0.0430
 3424SOL    HW121734   0.785   1.146   5.357 -0.4762  1.4455  1.1348
 3424SOL    HW221735   0.741   1.111   5.500  0.8342  0.5413 -0.5551
 3425SOL     OW21736   1.874   1.141   9.260 -0.0027  0.2075 -0.5549
 3425SOL    HW121737   1.934   1.127   9.334  0.5355 -0.3797 -1.1132
 3425SOL    HW221738   1.828   1.057   9.260  0.8433 -0.2633  0.5842
 3426SOL     OW21739   2.022   4.047  16.403 -0.4751  0.4604 -0.6217
 3426SOL    HW121740   1.963   4.024  16.331 -0.4792  0.1507 -0.5209
 3426SOL    HW221741   2.030   3.965  16.452 -0.0424  2.0659  1.9897
 3427SOL     OW21742   1.539   3.990   6.083 -0.0892 -0.8005 -0.3098
 3427SOL    HW121743   1.494   3.985   5.999 -0.2554 -2.3599 -0.1377
 3427SOL    HW221744   1.473   4.044   6.126 -0.3495 -0.4819 -1.1131
 3428SOL     OW21745   2.143   4.037   3.393 -0.1200  0.7323  0.1045
 3428SOL    HW121746   2.206   4.108   3.387 -0.3037  0.7550 -1.4991
 3428SOL    HW221747   2.080   4.075   3.332  0.0873  0.1326 -0.4810
 3429SOL     OW21748   1.731   2.645   3.980 -0.5769  0.2229  0.1788
 3429SOL    HW121749   1.735   2.592   4.060  0.3333 -0.5229 -0.3583
 3429SOL    HW221750   1.687   2.724   4.010  2.0845  2.0715 -0.8451
 3430SOL     OW21751   3.436   4.690   2.959  0.0617  1.0949 -0.1283
 3430SOL    HW121752   3.351   4.716   2.994 -0.0465 -1.3608  1.4036
 3430SOL    HW221753   3.413   4.672   2.868  0.9455 -0.3958 -0.0569
 3431SOL     OW21754   2.061   0.473   4.978 -0.4939  0.2822 -0.1824
 3431SOL    HW121755   2.100   0.487   4.891  0.2271 -1.1575 -0.0781
 3431SOL    HW221756   2.105   0.535   5.036 -0.2630  0.8427 -0.9524
 3432SOL     OW21757   4.362   0.561   4.627  0.0332  0.8600  0.4970
 3432SOL    HW121758   4.324   0.639   4.587  2.5985  1.1243 -1.4112
 3432SOL    HW221759   4.455   0.581   4.613  0.1167 -0.5158 -0.8622
 3433SOL     OW21760   2.840   3.521   9.553 -0.6235  0.8396  0.4807
 3433SOL    HW121761   2.915   3.570   9.587  0.3558 -0.5920  0.3908
 3433SOL    HW221762   2.827   3.452   9.618 -2.3398  2.1657  1.5393
 3434SOL     OW21763   2.099   0.152   7.265 -0.2582  0.1704  0.0693
 3434SOL    HW121764   2.020   0.139   7.318  0.1474  0.4422  0.7495
 3434SOL    HW221765   2.168   0.104   7.312 -0.0711 -0.5036 -0.9138
 3435SOL     OW21766   2.982   3.875  10.839  0.1669 -0.1062 -0.5003
 3435SOL    HW121767   3.011   3.962  10.864  0.5961 -0.2899 -0.3609
 3435SOL    HW221768   2.886   3.886  10.839  0.0890 -0.7594  0.5374
 3436SOL     OW21769   1.626   4.599   3.013  0.2339 -0.1960 -0.0944
 3436SOL    HW121770   1.551   4.630   2.961  1.2717  0.4081 -1.2298
 3436SOL    HW221771   1.582   4.564   3.090  3.3775  0.4931  1.9758
 3437SOL     OW21772   1.938   3.104   7.515  0.2412  0.8432 -0.2340
 3437SOL    HW121773   1.890   3.023   7.498  1.2040 -0.1363  1.7136
 3437SOL    HW221774   1.871   3.163   7.551 -0.5336  1.3468 -2.4567
 3438SOL     OW21775   2.377   2.969  10.078  0.5266 -0.2870  0.1101
 3438SOL    HW121776   2.323   3.025  10.022  0.3865 -2.5315 -1.9765
 3438SOL    HW221777   2.469   2.988  10.061  0.0399  1.3663 -0.7379
 3439SOL     OW21778   1.749   1.116   8.281 -0.8805 -0.4428 -0.0684
 3439SOL    HW121779   1.714   1.079   8.363 -1.4564  2.3985  0.9471
 3439SOL    HW221780   1.776   1.202   8.312  1.0584 -0.8581 -0.6553
 3440SOL     OW21781   3.778   1.937   3.904  0.2100  0.0746 -0.2588
 3440SOL    HW121782   3.720   1.990   3.960  1.9124  3.4368 -1.6801
 3440SOL    HW221783   3.833   1.996   3.853 -0.8742  1.6076  0.3312
 3441SOL     OW21784   2.969   3.916   4.217 -0.5432 -0.0679  0.0780
 3441SOL    HW121785   2.906   3.888   4.151 -0.0708 -0.2440 -0.3031
 3441SOL    HW221786   3.044   3.949   4.168 -1.6331  1.2357 -0.7080
 3442SOL     OW21787   2.020   0.555   8.733 -0.4679  0.0343  0.5312
 3442SOL    HW121788   1.983   0.467   8.723  0.9733 -0.5448  0.3802
 3442SOL    HW221789   1.962   0.581   8.805 -0.7604 -2.5245  1.2171
 3443SOL     OW21790   3.999   1.920   7.770  0.4506 -0.0960 -0.4016
 3443SOL    HW121791   3.907   1.906   7.792  0.4870  1.3408  0.6218
 3443SOL    HW221792   4.021   1.827   7.758  0.0724 -0.2170 -0.1479
 3444SOL     OW21793   4.548   2.014   3.596  0.2192  0.0497 -0.0694
 3444SOL    HW121794   4.615   1.960   3.554 -0.1030  0.1126 -0.6539
 3444SOL    HW221795   4.598   2.089   3.629  2.5317 -1.3240 -0.4724
 3445SOL     OW21796   3.593   4.665  10.778  0.5993 -0.2011 -0.0423
 3445SOL    HW121797   3.623   4.723  10.708 -1.8668 -1.0592 -1.8080
 3445SOL    HW221798   3.638   4.708  10.851 -0.4813  1.3609 -0.2848
 3446SOL     OW21799   3.224   2.651   6.220  0.1568  0.1543 -0.0009
 3446SOL    HW121800   3.205   2.742   6.243 -0.7374  0.1513 -0.7209
 3446SOL    HW221801   3.302   2.640   6.276 -0.5410 -0.0076  0.9381
 3447SOL     OW21802   3.691   0.282   8.153 -0.6858  0.5527 -0.1380
 3447SOL    HW121803   3.669   0.269   8.061  1.0046  0.6617 -0.5741
 3447SOL    HW221804   3.706   0.189   8.167 -2.8759  0.3679  0.8268
 3448SOL     OW21805   4.270   3.130   6.148  0.4273  0.3876 -0.0527
 3448SOL    HW121806   4.344   3.164   6.197  0.4234  2.2228 -1.3408
 3448SOL    HW221807   4.314   3.119   6.064  2.1368 -0.6625  0.9848
 3449SOL     OW21808   3.689   1.487   2.851 -0.0658  0.2136  1.0024
 3449SOL    HW121809   3.687   1.578   2.881 -0.2686  0.3567  0.5532
 3449SOL    HW221810   3.731   1.440   2.923  1.6143 -2.6098 -1.7808
 3450SOL     OW21811   3.599   0.770   6.703 -0.4788 -0.3998 -0.1789
 3450SOL    HW121812   3.632   0.803   6.620  1.7012 -2.2124 -0.0244
 3450SOL    HW221813   3.679   0.769   6.755 -0.4043  1.9831 -0.2328
 3451SOL     OW21814   4.393   0.674   0.697  0.1810 -0.0214  0.7824
 3451SOL    HW121815   4.350   0.708   0.776 -0.8830 -0.3631  0.3398
 3451SOL    HW221816   4.412   0.759   0.656 -0.1711 -0.1340  0.3858
 3452SOL     OW21817   2.999   2.125   1.931 -0.2224 -0.2807  0.3668
 3452SOL    HW121818   2.979   2.076   1.851 -0.8521  1.9895 -0.8504
 3452SOL    HW221819   2.962   2.211   1.912  1.3268 -0.2510 -2.5181
 3453SOL     OW21820   2.363   3.831  16.855  0.1353 -0.1426  0.0716
 3453SOL    HW121821   2.310   3.768  16.807  2.7471 -1.1480 -1.4356
 3453SOL    HW221822   2.439   3.776  16.871 -1.3861 -2.9861 -2.6582
 3454SOL     OW21823   4.106   0.736   8.422  0.7056  0.2797 -0.3011
 3454SOL    HW121824   4.200   0.737   8.438  0.4626  1.5408  1.1096
 3454SOL    HW221825   4.074   0.718   8.511 -0.8884 -1.7320 -1.2876
 3455SOL     OW21826   4.211   2.758  11.492 -0.1088  0.1901  0.1933
 3455SOL    HW121827   4.287   2.810  11.516 -2.6274  3.5322  0.9206
 3455SOL    HW221828   4.232   2.679  11.542  1.6826 -0.0360 -0.9089
 3456SOL     OW21829   3.283   1.842   9.080  0.4528  0.3111  0.5428
 3456SOL    HW121830   3.274   1.926   9.124  1.2785  0.3350  0.6834
 3456SOL    HW221831   3.192   1.818   9.067  0.4679 -0.5241  1.9432
 3457SOL     OW21832   2.673   2.859  12.721  0.6737  0.9205 -0.1880
 3457SOL    HW121833   2.603   2.925  12.712 -1.4305 -1.4462 -1.1094
 3457SOL    HW221834   2.651   2.821  12.806  0.4955  0.5834 -0.3868
 3458SOL     OW21835   3.137   3.669   7.752  0.3729 -0.2984 -0.2425
 3458SOL    HW121836   3.049   3.654   7.788  0.7045  2.4415  1.6990
 3458SOL    HW221837   3.190   3.594   7.780 -2.5771 -1.4083  2.4044
 3459SOL     OW21838   3.031   0.056  10.858  0.1253  0.4017  0.5112
 3459SOL    HW121839   3.107   0.090  10.811 -1.3299 -0.0264 -2.1220
 3459SOL    HW221840   3.062   0.054  10.949  2.0813  2.6051 -0.1031
 3460SOL     OW21841   3.798   4.294   6.158 -0.0724 -0.2839  0.2159
 3460SOL    HW121842   3.724   4.272   6.101 -0.7316  1.8763  0.2442
 3460SOL    HW221843   3.772   4.246   6.237 -0.5914 -1.6938 -0.8113
 3461SOL     OW21844   1.810   1.842   6.732  0.0874  0.5008 -0.5226
 3461SOL    HW121845   1.768   1.756   6.729 -1.9263  1.4326  0.5777
 3461SOL    HW221846   1.728   1.883   6.705 -0.4534 -1.0009 -1.1736
 3462SOL     OW21847   4.399   0.534   3.275 -0.8175  0.2059 -0.3044
 3462SOL    HW121848   4.443   0.618   3.266 -2.1115  0.7630 -1.4746
 3462SOL    HW221849   4.350   0.548   3.357 -0.5943 -4.0200  0.5730
 3463SOL     OW21850   2.966   2.494   3.575 -0.3514 -0.4043  0.3644
 3463SOL    HW121851   3.030   2.431   3.609 -0.6199 -0.3526  0.9614
 3463SOL    HW221852   2.943   2.547   3.652  1.7331  0.6805  0.2272
 3464SOL     OW21853   0.863   3.845   3.452 -0.0557  0.5174  0.4091
 3464SOL    HW121854   0.851   3.909   3.382  1.9508  1.7988  1.2528
 3464SOL    HW221855   0.813   3.769   3.421  1.9012 -0.8779  0.6692
 3465SOL     OW21856   3.188   1.198   4.146 -0.3263  0.6920  0.0281
 3465SOL    HW121857   3.278   1.227   4.128  0.4499 -1.4237  0.5314
 3465SOL    HW221858   3.158   1.228   4.060  1.3732  1.3493 -0.3288
 3466SOL     OW21859   4.347   3.916   3.032 -0.3397 -0.3435  0.1714
 3466SOL    HW121860   4.360   3.855   2.960  0.3128  1.9202 -1.6328
 3466SOL    HW221861   4.423   3.968   3.004 -1.1738  1.4881  1.2828
 3467SOL     OW21862   2.350   1.363   8.331 -0.4903  0.0080 -0.3406
 3467SOL    HW121863   2.401   1.293   8.290  0.0517  0.2007  0.0128
 3467SOL    HW221864   2.431   1.406   8.359 -0.2250 -1.5275  1.2469
 3468SOL     OW21865   1.258   3.768   0.796 -0.2423 -0.1130  0.2939
 3468SOL    HW121866   1.319   3.800   0.729 -0.3636  0.4971  0.4759
 3468SOL    HW221867   1.274   3.674   0.790 -0.2049 -0.1698  1.2447
 3469SOL     OW21868   0.321   1.459   4.157  0.5246 -0.0228  0.6289
 3469SOL    HW121869   0.348   1.369   4.175  1.3112 -0.0908 -0.8815
 3469SOL    HW221870   0.226   1.452   4.156  0.3983  1.5428  0.8955
 3470SOL     OW21871   2.324   2.764   9.134 -0.2914 -0.4363  0.2503
 3470SOL    HW121872   2.296   2.759   9.225  0.2992  1.6691  0.5468
 3470SOL    HW221873   2.402   2.820   9.132 -0.2617 -0.4915 -0.2948
 3471SOL     OW21874   2.358   4.166   4.888  0.2347  1.5050  0.4204
 3471SOL    HW121875   2.279   4.189   4.840 -1.5636 -0.4365  2.4813
 3471SOL    HW221876   2.347   4.222   4.965  2.8541  1.8698  0.5251
 3472SOL     OW21877   3.419   4.675   8.749  0.0300 -0.1456 -0.1064
 3472SOL    HW121878   3.354   4.706   8.685 -1.6362 -3.2584  0.0507
 3472SOL    HW221879   3.359   4.625   8.805  1.3956  0.9316  2.3119
 3473SOL     OW21880   4.097   2.222   6.950 -0.4299  0.7032 -0.6694
 3473SOL    HW121881   4.051   2.262   6.877 -1.0854 -1.7828 -1.6047
 3473SOL    HW221882   4.125   2.303   6.993 -1.7420  0.4607  0.6238
 3474SOL     OW21883   4.005   1.419   7.899  0.0357 -0.1207 -0.3666
 3474SOL    HW121884   3.933   1.482   7.911 -1.4234 -1.7001 -0.8745
 3474SOL    HW221885   4.031   1.467   7.820 -2.7799  0.2544 -1.0648
 3475SOL     OW21886   0.211   0.943   4.551  0.0510 -0.1527  0.0951
 3475SOL    HW121887   0.185   0.863   4.597 -0.6795 -0.2320 -0.4408
 3475SOL    HW221888   0.260   0.987   4.620  1.7757  1.0077 -1.8628
 3476SOL     OW21889   1.710   2.075  15.363 -0.3078 -0.1671  0.0455
 3476SOL    HW121890   1.639   2.063  15.427 -0.0059 -0.6965  0.2802
 3476SOL    HW221891   1.785   2.090  15.421 -0.3296 -0.6346  0.1948
 3477SOL     OW21892   0.581   1.166   8.083 -0.6267  0.8150  0.1050
 3477SOL    HW121893   0.537   1.204   8.159  2.8882  2.0363  1.5610
 3477SOL    HW221894   0.661   1.218   8.078 -0.0634 -0.2765 -2.3765
 3478SOL     OW21895   1.712   0.441  12.480 -0.5577 -0.1043 -0.3551
 3478SOL    HW121896   1.707   0.461  12.574  2.6986  0.3463 -0.2748
 3478SOL    HW221897   1.777   0.500  12.444 -1.1029  0.6029 -0.1726
 3479SOL     OW21898   0.127   3.323   7.193 -0.1508  0.3867  0.5467
 3479SOL    HW121899   0.209   3.362   7.160  0.0661  0.6973  1.4668
 3479SOL    HW221900   0.151   3.249   7.248  0.1803 -0.3168 -0.5523
 3480SOL     OW21901   2.846   1.486   4.075  0.1573 -0.2602 -0.3026
 3480SOL    HW121902   2.834   1.413   4.014  0.0548 -0.9526  0.5397
 3480SOL    HW221903   2.754   1.512   4.082  0.1381 -1.0545  2.3700
 3481SOL     OW21904   1.935   1.581   0.305 -0.0361  0.2210 -0.0610
 3481SOL    HW121905   2.028   1.587   0.282 -0.5012  0.6050 -1.8401
 3481SOL    HW221906   1.916   1.668   0.340 -0.4134 -0.3176  1.0798
 3482SOL     OW21907   3.194   3.361   3.538 -0.0138  0.0182 -0.0927
 3482SOL    HW121908   3.160   3.293   3.479 -0.0115  0.5623 -0.7220
 3482SOL    HW221909   3.250   3.307   3.594  0.3788 -0.8196 -1.2916
 3483SOL     OW21910   4.252   4.667   5.653 -0.5555 -0.0646 -0.2240
 3483SOL    HW121911   4.254   4.677   5.558  0.5611 -0.1882 -0.2077
 3483SOL    HW221912   4.260   0.037   5.672 -2.4195  0.1838 -0.6887
 3484SOL     OW21913   0.314   4.370   8.606  0.2771  0.1504  0.5021
 3484SOL    HW121914   0.356   4.352   8.690 -0.4663 -0.3484  0.7656
 3484SOL    HW221915   0.292   4.284   8.570 -0.1397  0.3498  0.2876
 3485SOL     OW21916   0.818   4.097   8.881 -0.5605 -0.5463  0.1299
 3485SOL    HW121917   0.791   4.185   8.907  1.3296  0.2561 -0.6370
 3485SOL    HW221918   0.893   4.123   8.827 -0.1960  0.1916  0.9762
 3486SOL     OW21919   4.173   2.308  10.196  0.2354 -0.1781 -0.1694
 3486SOL    HW121920   4.150   2.346  10.281  2.5935  0.6068  0.1113
 3486SOL    HW221921   4.171   2.213  10.209 -3.8616  0.2925  2.6167
 3487SOL     OW21922   0.516   0.386   4.353 -0.3208  0.1826  0.3497
 3487SOL    HW121923   0.534   0.302   4.310  0.1372  1.0744 -1.2055
 3487SOL    HW221924   0.497   0.438   4.275 -0.6085 -1.9446 -1.0128
 3488SOL     OW21925   0.334   2.093   3.445  0.2119  0.6204 -0.0101
 3488SOL    HW121926   0.383   2.030   3.391  0.9745  1.0939  0.1369
 3488SOL    HW221927   0.389   2.171   3.455  0.1975  0.9081 -2.1629
 3489SOL     OW21928   3.371   1.259  12.165  0.3470 -0.2595  0.0555
 3489SOL    HW121929   3.275   1.254  12.168  0.2821  0.3018 -1.1385
 3489SOL    HW221930   3.390   1.344  12.124 -0.7749  1.2734  2.7073
 3490SOL     OW21931   0.513   2.565  14.816 -0.3864 -0.6872 -0.4556
 3490SOL    HW121932   0.575   2.613  14.760  1.5211 -1.8364  0.6898
 3490SOL    HW221933   0.432   2.603  14.783  0.5469  0.5804 -1.3059
 3491SOL     OW21934   3.181   1.348   5.199 -0.0013 -0.9745 -0.0088
 3491SOL    HW121935   3.104   1.382   5.245 -1.2207 -0.1405 -2.6338
 3491SOL    HW221936   3.190   1.269   5.252  1.1702  0.4537  1.8802
 3492SOL     OW21937   2.657   4.126   9.440  1.0816 -0.0599 -0.3949
 3492SOL    HW121938   2.588   4.191   9.427 -0.5311 -2.0931 -1.9962
 3492SOL    HW221939   2.603   4.049   9.421  0.2664 -0.2025  2.4532
 3493SOL     OW21940   2.700   0.274   5.275 -0.2505 -0.0522 -0.0722
 3493SOL    HW121941   2.794   0.254   5.267 -0.3590 -1.3669  2.0085
 3493SOL    HW221942   2.699   0.298   5.368 -1.9239 -2.1391  0.4511
 3494SOL     OW21943   3.053   2.092   1.275  0.1317  0.3415  0.3815
 3494SOL    HW121944   3.056   2.178   1.233 -0.0054  1.0772  1.8556
 3494SOL    HW221945   2.958   2.092   1.283  0.0216  0.5344 -0.9333
 3495SOL     OW21946   2.338   2.939   8.514  0.3457 -0.2827  0.2597
 3495SOL    HW121947   2.326   2.845   8.503  2.6440 -0.5376 -0.1572
 3495SOL    HW221948   2.298   2.949   8.600 -1.9631 -4.2589 -0.3486
 3496SOL     OW21949   0.272   4.206   3.746  0.1269  0.1444  0.2087
 3496SOL    HW121950   0.213   4.282   3.748 -1.1085 -0.8494  1.4845
 3496SOL    HW221951   0.350   4.254   3.776  1.0543 -1.2593  0.0253
 3497SOL     OW21952   4.205   4.354   6.748  0.3129  0.0448  0.0709
 3497SOL    HW121953   4.273   4.286   6.752  0.8824  0.6386  0.5303
 3497SOL    HW221954   4.182   4.344   6.840 -1.9404 -2.3731 -0.7438
 3498SOL     OW21955   0.827   2.361   4.552 -0.1228 -0.9220  0.5963
 3498SOL    HW121956   0.750   2.303   4.556  1.6425 -3.4026 -1.1396
 3498SOL    HW221957   0.795   2.408   4.475  0.6385  0.5113  1.1645
 3499SOL     OW21958   2.450   4.298   9.341 -0.0977 -0.5558 -0.5867
 3499SOL    HW121959   2.426   4.385   9.309 -1.7647  0.1985  2.6342
 3499SOL    HW221960   2.445   4.249   9.260  0.8957 -0.9204 -0.4286
 3500SOL     OW21961   3.121   3.147   7.175  0.3369  0.6578 -0.3052
 3500SOL    HW121962   3.119   3.075   7.237  0.3385  1.2063  0.3294
 3500SOL    HW221963   3.169   3.210   7.229 -0.0586 -0.1817  1.0064
 3501SOL     OW21964   3.876   4.065   6.320  0.2217  0.2461  0.3951
 3501SOL    HW121965   3.804   4.002   6.324 -0.4621  0.9691 -0.7361
 3501SOL    HW221966   3.902   4.052   6.229 -1.6371  0.6400 -0.1940
 3502SOL     OW21967   1.578   2.241   2.701 -0.3760  0.4007 -0.1246
 3502SOL    HW121968   1.533   2.296   2.766 -0.6005 -1.9659  1.7152
 3502SOL    HW221969   1.664   2.232   2.741 -1.1318 -2.5322  0.8660
 3503SOL     OW21970   3.038   0.936   2.197  0.1880 -0.8011 -0.1586
 3503SOL    HW121971   3.070   1.021   2.165 -0.7340 -1.2479 -2.2776
 3503SOL    HW221972   3.093   0.874   2.149 -0.5077 -1.7202  0.2305
 3504SOL     OW21973   0.795   2.949   5.701 -0.1552 -0.2347 -0.2047
 3504SOL    HW121974   0.843   2.934   5.783 -0.2705  0.4084 -0.0187
 3504SOL    HW221975   0.872   2.938   5.646 -0.3377  2.3307 -0.9790
 3505SOL     OW21976   2.256   2.142  17.370  0.8038  0.1812 -0.5625
 3505SOL    HW121977   2.305   2.130  17.452  0.5381  2.1061 -0.1245
 3505SOL    HW221978   2.280   2.057  17.332 -2.9383 -0.8256 -0.6638
 3506SOL     OW21979   3.660   3.314   4.300 -0.3505  0.2709 -0.2264
 3506SOL    HW121980   3.648   3.327   4.394  1.3124  0.1355 -0.0056
 3506SOL    HW221981   3.575   3.274   4.282 -0.4173  0.7153 -0.9104
 3507SOL     OW21982   3.277   2.257   8.504 -0.0216 -1.0680 -0.5972
 3507SOL    HW121983   3.241   2.332   8.456  0.7223 -0.1547  0.2600
 3507SOL    HW221984   3.265   2.272   8.598 -0.0358 -1.5693 -0.5229
 3508SOL     OW21985   0.173   0.210   4.158  0.3226 -0.2002  0.0284
 3508SOL    HW121986   0.187   0.218   4.253  0.6711 -1.4981  0.0831
 3508SOL    HW221987   0.095   0.155   4.166  1.2854 -1.6668 -0.8708
 3509SOL     OW21988   0.645   3.214   7.351 -0.2626 -0.1577 -0.2941
 3509SOL    HW121989   0.622   3.298   7.312 -0.2086  0.1577  0.3674
 3509SOL    HW221990   0.561   3.167   7.359 -1.4122  2.0311  0.3551
 3510SOL     OW21991   4.460   3.538  11.368  0.1707  0.0729  0.5449
 3510SOL    HW121992   4.527   3.599  11.338  0.2602 -0.7814 -1.0467
 3510SOL    HW221993   4.510   3.461  11.395 -1.9537 -1.0824  1.1534
 3511SOL     OW21994   3.083   3.454  12.470 -0.1391 -0.1168 -0.9153
 3511SOL    HW121995   3.005   3.400  12.478 -0.0546 -0.0796  0.2684
 3511SOL    HW221996   3.090   3.487  12.560  2.1470  0.4715 -1.3106
 3512SOL     OW21997   0.385   1.580   8.661  0.9240  0.1204  0.3605
 3512SOL    HW121998   0.353   1.552   8.575  0.6512 -1.8194  1.0952
 3512SOL    HW221999   0.311   1.567   8.721  0.5926 -0.5413 -0.1970
 3513SOL     OW22000   0.882   0.406   6.996 -0.1045  0.3837  0.9024
 3513SOL    HW122001   0.901   0.500   6.997  0.6989  0.2210  1.6678
 3513SOL    HW222002   0.789   0.410   7.017  0.0470  3.7587  1.0097
 3514SOL     OW22003   0.662   0.588   8.846  0.1302  0.1624  0.2202
 3514SOL    HW122004   0.717   0.514   8.822  0.8132  0.0655  2.1301
 3514SOL    HW222005   0.711   0.612   8.925  1.9559  1.7942 -1.4053
 3515SOL     OW22006   3.080   1.983   0.610 -0.3106  0.2572 -0.0162
 3515SOL    HW122007   3.109   1.965   0.700  0.7708 -1.3036 -0.6801
 3515SOL    HW222008   3.071   1.898   0.569  1.4915  0.6390 -1.2209
 3516SOL     OW22009   4.076   2.421   7.427  0.0817  0.1052  0.2530
 3516SOL    HW122010   4.102   2.395   7.516 -2.3094  1.5605  1.3639
 3516SOL    HW222011   4.163   2.432   7.387  1.0740  0.7656  2.5877
 3517SOL     OW22012   3.999   2.181   2.569 -0.1962 -0.3746 -0.1833
 3517SOL    HW122013   4.086   2.151   2.594  0.7685  0.3868 -2.6478
 3517SOL    HW222014   3.945   2.166   2.647  1.3079 -1.5076  0.6337
 3518SOL     OW22015   2.600   2.973   7.391  0.0605  0.0133 -0.1117
 3518SOL    HW122016   2.616   3.006   7.303 -0.0489  1.5620  0.4534
 3518SOL    HW222017   2.541   2.899   7.375 -1.4906  1.0653  0.8225
 3519SOL     OW22018   2.081   0.213   6.154 -0.1131  0.3400  0.2572
 3519SOL    HW122019   1.990   0.211   6.124  0.6280  0.4857 -1.9328
 3519SOL    HW222020   2.105   0.301   6.127  2.7862 -0.9608 -1.3200
 3520SOL     OW22021   4.110   2.026   4.058  0.1838 -0.1847  0.5289
 3520SOL    HW122022   4.188   2.057   4.012 -0.0293 -0.2684  0.1079
 3520SOL    HW222023   4.153   1.969   4.122  1.7493  1.0767  0.5987
 3521SOL     OW22024   2.510   0.543   7.120 -0.3812  0.8129  0.5877
 3521SOL    HW122025   2.569   0.570   7.191  2.5139 -1.9648 -0.7581
 3521SOL    HW222026   2.543   0.455   7.101 -0.2310  0.7986  0.9228
 3522SOL     OW22027   2.177   1.723   3.266  0.7922 -0.0118  0.8174
 3522SOL    HW122028   2.144   1.794   3.322  3.0406  2.8140 -1.3978
 3522SOL    HW222029   2.134   1.645   3.301 -0.7725  0.2906 -0.4367
 3523SOL     OW22030   0.035   3.080   5.999 -0.3755  0.4627 -0.1183
 3523SOL    HW122031   0.002   2.996   5.968  1.8492  0.7478 -3.1936
 3523SOL    HW222032   0.045   3.056   6.091 -2.1043  0.2750  0.0185
 3524SOL     OW22033   3.109   2.295  13.010  0.2053 -0.1366 -0.0878
 3524SOL    HW122034   3.075   2.317  13.097 -0.6161  1.6748 -0.8601
 3524SOL    HW222035   3.033   2.328  12.962  1.0616  0.3699 -1.1184
 3525SOL     OW22036   1.864   0.842   7.949 -0.4250  0.7014  0.1403
 3525SOL    HW122037   1.923   0.771   7.924  0.3332  1.1214  0.7497
 3525SOL    HW222038   1.912   0.896   8.012  0.6176  0.4799 -0.4679
 3526SOL     OW22039   4.690   3.974   3.613  0.4735 -0.6391  0.4346
 3526SOL    HW122040   0.032   3.930   3.559  2.1753  0.7944  1.3386
 3526SOL    HW222041   4.617   3.916   3.592  0.1764 -0.3350  0.6348
 3527SOL     OW22042   2.770   3.004  11.749 -0.4716  0.1667 -0.5476
 3527SOL    HW122043   2.725   2.993  11.665 -0.4938 -0.6764 -0.4263
 3527SOL    HW222044   2.786   3.099  11.750 -1.5660  0.3117  2.9864
 3528SOL     OW22045   2.092   2.151  11.520  0.1633  0.1438 -0.1653
 3528SOL    HW122046   2.146   2.178  11.594 -2.9995  0.0995  2.1288
 3528SOL    HW222047   2.033   2.086  11.558  0.2505  0.9043  1.2784
 3529SOL     OW22048   3.981   0.625   3.256  0.1656  0.5857  0.0080
 3529SOL    HW122049   3.938   0.540   3.259  2.0773 -0.4542 -1.6100
 3529SOL    HW222050   4.043   0.616   3.328  1.1572 -2.4909 -1.2189
 3530SOL     OW22051   0.130   0.289   5.503 -0.9227 -0.6016  0.2075
 3530SOL    HW122052   0.125   0.233   5.426 -0.2467  0.9489 -0.9773
 3530SOL    HW222053   0.041   0.278   5.536 -0.2127 -0.8250  2.0562
 3531SOL     OW22054   0.707   1.718   8.209  0.0067 -0.3137 -0.2262
 3531SOL    HW122055   0.758   1.685   8.284 -0.9715 -0.8247  0.2131
 3531SOL    HW222056   0.630   1.748   8.257  1.7462  2.8653  0.5978
 3532SOL     OW22057   1.743   4.589   6.083  0.1121 -0.0277 -0.2194
 3532SOL    HW122058   1.727   4.576   5.989 -0.1312 -1.3026 -0.0078
 3532SOL    HW222059   1.766   4.681   6.094 -0.7796  0.5749 -3.3054
 3533SOL     OW22060   0.034   3.553   4.555  0.0913 -0.2310  0.0171
 3533SOL    HW122061   4.679   3.607   4.563  0.7933  0.8311 -0.4092
 3533SOL    HW222062   0.044   3.534   4.462  3.6317  1.4464  0.0546
 3534SOL     OW22063   2.865   4.543   7.027  0.0863 -0.2736  0.0235
 3534SOL    HW122064   2.807   4.549   7.103  1.9125  3.5552  1.1384
 3534SOL    HW222065   2.951   4.527   7.067 -0.4812  0.5622  1.5829
 3535SOL     OW22066   2.111   4.537   5.071  0.0508  0.0420 -0.0424
 3535SOL    HW122067   2.019   4.545   5.096 -0.1467  0.9033 -1.0460
 3535SOL    HW222068   2.145   4.621   5.101 -1.6277  0.6754  0.0562
 3536SOL     OW22069   3.243   1.369   5.509  0.3332  0.0785 -0.3275
 3536SOL    HW122070   3.187   1.406   5.441 -0.0663 -0.7307 -0.4486
 3536SOL    HW222071   3.206   1.408   5.588  1.5963  0.8837 -0.1344
 3537SOL     OW22072   4.157   1.297  14.103  0.1182  0.7861 -0.3363
 3537SOL    HW122073   4.165   1.283  14.197 -1.2881 -1.2941 -0.5256
 3537SOL    HW222074   4.063   1.284  14.089 -0.2231 -1.9685  4.4648
 3538SOL     OW22075   2.153   4.118   0.964 -0.0132  0.3406  0.5574
 3538SOL    HW122076   2.212   4.175   0.914  1.3466 -0.4369  1.2893
 3538SOL    HW222077   2.096   4.088   0.893  0.0615  1.6049 -0.0355
 3539SOL     OW22078   2.445   4.541   1.523  0.2700 -0.1443 -0.2198
 3539SOL    HW122079   2.534   4.520   1.552 -0.1147 -0.5093  0.6931
 3539SOL    HW222080   2.395   4.541   1.605  2.0239 -2.3646  0.8542
 3540SOL     OW22081   0.583   0.324  10.187 -0.7546 -0.0724  0.4293
 3540SOL    HW122082   0.522   0.260  10.221 -0.5663 -0.7942 -0.6067
 3540SOL    HW222083   0.577   0.294  10.096 -1.8227  1.3538  0.0271
 3541SOL     OW22084   0.727   0.822  12.740 -0.0190 -0.5036  0.1719
 3541SOL    HW122085   0.774   0.748  12.779 -0.6387 -0.1202  1.6300
 3541SOL    HW222086   0.651   0.779  12.702  0.4477  0.6169 -2.0418
 3542SOL     OW22087   2.812   4.081   6.302 -0.0169  0.0189  0.3531
 3542SOL    HW122088   2.902   4.115   6.303 -0.0401  0.0834  0.1955
 3542SOL    HW222089   2.828   3.989   6.323  1.1091 -0.3447 -2.1197
 3543SOL     OW22090   0.425   2.557  13.860  0.7697 -0.1315  0.2668
 3543SOL    HW122091   0.434   2.472  13.817 -2.8636 -0.1326 -0.5033
 3543SOL    HW222092   0.358   2.535  13.924 -2.0676  2.5999 -1.7240
 3544SOL     OW22093   3.642   1.746   8.091  0.5532 -0.1569 -0.1701
 3544SOL    HW122094   3.649   1.653   8.113 -0.0817 -0.2911 -0.5376
 3544SOL    HW222095   3.564   1.786   8.130  1.0462  0.5510  0.0826
 3545SOL     OW22096   0.750   3.864   8.192 -0.0441 -0.3165  0.0641
 3545SOL    HW122097   0.760   3.955   8.221  0.3773 -0.0343 -0.9543
 3545SOL    HW222098   0.683   3.880   8.125 -1.8552 -1.2464  1.6668
 3546SOL     OW22099   0.893   3.017  17.081  0.4674 -0.3065 -0.1986
 3546SOL    HW122100   0.844   2.939  17.104  0.7077 -1.4168 -3.4627
 3546SOL    HW222101   0.875   3.021  16.987 -1.5851 -0.1809  0.2064
 3547SOL     OW22102   3.358   1.407  11.625 -0.1136  0.4238  0.4789
 3547SOL    HW122103   3.303   1.419  11.548  1.5128 -0.0655 -0.7660
 3547SOL    HW222104   3.365   1.312  11.623  2.4612  0.6241 -1.3100
 3548SOL     OW22105   2.421   3.530  13.518 -0.4321 -0.0031  0.3662
 3548SOL    HW122106   2.407   3.595  13.449  1.1781  1.4622  1.4114
 3548SOL    HW222107   2.343   3.474  13.522 -0.8553  0.6918  2.0017
 3549SOL     OW22108   3.197   3.644   3.051 -0.0215  0.2647  0.2903
 3549SOL    HW122109   3.137   3.660   3.124  0.5675  0.6426  0.6990
 3549SOL    HW222110   3.146   3.588   2.993 -0.7519  1.5253 -0.2862
 3550SOL     OW22111   1.668   3.443   9.364 -0.0523  0.1562  0.4084
 3550SOL    HW122112   1.752   3.402   9.343  0.0002  0.6767 -0.3952
 3550SOL    HW222113   1.681   3.533   9.335 -1.4135 -0.1925 -1.2788
 3551SOL     OW22114   1.831   0.010   8.042 -0.2085 -0.1352 -0.0191
 3551SOL    HW122115   1.894   0.008   7.971 -0.9897 -0.1868 -0.7119
 3551SOL    HW222116   1.827   0.106   8.048  1.0392 -0.0469 -0.7692
 3552SOL     OW22117   2.029   1.417   7.303  0.0649 -0.3685  0.3977
 3552SOL    HW122118   1.963   1.365   7.256  1.5992 -1.8569 -0.1098
 3552SOL    HW222119   2.017   1.372   7.388 -1.1616 -0.4734  0.1769
 3553SOL     OW22120   4.439   4.584  17.509  0.4475  0.3460  0.5693
 3553SOL    HW122121   4.472   4.663  17.553  2.8196  0.5473 -1.5821
 3553SOL    HW222122   4.454   4.601  17.416 -0.4952 -1.6995  0.0553
 3554SOL     OW22123   3.341   2.818   8.811  0.2183  0.5994 -0.4420
 3554SOL    HW122124   3.306   2.900   8.777 -2.2277 -0.1381  0.2886
 3554SOL    HW222125   3.426   2.841   8.849  0.4069 -1.6885  0.5388
 3555SOL     OW22126   2.251   2.732   2.191 -0.7688 -0.6381 -0.0912
 3555SOL    HW122127   2.219   2.815   2.225 -1.7183 -1.9194  2.1146
 3555SOL    HW222128   2.323   2.759   2.134 -0.0614 -1.5059  0.3946
 3556SOL     OW22129   3.313   2.086  10.819 -0.4357 -0.3821  0.5922
 3556SOL    HW122130   3.261   2.012  10.790  0.2144 -0.2969 -0.8334
 3556SOL    HW222131   3.397   2.042  10.802 -0.6184  0.1268 -1.5705
 3557SOL     OW22132   0.452   2.315   2.388 -0.1172  0.3141 -0.1219
 3557SOL    HW122133   0.501   2.354   2.315  1.5004 -0.8741  0.3270
 3557SOL    HW222134   0.526   2.332   2.446  0.7475 -0.2237 -1.0570
 3558SOL     OW22135   2.959   1.358  13.972 -0.0682  0.0010 -0.0229
 3558SOL    HW122136   2.924   1.365  13.883  0.7282  2.0541 -0.1769
 3558SOL    HW222137   2.880   1.378  14.024  0.7138  1.1699  0.7191
 3559SOL     OW22138   0.168   0.035   5.378  0.0488  0.0018 -0.3374
 3559SOL    HW122139   0.238   4.696   5.396 -0.2002 -0.0485  0.4953
 3559SOL    HW222140   0.118   0.029   5.460 -0.5279 -2.4974 -0.8632
 3560SOL     OW22141   2.677   0.491   8.439 -0.0112  0.1594 -0.3065
 3560SOL    HW122142   2.631   0.480   8.522  1.4576 -1.2513  0.3224
 3560SOL    HW222143   2.768   0.499   8.470  0.0851  0.3449 -0.6379
 3561SOL     OW22144   4.403   3.798   1.456 -0.3562  0.3705  0.4332
 3561SOL    HW122145   4.326   3.742   1.459  1.6398 -2.3081  1.1551
 3561SOL    HW222146   4.355   3.879   1.438  0.1000  0.5366 -0.0567
 3562SOL     OW22147   3.282   1.768   0.223  0.4409 -0.2270 -0.7912
 3562SOL    HW122148   3.347   1.829   0.188  0.9187 -1.1214 -1.4765
 3562SOL    HW222149   3.349   1.704   0.245 -0.2648 -0.5915  0.2979
 3563SOL     OW22150   0.737   0.368   6.677  0.2907  0.4719  0.1445
 3563SOL    HW122151   0.712   0.370   6.584  0.7063  1.9153  0.0757
 3563SOL    HW222152   0.709   0.453   6.711 -1.7022 -0.5967  1.1880
 3564SOL     OW22153   1.017   3.387   9.149 -0.0966  0.3007 -0.1645
 3564SOL    HW122154   1.104   3.355   9.169  0.0604  0.8378  0.0131
 3564SOL    HW222155   0.973   3.416   9.229  2.9158 -1.2209  2.0515
 3565SOL     OW22156   1.608   0.099   6.511  0.1944  0.1209  0.2738
 3565SOL    HW122157   1.657   0.164   6.462 -2.0097  0.0352 -2.0532
 3565SOL    HW222158   1.539   0.160   6.537 -0.5970 -0.0250 -1.4864
 3566SOL     OW22159   4.159   3.054   7.164  0.0758  0.3300 -0.6747
 3566SOL    HW122160   4.218   3.025   7.094  1.7846  1.0546  0.4898
 3566SOL    HW222161   4.150   2.978   7.222  2.0551  1.8154  1.5524
 3567SOL     OW22162   0.245   2.749   1.841  0.4436  0.3624  0.0378
 3567SOL    HW122163   0.247   2.655   1.826  0.8730 -0.1090  2.9997
 3567SOL    HW222164   0.254   2.783   1.752 -0.3118  1.5645  0.4242
 3568SOL     OW22165   0.129   1.024   1.874  0.0239  0.1622 -0.3692
 3568SOL    HW122166   0.221   1.023   1.849 -0.0972  1.4077 -0.8627
 3568SOL    HW222167   0.116   1.112   1.908  1.7628  0.5081 -0.6147
 3569SOL     OW22168   3.244   4.411  11.590 -0.2941  0.2896 -0.1048
 3569SOL    HW122169   3.265   4.318  11.599 -1.7987 -0.3713 -3.4377
 3569SOL    HW222170   3.284   4.446  11.670  0.8338  3.7803 -2.1946
 3570SOL     OW22171   0.909   1.174   1.626  0.5691 -0.8358 -0.2824
 3570SOL    HW122172   0.964   1.216   1.692 -0.9729 -0.1011  0.5248
 3570SOL    HW222173   0.971   1.111   1.589  0.3719 -2.3325  1.9061
 3571SOL     OW22174   0.479   4.274   7.738 -0.1025 -0.0619  0.6329
 3571SOL    HW122175   0.406   4.217   7.714  0.1373 -0.4866  0.9198
 3571SOL    HW222176   0.528   4.263   7.656 -2.8222  0.2664 -1.0491
 3572SOL     OW22177   4.588   3.134   0.809 -0.1966  0.4182 -0.4463
 3572SOL    HW122178   4.668   3.184   0.826 -0.0129 -0.9756  2.8822
 3572SOL    HW222179   4.528   3.203   0.780  2.5139  2.2813 -1.6174
 3573SOL     OW22180   1.515   1.907   9.490  0.3732 -0.2075 -0.0469
 3573SOL    HW122181   1.534   1.815   9.511 -2.2367 -0.3200  1.7728
 3573SOL    HW222182   1.489   1.908   9.397 -0.1843  1.2009  0.1284
 3574SOL     OW22183   0.340   2.283   2.664 -0.6446  0.0186 -0.0511
 3574SOL    HW122184   0.257   2.315   2.700 -1.3543 -1.2021 -0.6072
 3574SOL    HW222185   0.327   2.314   2.574  0.4573  0.7625  0.0394
 3575SOL     OW22186   2.725   0.670   5.839  0.4014 -0.0522  0.0784
 3575SOL    HW122187   2.670   0.727   5.786  1.2567 -0.6452 -1.4606
 3575SOL    HW222188   2.804   0.725   5.845 -0.4214  1.1189  0.1666
 3576SOL     OW22189   4.515   4.427   3.095  0.1498 -0.1149  0.2873
 3576SOL    HW122190   4.451   4.380   3.149  0.0598  0.1248  0.3930
 3576SOL    HW222191   4.448   4.456   3.033 -0.0138 -0.8890  0.1094
 3577SOL     OW22192   3.399   4.257   2.169 -0.0476  0.0136  0.4705
 3577SOL    HW122193   3.455   4.229   2.241 -0.3772  2.5382  1.6995
 3577SOL    HW222194   3.393   4.353   2.175  3.0319  0.0796  2.5801
 3578SOL     OW22195   0.002   3.312   6.814 -0.6771  0.6667  0.3923
 3578SOL    HW122196   4.696   3.402   6.828 -0.3000  1.1309 -1.7376
 3578SOL    HW222197   0.097   3.323   6.812 -0.5806 -0.2454 -0.0911
 3579SOL     OW22198   3.270   3.814   0.364 -0.1400  0.4715  0.6569
 3579SOL    HW122199   3.268   3.735   0.418 -1.0327 -0.4945 -0.7797
 3579SOL    HW222200   3.205   3.789   0.298  1.1858  2.4980 -1.3711
 3580SOL     OW22201   1.175   4.586   8.992  0.1555 -0.1562  0.2440
 3580SOL    HW122202   1.091   4.575   9.036 -0.4175 -1.8625 -1.2837
 3580SOL    HW222203   1.139   4.584   8.903  0.2139  0.1746  0.2100
 3581SOL     OW22204   2.177   3.226   5.186 -0.5441 -0.2428 -0.5346
 3581SOL    HW122205   2.260   3.183   5.164 -0.6456 -1.3093  1.2059
 3581SOL    HW222206   2.208   3.317   5.187 -0.2680 -0.3435 -0.1240
 3582SOL     OW22207   3.486   2.635   2.302 -0.1575  0.2400 -0.1687
 3582SOL    HW122208   3.401   2.609   2.339 -0.1730  1.9287  0.9706
 3582SOL    HW222209   3.507   2.713   2.353  1.5452 -0.2084 -0.2139
 3583SOL     OW22210   4.596   3.059   1.730  0.5569 -0.0253  0.0006
 3583SOL    HW122211   4.522   3.044   1.672 -0.0331 -0.2015  0.8057
 3583SOL    HW222212   4.619   3.148   1.700 -1.9540  1.1578  1.5865
 3584SOL     OW22213   0.071   1.932   2.380 -0.6446 -0.1467  0.0351
 3584SOL    HW122214   0.146   1.972   2.336 -2.2019  0.8490 -1.7024
 3584SOL    HW222215   0.107   1.844   2.396  0.7628  0.3608 -0.3232
 3585SOL     OW22216   4.376   3.101   2.539  0.1171 -0.1540  0.3448
 3585SOL    HW122217   4.422   3.023   2.571  2.7465  0.9181 -0.8629
 3585SOL    HW222218   4.453   3.154   2.558 -1.2170  1.3640  1.5196
 3586SOL     OW22219   2.838   0.414   7.583  0.3047  0.1558  0.2734
 3586SOL    HW122220   2.879   0.347   7.637 -2.3057  0.3292  2.4839
 3586SOL    HW222221   2.817   0.485   7.644  0.5342  1.2322 -0.8970
 3587SOL     OW22222   3.959   3.466  10.546 -0.7296 -0.5823 -0.0740
 3587SOL    HW122223   3.999   3.523  10.612 -1.7468  0.9189 -0.7431
 3587SOL    HW222224   3.969   3.519  10.467 -0.2509 -0.8077 -0.1609
 3588SOL     OW22225   0.257   0.123   7.594 -0.4718 -0.4840 -0.4632
 3588SOL    HW122226   0.233   0.191   7.530  2.6303  1.3952  0.3663
 3588SOL    HW222227   0.326   0.076   7.547  1.1038  0.0698  1.3140
 3589SOL     OW22228   2.105   2.581   1.089 -0.5071 -0.4197 -0.1570
 3589SOL    HW122229   2.080   2.556   1.178 -0.1413 -2.1594 -0.5553
 3589SOL    HW222230   2.051   2.661   1.085 -0.5822 -0.4859 -0.4378
 3590SOL     OW22231   4.258   1.677   6.197  0.2444  0.3708  0.4313
 3590SOL    HW122232   4.282   1.676   6.104  0.9999  0.9577  0.6223
 3590SOL    HW222233   4.236   1.769   6.204 -1.2259  0.2587 -2.4530
 3591SOL     OW22234   4.639   4.599   8.126  0.0001  0.8655 -0.0724
 3591SOL    HW122235   4.695   4.609   8.203 -0.8611  0.9309  0.5382
 3591SOL    HW222236   4.714   4.589   8.067 -0.7617 -2.0180 -0.5615
 3592SOL     OW22237   3.476   4.418   4.199  0.4081 -0.1345  0.0148
 3592SOL    HW122238   3.518   4.346   4.246 -0.5030  1.2703  2.9686
 3592SOL    HW222239   3.511   4.492   4.250  0.3834  0.3075 -0.6113
 3593SOL     OW22240   0.098   4.560  15.145  0.1709 -0.2092 -0.5524
 3593SOL    HW122241   0.183   4.599  15.167  1.7646 -3.1930 -1.4587
 3593SOL    HW222242   0.058   4.574  15.231 -1.1938  0.4098 -1.3020
 3594SOL     OW22243   0.146   1.651   2.378 -0.1971 -0.1348 -0.3237
 3594SOL    HW122244   0.210   1.592   2.339 -0.0421  0.6335 -1.2229
 3594SOL    HW222245   0.068   1.602   2.353  0.9026 -2.0584 -0.0440
 3595SOL     OW22246   2.394   3.741   3.473  0.3650 -0.3130  0.3355
 3595SOL    HW122247   2.395   3.833   3.447 -0.3535 -0.0210  1.3660
 3595SOL    HW222248   2.308   3.738   3.513  0.9513  0.5457  1.6512
 3596SOL     OW22249   3.379   4.522   2.250  0.3220  0.4769 -0.1091
 3596SOL    HW122250   3.473   4.509   2.261  0.2539 -0.7930 -0.9217
 3596SOL    HW222251   3.385   4.603   2.199  1.1879  0.1192 -0.5832
 3597SOL     OW22252   3.972   1.992   6.966 -0.3875  0.2280 -0.4280
 3597SOL    HW122253   4.027   1.914   6.955 -1.5079 -0.3311 -2.0490
 3597SOL    HW222254   4.042   2.057   6.968  0.0005 -0.1734 -0.8493
 3598SOL     OW22255   4.023   4.021   1.996  0.0397 -0.3670  0.5017
 3598SOL    HW122256   4.098   4.043   2.052  0.9654  1.7986 -1.5801
 3598SOL    HW222257   3.955   4.072   2.040  1.2488  1.9566 -0.3391
 3599SOL     OW22258   1.993   2.883   3.750 -0.2320  0.1636  0.1467
 3599SOL    HW122259   1.974   2.790   3.740  1.0122  0.1863 -2.2686
 3599SOL    HW222260   1.933   2.901   3.823 -0.6352 -1.8778  0.3120
 3600SOL     OW22261   3.077   1.786   1.619  0.0208 -0.0103  0.3339
 3600SOL    HW122262   3.079   1.702   1.666 -1.1707 -0.0231  0.3522
 3600SOL    HW222263   3.171   1.798   1.606 -0.4209  0.4113 -2.3073
 3601SOL     OW22264   3.786   2.335   4.300  0.0969 -0.1598  0.8883
 3601SOL    HW122265   3.801   2.300   4.212 -2.9505 -1.1828  0.7673
 3601SOL    HW222266   3.812   2.426   4.290  0.8486 -0.7495 -2.7406
 3602SOL     OW22267   3.708   0.760   5.152  0.1109  0.5655  0.2003
 3602SOL    HW122268   3.675   0.736   5.065  2.0247 -0.5516 -0.2123
 3602SOL    HW222269   3.633   0.812   5.181 -0.3866 -0.3171  0.5150
 3603SOL     OW22270   4.210   4.149   7.333 -0.6538 -0.6172  0.0271
 3603SOL    HW122271   4.247   4.119   7.416  0.9591  2.5510  0.4633
 3603SOL    HW222272   4.263   4.098   7.272  2.2537  2.6749 -0.2471
 3604SOL     OW22273   2.954   0.463   7.998 -0.1134  0.1681 -0.3740
 3604SOL    HW122274   2.914   0.390   8.044  1.6920 -1.2105 -1.0094
 3604SOL    HW222275   3.000   0.507   8.069  0.8165  0.3443 -1.0862
 3605SOL     OW22276   0.646   0.809  15.668  0.5791 -0.0410  0.4906
 3605SOL    HW122277   0.639   0.721  15.631  0.7530 -0.9611  2.6508
 3605SOL    HW222278   0.588   0.866  15.618  0.0185  0.5409  1.8028
 3606SOL     OW22279   2.224   4.412   9.961  0.2834 -0.3212  0.4128
 3606SOL    HW122280   2.235   4.459  10.044  1.0141 -2.0257  1.2914
 3606SOL    HW222281   2.311   4.373   9.950  0.9236  0.7676  1.6660
 3607SOL     OW22282   1.853   4.477   4.085  0.1733  0.1219  0.3597
 3607SOL    HW122283   1.848   4.490   4.180  0.7787 -1.1995  0.5838
 3607SOL    HW222284   1.806   4.393   4.076  2.3957 -0.6479 -4.0946
 3608SOL     OW22285   3.896   3.458  17.271  0.5171 -0.0598  0.0238
 3608SOL    HW122286   3.841   3.458  17.192 -3.3462  0.3476  2.7053
 3608SOL    HW222287   3.954   3.534  17.268 -0.3274  0.6412  1.7354
 3609SOL     OW22288   0.534   3.102   8.373 -0.0083 -0.3356  0.3844
 3609SOL    HW122289   0.487   3.158   8.311 -0.6956 -0.2558  0.9634
 3609SOL    HW222290   0.598   3.061   8.315  2.1390  2.0699  1.0962
 3610SOL     OW22291   0.590   3.767   6.932  0.6305  0.2670 -0.7060
 3610SOL    HW122292   0.645   3.801   6.862  2.5158  0.8243  1.0538
 3610SOL    HW222293   0.500   3.787   6.905  1.1819  2.7161 -0.6879
 3611SOL     OW22294   0.202   0.010   3.093  0.4987  0.2525 -0.2342
 3611SOL    HW122295   0.113   4.701   3.103  0.7749  0.6142  3.5432
 3611SOL    HW222296   0.248   4.653   3.070 -0.8227 -0.4962 -0.2629
 3612SOL     OW22297   2.722   3.436   7.295  0.1275 -0.8130 -0.0660
 3612SOL    HW122298   2.707   3.358   7.242  2.1757 -1.0394 -0.3335
 3612SOL    HW222299   2.740   3.506   7.232 -0.4756  0.6726  1.4102
 3613SOL     OW22300   1.287   0.086  12.771  0.0670 -0.1357  0.1772
 3613SOL    HW122301   1.235   0.011  12.743 -0.3200 -0.1101  0.8075
 3613SOL    HW222302   1.224   0.131  12.828  0.2379 -2.4554  2.2181
 3614SOL     OW22303   2.497   1.756  12.189 -0.2739  0.5379  0.1948
 3614SOL    HW122304   2.571   1.720  12.141  0.7500  0.4372  1.8522
 3614SOL    HW222305   2.467   1.687  12.249 -1.1089  0.1545 -0.6580
 3615SOL     OW22306   2.205   3.042   9.462  0.1772  0.1191 -0.9739
 3615SOL    HW122307   2.261   3.097   9.519  0.6963  0.3046 -1.6667
 3615SOL    HW222308   2.227   2.949   9.463  1.1021  0.3524  2.3403
 3616SOL     OW22309   0.600   2.192   8.875 -0.4798  0.1461 -0.0760
 3616SOL    HW122310   0.663   2.244   8.825 -0.5911  1.0856  0.7825
 3616SOL    HW222311   0.633   2.106   8.849  0.8197  0.5640  0.1780
 3617SOL     OW22312   4.630   2.719   7.989 -0.1374 -0.1306 -0.0938
 3617SOL    HW122313   4.666   2.631   7.992 -0.8565 -0.4977 -1.7462
 3617SOL    HW222314   4.642   2.746   8.080  3.0810  2.0284 -1.1628
 3618SOL     OW22315   3.262   0.503   5.220  0.2871 -0.3511  0.1212
 3618SOL    HW122316   3.312   0.562   5.163  1.1426 -1.1798  0.0256
 3618SOL    HW222317   3.333   0.449   5.254 -0.0841 -0.8326  0.1314
 3619SOL     OW22318   1.796   0.973   5.469 -0.2496  0.0087  0.2659
 3619SOL    HW122319   1.731   0.904   5.482 -0.0631  0.3650  3.2070
 3619SOL    HW222320   1.871   0.942   5.519  0.4045  0.8887 -0.1576
 3620SOL     OW22321   0.673   2.925   2.478 -0.4861  0.5353  0.0318
 3620SOL    HW122322   0.581   2.906   2.496 -0.0529 -0.7163  0.9815
 3620SOL    HW222323   0.720   2.926   2.561 -0.2057 -1.1382 -0.0974
 3621SOL     OW22324   1.143   2.652   7.211 -0.0654  0.0101  0.1675
 3621SOL    HW122325   1.187   2.567   7.206 -1.3918 -0.8348  2.9886
 3621SOL    HW222326   1.226   2.695   7.230 -0.3824  1.0130 -0.7348
 3622SOL     OW22327   2.122   0.892   6.616 -0.3559 -0.4077  0.1236
 3622SOL    HW122328   2.196   0.945   6.646 -0.0861 -0.5902 -0.2231
 3622SOL    HW222329   2.158   0.803   6.618 -0.4285 -0.4409 -0.0745
 3623SOL     OW22330   1.564   1.256  15.368 -0.1922  0.4061 -0.4845
 3623SOL    HW122331   1.638   1.231  15.312  0.8008  0.0556  0.9753
 3623SOL    HW222332   1.552   1.175  15.418 -0.5422  1.9816  2.0170
 3624SOL     OW22333   2.397   1.621   5.607 -0.3685 -0.2733  0.2391
 3624SOL    HW122334   2.325   1.646   5.548 -1.6182 -1.1139  1.4301
 3624SOL    HW222335   2.382   1.527   5.612 -0.0253 -0.4915 -2.5706
 3625SOL     OW22336   3.821   4.120   2.149 -0.1961  0.4720 -0.2368
 3625SOL    HW122337   3.831   4.215   2.160 -2.6788  0.7736 -0.5045
 3625SOL    HW222338   3.738   4.099   2.107 -0.2072  1.2638 -0.6049
 3626SOL     OW22339   0.723   4.521   0.907  0.2740 -0.1699 -0.1086
 3626SOL    HW122340   0.737   4.585   0.838  1.2005  0.3871  0.5865
 3626SOL    HW222341   0.811   4.494   0.935 -0.0951 -0.0058  1.2379
 3627SOL     OW22342   4.361   3.454  14.552  0.3418  0.1970  0.0406
 3627SOL    HW122343   4.396   3.365  14.548 -1.0388 -0.3528  0.0001
 3627SOL    HW222344   4.442   3.504  14.541 -1.0127  1.8823 -2.3226
 3628SOL     OW22345   0.889   4.196   0.569  0.2114  0.0556  0.2458
 3628SOL    HW122346   0.821   4.162   0.511  1.0614 -0.9685 -0.1567
 3628SOL    HW222347   0.867   4.145   0.647  1.1993  1.3312  1.3380
 3629SOL     OW22348   4.657   2.171   5.622  0.3073 -0.0330  0.2047
 3629SOL    HW122349   4.640   2.252   5.671  2.7645 -0.1857  1.3195
 3629SOL    HW222350   4.623   2.098   5.674 -0.8450 -0.1757 -0.7728
 3630SOL     OW22351   3.244   0.692  14.167 -0.1794  0.3863  0.6633
 3630SOL    HW122352   3.232   0.759  14.099  0.7130 -0.0191  0.1013
 3630SOL    HW222353   3.154   0.659  14.166  0.6718 -1.9875  0.5714
 3631SOL     OW22354   4.034   2.409   5.383 -0.3141 -0.3668 -0.0530
 3631SOL    HW122355   4.060   2.500   5.396 -1.7501  0.2548 -1.5621
 3631SOL    HW222356   4.112   2.354   5.383  1.0139  1.5128  2.0276
 3632SOL     OW22357   0.475   3.119   9.100 -0.1441  0.6243 -0.3550
 3632SOL    HW122358   0.545   3.095   9.161 -0.0911  0.0750 -0.6278
 3632SOL    HW222359   0.432   3.183   9.156  0.8725  0.7947  0.2262
 3633SOL     OW22360   4.010   0.074   0.046  0.5285  0.2793 -0.0804
 3633SOL    HW122361   3.937   0.136   0.048 -1.2670 -1.7518 -1.6285
 3633SOL    HW222362   4.046   0.079  17.654  0.1354  2.2946 -0.1229
 3634SOL     OW22363   2.469   4.554   7.623  0.3991  0.0531 -0.8258
 3634SOL    HW122364   2.484   4.589   7.535 -1.4739 -1.0051 -1.5723
 3634SOL    HW222365   2.384   4.594   7.641  1.0666  0.8394  0.5041
 3635SOL     OW22366   1.116   2.849   2.356 -0.4693  0.0112  0.0349
 3635SOL    HW122367   1.085   2.772   2.309  0.7137 -0.2741 -0.2841
 3635SOL    HW222368   1.203   2.857   2.315 -0.2035  0.4885  0.6880
 3636SOL     OW22369   4.260   0.793  10.191  0.2071 -0.0054 -0.3031
 3636SOL    HW122370   4.261   0.889  10.187 -0.4288 -0.1170 -2.8258
 3636SOL    HW222371   4.354   0.780  10.204 -0.1121 -3.6279 -1.6061
 3637SOL     OW22372   3.063   3.532  16.722 -0.9919  0.8274 -0.6849
 3637SOL    HW122373   3.064   3.592  16.647 -0.2163  0.1352 -1.2327
 3637SOL    HW222374   3.158   3.518  16.723 -1.0656  0.4283  0.4979
 3638SOL     OW22375   2.607   2.811  16.664 -0.1741 -0.2652 -0.1395
 3638SOL    HW122376   2.613   2.855  16.579  4.4603 -3.3845 -1.4402
 3638SOL    HW222377   2.677   2.853  16.713 -0.7381 -0.1738  0.5757
 3639SOL     OW22378   0.899   4.592   5.571 -0.5362 -0.1960 -0.2006
 3639SOL    HW122379   0.817   4.635   5.547 -0.3305 -0.2919 -1.0654
 3639SOL    HW222380   0.882   4.551   5.656 -2.3932 -2.9666 -1.9392
 3640SOL     OW22381   4.140   1.529  17.346  0.0489 -0.0105 -0.3298
 3640SOL    HW122382   4.149   1.618  17.313  1.4968 -0.6365 -1.6133
 3640SOL    HW222383   4.230   1.497  17.354 -0.1800 -0.5968 -0.0824
 3641SOL     OW22384   1.607   0.401   9.670  0.3137 -0.6934  0.4404
 3641SOL    HW122385   1.687   0.422   9.621 -0.3127  0.6424  0.0154
 3641SOL    HW222386   1.622   0.306   9.671  1.2235 -0.5396  3.2138
 3642SOL     OW22387   2.840   3.746   5.452 -0.2245  0.6307  0.9649
 3642SOL    HW122388   2.876   3.835   5.441 -0.7889  0.5957 -1.0509
 3642SOL    HW222389   2.907   3.686   5.420  1.1137  3.0300 -0.7857
 3643SOL     OW22390   0.069   1.035  16.841 -0.2385  0.0335 -0.0134
 3643SOL    HW122391   0.111   1.109  16.885 -1.0496  0.7250 -0.3873
 3643SOL    HW222392   0.035   0.993  16.919  0.1314 -0.8958 -0.3549
 3644SOL     OW22393   3.535   1.458  10.543  1.0039  0.3126 -0.6399
 3644SOL    HW122394   3.483   1.488  10.618  0.6459 -0.9054 -0.3988
 3644SOL    HW222395   3.467   1.424  10.485 -0.2076  0.5372  0.6386
 3645SOL     OW22396   3.244   2.025   8.324 -0.3843  0.0554 -0.5979
 3645SOL    HW122397   3.272   2.047   8.412  0.7771  1.3564 -1.2967
 3645SOL    HW222398   3.249   2.108   8.276 -2.5629  1.9994  2.5427
 3646SOL     OW22399   3.148   4.028   2.482 -0.1605  0.3653 -0.5391
 3646SOL    HW122400   3.193   3.985   2.409  1.5386  0.2096  0.5978
 3646SOL    HW222401   3.201   4.106   2.499  0.0102  0.0167  0.5533
 3647SOL     OW22402   0.253   4.645   8.485  0.3079 -0.1059 -0.5767
 3647SOL    HW122403   0.290   4.687   8.563  0.5847  1.4673 -1.5374
 3647SOL    HW222404   0.271   4.554   8.506 -1.7086  0.0814  1.9836
 3648SOL     OW22405   3.927   1.575   6.990 -0.0240  0.1383 -0.0499
 3648SOL    HW122406   3.857   1.591   7.054  0.7328  0.1104  0.7811
 3648SOL    HW222407   3.923   1.481   6.969  0.8525  0.0998 -0.0244
 3649SOL     OW22408   1.885   3.385   6.339 -0.6970  0.2195  0.8479
 3649SOL    HW122409   1.954   3.450   6.347 -1.7243  1.2379  1.3822
 3649SOL    HW222410   1.816   3.446   6.312 -1.4628 -0.8520  0.3630
 3650SOL     OW22411   0.576   4.025   8.581  0.7568 -0.0718  0.2371
 3650SOL    HW122412   0.533   3.945   8.554 -1.3716  0.4520  2.0307
 3650SOL    HW222413   0.663   3.999   8.552 -0.0153 -1.4889 -0.7652
 3651SOL     OW22414   1.859   1.591  13.475 -0.5730 -0.0754  0.2277
 3651SOL    HW122415   1.951   1.594  13.501 -0.7190  2.2280  0.5341
 3651SOL    HW222416   1.858   1.635  13.390  0.9525 -0.3651  0.0569
 3652SOL     OW22417   0.534   0.279   5.910 -0.1685  0.3004  0.3311
 3652SOL    HW122418   0.459   0.223   5.889  0.2584  0.9253 -2.9366
 3652SOL    HW222419   0.532   0.275   6.006  0.5609 -0.5417  0.3114
 3653SOL     OW22420   1.804   1.433  10.955  0.3617  0.1969 -0.1898
 3653SOL    HW122421   1.791   1.453  11.048 -0.4477 -0.5636 -0.1489
 3653SOL    HW222422   1.804   1.337  10.953  1.5218  0.1571  2.1754
 3654SOL     OW22423   2.440   2.211   3.297  0.1458 -0.1269 -0.1549
 3654SOL    HW122424   2.495   2.134   3.311 -0.0076 -0.1338  0.3887
 3654SOL    HW222425   2.483   2.257   3.225 -0.9137  0.3199 -0.5160
 3655SOL     OW22426   0.649   1.219   2.313 -0.3556  0.0064 -0.0372
 3655SOL    HW122427   0.630   1.305   2.276  0.0499  0.1037 -0.0183
 3655SOL    HW222428   0.722   1.243   2.370  0.9832 -3.2623 -0.3890
 3656SOL     OW22429   1.226   0.840   0.292 -0.4151  0.1527  0.7648
 3656SOL    HW122430   1.231   0.917   0.348  0.5953 -0.1573  1.0877
 3656SOL    HW222431   1.162   0.787   0.341 -1.8097  1.3507  0.2411
 3657SOL     OW22432   3.672   3.813  10.386  0.4887 -0.0288 -0.3819
 3657SOL    HW122433   3.625   3.896  10.394  2.4957  1.2489 -1.6957
 3657SOL    HW222434   3.756   3.844  10.420  1.4702 -2.4131 -0.6623
 3658SOL     OW22435   3.367   2.970   5.118 -0.1677  0.1422  0.3925
 3658SOL    HW122436   3.280   2.932   5.126  0.1885 -0.4918  1.1963
 3658SOL    HW222437   3.405   2.977   5.206 -0.8079  2.2215  0.5137
 3659SOL     OW22438   2.294   0.331   5.502 -0.0552  0.2696 -0.5505
 3659SOL    HW122439   2.242   0.407   5.526  0.3951  0.4362 -0.1030
 3659SOL    HW222440   2.320   0.287   5.583  2.7553  1.6112 -0.7399
 3660SOL     OW22441   2.905   3.181   9.281  0.3542  0.0650 -0.2167
 3660SOL    HW122442   2.937   3.091   9.292  2.2546  0.7929  0.1867
 3660SOL    HW222443   2.983   3.226   9.314 -0.5536  1.5567 -0.1278
 3661SOL     OW22444   1.280   0.313   2.209  0.5097 -0.2533 -0.2127
 3661SOL    HW122445   1.213   0.253   2.176  0.1056  0.3581 -0.4838
 3661SOL    HW222446   1.304   0.254   2.281  3.1932 -0.7992 -1.5332
 3662SOL     OW22447   0.583   2.202   1.934 -0.1658  0.2735 -0.2132
 3662SOL    HW122448   0.608   2.155   1.854  1.7330  0.9305 -0.0020
 3662SOL    HW222449   0.497   2.166   1.958  0.3753 -0.6010  0.4111
 3663SOL     OW22450   3.120   0.417   7.166 -0.4290  0.0545 -0.7611
 3663SOL    HW122451   3.092   0.430   7.257 -0.0877  0.1194 -0.6631
 3663SOL    HW222452   3.190   0.482   7.164  0.1749 -0.5180  1.4273
 3664SOL     OW22453   0.960   2.380  10.556 -0.0829  0.3620  0.0146
 3664SOL    HW122454   0.881   2.363  10.505  1.7700 -1.7103 -2.1668
 3664SOL    HW222455   0.953   2.476  10.560  2.1721  0.5623 -0.8099
 3665SOL     OW22456   2.869   0.592   4.969 -0.2650 -0.4088  0.0304
 3665SOL    HW122457   2.919   0.554   5.040 -1.4122  1.3106  1.7773
 3665SOL    HW222458   2.858   0.683   4.998  0.5908 -0.4542  0.5001
 3666SOL     OW22459   2.387   4.510  16.707 -0.2597  0.3363  0.7286
 3666SOL    HW122460   2.460   4.566  16.679  0.5926 -1.1029  0.0675
 3666SOL    HW222461   2.318   4.567  16.673 -1.7684 -0.9328  1.6656
 3667SOL     OW22462   2.109   2.235   1.356 -0.5749 -0.0943  0.0499
 3667SOL    HW122463   2.026   2.232   1.310 -0.0412  1.5839 -1.0253
 3667SOL    HW222464   2.146   2.153   1.324  1.1850  0.8628 -0.3729
 3668SOL     OW22465   4.194   3.386   5.375 -0.3155 -0.1298 -0.2442
 3668SOL    HW122466   4.201   3.426   5.289  0.3732 -0.7180 -0.4689
 3668SOL    HW222467   4.155   3.453   5.431  1.5080 -0.1231  1.0254
 3669SOL     OW22468   1.466   4.133  13.474 -0.1519 -0.0818 -0.3089
 3669SOL    HW122469   1.502   4.213  13.513  0.1232 -0.7211  0.7418
 3669SOL    HW222470   1.382   4.160  13.436 -0.1452 -0.3268 -0.4957
 3670SOL     OW22471   1.101   3.179  11.514 -0.4762 -0.3252  0.3246
 3670SOL    HW122472   1.138   3.268  11.514 -1.4562  0.0768 -0.0168
 3670SOL    HW222473   1.130   3.154  11.602  3.7531  0.7762 -0.7309
 3671SOL     OW22474   3.476   4.403   3.739 -0.4718  0.3058  0.0927
 3671SOL    HW122475   3.471   4.326   3.682  0.4306 -0.1066  0.5656
 3671SOL    HW222476   3.432   4.381   3.821 -1.2405  0.7303 -0.2029
 3672SOL     OW22477   4.221   4.245   5.965 -0.0590  0.3107 -0.2135
 3672SOL    HW122478   4.185   4.332   5.951  0.0106  0.6750  1.8940
 3672SOL    HW222479   4.204   4.197   5.884 -0.1053 -0.2313  0.1159
 3673SOL     OW22480   1.656   0.446  13.501 -0.1035  0.0383 -0.7349
 3673SOL    HW122481   1.706   0.382  13.551  1.2799  0.9531 -0.9539
 3673SOL    HW222482   1.640   0.508  13.572  1.3343  0.9693 -1.2184
 3674SOL     OW22483   3.524   1.656   3.689  0.0278  1.1270  0.0896
 3674SOL    HW122484   3.501   1.605   3.767 -1.6277  0.8459 -0.6010
 3674SOL    HW222485   3.618   1.669   3.702  0.6389 -2.1658 -1.3028
 3675SOL     OW22486   2.077   3.934   1.153 -0.0149  0.1218 -0.0527
 3675SOL    HW122487   2.094   3.990   1.078  0.2960 -1.2133 -0.9624
 3675SOL    HW222488   1.984   3.948   1.174 -0.8694 -2.1189 -2.3936
 3676SOL     OW22489   0.714   1.532   1.960  0.1862  0.1413 -0.4044
 3676SOL    HW122490   0.704   1.456   1.903 -1.2046 -0.5231  0.7288
 3676SOL    HW222491   0.809   1.546   1.967  0.8494 -2.9761 -3.0864
 3677SOL     OW22492   1.475   2.680   3.042  0.1648 -0.1844  0.4140
 3677SOL    HW122493   1.403   2.626   3.076  1.0040 -1.4643  0.1382
 3677SOL    HW222494   1.545   2.621   3.015  0.7390 -0.3340  2.2524
 3678SOL     OW22495   1.308   0.149   5.654 -0.2378 -0.9740 -0.3397
 3678SOL    HW122496   1.249   0.097   5.599 -0.0114 -1.1695 -0.3987
 3678SOL    HW222497   1.260   0.162   5.736  0.0705  1.1229 -0.4724
 3679SOL     OW22498   4.410   1.879   9.444  0.0422 -0.3557 -0.0569
 3679SOL    HW122499   4.457   1.957   9.472 -0.8244  0.2151 -0.2009
 3679SOL    HW222500   4.373   1.850   9.528  0.0219  0.9564  0.3898
 3680SOL     OW22501   2.184   2.567   6.818  0.2603  0.3150 -0.0928
 3680SOL    HW122502   2.213   2.494   6.873  1.7930  1.0697  0.1061
 3680SOL    HW222503   2.194   2.531   6.729 -1.3325  0.8184 -0.4731
 3681SOL     OW22504   2.269   0.641   2.516 -0.6744  0.1563 -0.6670
 3681SOL    HW122505   2.282   0.717   2.572  3.4245 -1.0753  0.0320
 3681SOL    HW222506   2.208   0.599   2.577 -0.1783 -1.4649 -1.2855
 3682SOL     OW22507   3.396   2.430   1.078  0.3915 -0.7497 -0.1241
 3682SOL    HW122508   3.457   2.376   1.128  1.0064  2.5623  2.6883
 3682SOL    HW222509   3.443   2.444   0.995  2.4559  0.7210  1.2929
 3683SOL     OW22510   0.554   2.346   2.833  0.3981  0.4642 -0.2497
 3683SOL    HW122511   0.498   2.396   2.893  2.5538  2.5716  0.0035
 3683SOL    HW222512   0.483   2.343   2.769  0.7093  0.4883 -0.5898
 3684SOL     OW22513   0.240   1.189  11.214  0.2042 -0.0986 -0.0899
 3684SOL    HW122514   0.218   1.164  11.124 -1.4120 -1.5486  0.6975
 3684SOL    HW222515   0.169   1.157  11.270 -1.1328  0.6624 -1.3321
 3685SOL     OW22516   4.000   0.884   3.668  0.3592 -0.3790  0.4700
 3685SOL    HW122517   3.947   0.926   3.600 -0.6182 -1.9442  0.2621
 3685SOL    HW222518   4.052   0.830   3.608 -0.9307 -1.3713  0.2527
 3686SOL     OW22519   1.009   2.229   7.663 -0.0234  0.4486 -0.2989
 3686SOL    HW122520   1.000   2.158   7.727 -0.8819  0.0704 -0.8433
 3686SOL    HW222521   0.940   2.288   7.695  0.7004  0.2259  1.6944
 3687SOL     OW22522   3.759   4.251   0.997  0.2156 -0.1046 -0.2400
 3687SOL    HW122523   3.675   4.209   1.014 -0.5206  2.1234  1.6969
 3687SOL    HW222524   3.819   4.201   1.052 -2.1245 -1.7126  0.8390
 3688SOL     OW22525   0.432   4.043   5.968  0.0469 -0.0714  0.2815
 3688SOL    HW122526   0.350   3.996   5.980 -1.1318  1.6658 -1.0581
 3688SOL    HW222527   0.449   4.015   5.878 -2.0962  1.2333 -0.5105
 3689SOL     OW22528   1.733   2.209  10.283 -0.4919 -0.9011  0.2479
 3689SOL    HW122529   1.654   2.198  10.335 -0.2867 -1.0669  0.5230
 3689SOL    HW222530   1.798   2.245  10.343 -0.2086  0.9977 -1.1691
 3690SOL     OW22531   3.500   1.492   1.908  0.0932 -0.1043  0.0083
 3690SOL    HW122532   3.436   1.424   1.927  0.4296 -0.6637 -0.8643
 3690SOL    HW222533   3.514   1.486   1.813 -0.2762  1.2895 -0.1320
 3691SOL     OW22534   4.305   1.175  17.234  0.4085 -0.4650 -0.5604
 3691SOL    HW122535   4.291   1.124  17.154 -1.2723  2.7609 -2.3338
 3691SOL    HW222536   4.222   1.223  17.240  0.5562 -0.4644  1.3290
 3692SOL     OW22537   1.249   3.803   0.119 -0.7312 -0.0071  0.6888
 3692SOL    HW122538   1.265   3.754   0.039 -1.0148  2.1886 -0.7094
 3692SOL    HW222539   1.196   3.733   0.157 -2.4034  1.0219  0.2374
 3693SOL     OW22540   3.742   2.313   5.952 -0.0980 -0.1233 -0.2607
 3693SOL    HW122541   3.648   2.296   5.960 -0.3230  1.2614  0.0141
 3693SOL    HW222542   3.772   2.226   5.927  1.7664 -0.2277  2.3309
 3694SOL     OW22543   3.982   2.951  12.540 -0.3003  0.5868 -0.0566
 3694SOL    HW122544   4.026   2.925  12.620 -0.2297  3.1267  0.7533
 3694SOL    HW222545   4.057   2.999  12.506 -0.8539  0.5229 -1.4028
 3695SOL     OW22546   1.592   4.197   4.798  0.5343 -0.1245 -0.2789
 3695SOL    HW122547   1.514   4.209   4.743  0.6316  0.6943 -0.2303
 3695SOL    HW222548   1.563   4.240   4.878  1.4024 -0.5870  0.2762
 3696SOL     OW22549   1.496   1.979  15.184 -0.2271 -0.2048  0.4215
 3696SOL    HW122550   1.561   2.028  15.234 -0.0463  1.0176 -1.0035
 3696SOL    HW222551   1.505   2.018  15.097  0.0506  2.3388  1.5863
 3697SOL     OW22552   4.619   2.829   2.434  0.0197 -0.2563  0.8424
 3697SOL    HW122553   4.565   2.884   2.376  1.6929  0.6939  0.2001
 3697SOL    HW222554   4.680   2.796   2.368 -0.1031  2.9035 -0.8574
 3698SOL     OW22555   1.625   3.672   6.505 -0.1327  0.4958 -0.1894
 3698SOL    HW122556   1.569   3.664   6.582 -2.0674  1.1312 -1.5354
 3698SOL    HW222557   1.647   3.581   6.484 -2.9169 -0.1632 -0.2076
 3699SOL     OW22558   3.822   2.617   3.601 -0.3070 -0.5236 -0.2803
 3699SOL    HW122559   3.769   2.684   3.645  1.0440  0.2814  0.1063
 3699SOL    HW222560   3.911   2.645   3.620 -1.0767  1.7558 -0.0376
 3700SOL     OW22561   2.932   3.803  17.351  0.3093 -0.5517  0.2122
 3700SOL    HW122562   3.014   3.849  17.368 -0.9909  1.7757  0.2179
 3700SOL    HW222563   2.930   3.803  17.256 -2.6716  4.5148  0.2667
 3701SOL     OW22564   1.007   1.606   9.734  0.0497 -0.0696  0.1866
 3701SOL    HW122565   0.915   1.603   9.707  0.4605  0.3199 -1.2688
 3701SOL    HW222566   1.001   1.561   9.818 -1.4272  0.1919  0.2304
 3702SOL     OW22567   1.378   0.964   8.735  1.1085  0.5405  0.1201
 3702SOL    HW122568   1.443   1.026   8.767 -0.8339  1.4902  2.2415
 3702SOL    HW222569   1.301   0.980   8.790 -1.0487 -2.7078 -1.9292
 3703SOL     OW22570   0.520   0.173   0.900 -0.3577 -0.0183  0.6518
 3703SOL    HW122571   0.424   0.167   0.899 -0.3615 -0.6253  3.1196
 3703SOL    HW222572   0.531   0.124   0.982  1.9856 -0.4933  0.0442
 3704SOL     OW22573   1.466   4.327   0.687 -0.3024 -0.3672 -0.0625
 3704SOL    HW122574   1.442   4.400   0.744  1.0395  0.9534 -1.2120
 3704SOL    HW222575   1.485   4.258   0.751 -1.5580 -0.5594  0.0902
 3705SOL     OW22576   1.292   1.759   8.434  0.1294 -0.1567  0.0902
 3705SOL    HW122577   1.340   1.779   8.354  0.4740 -1.1460  0.0528
 3705SOL    HW222578   1.216   1.817   8.437  2.5608  2.9941  0.4594
 3706SOL     OW22579   0.755   4.068   6.022 -0.1753 -0.2084 -0.0930
 3706SOL    HW122580   0.677   4.046   5.971 -0.7800  0.3171  0.6148
 3706SOL    HW222581   0.726   4.138   6.081 -1.7886 -1.5212  0.6536
 3707SOL     OW22582   3.266   4.129   6.881  0.1026 -0.4481  0.6464
 3707SOL    HW122583   3.222   4.045   6.893 -0.5775 -0.2393 -0.3769
 3707SOL    HW222584   3.238   4.162   6.966 -0.3742  0.4170  0.1553
 3708SOL     OW22585   4.220   2.038   2.757 -0.0780 -0.1884 -0.7986
 3708SOL    HW122586   4.301   1.987   2.754 -0.7266 -1.1951 -1.4593
 3708SOL    HW222587   4.224   2.095   2.834 -0.6103 -0.9282 -0.2271
 3709SOL     OW22588   4.465   0.024  12.043  0.3566  0.4199 -0.1105
 3709SOL    HW122589   4.395   0.060  11.989 -0.3222 -1.0437 -0.2150
 3709SOL    HW222590   4.528   0.095  12.034  0.8256 -0.3760 -3.1374
 3710SOL     OW22591   2.356   2.055   2.095 -0.6350 -0.4773 -0.3988
 3710SOL    HW122592   2.290   2.111   2.136  0.2493 -0.3615  0.8791
 3710SOL    HW222593   2.343   1.964   2.121 -0.9888 -0.8182 -1.7719
 3711SOL     OW22594   3.742   3.412   5.939 -0.0887  0.5779  0.0937
 3711SOL    HW122595   3.728   3.477   5.870  0.0190 -1.2113 -1.5871
 3711SOL    HW222596   3.714   3.332   5.894 -0.6657  0.5463  0.5007
 3712SOL     OW22597   1.152   0.268   7.317 -0.3938 -0.0687  0.7110
 3712SOL    HW122598   1.091   0.339   7.337  1.3249  1.7250 -0.4539
 3712SOL    HW222599   1.151   0.272   7.221  0.3614  3.0664  0.8338
 3713SOL     OW22600   4.632   3.825   7.536  0.0124 -0.6741  0.1349
 3713SOL    HW122601   4.600   3.780   7.615 -1.8751 -1.9640 -1.3812
 3713SOL    HW222602   4.719   3.857   7.561 -0.4493  0.8268 -0.1894
 3714SOL     OW22603   2.075   1.902   1.050 -0.0485  0.1766 -0.0205
 3714SOL    HW122604   2.141   1.919   1.117 -0.3634 -1.3024  0.6557
 3714SOL    HW222605   2.119   1.951   0.980  4.5306 -3.8868 -0.0131
 3715SOL     OW22606   3.773   2.383  15.681 -0.4618 -0.3949  0.5062
 3715SOL    HW122607   3.860   2.392  15.640  0.3578 -1.0970  2.0770
 3715SOL    HW222608   3.798   2.356  15.770  2.4937 -0.8696 -0.4370
 3716SOL     OW22609   3.097   1.047   3.243  0.0355  0.7560  0.2354
 3716SOL    HW122610   3.188   1.057   3.272  0.6389 -1.0398 -1.0128
 3716SOL    HW222611   3.064   1.127   3.283 -1.3462  0.9198 -1.2498
 3717SOL     OW22612   4.444   4.265   7.141 -0.1274 -0.4718 -0.1913
 3717SOL    HW122613   4.513   4.299   7.198 -1.3572 -0.7773  1.4683
 3717SOL    HW222614   4.466   4.301   7.055  0.0034  1.7076  0.7480
 3718SOL     OW22615   0.887   0.625  10.841  0.4694  0.0350  0.0041
 3718SOL    HW122616   0.806   0.613  10.791 -0.0790 -0.7157  1.0711
 3718SOL    HW222617   0.863   0.703  10.889  0.3879  1.6454 -2.6337
 3719SOL     OW22618   3.107   2.479   8.519  0.6742 -0.1489 -0.4610
 3719SOL    HW122619   3.030   2.514   8.562 -0.4276 -0.8800 -1.8489
 3719SOL    HW222620   3.174   2.513   8.579  0.0029  1.3261 -0.5529
 3720SOL     OW22621   3.516   3.131   6.270 -0.0677  0.2309 -0.1214
 3720SOL    HW122622   3.598   3.105   6.230  0.8520 -0.8133  2.4484
 3720SOL    HW222623   3.520   3.077   6.349  0.4447  0.1598 -0.1984
 3721SOL     OW22624   2.088   0.262   9.505  0.1089  0.1785  0.0911
 3721SOL    HW122625   2.171   0.219   9.523  0.6088  1.1591  0.1290
 3721SOL    HW222626   2.022   0.201   9.538 -1.5552  0.8683 -1.9745
 3722SOL     OW22627   4.661   1.487   7.465  0.4695 -0.5746 -0.6555
 3722SOL    HW122628   0.016   1.471   7.517  0.2146  2.0727  0.5210
 3722SOL    HW222629   4.633   1.565   7.513 -0.2157  0.1271 -2.1831
 3723SOL     OW22630   1.100   0.457   6.014 -0.4713 -0.3449  0.4596
 3723SOL    HW122631   1.085   0.537   5.964  1.3627 -0.3385 -0.0733
 3723SOL    HW222632   1.046   0.472   6.092  0.0932  0.6936  0.6478
 3724SOL     OW22633   3.109   1.761   0.434 -0.5219  0.2273 -0.0780
 3724SOL    HW122634   3.135   1.677   0.473 -2.5889  0.4587  1.8161
 3724SOL    HW222635   3.153   1.758   0.349 -0.0641  1.1062  0.1275
 3725SOL     OW22636   0.119   4.697   7.929 -0.2499  0.8934  0.0507
 3725SOL    HW122637   0.124   4.614   7.881  1.0460  1.2034 -0.3682
 3725SOL    HW222638   0.193   4.706   7.989 -1.1072  3.8757  0.6742
 3726SOL     OW22639   0.259   4.647   9.521  0.9042 -0.6773  0.3872
 3726SOL    HW122640   0.192   4.669   9.586  1.3963 -1.4921  1.1642
 3726SOL    HW222641   0.345   4.668   9.556  2.1361 -4.1757 -0.5380
 3727SOL     OW22642   3.245   2.434   6.056  0.0458  0.2521 -0.0116
 3727SOL    HW122643   3.225   2.509   6.112 -0.7948  0.2620 -0.3331
 3727SOL    HW222644   3.162   2.387   6.056  0.5076 -0.5653  0.2475
 3728SOL     OW22645   0.300   4.155  12.816 -0.0423 -0.1460 -0.6103
 3728SOL    HW122646   0.328   4.092  12.882  0.7779  1.6107  0.7130
 3728SOL    HW222647   0.338   4.134  12.730  0.1901  0.2582 -0.6082
 3729SOL     OW22648   2.859   0.599   4.661  0.4647 -0.1048 -0.1440
 3729SOL    HW122649   2.825   0.512   4.679  1.8008 -0.5853  0.0484
 3729SOL    HW222650   2.902   0.622   4.743 -0.9191  0.0762  0.5283
 3730SOL     OW22651   2.696   1.094   1.915  0.2116  0.4275  0.1313
 3730SOL    HW122652   2.728   1.143   1.991 -2.9636  1.4773  0.7930
 3730SOL    HW222653   2.747   1.127   1.841  1.4198  0.2524  0.8969
 3731SOL     OW22654   0.259   2.749   3.357 -0.0185  0.1420 -0.1056
 3731SOL    HW122655   0.266   2.753   3.452  0.1462  0.1137 -0.1165
 3731SOL    HW222656   0.345   2.778   3.327  0.7483 -1.1909  0.8136
 3732SOL     OW22657   1.253   0.989  11.681  0.4490  0.1313 -0.0179
 3732SOL    HW122658   1.273   0.896  11.691 -1.5447 -0.4816 -1.4915
 3732SOL    HW222659   1.177   0.979  11.624 -0.4990 -0.7320  1.3887
 3733SOL     OW22660   0.670   2.913   7.193  0.4219  0.3796  0.0038
 3733SOL    HW122661   0.634   2.968   7.123  0.2854  0.1439 -0.1098
 3733SOL    HW222662   0.720   2.973   7.249  0.0318  0.6813  0.0296
 3734SOL     OW22663   0.035   2.555   5.119  0.1849  0.6224  0.3865
 3734SOL    HW122664   0.092   2.506   5.179 -1.0244 -0.6712  0.4861
 3734SOL    HW222665   4.685   2.500   5.093  1.1320  0.0944 -1.1542
 3735SOL     OW22666   0.698   4.673  14.931 -0.5797  0.3108  0.0339
 3735SOL    HW122667   0.689   4.589  14.886 -1.6886 -0.3019  1.3915
 3735SOL    HW222668   0.641   4.656  15.007 -1.1559 -1.8020 -0.8890
 3736SOL     OW22669   3.687   1.938   4.635 -0.2445  0.0144 -0.1919
 3736SOL    HW122670   3.692   2.020   4.684 -1.3331  0.0837 -0.1792
 3736SOL    HW222671   3.764   1.886   4.659  1.2881  1.9238 -1.0593
 3737SOL     OW22672   4.630   0.426   8.286 -0.7915 -0.4086  0.2601
 3737SOL    HW122673   4.582   0.386   8.358  0.6460 -1.4073  0.6687
 3737SOL    HW222674   4.564   0.489   8.256 -1.1388 -0.3642  1.1248
 3738SOL     OW22675   0.525   2.367  14.991  0.5343  0.3770  0.2370
 3738SOL    HW122676   0.506   2.444  15.045 -3.3671 -1.2799  1.1779
 3738SOL    HW222677   0.541   2.419  14.912  3.7294 -1.5373 -0.4011
 3739SOL     OW22678   0.996   2.739  13.390  0.1008 -0.0765 -0.3896
 3739SOL    HW122679   0.974   2.699  13.305 -1.9237 -1.1876  0.6483
 3739SOL    HW222680   0.978   2.830  13.366  1.0465  0.1300 -0.3198
 3740SOL     OW22681   4.641   3.886   1.345  0.5935  0.1278  0.1787
 3740SOL    HW122682   4.587   3.852   1.417 -0.9907 -0.3157 -1.2157
 3740SOL    HW222683   4.575   3.940   1.300  1.5433  0.3664 -0.9107
 3741SOL     OW22684   1.904   1.828   0.051 -0.2949  0.3690 -0.0643
 3741SOL    HW122685   1.961   1.822   0.128 -0.4913 -1.4070 -0.0606
 3741SOL    HW222686   1.963   1.833  17.672  0.7688  3.5217  0.9930
 3742SOL     OW22687   1.731   3.531  12.683  0.0390 -0.4226  0.0945
 3742SOL    HW122688   1.716   3.617  12.644 -0.2924 -0.9291 -0.9070
 3742SOL    HW222689   1.682   3.530  12.765  1.5275 -1.8456  0.9641
 3743SOL     OW22690   0.516   1.604   3.945 -0.2184 -0.1845  0.3123
 3743SOL    HW122691   0.437   1.576   3.899 -0.7780  3.4810 -0.9769
 3743SOL    HW222692   0.581   1.599   3.875  0.5875 -5.0501  1.4121
 3744SOL     OW22693   1.359   1.972   4.393 -0.0464  0.1773 -0.0799
 3744SOL    HW122694   1.301   1.985   4.468  0.7345  0.9217  0.4094
 3744SOL    HW222695   1.299   1.929   4.333  0.4337 -0.0729 -0.3782
 3745SOL     OW22696   2.597   3.381   8.283  0.3026  0.4399  0.2979
 3745SOL    HW122697   2.533   3.317   8.316  1.3774 -0.7870 -0.0035
 3745SOL    HW222698   2.535   3.443   8.244  2.4957  2.2242 -0.3272
 3746SOL     OW22699   1.856   2.596   4.772  0.1120 -0.1836  0.0050
 3746SOL    HW122700   1.937   2.629   4.810  0.7371 -0.5309 -1.0196
 3746SOL    HW222701   1.796   2.666   4.799  0.9526 -0.0230  1.4395
 3747SOL     OW22702   2.560   3.697   5.072  0.6061 -0.2654 -0.4024
 3747SOL    HW122703   2.466   3.682   5.065  0.6025 -0.2200 -0.4543
 3747SOL    HW222704   2.557   3.721   5.164 -2.2986  1.0306 -0.8350
 3748SOL     OW22705   3.669   0.776   8.538  0.0899 -0.1734 -0.1322
 3748SOL    HW122706   3.600   0.838   8.514 -0.2593  0.1947  1.8157
 3748SOL    HW222707   3.714   0.825   8.606  1.4597 -0.1320 -1.0729
 3749SOL     OW22708   2.527   3.366   1.117 -0.2510  0.0014  0.1615
 3749SOL    HW122709   2.526   3.329   1.029  1.2579  1.1971 -0.3365
 3749SOL    HW222710   2.546   3.287   1.168 -2.5157 -1.4815 -1.2824
 3750SOL     OW22711   4.265   1.861   4.235  0.2795  0.3241  0.7523
 3750SOL    HW122712   4.300   1.789   4.181 -1.9247  0.4048 -0.8050
 3750SOL    HW222713   4.207   1.808   4.290  1.8462  0.2364  2.3090
 3751SOL     OW22714   4.437   1.841  14.896  0.5221  0.8063  0.1435
 3751SOL    HW122715   4.394   1.766  14.855 -0.5614  3.1559 -3.0918
 3751SOL    HW222716   4.518   1.843  14.846 -0.2571 -0.6152 -1.1774
 3752SOL     OW22717   0.038   1.411   4.158 -0.2312  0.1713  0.2156
 3752SOL    HW122718   0.001   1.338   4.208  0.0339  1.0160  1.6241
 3752SOL    HW222719   0.038   1.482   4.221  0.6570  1.3322 -1.0973
 3753SOL     OW22720   0.592   0.704  13.643 -0.0965 -0.0846  0.2703
 3753SOL    HW122721   0.671   0.706  13.588 -1.0126 -0.1731 -1.0353
 3753SOL    HW222722   0.534   0.727  13.571 -0.2850 -1.2688  0.0343
 3754SOL     OW22723   3.145   2.446   4.982  0.0196  0.3609  0.0927
 3754SOL    HW122724   3.236   2.475   4.973  0.0320 -0.6397 -2.8088
 3754SOL    HW222725   3.151   2.429   5.076  1.5607 -1.0150 -0.2431
 3755SOL     OW22726   2.250   0.164   4.575  0.2313  0.2817  0.1628
 3755SOL    HW122727   2.318   0.104   4.545  1.3420  1.3462  0.5606
 3755SOL    HW222728   2.288   0.200   4.655  0.0413 -0.5829  0.6445
 3756SOL     OW22729   0.257   3.977   7.193 -0.1270 -0.2191  0.6677
 3756SOL    HW122730   0.323   4.032   7.150 -2.4691  0.8584 -1.5393
 3756SOL    HW222731   0.183   4.035   7.174  2.6000  2.9662 -0.2055
 3757SOL     OW22732   4.136   3.154   5.116  0.3713 -0.1710 -0.2972
 3757SOL    HW122733   4.094   3.237   5.138  1.5101  0.2468  0.3084
 3757SOL    HW222734   4.227   3.182   5.104  0.0423  0.0585 -2.2405
 3758SOL     OW22735   4.532   0.951  14.861  0.6126 -0.0026 -0.0196
 3758SOL    HW122736   4.507   1.004  14.784  3.3803 -1.1346 -1.6818
 3758SOL    HW222737   4.561   0.866  14.829  1.0045 -0.1143  0.6356
 3759SOL     OW22738   2.143   0.421   7.212 -0.2826 -0.1097 -0.2619
 3759SOL    HW122739   2.177   0.438   7.125  1.2683 -1.5687  0.0556
 3759SOL    HW222740   2.111   0.331   7.207  0.1740 -0.1912 -1.5328
 3760SOL     OW22741   0.072   1.481   7.693  0.5587 -0.2835 -0.2840
 3760SOL    HW122742   0.047   1.500   7.784 -0.3724  0.6813 -0.7485
 3760SOL    HW222743   0.163   1.458   7.712  0.4748  0.5656  1.1789
 3761SOL     OW22744   2.987   1.030   2.775 -0.2003 -0.3136  0.1897
 3761SOL    HW122745   2.925   1.023   2.848  0.1429  0.1337  0.5262
 3761SOL    HW222746   2.952   0.977   2.704  2.4633 -2.5393  0.5215
 3762SOL     OW22747   4.106   3.851   5.610  0.3437  0.0180  0.0792
 3762SOL    HW122748   4.082   3.928   5.558 -1.0871  0.1836  0.9883
 3762SOL    HW222749   4.195   3.843   5.575  0.3873  3.8535 -0.6931
 3763SOL     OW22750   2.141   3.578   2.782  0.2859  0.2692  0.3821
 3763SOL    HW122751   2.063   3.630   2.762  1.2348  0.6409 -2.3346
 3763SOL    HW222752   2.146   3.511   2.714  0.2997  2.9965 -2.2982
 3764SOL     OW22753   3.646   0.546   3.251  0.4401  0.3155  0.0676
 3764SOL    HW122754   3.633   0.465   3.201 -3.5190  1.5428 -0.8711
 3764SOL    HW222755   3.689   0.511   3.329  1.9302  2.6885  0.2906
 3765SOL     OW22756   0.654   4.350   9.390  0.3921  0.3929  0.0881
 3765SOL    HW122757   0.640   4.313   9.303 -1.3678  1.5544 -0.1311
 3765SOL    HW222758   0.747   4.333   9.402  0.0242 -0.1963  2.1678
 3766SOL     OW22759   1.356   1.438   2.388 -0.2871 -0.0665 -0.5231
 3766SOL    HW122760   1.371   1.352   2.349  1.2286 -0.6290  1.2985
 3766SOL    HW222761   1.444   1.473   2.373 -0.4930  0.1632 -1.1973
 3767SOL     OW22762   1.661   3.528  15.603 -0.0362  0.0425  0.0693
 3767SOL    HW122763   1.730   3.463  15.621  0.7365  1.1794  1.1914
 3767SOL    HW222764   1.604   3.489  15.537  1.9087 -1.8081 -0.5347
 3768SOL     OW22765   1.473   3.164   4.864  0.6901  0.3660 -0.7139
 3768SOL    HW122766   1.518   3.237   4.821  1.2075 -1.2510 -2.8930
 3768SOL    HW222767   1.383   3.197   4.865  0.7007  0.3967 -0.7639
 3769SOL     OW22768   2.726   0.826   5.036  0.0382 -0.2143  0.2088
 3769SOL    HW122769   2.693   0.912   5.011 -0.4496 -0.1500  1.0563
 3769SOL    HW222770   2.638   0.800   5.061 -0.0785  0.3235  0.3475
 3770SOL     OW22771   2.272   3.339   2.298 -0.0386  0.0356  0.4228
 3770SOL    HW122772   2.201   3.388   2.256  0.7901  1.3116  0.5051
 3770SOL    HW222773   2.306   3.283   2.228 -2.1740  0.3619 -0.9048
 3771SOL     OW22774   2.018   0.248  16.597  0.2498  0.2306 -0.9015
 3771SOL    HW122775   2.051   0.338  16.594  2.0196 -0.5124 -3.7935
 3771SOL    HW222776   2.090   0.205  16.642 -0.8923  0.1670  0.8469
 3772SOL     OW22777   0.483   2.400   7.138  0.3132  0.2772  0.4743
 3772SOL    HW122778   0.557   2.455   7.163 -0.1589  0.1874  2.0860
 3772SOL    HW222779   0.446   2.377   7.223  2.5075  0.1707  1.3934
 3773SOL     OW22780   4.287   0.123   4.796  0.2438  0.8352  0.0032
 3773SOL    HW122781   4.380   0.131   4.778  0.1717  1.5063 -0.0685
 3773SOL    HW222782   4.249   0.104   4.710  1.9011  0.3644 -0.6186
 3774SOL     OW22783   2.272   3.424   1.311 -0.4073 -0.2741  0.0324
 3774SOL    HW122784   2.343   3.402   1.371  0.8573 -0.0665 -1.3928
 3774SOL    HW222785   2.207   3.460   1.372 -0.4109 -0.8417  0.3651
 3775SOL     OW22786   0.028   0.820   3.920 -0.0567  0.4524  0.0232
 3775SOL    HW122787   0.017   0.889   3.855  1.8676  0.2675 -0.4770
 3775SOL    HW222788   0.052   0.748   3.863 -1.1717 -1.0222  1.4062
 3776SOL     OW22789   1.828   1.996   1.105 -0.6043  0.2782  0.0845
 3776SOL    HW122790   1.907   1.947   1.083 -1.4237 -1.2931  0.6705
 3776SOL    HW222791   1.749   1.949   1.080  0.2726 -0.1466 -1.9452
 3777SOL     OW22792   4.156   2.503   6.070  0.0742  0.0582 -0.1350
 3777SOL    HW122793   4.118   2.580   6.028  0.1194 -0.3746 -0.9858
 3777SOL    HW222794   4.073   2.459   6.084 -0.0819  0.2549 -0.4483
 3778SOL     OW22795   4.173   4.389   2.188  0.0846  0.0272 -0.1183
 3778SOL    HW122796   4.123   4.445   2.247  1.9447 -0.0939  1.5933
 3778SOL    HW222797   4.235   4.352   2.252  0.5058  0.1490 -0.4614
 3779SOL     OW22798   2.135   0.491  16.560 -0.2923  0.7806 -0.0817
 3779SOL    HW122799   2.137   0.583  16.586  0.4611  0.3354  1.4198
 3779SOL    HW222800   2.210   0.497  16.501  0.3774  1.4323  0.8344
 3780SOL     OW22801   0.538   1.905   6.260  0.9466  0.6538 -0.0011
 3780SOL    HW122802   0.498   1.953   6.332 -3.0901  0.2696 -1.9937
 3780SOL    HW222803   0.558   1.982   6.207 -1.7758  1.6812  0.4745
 3781SOL     OW22804   3.772   2.090   6.773 -0.0833 -0.8192 -0.0451
 3781SOL    HW122805   3.845   2.077   6.833  1.1964  1.0510 -1.2058
 3781SOL    HW222806   3.758   2.184   6.771 -0.2951 -0.8670 -0.8379
 3782SOL     OW22807   1.833   1.354  11.622 -0.0086 -0.3783  0.1404
 3782SOL    HW122808   1.863   1.268  11.595  1.1078  0.2836 -0.7241
 3782SOL    HW222809   1.748   1.361  11.579 -0.3194 -0.7277  0.7063
 3783SOL     OW22810   3.889   4.328   8.378 -0.2865 -0.7315  0.1667
 3783SOL    HW122811   3.810   4.381   8.389 -0.5207 -1.5568  2.3929
 3783SOL    HW222812   3.914   4.295   8.464 -2.2808  0.3040  1.1467
 3784SOL     OW22813   0.245   2.864   4.115  0.2751  0.1298  0.2919
 3784SOL    HW122814   0.212   2.799   4.176  0.2127 -1.4433 -1.4141
 3784SOL    HW222815   0.234   2.943   4.168 -1.1036 -0.5531  1.0105
 3785SOL     OW22816   0.625   0.090   6.735  0.0771  0.1868  0.1723
 3785SOL    HW122817   0.659   0.179   6.746  3.4425 -1.2918  1.7312
 3785SOL    HW222818   0.662   0.053   6.816  0.0508  2.3720  1.1731
 3786SOL     OW22819   4.182   4.405   0.770 -0.2648  0.7378 -0.0044
 3786SOL    HW122820   4.179   4.332   0.708  0.0451 -0.1706  1.0685
 3786SOL    HW222821   4.088   4.414   0.787 -0.8665  1.4136 -3.5458
 3787SOL     OW22822   1.184   0.683   6.759  0.4670 -0.0541  0.6321
 3787SOL    HW122823   1.181   0.626   6.836  2.2636 -2.1699 -0.8392
 3787SOL    HW222824   1.266   0.726   6.782  0.4784  1.1266 -1.6573
 3788SOL     OW22825   1.198   2.625   7.702 -0.0812 -0.3153 -0.4945
 3788SOL    HW122826   1.184   2.575   7.783  1.1602 -2.2303 -1.4649
 3788SOL    HW222827   1.147   2.701   7.730  0.6413  0.6196 -1.7474
 3789SOL     OW22828   1.433   1.552   5.773 -0.1487  0.2851 -0.2004
 3789SOL    HW122829   1.520   1.579   5.802 -0.2006  0.8848 -0.5932
 3789SOL    HW222830   1.467   1.517   5.690  1.4584  0.1015  0.5408
 3790SOL     OW22831   3.302   3.722   7.543  0.0791  0.1709  0.0546
 3790SOL    HW122832   3.246   3.703   7.618  1.5579  1.1135  1.3924
 3790SOL    HW222833   3.364   3.785   7.579  0.1222  0.2186 -0.1019
 3791SOL     OW22834   2.150   4.056  16.764 -0.3157  0.4882 -0.1219
 3791SOL    HW122835   2.136   4.094  16.677 -0.0990 -0.8747 -0.7506
 3791SOL    HW222836   2.204   4.127  16.798  1.1002 -0.0306 -1.2838
 3792SOL     OW22837   0.674   3.226   8.830 -0.2061 -0.1457  0.2341
 3792SOL    HW122838   0.727   3.153   8.862  0.5842  0.2129 -0.2497
 3792SOL    HW222839   0.616   3.181   8.769  0.7023 -0.2427 -0.5607
 3793SOL     OW22840   1.624   4.687  17.077 -0.5977 -0.1279 -0.1979
 3793SOL    HW122841   1.714   4.682  17.107 -1.1484 -3.1257  1.0295
 3793SOL    HW222842   1.571   4.697  17.156 -3.2133 -0.1092 -1.9621
 3794SOL     OW22843   0.771   4.075   0.350 -0.1554 -0.2716  0.0716
 3794SOL    HW122844   0.857   4.064   0.309 -0.2718 -0.6577 -0.0703
 3794SOL    HW222845   0.724   4.139   0.295  0.7017  0.8823  0.6946
 3795SOL     OW22846   0.959   3.755   0.798 -0.1164 -0.4218  0.3361
 3795SOL    HW122847   0.973   3.662   0.818 -3.0764 -0.5543  1.7745
 3795SOL    HW222848   1.044   3.794   0.780 -1.3406  1.3949 -1.5129
 3796SOL     OW22849   3.122   3.350   8.575  0.2905 -0.6125  0.0012
 3796SOL    HW122850   3.049   3.367   8.516  1.7675  1.6143 -1.2025
 3796SOL    HW222851   3.086   3.387   8.656  0.0997 -0.4966 -0.1372
 3797SOL     OW22852   0.916   4.583   4.155  0.3254 -0.4249 -0.2775
 3797SOL    HW122853   0.890   4.496   4.186  1.5000 -0.8264 -0.4237
 3797SOL    HW222854   0.986   4.566   4.091 -0.0556 -0.6065 -0.6507
 3798SOL     OW22855   3.772   2.402   2.078 -0.0901 -0.0929 -0.0742
 3798SOL    HW122856   3.868   2.408   2.073 -0.0055 -0.8637  0.5235
 3798SOL    HW222857   3.773   2.394   2.174 -0.7746  0.5385 -0.0176
 3799SOL     OW22858   2.210   0.708  14.234 -0.2683  0.0781 -0.0071
 3799SOL    HW122859   2.240   0.673  14.318 -1.2649  0.3213  0.4482
 3799SOL    HW222860   2.292   0.699  14.185  1.4501 -0.5810  2.9715
 3800SOL     OW22861   0.166   0.418   1.856 -0.3114  0.5775  0.1580
 3800SOL    HW122862   0.123   0.448   1.776  0.5111 -0.2895 -0.6076
 3800SOL    HW222863   0.238   0.480   1.850  0.5598 -0.5157 -0.7272
 3801SOL     OW22864   3.738   3.762   8.991 -0.1369  0.5587  0.4776
 3801SOL    HW122865   3.667   3.736   9.050  0.0954 -0.4040  0.3371
 3801SOL    HW222866   3.814   3.725   9.036  2.2062  2.8651 -1.6082
 3802SOL     OW22867   3.722   4.060   3.730 -0.1088  0.3966  0.6155
 3802SOL    HW122868   3.730   4.121   3.657  0.4634 -0.8445 -0.3592
 3802SOL    HW222869   3.661   3.993   3.700  0.6564  0.2357 -0.5869
 3803SOL     OW22870   3.320   4.180  16.100  0.5714 -0.1224 -0.0228
 3803SOL    HW122871   3.245   4.141  16.145  0.9288  0.2737  0.9316
 3803SOL    HW222872   3.288   4.269  16.113  2.8930  0.6048  0.8613
 3804SOL     OW22873   1.434   2.220   4.215 -0.3561 -0.6877 -0.2975
 3804SOL    HW122874   1.406   2.140   4.260 -0.1213 -1.4304 -1.4722
 3804SOL    HW222875   1.399   2.287   4.274  2.0387  0.4617 -0.1799
 3805SOL     OW22876   0.690   3.849   6.418  0.1387  0.4922 -0.1883
 3805SOL    HW122877   0.652   3.781   6.474 -2.2313  2.5255  0.6255
 3805SOL    HW222878   0.613   3.896   6.387  0.9981  0.9615 -1.5906
 3806SOL     OW22879   1.155   2.945  14.914 -0.4444 -0.1205  0.4069
 3806SOL    HW122880   1.184   2.877  14.852  3.8005  2.1025 -0.0800
 3806SOL    HW222881   1.211   3.012  14.873 -0.1761  0.0414  1.0437
 3807SOL     OW22882   0.247   3.034  15.260 -0.1575  0.2685  0.6952
 3807SOL    HW122883   0.261   2.942  15.284  2.1025  0.1177 -1.1594
 3807SOL    HW222884   0.245   3.032  15.164 -1.4454  2.0394  0.7018
 3808SOL     OW22885   1.432   2.919   3.308 -0.3583  0.2487 -0.5142
 3808SOL    HW122886   1.484   2.848   3.270  0.8307  0.2331  1.1695
 3808SOL    HW222887   1.365   2.866   3.351 -0.6784 -0.1186 -1.4505
 3809SOL     OW22888   0.292   1.094   6.655  0.1543 -0.3740 -0.7993
 3809SOL    HW122889   0.374   1.141   6.640  1.5011 -3.1963 -2.2402
 3809SOL    HW222890   0.311   1.067   6.745 -1.8959  1.0612  0.0756
 3810SOL     OW22891   0.990   0.602   1.939 -0.4524 -0.3768  0.1030
 3810SOL    HW122892   1.081   0.613   1.911 -1.4845  2.1532 -2.3245
 3810SOL    HW222893   0.992   0.610   2.034  3.6078  0.9087 -0.1024
 3811SOL     OW22894   0.711   0.529  15.502 -0.5437 -0.2846  0.3785
 3811SOL    HW122895   0.775   0.458  15.507  1.5971  1.5313 -0.8757
 3811SOL    HW222896   0.636   0.477  15.475 -0.0610 -2.1255  2.5795
 3812SOL     OW22897   0.198   4.096   6.833 -0.3073  0.4049 -0.3392
 3812SOL    HW122898   0.202   4.189   6.857 -1.2275  0.8580 -1.9752
 3812SOL    HW222899   0.143   4.064   6.905  1.6824 -1.3850  0.3791
 3813SOL     OW22900   3.319   0.068  17.635  0.4442  0.3110 -0.0416
 3813SOL    HW122901   3.236   0.086  17.592  0.8579 -1.2143 -1.4896
 3813SOL    HW222902   3.296   0.031   0.024  0.9942 -4.3694 -1.9001
 3814SOL     OW22903   4.649   3.424  16.645 -0.0122 -0.3941  0.2091
 3814SOL    HW122904   4.720   3.373  16.683  0.4440  0.2925  0.2710
 3814SOL    HW222905   4.703   3.435  16.566 -2.2640  0.9847 -1.1528
 3815SOL     OW22906   3.735   2.158   8.556  0.3733 -0.0574 -0.2431
 3815SOL    HW122907   3.764   2.224   8.619  0.4698 -1.0289  0.7384
 3815SOL    HW222908   3.794   2.166   8.481 -1.0038  1.6923 -1.1402
 3816SOL     OW22909   4.293   2.319  11.310 -0.5602 -0.2382  0.1643
 3816SOL    HW122910   4.264   2.392  11.254  2.0369 -0.9323 -2.0946
 3816SOL    HW222911   4.220   2.258  11.311 -0.6127 -0.1913 -0.8337
 3817SOL     OW22912   0.832   0.323   4.140 -0.2349 -0.2834 -0.3803
 3817SOL    HW122913   0.777   0.326   4.061  0.6363  2.1243 -0.8961
 3817SOL    HW222914   0.812   0.410   4.175  0.0100  0.0964 -1.1774
 3818SOL     OW22915   0.675   0.914   9.406 -0.9344 -0.2067 -0.3297
 3818SOL    HW122916   0.736   0.854   9.449  0.3760  1.8603  0.6749
 3818SOL    HW222917   0.642   0.968   9.478  2.4081  2.8510 -1.0999
 3819SOL     OW22918   4.226   0.629   2.325  0.5862  0.3785  0.4026
 3819SOL    HW122919   4.163   0.576   2.276  1.3633  0.1744 -0.3775
 3819SOL    HW222920   4.237   0.702   2.263  5.1225 -1.3704 -0.8933
 3820SOL     OW22921   4.518   4.476   4.270  0.5199 -0.0907 -0.7770
 3820SOL    HW122922   4.508   4.539   4.342 -1.3692 -1.3906  0.1093
 3820SOL    HW222923   4.502   4.394   4.317 -0.4204  0.2142 -0.5500
 3821SOL     OW22924   1.990   1.784   3.865 -0.0825 -0.7775  0.5516
 3821SOL    HW122925   1.960   1.799   3.955 -1.2161 -0.7023  0.1636
 3821SOL    HW222926   1.907   1.753   3.829 -0.4058 -1.0760  1.5420
 3822SOL     OW22927   3.134   2.609  12.365 -0.3786  0.0469  0.8362
 3822SOL    HW122928   3.116   2.692  12.409 -0.6531 -0.1556  1.1095
 3822SOL    HW222929   3.151   2.636  12.275  0.6103  0.9647  1.2933
 3823SOL     OW22930   3.202   3.619   4.916 -0.1491  0.3642  0.0008
 3823SOL    HW122931   3.115   3.590   4.943 -0.1535  0.3285 -0.0524
 3823SOL    HW222932   3.232   3.676   4.987  0.7009  1.2618 -1.0900
 3824SOL     OW22933   3.197   4.485   4.958 -0.1042  0.3617  0.2909
 3824SOL    HW122934   3.129   4.550   4.940 -0.5137 -0.2200 -0.2791
 3824SOL    HW222935   3.252   4.531   5.021  2.8864 -0.3796 -1.7205
 3825SOL     OW22936   0.487   4.013   6.629  0.0420 -0.1226 -0.0881
 3825SOL    HW122937   0.485   4.037   6.721 -1.9538  0.7517 -0.3730
 3825SOL    HW222938   0.425   4.074   6.590 -1.1077 -1.5078 -0.4375
 3826SOL     OW22939   3.825   0.461   9.184  0.2384 -0.4734  0.0792
 3826SOL    HW122940   3.879   0.393   9.225  0.0041 -1.2104 -0.8274
 3826SOL    HW222941   3.738   0.421   9.189  0.7211 -1.6649 -1.0100
 3827SOL     OW22942   4.375   2.458   3.864 -0.6792  0.2009  0.8730
 3827SOL    HW122943   4.391   2.476   3.771  0.3650 -0.4589  0.9356
 3827SOL    HW222944   4.416   2.539   3.894 -2.1906  1.3685 -0.2204
 3828SOL     OW22945   0.871   1.229   3.975  0.4409  0.1386 -0.1619
 3828SOL    HW122946   0.841   1.138   3.978 -2.4085  1.0207 -1.0142
 3828SOL    HW222947   0.919   1.233   3.892 -1.7983  0.2928 -1.4735
 3829SOL     OW22948   0.931   2.868   4.367 -0.1024 -0.1562 -0.7116
 3829SOL    HW122949   0.936   2.802   4.298  0.4966 -0.6703 -0.1719
 3829SOL    HW222950   0.954   2.822   4.448 -0.9150  0.6580 -0.0215
 3830SOL     OW22951   4.303   1.745   7.752 -0.3607  0.3807 -0.0349
 3830SOL    HW122952   4.289   1.729   7.845  2.4906  1.7519  0.6531
 3830SOL    HW222953   4.221   1.708   7.719 -0.7335  0.8948  0.3051
 3831SOL     OW22954   2.424   2.851   3.788  0.5857 -0.1326  0.1694
 3831SOL    HW122955   2.337   2.888   3.806  0.6822  1.3218 -2.3814
 3831SOL    HW222956   2.469   2.882   3.867  0.2457  0.3770  0.1657
 3832SOL     OW22957   1.573   4.538   4.699 -0.1542  0.0987 -0.1729
 3832SOL    HW122958   1.514   4.494   4.637 -1.7271  1.7476  0.1568
 3832SOL    HW222959   1.509   4.577   4.758 -0.3246  0.3634 -0.5365
 3833SOL     OW22960   1.075   2.324  13.188  0.2156 -0.5898 -0.1121
 3833SOL    HW122961   0.996   2.293  13.144 -1.0256 -1.2176  2.5273
 3833SOL    HW222962   1.052   2.417  13.191  1.9410 -0.1509 -0.5038
 3834SOL     OW22963   1.198   2.266   2.533 -0.1156 -0.0539 -0.0635
 3834SOL    HW122964   1.143   2.240   2.607 -1.2402  1.1944 -0.4610
 3834SOL    HW222965   1.130   2.261   2.466 -0.3440  2.2416  0.0178
 3835SOL     OW22966   0.373   3.657   9.169 -0.2811 -0.0129  0.9908
 3835SOL    HW122967   0.447   3.643   9.109 -1.3758  1.8497 -0.7806
 3835SOL    HW222968   0.411   3.606   9.241  1.3758  1.8355  1.4094
 3836SOL     OW22969   1.246   2.102   7.544 -0.7165  0.4923 -0.3799
 3836SOL    HW122970   1.160   2.132   7.574 -1.5560  0.8420 -3.1043
 3836SOL    HW222971   1.262   2.162   7.471 -0.1484  1.5399  0.6088
 3837SOL     OW22972   3.496   4.343   9.084  0.2056  0.3168 -0.2160
 3837SOL    HW122973   3.526   4.352   8.994  2.5491  0.1178  0.5427
 3837SOL    HW222974   3.492   4.434   9.114  1.5695  0.0934  0.6711
 3838SOL     OW22975   2.726   2.356   7.498 -0.7323 -0.3052  0.4877
 3838SOL    HW122976   2.767   2.405   7.426  1.3916 -3.3373 -0.3833
 3838SOL    HW222977   2.673   2.417   7.549  2.1221  1.4947  1.3622
 3839SOL     OW22978   2.905   1.311   0.258 -0.6218 -0.5638 -0.1149
 3839SOL    HW122979   2.910   1.243   0.325  0.5738 -0.5260 -0.1735
 3839SOL    HW222980   2.810   1.315   0.249 -0.3276  0.2521 -2.6275
 3840SOL     OW22981   1.823   3.243   2.459  0.3156 -0.2118 -0.2074
 3840SOL    HW122982   1.833   3.268   2.551  0.8024 -1.2359  0.0160
 3840SOL    HW222983   1.884   3.171   2.441  0.4906  0.3036 -1.7025
 3841SOL     OW22984   4.365   2.911   8.292 -0.4252  0.3352 -0.2726
 3841SOL    HW122985   4.375   2.901   8.386 -1.1717 -0.8094 -0.3039
 3841SOL    HW222986   4.282   2.957   8.278  0.8116  2.1428 -1.7043
 3842SOL     OW22987   3.479   1.532   5.410  0.1548  0.3088  0.1351
 3842SOL    HW122988   3.437   1.535   5.324  0.2249 -0.1336  0.0824
 3842SOL    HW222989   3.460   1.439   5.420 -0.7813  0.3548 -1.3347
 3843SOL     OW22990   4.655   3.451   8.678  0.3002  0.2311  0.4353
 3843SOL    HW122991   4.661   3.356   8.666 -0.2879  0.3621 -0.9256
 3843SOL    HW222992   4.632   3.451   8.771 -1.0472  0.5443  0.0978
 3844SOL     OW22993   3.568   3.907   7.163  0.0911  0.0911 -0.1988
 3844SOL    HW122994   3.549   3.960   7.240 -1.6929 -0.5318 -0.2072
 3844SOL    HW222995   3.611   3.832   7.203  1.0847 -0.1342 -1.6877
 3845SOL     OW22996   1.335   4.449   3.199  0.0115 -0.1989  0.0813
 3845SOL    HW122997   1.291   4.499   3.267 -0.4098 -0.0784 -0.2763
 3845SOL    HW222998   1.427   4.463   3.219 -1.2169  3.4456  3.2020
 3846SOL     OW22999   0.799   1.492   4.561 -0.4526 -0.2610  0.7042
 3846SOL    HW123000   0.883   1.464   4.523 -1.9696 -3.4643 -0.2750
 3846SOL    HW223001   0.735   1.431   4.524 -0.9870 -0.3189  1.7344
 3847SOL     OW23002   1.846   2.524   5.532 -0.0034  0.2632 -0.1766
 3847SOL    HW123003   1.922   2.569   5.569  0.7217 -0.8381 -0.3285
 3847SOL    HW223004   1.826   2.560   5.446 -0.6846 -0.0095 -0.1281
 3848SOL     OW23005   2.438   3.912   7.598  0.1075  0.6462 -0.3045
 3848SOL    HW123006   2.397   3.963   7.669  2.3130  0.7847  0.8540
 3848SOL    HW223007   2.440   3.971   7.522 -0.0089 -0.2810 -1.0187
 3849SOL     OW23008   2.125   1.498   5.847  0.8477 -0.6963 -0.0901
 3849SOL    HW123009   2.050   1.514   5.904  1.8181 -0.1032  1.0080
 3849SOL    HW223010   2.077   1.513   5.765  0.1409  1.8526  0.7940
 3850SOL     OW23011   3.331   0.630   4.220  0.4489 -0.4259 -0.1301
 3850SOL    HW123012   3.272   0.696   4.255  0.7615 -0.0819 -0.2521
 3850SOL    HW223013   3.335   0.655   4.128 -0.4569 -0.5932 -0.2093
 3851SOL     OW23014   2.539   1.341   7.770 -0.5112 -0.5950 -0.1060
 3851SOL    HW123015   2.625   1.299   7.771  0.4346  1.3227  2.1662
 3851SOL    HW223016   2.486   1.292   7.707  0.0789 -1.7508  0.3070
 3852SOL     OW23017   0.748   1.284   1.865 -0.1265 -0.0573  0.1502
 3852SOL    HW123018   0.820   1.250   1.919 -0.9718 -0.5603  0.9710
 3852SOL    HW223019   0.792   1.277   1.781  1.7754 -1.2524  1.2414
 3853SOL     OW23020   1.954   4.519   3.373 -0.2203 -0.1119 -0.2394
 3853SOL    HW123021   1.932   4.475   3.291 -1.9812  0.8919 -0.3000
 3853SOL    HW223022   2.005   4.452   3.419  2.7820  2.7290  0.5069
 3854SOL     OW23023   2.226   3.388  14.769 -0.3394 -0.3312 -0.0831
 3854SOL    HW123024   2.150   3.338  14.739 -0.6103 -0.1352  0.2743
 3854SOL    HW223025   2.178   3.453  14.821 -0.5148  0.2200 -0.9380
 3855SOL     OW23026   3.986   4.572   7.993  0.0962 -0.3912  0.3510
 3855SOL    HW123027   4.075   4.606   7.984 -0.6151  1.0198 -1.5278
 3855SOL    HW223028   3.996   4.488   8.037  0.9810  0.2937  1.4594
 3856SOL     OW23029   3.573   4.040   4.903  0.4031  0.1631 -0.5065
 3856SOL    HW123030   3.563   4.122   4.952 -0.9755 -0.0511 -0.4355
 3856SOL    HW223031   3.482   4.022   4.879  0.0259  0.4663  0.6755
 3857SOL     OW23032   1.424   3.655  14.028  0.0603  0.0667 -0.1534
 3857SOL    HW123033   1.468   3.718  14.085  0.7669  0.6680 -1.3581
 3857SOL    HW223034   1.490   3.658  13.959  0.0756  2.0183 -0.0307
 3858SOL     OW23035   0.947   1.786  11.533  0.0253 -0.1680  0.4217
 3858SOL    HW123036   0.981   1.730  11.463  0.0664  0.2359  0.1190
 3858SOL    HW223037   0.959   1.866  11.483  0.6315 -0.1983  0.5109
 3859SOL     OW23038   4.654   4.017   4.867  0.0146  0.3181  0.3128
 3859SOL    HW123039   4.695   3.984   4.786 -1.2725 -0.2028 -0.1224
 3859SOL    HW223040   4.587   4.080   4.841 -2.3309 -2.3058  0.0353
 3860SOL     OW23041   1.323   3.162   2.748  0.4652 -0.3691 -0.8019
 3860SOL    HW123042   1.376   3.168   2.828  0.4695  1.1553 -0.9259
 3860SOL    HW223043   1.344   3.244   2.704 -1.1039 -0.3689 -1.5474
 3861SOL     OW23044   2.218   3.500   5.193 -0.1510 -0.1708 -0.7616
 3861SOL    HW123045   2.204   3.519   5.286 -0.3684  0.4831 -0.9292
 3861SOL    HW223046   2.259   3.581   5.162  0.0298 -0.0950 -0.3351
 3862SOL     OW23047   2.353   2.181  13.464  0.1614  0.9075  0.2034
 3862SOL    HW123048   2.444   2.199  13.488 -1.2058  0.7518  5.4693
 3862SOL    HW223049   2.339   2.257  13.408  2.1750  1.3192  0.2317
 3863SOL     OW23050   2.719   1.138   1.498 -0.3671  0.1341 -0.6724
 3863SOL    HW123051   2.779   1.115   1.426 -1.8970 -0.8083 -1.6365
 3863SOL    HW223052   2.665   1.059   1.497 -1.2179  0.7296 -2.6601
 3864SOL     OW23053   1.502   2.079   6.918 -0.0949 -0.3559 -0.2319
 3864SOL    HW123054   1.450   2.116   6.847  0.0421  0.0337 -0.1284
 3864SOL    HW223055   1.438   2.041   6.978 -1.2436  1.3078 -0.4257
 3865SOL     OW23056   3.789   3.259  10.497  0.1018  0.5181 -0.3268
 3865SOL    HW123057   3.852   3.327  10.523  0.4828 -0.2216  0.6731
 3865SOL    HW223058   3.763   3.276  10.407 -1.1888 -1.3974 -0.2994
 3866SOL     OW23059   2.208   3.209   4.143 -0.0456 -0.1878  0.2724
 3866SOL    HW123060   2.280   3.270   4.126 -2.0161  1.6211 -1.5406
 3866SOL    HW223061   2.139   3.275   4.151  0.0722 -0.1902  1.4317
 3867SOL     OW23062   2.360   2.577   2.400 -0.3045 -0.6665 -0.5543
 3867SOL    HW123063   2.324   2.624   2.324  1.4957  3.9302  1.4043
 3867SOL    HW223064   2.424   2.636   2.439 -0.8134 -0.3707 -0.1548
 3868SOL     OW23065   1.238   2.116   8.493  0.0835 -0.0583  0.0210
 3868SOL    HW123066   1.298   2.181   8.457  0.4756  0.2105  1.1755
 3868SOL    HW223067   1.206   2.075   8.412 -0.9640 -1.5660  1.2100
 3869SOL     OW23068   3.020   1.157   4.417  0.9826 -0.4189 -0.5845
 3869SOL    HW123069   2.931   1.184   4.393  0.6199 -2.2105 -1.2042
 3869SOL    HW223070   3.062   1.169   4.332  1.4279  1.9830 -0.0389
 3870SOL     OW23071   3.021   1.303   4.713 -0.1513 -0.1289 -0.0075
 3870SOL    HW123072   2.938   1.292   4.668  0.7983  0.0623 -1.7946
 3870SOL    HW223073   2.984   1.359   4.782 -1.4000 -0.8431 -0.0952
 3871SOL     OW23074   1.719   3.852  12.932  0.2102  0.0403 -0.3835
 3871SOL    HW123075   1.714   3.760  12.960 -0.4733  0.4847  0.9716
 3871SOL    HW223076   1.811   3.860  12.958  0.2949 -2.2723  0.1117
 3872SOL     OW23077   1.005   4.051   7.577 -0.4585  0.0833  0.3904
 3872SOL    HW123078   0.965   4.066   7.662  1.2809 -2.0079  1.5569
 3872SOL    HW223079   0.948   4.117   7.536  0.4567  0.3477 -0.4622
 3873SOL     OW23080   2.880   3.569  15.011 -0.1731  0.3773 -0.2073
 3873SOL    HW123081   2.924   3.607  15.087  0.3841  0.2418 -0.4594
 3873SOL    HW223082   2.957   3.552  14.957 -0.2028 -1.0438  0.2029
 3874SOL     OW23083   2.480   0.037   9.230  0.0101 -0.0889 -0.9703
 3874SOL    HW123084   2.564   0.073   9.259 -1.1321  2.7097 -1.1212
 3874SOL    HW223085   2.465   0.089   9.151  0.5701  1.5372 -0.0199
 3875SOL     OW23086   2.014   1.950  13.706  0.2369 -0.1873 -0.4197
 3875SOL    HW123087   2.060   1.877  13.745  0.2660  0.3354  0.5206
 3875SOL    HW223088   1.936   1.971  13.757  0.2666  0.2071 -0.5359
 3876SOL     OW23089   3.006   0.971   6.153 -0.2509 -0.1213 -0.0686
 3876SOL    HW123090   3.065   1.046   6.159  0.6916 -0.9901  1.5098
 3876SOL    HW223091   2.924   1.015   6.131 -0.2343 -0.3563 -0.5960
 3877SOL     OW23092   1.840   1.945   7.305 -0.3723 -0.3802 -0.2164
 3877SOL    HW123093   1.935   1.952   7.305 -0.3619 -0.6762  2.1228
 3877SOL    HW223094   1.826   1.852   7.319 -0.4657 -0.3719 -0.2567
 3878SOL     OW23095   0.686   4.205   5.571 -0.0794  0.3206 -0.6864
 3878SOL    HW123096   0.670   4.297   5.595  1.8606 -0.1515  2.2726
 3878SOL    HW223097   0.607   4.178   5.524 -0.1730  0.7554 -0.7863
 3879SOL     OW23098   1.441   0.751   4.601 -0.0749 -0.1292  0.0685
 3879SOL    HW123099   1.430   0.656   4.611 -0.7527 -0.0513  0.1093
 3879SOL    HW223100   1.399   0.781   4.682  0.8100  0.1709  0.4169
 3880SOL     OW23101   1.136   2.652   5.974  0.2712 -0.0994 -0.2903
 3880SOL    HW123102   1.136   2.560   5.946  0.0109 -0.1662 -0.0552
 3880SOL    HW223103   1.167   2.641   6.063 -2.3458  2.4037  0.9184
 3881SOL     OW23104   4.261   3.896   6.242  0.2997  0.0659  0.4255
 3881SOL    HW123105   4.350   3.867   6.263  0.3796  0.7533  1.0507
 3881SOL    HW223106   4.215   3.872   6.323  1.2196 -2.9036  0.0657
 3882SOL     OW23107   4.529   0.704   2.437 -0.1936  0.0318  0.0668
 3882SOL    HW123108   4.565   0.616   2.446  0.5655  0.3156 -0.2275
 3882SOL    HW223109   4.469   0.692   2.363  0.1223  0.7067 -0.2990
 3883SOL     OW23110   2.847   3.694   3.013  0.0535 -0.0533 -0.1499
 3883SOL    HW123111   2.831   3.641   2.935 -0.5408  0.0300 -0.0900
 3883SOL    HW223112   2.821   3.781   2.982 -1.7533  0.0092  1.5156
 3884SOL     OW23113   2.253   3.702  14.555 -0.0613  0.9001 -0.3480
 3884SOL    HW123114   2.302   3.719  14.635  1.8365 -3.3030 -0.6063
 3884SOL    HW223115   2.244   3.792  14.523  1.0503  0.7044 -1.2495
 3885SOL     OW23116   0.670   3.792   1.451 -0.3115  0.1653  0.2461
 3885SOL    HW123117   0.702   3.840   1.376 -1.0824  1.8380  0.9930
 3885SOL    HW223118   0.583   3.830   1.465 -0.8494 -0.1891 -2.2511
 3886SOL     OW23119   3.864   4.544  12.517 -0.1415 -0.0253 -0.3080
 3886SOL    HW123120   3.841   4.625  12.471 -1.1267 -2.7223 -4.5425
 3886SOL    HW223121   3.784   4.537  12.568 -0.5219 -0.1943 -0.9253
 3887SOL     OW23122   2.174   1.886   2.961  0.7423 -0.5447 -0.3947
 3887SOL    HW123123   2.116   1.845   3.025 -0.4421  0.8219 -0.6064
 3887SOL    HW223124   2.133   1.969   2.940  1.4642 -0.2680 -0.7001
 3888SOL     OW23125   3.828   2.625  16.654  0.2343  0.1158  0.0075
 3888SOL    HW123126   3.826   2.651  16.746 -0.3534  0.3170 -0.0621
 3888SOL    HW223127   3.745   2.665  16.626 -0.0623  0.6481  1.6770
 3889SOL     OW23128   3.214   0.953   7.705 -0.1280  0.5532  0.8418
 3889SOL    HW123129   3.163   0.952   7.786 -0.0754  0.1089  0.8727
 3889SOL    HW223130   3.237   0.860   7.706  2.2642  1.1295 -1.9168
 3890SOL     OW23131   1.367   0.320  17.337  0.4116  0.2593  0.3049
 3890SOL    HW123132   1.376   0.393  17.398  1.0932 -1.3600  2.1440
 3890SOL    HW223133   1.451   0.275  17.350  0.3477 -0.0601 -0.3630
 3891SOL     OW23134   2.835   4.019   7.557  0.3351 -0.4857  0.0275
 3891SOL    HW123135   2.806   4.109   7.570  0.2534 -0.3255 -1.3124
 3891SOL    HW223136   2.819   4.010   7.464  0.4188  1.0126 -0.1275
 3892SOL     OW23137   4.587   1.931   2.130 -0.1503  0.0168  0.4491
 3892SOL    HW123138   4.599   1.983   2.051  0.6089  0.8254  1.0940
 3892SOL    HW223139   4.659   1.868   2.131 -0.2901 -0.1472  0.0763
 3893SOL     OW23140   4.391   4.005  15.034 -0.7200 -0.5767 -0.0027
 3893SOL    HW123141   4.317   4.051  14.995 -1.9321  0.0219  3.0612
 3893SOL    HW223142   4.444   3.967  14.964  1.3511  1.2981  0.5695
 3894SOL     OW23143   4.184   0.881   1.920 -0.3383 -0.5741  0.3294
 3894SOL    HW123144   4.132   0.918   1.991  0.3478  0.6677  0.1796
 3894SOL    HW223145   4.215   0.958   1.873 -1.0200  1.2336  2.8279
 3895SOL     OW23146   1.742   2.662   7.977 -0.3290  0.2195 -0.5419
 3895SOL    HW123147   1.813   2.633   7.919 -0.0360  1.5424 -0.8550
 3895SOL    HW223148   1.681   2.588   7.976 -0.5473  0.3978  1.3887
 3896SOL     OW23149   0.145   1.448   8.489  0.6266  1.0901 -0.0233
 3896SOL    HW123150   0.056   1.450   8.526 -0.8675 -0.5768 -3.5533
 3896SOL    HW223151   0.157   1.356   8.466  0.2887  1.1095 -0.2802
 3897SOL     OW23152   0.730   1.575  13.599 -0.1819  0.3519 -0.4938
 3897SOL    HW123153   0.664   1.569  13.530  1.8684  1.4752 -2.5308
 3897SOL    HW223154   0.804   1.593  13.542  1.1199 -1.0944  0.7201
 3898SOL     OW23155   0.278   3.763   9.969 -0.9489 -0.0704  0.3523
 3898SOL    HW123156   0.187   3.734   9.963 -0.9978  0.0167  0.6873
 3898SOL    HW223157   0.298   3.751  10.062 -1.3547  0.9702  0.5715
 3899SOL     OW23158   0.292   4.503   7.805  0.4171  0.3650 -0.8996
 3899SOL    HW123159   0.343   4.581   7.783  2.0397 -0.5611 -0.4170
 3899SOL    HW223160   0.363   4.439   7.796 -3.0836 -3.7955  0.8944
 3900SOL     OW23161   2.896   3.224  12.449  0.0565 -0.0436  0.2742
 3900SOL    HW123162   2.807   3.251  12.427  0.6892  2.4303  0.7157
 3900SOL    HW223163   2.889   3.169  12.528  1.7425  0.1840  0.5955
 3901SOL     OW23164   0.553   1.249   0.973  0.4921 -0.6593  0.2792
 3901SOL    HW123165   0.547   1.314   0.903 -1.5029  0.3745  1.3964
 3901SOL    HW223166   0.561   1.306   1.050  0.6110 -0.2129 -0.0626
 3902SOL     OW23167   4.261   3.589   2.154  0.5636  0.2957 -0.1017
 3902SOL    HW123168   4.335   3.531   2.174 -0.7065 -0.2367  3.0246
 3902SOL    HW223169   4.242   3.543   2.072 -3.1084  1.1627  0.2963
 3903SOL     OW23170   2.042   3.355   4.955  0.1390 -0.1948 -0.2006
 3903SOL    HW123171   2.089   3.375   5.036 -0.1515  0.8544 -0.2944
 3903SOL    HW223172   2.042   3.259   4.954 -0.7384 -0.2103  0.8887
 3904SOL     OW23173   3.502   2.522   7.195 -0.2730  0.4452 -0.1874
 3904SOL    HW123174   3.572   2.586   7.210  0.1298 -0.1903  0.6776
 3904SOL    HW223175   3.533   2.450   7.250  1.5520  0.3216 -1.4003
 3905SOL     OW23176   2.848   0.763   7.158 -0.2876  1.1463 -0.0493
 3905SOL    HW123177   2.939   0.756   7.130 -0.0311 -0.3862  1.1672
 3905SOL    HW223178   2.828   0.850   7.125 -3.1875  0.9198  1.1514
 3906SOL     OW23179   3.139   2.226  15.724  0.2637  0.4321  0.0716
 3906SOL    HW123180   3.226   2.265  15.720  0.9336 -1.1299 -0.4900
 3906SOL    HW223181   3.123   2.231  15.818 -1.7450 -1.2200 -0.1872
 3907SOL     OW23182   1.895   0.509   7.706 -0.0977 -0.4963  0.8736
 3907SOL    HW123183   1.807   0.472   7.698  0.0752 -0.6137 -0.4765
 3907SOL    HW223184   1.930   0.454   7.636  2.5059  0.0257  1.7840
 3908SOL     OW23185   1.007   0.264   5.389  0.2618 -0.1848  0.1890
 3908SOL    HW123186   0.973   0.343   5.431 -1.3294 -0.2752 -0.9364
 3908SOL    HW223187   1.017   0.215   5.470  0.7115  0.3573  0.4670
 3909SOL     OW23188   2.685   4.095   5.400 -0.1348  0.2189 -0.0326
 3909SOL    HW123189   2.690   4.191   5.396 -0.8897  0.3472  1.9210
 3909SOL    HW223190   2.778   4.074   5.413 -0.3512 -0.3140  0.6329
 3910SOL     OW23191   0.299   0.341  15.419 -0.2262  0.2554 -0.0274
 3910SOL    HW123192   0.254   0.348  15.335  1.4111  0.5049 -0.8664
 3910SOL    HW223193   0.255   0.419  15.454  3.3279  2.4430 -0.4749
 3911SOL     OW23194   4.348   2.763   8.032  0.0224 -0.2569  0.4851
 3911SOL    HW123195   4.442   2.747   8.034  0.1870  0.6803  0.4642
 3911SOL    HW223196   4.332   2.811   8.113 -4.3052  3.9784 -2.8545
 3912SOL     OW23197   4.250   0.049   0.821 -0.1415 -0.7996 -0.1138
 3912SOL    HW123198   4.177   0.008   0.866 -0.8550 -2.4427 -2.7616
 3912SOL    HW223199   4.248   0.140   0.850 -0.1212 -1.2992  1.4689
 3913SOL     OW23200   2.272   1.122  16.775  0.4850 -0.6979  0.7421
 3913SOL    HW123201   2.199   1.110  16.715  0.4779  2.9650 -0.0199
 3913SOL    HW223202   2.249   1.210  16.807  0.1866 -0.5475  0.1086
 3914SOL     OW23203   3.786   2.892   4.350 -0.4626 -0.0356  0.4038
 3914SOL    HW123204   3.737   2.938   4.281  0.5929 -1.0318 -1.0014
 3914SOL    HW223205   3.756   2.802   4.338  1.2833 -0.4531 -0.8815
 3915SOL     OW23206   1.736   1.200   2.005 -0.0889  0.2462 -0.3300
 3915SOL    HW123207   1.809   1.185   1.945 -0.4624 -1.9710 -0.2519
 3915SOL    HW223208   1.742   1.134   2.074 -0.3841 -1.3940 -1.8596
 3916SOL     OW23209   2.637   2.856   7.646  0.9456  0.2849 -0.0640
 3916SOL    HW123210   2.630   2.888   7.556  0.5472 -0.2961 -0.2355
 3916SOL    HW223211   2.687   2.931   7.679  1.2709 -0.0332  0.1640
 3917SOL     OW23212   2.067   2.554   8.194 -0.0327 -0.3579 -0.5622
 3917SOL    HW123213   2.140   2.497   8.221  0.6611  0.5282 -0.5551
 3917SOL    HW223214   2.035   2.495   8.126  2.7483  1.7837 -3.7295
 3918SOL     OW23215   0.509   0.812   2.010  0.0654 -0.4879 -0.4025
 3918SOL    HW123216   0.552   0.873   2.070  0.2874  0.2460 -1.3070
 3918SOL    HW223217   0.589   0.769   1.980 -0.0975 -1.6738  0.8454
 3919SOL     OW23218   0.313   0.864   8.340 -0.1264  0.1228  0.3812
 3919SOL    HW123219   0.323   0.834   8.430  0.1250  1.9501  0.9605
 3919SOL    HW223220   0.222   0.844   8.318 -0.1713 -0.3566  0.9932
 3920SOL     OW23221   3.518   0.108  16.645 -0.4366 -0.0873 -0.0479
 3920SOL    HW123222   3.460   0.166  16.693 -0.3636 -0.8284  0.9374
 3920SOL    HW223223   3.463   0.088  16.570  0.9822  0.3046 -1.1999
 3921SOL     OW23224   2.767   1.170   4.279 -1.1480  0.1696 -0.1248
 3921SOL    HW123225   2.678   1.199   4.298 -2.0624 -0.5870 -3.1589
 3921SOL    HW223226   2.756   1.133   4.191 -0.1754  1.9962 -1.0133
 3922SOL     OW23227   2.946   0.621   4.287 -0.3945 -0.1940  0.2149
 3922SOL    HW123228   2.865   0.598   4.332  1.0520 -1.4955  2.1802
 3922SOL    HW223229   3.005   0.549   4.310 -1.6938 -0.7780  1.6899
 3923SOL     OW23230   0.802   0.290   5.855  0.8145 -0.3510  0.7235
 3923SOL    HW123231   0.791   0.384   5.869  0.1761 -0.6593  2.3525
 3923SOL    HW223232   0.714   0.253   5.865  0.1480  1.5346  1.9545
 3924SOL     OW23233   1.125   1.513   7.125  0.0565 -0.2877  0.1110
 3924SOL    HW123234   1.167   1.505   7.040 -0.8374  0.2159 -0.3830
 3924SOL    HW223235   1.189   1.558   7.180 -0.2537  0.4656 -0.1435
 3925SOL     OW23236   3.941   3.125  15.408  0.3609 -0.3170  0.4348
 3925SOL    HW123237   4.023   3.141  15.361 -0.2021  1.0239 -0.1053
 3925SOL    HW223238   3.965   3.159  15.495  1.5588 -2.2834  0.8604
 3926SOL     OW23239   1.725   3.844  17.594 -0.1224  0.0201 -0.1227
 3926SOL    HW123240   1.653   3.800  17.639 -0.4937 -0.6379 -1.3858
 3926SOL    HW223241   1.761   3.773  17.541 -1.8554 -1.0219  0.1251
 3927SOL     OW23242   1.770   0.485   7.346  0.0908 -0.2013  0.0476
 3927SOL    HW123243   1.862   0.471   7.371  0.2488 -0.5130 -0.7193
 3927SOL    HW223244   1.763   0.573   7.383 -0.8147 -0.4162  0.3785
 3928SOL     OW23245   1.295   1.920  12.789  0.2989 -0.5898  0.1033
 3928SOL    HW123246   1.308   1.827  12.808 -2.4716 -0.7197  1.3653
 3928SOL    HW223247   1.203   1.915  12.765 -0.6423  1.8570  3.1429
 3929SOL     OW23248   0.042   4.263  15.442 -0.2283  0.1931 -0.2977
 3929SOL    HW123249   0.039   4.230  15.352  1.3596 -1.6583  0.3371
 3929SOL    HW223250   4.711   4.201  15.491 -0.1650  0.3319 -0.0504
 3930SOL     OW23251   1.358   1.808   7.598 -0.1098 -0.3298 -0.1392
 3930SOL    HW123252   1.438   1.782   7.644 -0.5407 -0.3471  0.5988
 3930SOL    HW223253   1.343   1.890   7.645  0.5670 -0.3520  0.1286
 3931SOL     OW23254   4.448   4.314   7.940 -0.0644  0.0817 -0.1583
 3931SOL    HW123255   4.468   4.389   7.883  2.6166 -0.7875 -0.3229
 3931SOL    HW223256   4.425   4.362   8.019  0.3761  1.9378 -1.1597
 3932SOL     OW23257   4.475   0.646   7.727 -0.5899 -0.2624 -0.0254
 3932SOL    HW123258   4.419   0.723   7.727 -0.2543 -0.0157 -0.1936
 3932SOL    HW223259   4.552   0.678   7.773 -1.0879  0.3237  0.3944
 3933SOL     OW23260   1.090   3.338   5.509  0.4079  0.3166 -0.6016
 3933SOL    HW123261   1.004   3.301   5.490  0.8365 -0.0872 -1.7684
 3933SOL    HW223262   1.095   3.417   5.456  1.4720  0.3135 -0.5061
 3934SOL     OW23263   3.587   2.167   7.878 -0.6430 -0.5977  0.7434
 3934SOL    HW123264   3.535   2.225   7.823  1.5921  1.6859  1.0197
 3934SOL    HW223265   3.671   2.199   7.845 -0.2615 -3.4080 -0.9992
 3935SOL     OW23266   1.875   2.936   3.145 -0.3217  0.0704  0.5826
 3935SOL    HW123267   1.790   2.964   3.110  0.3321 -1.5031 -2.2681
 3935SOL    HW223268   1.844   2.908   3.231  0.7631  3.6137  2.1188
 3936SOL     OW23269   0.496   1.827   1.897 -0.9846  0.0533 -0.0754
 3936SOL    HW123270   0.459   1.873   1.973 -2.1320  0.2980 -0.7805
 3936SOL    HW223271   0.494   1.896   1.831 -0.0252 -2.3311 -2.5856
 3937SOL     OW23272   3.914   0.216  15.573  0.4736  0.3367 -0.1082
 3937SOL    HW123273   3.970   0.290  15.553 -0.7560  1.6351  1.2504
 3937SOL    HW223274   3.841   0.257  15.619 -0.0975 -2.5239  1.5140
 3938SOL     OW23275   3.166   3.306  11.537 -0.2827  0.5463  0.1309
 3938SOL    HW123276   3.144   3.342  11.451 -0.2741 -0.2147 -0.1906
 3938SOL    HW223277   3.105   3.232  11.540 -2.5266  2.4678  2.1521
 3939SOL     OW23278   1.421   1.278   0.716  0.0526 -0.2590  0.5272
 3939SOL    HW123279   1.513   1.306   0.721 -0.2654  0.8052  0.3135
 3939SOL    HW223280   1.373   1.344   0.766 -1.3449  1.7954 -3.6146
 3940SOL     OW23281   1.737   0.377  12.190  0.3614 -0.3608  0.1912
 3940SOL    HW123282   1.719   0.405  12.279  0.2150  1.6395 -0.4712
 3940SOL    HW223283   1.670   0.421  12.138 -0.3718 -2.4354 -0.6554
 3941SOL     OW23284   2.157   0.466  14.668 -0.1033  0.2867  0.3619
 3941SOL    HW123285   2.230   0.461  14.731  0.5691  3.0001 -0.2160
 3941SOL    HW223286   2.189   0.526  14.601  1.2021 -0.2798  0.4585
 3942SOL     OW23287   3.560   3.111   7.088  0.3227 -0.1921  0.5855
 3942SOL    HW123288   3.643   3.118   7.135  1.0600  0.0946 -0.7301
 3942SOL    HW223289   3.540   3.204   7.083 -0.8243 -0.3905  1.4738
 3943SOL     OW23290   0.796   3.893   1.000  0.2891  0.8483  0.1689
 3943SOL    HW123291   0.878   3.895   0.950  0.0451  0.1258 -0.2560
 3943SOL    HW223292   0.829   3.876   1.088  2.0024  2.0110 -0.2416
 3944SOL     OW23293   0.538   1.648   7.623  0.0381 -0.1635 -0.1910
 3944SOL    HW123294   0.513   1.664   7.714  2.2795  0.7851  0.2698
 3944SOL    HW223295   0.633   1.638   7.621  0.0815  0.1073  0.4527
 3945SOL     OW23296   2.545   4.305  10.949 -0.6346  0.1204  0.2955
 3945SOL    HW123297   2.612   4.340  11.009  1.5901 -0.6869 -1.7117
 3945SOL    HW223298   2.490   4.252  11.007 -2.5676  2.6208  0.7368
 3946SOL     OW23299   0.068   2.416  17.005 -0.7429  0.5484 -0.3890
 3946SOL    HW123300   0.076   2.324  16.982 -1.0536  0.5098 -0.3458
 3946SOL    HW223301   0.148   2.451  16.965  0.8676 -0.6974  1.7564
 3947SOL     OW23302   3.382   1.166   7.727 -0.0273 -0.1227 -0.6120
 3947SOL    HW123303   3.325   1.090   7.712 -0.4054  0.0658 -0.1176
 3947SOL    HW223304   3.323   1.240   7.735  0.5066  0.1997  0.3393
 3948SOL     OW23305   3.573   1.996   6.073 -0.0906 -0.1922  0.3376
 3948SOL    HW123306   3.544   1.906   6.082  0.4105 -0.7634 -3.5512
 3948SOL    HW223307   3.546   2.037   6.155  0.5257  1.9635 -0.5352
 3949SOL     OW23308   2.054   1.962   5.427  0.6382  0.2651 -0.4386
 3949SOL    HW123309   2.096   2.038   5.387  2.9141 -0.9624 -0.4011
 3949SOL    HW223310   1.991   1.944   5.358  0.1839  1.4920 -0.3235
 3950SOL     OW23311   0.031   0.246  11.031 -0.5268 -0.1293  0.0780
 3950SOL    HW123312   4.675   0.193  11.032 -2.2463  2.4324  0.2535
 3950SOL    HW223313   0.099   0.194  10.989 -2.6252 -2.1888 -0.7805
 3951SOL     OW23314   0.441   2.308   6.259  0.2012 -0.1009  0.4584
 3951SOL    HW123315   0.502   2.354   6.316 -0.7772 -0.2382  1.6136
 3951SOL    HW223316   0.376   2.276   6.321 -0.4021 -0.6449 -0.4588
 3952SOL     OW23317   0.752   3.404  15.381  0.0005  0.1982 -0.2073
 3952SOL    HW123318   0.702   3.336  15.426  0.3195  0.5017  0.5942
 3952SOL    HW223319   0.791   3.454  15.452 -1.7756 -0.1123  0.9804
 3953SOL     OW23320   2.547   2.123  11.012  0.1243  0.1426 -0.0523
 3953SOL    HW123321   2.521   2.120  10.920 -0.1401 -0.7797  0.0473
 3953SOL    HW223322   2.591   2.208  11.006  1.0734 -0.3913 -0.7427
 3954SOL     OW23323   1.129   2.881   5.049 -0.4968 -0.4986 -1.1676
 3954SOL    HW123324   1.207   2.905   4.999 -1.6848  1.3299 -2.1495
 3954SOL    HW223325   1.101   2.800   5.005  0.0601 -2.8498  2.8569
 3955SOL     OW23326   2.578   4.523  13.122  0.0480 -0.3633  0.3580
 3955SOL    HW123327   2.539   4.571  13.196  0.1142  0.1481  0.0583
 3955SOL    HW223328   2.505   4.512  13.061  0.4759  1.4884 -0.4794
 3956SOL     OW23329   0.977   0.217   5.654  0.2410 -0.0398  0.0077
 3956SOL    HW123330   0.915   0.254   5.717 -1.2569  0.5957 -1.8200
 3956SOL    HW223331   1.055   0.219   5.708  0.5828 -1.5619 -0.4325
 3957SOL     OW23332   4.313   4.017   9.145 -0.1360 -0.1022 -0.0086
 3957SOL    HW123333   4.392   3.984   9.101 -0.1188  1.8622 -1.4307
 3957SOL    HW223334   4.278   4.070   9.074  0.4800  1.5901  0.9402
 3958SOL     OW23335   1.624   3.579   4.316  0.2542 -0.0520 -0.4036
 3958SOL    HW123336   1.597   3.667   4.345  2.2101  0.2703  0.4409
 3958SOL    HW223337   1.552   3.527   4.351  1.5223 -2.4908 -1.4412
 3959SOL     OW23338   0.716   0.459   5.605  0.1900  0.8594  0.1755
 3959SOL    HW123339   0.751   0.503   5.683  1.5726 -0.1199  0.1113
 3959SOL    HW223340   0.623   0.448   5.624 -0.4212  2.3854 -1.8835
 3960SOL     OW23341   2.946   0.466  13.535  0.6710  0.1989 -0.2047
 3960SOL    HW123342   2.926   0.539  13.477  0.7984 -1.0898 -1.8503
 3960SOL    HW223343   2.973   0.399  13.472  0.1831 -0.4249  0.2538
 3961SOL     OW23344   4.379   3.879   5.504  0.2400  0.7316  0.0620
 3961SOL    HW123345   4.449   3.887   5.569 -1.3690  0.1393  1.8697
 3961SOL    HW223346   4.424   3.834   5.433  0.6181 -3.1968  2.8144
 3962SOL     OW23347   3.453   0.760   6.408  0.0147  0.1512 -0.5081
 3962SOL    HW123348   3.378   0.776   6.350  0.2895 -1.1082 -1.2078
 3962SOL    HW223349   3.411   0.768   6.493 -2.1189 -2.8491 -1.2743
 3963SOL     OW23350   3.053   4.379   2.868 -0.3499  0.2462 -0.5523
 3963SOL    HW123351   3.013   4.339   2.791  0.4176 -1.7496  0.0761
 3963SOL    HW223352   2.977   4.380   2.926  0.2117 -1.7607  0.2168
 3964SOL     OW23353   4.566   2.393   5.754  0.2549 -0.1714 -0.1518
 3964SOL    HW123354   4.596   2.475   5.716  3.3198 -0.9093  0.6872
 3964SOL    HW223355   4.504   2.424   5.820 -0.6392 -0.6605 -0.7554
 3965SOL     OW23356   2.008   4.445  16.670 -0.7658 -0.7514  0.1219
 3965SOL    HW123357   1.917   4.455  16.698 -0.7899 -1.0386  0.1438
 3965SOL    HW223358   2.053   4.420  16.750 -0.1503 -2.2403 -0.7015
 3966SOL     OW23359   4.250   1.834  11.080 -0.1647 -0.2326 -0.5294
 3966SOL    HW123360   4.199   1.756  11.056  0.7511 -1.3793  1.2220
 3966SOL    HW223361   4.230   1.880  10.999 -0.1101 -0.2437 -0.5490
 3967SOL     OW23362   3.886   0.158   8.915  0.3672 -0.3280 -0.3178
 3967SOL    HW123363   3.969   0.118   8.938 -1.1072 -2.2935  1.6085
 3967SOL    HW223364   3.813   0.097   8.923 -0.6525  1.0275  0.7109
 3968SOL     OW23365   1.090   3.880   7.380  0.1243  0.1575  0.2774
 3968SOL    HW123366   1.073   3.945   7.449  1.0150 -0.3023  0.9346
 3968SOL    HW223367   1.006   3.849   7.347  0.3432  0.8869 -0.9434
 3969SOL     OW23368   4.611   3.223   7.058  0.1978 -0.4445  0.3472
 3969SOL    HW123369   4.643   3.216   6.968  2.5128 -0.0492  1.1526
 3969SOL    HW223370   4.685   3.196   7.112 -0.0676 -0.8553  0.5041
 3970SOL     OW23371   1.471   2.257   2.109 -0.2974  0.1741  0.1378
 3970SOL    HW123372   1.395   2.314   2.093  1.4265  2.1784 -0.8967
 3970SOL    HW223373   1.445   2.240   2.200 -1.8047 -0.3128 -0.3780
 3971SOL     OW23374   0.532   2.991   6.368  0.3500 -0.1173  0.2414
 3971SOL    HW123375   0.469   2.922   6.346  1.9218 -1.2351 -0.7621
 3971SOL    HW223376   0.579   2.952   6.442  1.6279  1.3582  0.2038
 3972SOL     OW23377   1.752   3.065  13.149  0.0857 -0.4016 -0.1714
 3972SOL    HW123378   1.722   2.974  13.140 -0.6740 -0.0750 -0.8425
 3972SOL    HW223379   1.829   3.055  13.205  1.1472  0.3981 -1.4847
 3973SOL     OW23380   0.437   4.358  14.697  0.2672  0.1187  0.2757
 3973SOL    HW123381   0.444   4.433  14.637  0.6816 -1.3801 -1.5407
 3973SOL    HW223382   0.450   4.284  14.638  0.0240 -0.8770  1.4703
 3974SOL     OW23383   0.649   2.247   4.981 -0.3262 -0.5613  0.1256
 3974SOL    HW123384   0.668   2.237   4.887 -3.6577 -0.1363 -0.5813
 3974SOL    HW223385   0.637   2.154   5.002  0.8413 -0.0265  3.0970
 3975SOL     OW23386   2.777   2.291   2.318  0.2364  0.1619  0.5252
 3975SOL    HW123387   2.685   2.318   2.316  1.1191  2.6549 -4.5072
 3975SOL    HW223388   2.777   2.210   2.267 -0.9946 -0.2870  1.2242
 3976SOL     OW23389   1.017   1.002   8.796  0.5770  0.4958  0.0487
 3976SOL    HW123390   1.053   1.005   8.885 -0.1196 -0.6135  0.3664
 3976SOL    HW223391   1.033   0.913   8.764 -0.9003  1.0881 -2.2620
 3977SOL     OW23392   1.311   1.787   6.930 -0.7737  0.3451  0.0313
 3977SOL    HW123393   1.314   1.865   6.985 -2.1669 -0.2803  0.9738
 3977SOL    HW223394   1.231   1.751   6.967 -0.0466 -1.2236  0.0892
 3978SOL     OW23395   3.697   3.956   1.588  0.2521  0.4812 -0.4996
 3978SOL    HW123396   3.752   3.878   1.596  0.0257  0.1362 -2.3043
 3978SOL    HW223397   3.716   4.004   1.668  1.1334  0.5306 -0.7349
 3979SOL     OW23398   0.581   1.555   4.771 -0.0012 -0.2368  0.3208
 3979SOL    HW123399   0.657   1.550   4.713 -1.4056  2.0461 -1.7280
 3979SOL    HW223400   0.627   1.497   4.832  0.6591  0.3987  0.4220
 3980SOL     OW23401   2.675   1.475   5.689  0.5943 -0.1008 -0.1968
 3980SOL    HW123402   2.618   1.442   5.758  1.3212 -0.6660  0.1353
 3980SOL    HW223403   2.612   1.526   5.638  1.0373  2.5053  1.8017
 3981SOL     OW23404   2.910   1.112   1.294 -0.4025 -0.6169  0.3702
 3981SOL    HW123405   2.905   1.177   1.224 -2.9486  0.1467  1.2549
 3981SOL    HW223406   2.932   1.036   1.239  0.7400 -1.1051  1.5051
 3982SOL     OW23407   3.558   4.531   7.841 -0.0750 -0.2619 -0.0798
 3982SOL    HW123408   3.642   4.496   7.869  0.0917 -0.0095 -0.2647
 3982SOL    HW223409   3.587   4.580   7.764  1.7890 -0.3467  0.5734
 3983SOL     OW23410   2.889   1.090  11.840 -0.2644 -0.1111  0.4800
 3983SOL    HW123411   2.862   1.041  11.762 -0.6596 -1.4479  1.4567
 3983SOL    HW223412   2.969   1.129  11.804  0.1112  2.0080  3.5972
 3984SOL     OW23413   1.453   0.356  11.901  0.3025  0.3094  0.6371
 3984SOL    HW123414   1.448   0.426  11.966 -1.3282 -0.9370  1.8816
 3984SOL    HW223415   1.381   0.299  11.930 -0.2419  0.0443 -1.2839
 3985SOL     OW23416   1.480   2.600   7.611 -0.1750 -0.1457 -0.0733
 3985SOL    HW123417   1.389   2.611   7.637 -1.3376 -1.1362 -3.7173
 3985SOL    HW223418   1.517   2.676   7.655  0.9544 -1.8434  1.9540
 3986SOL     OW23419   0.878   3.807   4.027  0.3292  0.0959  0.2482
 3986SOL    HW123420   0.902   3.849   3.944 -2.5805  0.9993 -0.1127
 3986SOL    HW223421   0.867   3.715   4.003 -2.8912  0.3944  0.6539
 3987SOL     OW23422   3.132   0.644   1.360  0.2450  0.6248  0.0592
 3987SOL    HW123423   3.131   0.712   1.293 -1.0732 -1.8924 -2.4876
 3987SOL    HW223424   3.043   0.646   1.395  0.8360 -1.3755  1.7090
 3988SOL     OW23425   0.284   3.854   2.510  0.1234  0.1825 -0.5274
 3988SOL    HW123426   0.364   3.800   2.507  0.1167 -0.0336  2.6624
 3988SOL    HW223427   0.278   3.874   2.417 -2.0682  0.4365 -0.3333
 3989SOL     OW23428   3.097   3.134   6.908 -0.3020 -0.2143  0.8169
 3989SOL    HW123429   3.114   3.129   7.002 -1.3640  0.7898  1.0596
 3989SOL    HW223430   3.001   3.136   6.907 -0.3330 -1.2275  1.4602
 3990SOL     OW23431   0.604   2.249  15.975  0.0739  0.1580  0.3789
 3990SOL    HW123432   0.683   2.224  15.927  0.4472  2.7978 -0.4072
 3990SOL    HW223433   0.555   2.166  15.973  0.0302  0.2256 -2.2784
 3991SOL     OW23434   0.727   0.274   4.750 -0.1926  0.0013  0.1268
 3991SOL    HW123435   0.648   0.259   4.802 -0.9379  0.7052 -0.7962
 3991SOL    HW223436   0.685   0.328   4.683 -0.0433  1.6633  1.4043
 3992SOL     OW23437   0.073   0.353   6.331 -0.9766 -0.5292 -0.2970
 3992SOL    HW123438   0.057   0.330   6.422  0.2415 -1.1808 -0.2524
 3992SOL    HW223439   0.106   0.441   6.349 -1.0050 -0.3383 -1.1454
 3993SOL     OW23440   4.683   1.652   3.011 -0.2457  0.0161 -0.2774
 3993SOL    HW123441   4.650   1.709   3.081  0.6198  3.1553 -2.4128
 3993SOL    HW223442   0.024   1.598   3.057 -0.1672 -0.3275 -0.8047
 3994SOL     OW23443   3.962   4.052   0.438  0.1906 -0.0427 -0.1390
 3994SOL    HW123444   3.995   3.966   0.416 -1.0336 -0.6699  0.4628
 3994SOL    HW223445   3.913   4.063   0.356 -2.3772  0.0888  1.3927
 3995SOL     OW23446   1.912   0.805   5.917 -0.2260 -0.0953 -1.3343
 3995SOL    HW123447   1.820   0.781   5.924  0.1399 -0.8079  1.0136
 3995SOL    HW223448   1.919   0.888   5.964  0.1834  0.7068 -2.8380
 3996SOL     OW23449   0.612   2.072   5.658  0.2050  0.4003  0.0679
 3996SOL    HW123450   0.636   2.152   5.704  0.4004  0.0642  0.5454
 3996SOL    HW223451   0.552   2.106   5.592 -0.4504  1.9387  1.4701
 3997SOL     OW23452   3.813   1.049   8.041 -0.1176  0.0803  0.0547
 3997SOL    HW123453   3.721   1.068   8.023 -0.7893 -1.2607  2.1139
 3997SOL    HW223454   3.818   0.956   8.019 -0.0870 -0.2248  1.3336
 3998SOL     OW23455   0.423   1.147  10.745 -0.0853 -0.1602 -0.2535
 3998SOL    HW123456   0.378   1.098  10.676  0.4846  1.0568 -1.4924
 3998SOL    HW223457   0.353   1.157  10.809  0.5371  0.3919  0.3272
 3999SOL     OW23458   4.062   3.070   7.957 -0.0804  0.0763 -0.6101
 3999SOL    HW123459   3.991   3.132   7.970 -1.0564 -1.0878 -0.3249
 3999SOL    HW223460   4.033   3.032   7.873 -0.9436 -1.1013  0.2208
 4000SOL     OW23461   2.542   2.649   1.948  0.0632 -0.2258  0.2296
 4000SOL    HW123462   2.599   2.606   2.011  2.2244 -1.0210 -2.3104
 4000SOL    HW223463   2.524   2.574   1.892  0.8817 -1.6858  1.9596
 4001SOL     OW23464   1.616   4.716   2.432  0.2084 -0.2281  0.4816
 4001SOL    HW123465   1.604   4.665   2.512 -0.2987  0.7690  1.0333
 4001SOL    HW223466   1.700   4.682   2.400 -0.0945 -0.8874  0.3866
 4002SOL     OW23467   0.235   3.256   8.024  0.0521 -0.8019  0.8695
 4002SOL    HW123468   0.175   3.326   7.997  0.3341 -0.8032  0.2405
 4002SOL    HW223469   0.319   3.301   8.031  0.0971 -0.9477  1.2872
 4003SOL     OW23470   2.479   4.443   4.029 -1.1481 -0.3483  0.1694
 4003SOL    HW123471   2.568   4.418   4.007 -0.9477  1.6650 -1.2693
 4003SOL    HW223472   2.427   4.413   3.954 -1.6918  0.6370  0.1473
 4004SOL     OW23473   0.063   4.360   8.737 -0.2507  0.0630 -0.1751
 4004SOL    HW123474   0.156   4.355   8.715 -0.0573 -0.1562  0.6937
 4004SOL    HW223475   0.029   4.274   8.759  0.8112 -0.6468 -1.3435
 4005SOL     OW23476   3.091   1.211   1.501  0.1614  0.2138  0.0639
 4005SOL    HW123477   3.093   1.127   1.546 -0.8730  0.1199 -0.0545
 4005SOL    HW223478   3.021   1.196   1.438  1.1264 -2.9619 -0.2469
 4006SOL     OW23479   0.682   0.704  15.237  0.5795  0.2475 -0.3348
 4006SOL    HW123480   0.772   0.704  15.204 -0.1975  1.3383 -2.4543
 4006SOL    HW223481   0.687   0.674  15.327  0.5096 -2.2579 -1.1749
 4007SOL     OW23482   1.544   4.024  12.651  0.0891 -0.5044 -0.5484
 4007SOL    HW123483   1.639   4.036  12.642  0.5026 -2.7305  1.0289
 4007SOL    HW223484   1.541   4.029  12.747  1.2487  0.9964 -0.5787
 4008SOL     OW23485   1.839   0.417   9.517  0.6494 -0.2469 -0.1267
 4008SOL    HW123486   1.922   0.459   9.540 -0.4693  0.4156  2.6558
 4008SOL    HW223487   1.864   0.331   9.550  0.6927  0.7389  2.3818
 4009SOL     OW23488   3.120   0.224  17.525  0.5321 -0.2807 -0.5243
 4009SOL    HW123489   3.120   0.285  17.599  0.7970 -1.7430  0.6765
 4009SOL    HW223490   3.062   0.270  17.465 -0.0349  1.3846  1.2781
 4010SOL     OW23491   2.805   1.219   8.597  0.4084 -0.2130 -0.3479
 4010SOL    HW123492   2.765   1.138   8.629  2.6127 -0.7823  0.9953
 4010SOL    HW223493   2.732   1.281   8.600  1.9143  1.4207  2.7868
 4011SOL     OW23494   0.990   1.580  13.497 -0.1514  0.2995  0.2551
 4011SOL    HW123495   1.064   1.554  13.553 -2.0501 -3.1591  1.1232
 4011SOL    HW223496   1.007   1.505  13.439  2.0927 -1.4743  3.2036
 4012SOL     OW23497   1.150   1.563   8.088  0.0989 -0.8214 -0.3857
 4012SOL    HW123498   1.243   1.545   8.097  0.0120 -0.6968  0.6920
 4012SOL    HW223499   1.147   1.656   8.064 -0.2399 -0.8815 -0.5760
 4013SOL     OW23500   0.607   2.805   6.562 -0.5498 -1.0828  0.1975
 4013SOL    HW123501   0.681   2.769   6.612  0.0956 -0.7059 -0.5055
 4013SOL    HW223502   0.562   2.848   6.635  1.9303  1.0154  0.4783
 4014SOL     OW23503   4.570   4.199   3.701 -0.3834 -0.1149 -0.4004
 4014SOL    HW123504   4.514   4.228   3.629 -0.9632 -0.1304  0.0449
 4014SOL    HW223505   4.611   4.119   3.668  0.9735  0.4395 -0.0555
 4015SOL     OW23506   3.416   2.368   7.740 -0.0711  0.3461 -0.5387
 4015SOL    HW123507   3.359   2.445   7.745 -1.0167 -0.3707 -0.3328
 4015SOL    HW223508   3.351   2.298   7.733  1.2767 -0.9315 -0.0492
 4016SOL     OW23509   1.231   4.089   7.746  0.0933 -0.3818 -0.1632
 4016SOL    HW123510   1.189   4.077   7.661 -0.5081  1.5013 -0.1340
 4016SOL    HW223511   1.212   4.182   7.763 -0.9035 -1.1520  2.8909
 4017SOL     OW23512   2.847   3.031   6.871 -0.0273 -0.5547  0.4276
 4017SOL    HW123513   2.758   2.998   6.877 -0.6247  1.0555  0.2733
 4017SOL    HW223514   2.836   3.112   6.822 -0.3168 -1.1218 -0.4632
 4018SOL     OW23515   1.011   3.964   4.214 -0.1386  0.4388  0.6512
 4018SOL    HW123516   0.955   3.905   4.163 -2.6179  4.5820 -1.3973
 4018SOL    HW223517   1.041   4.017   4.140  0.8300 -0.6103  0.2946
 4019SOL     OW23518   2.760   2.381   6.184 -0.0761  0.3260  0.5263
 4019SOL    HW123519   2.785   2.472   6.198  0.2306  0.3653 -0.2809
 4019SOL    HW223520   2.676   2.393   6.140  1.1501 -0.2688 -1.9730
 4020SOL     OW23521   3.065   2.109   6.713 -0.2218 -0.3516 -0.3292
 4020SOL    HW123522   3.025   2.114   6.800  1.2619 -1.6764  0.4426
 4020SOL    HW223523   3.157   2.112   6.741 -0.9678  0.5489  2.0126
 4021SOL     OW23524   1.169   2.073   8.753 -0.1491 -0.2271  0.2452
 4021SOL    HW123525   1.178   2.092   8.659 -2.2947 -1.6413 -0.2452
 4021SOL    HW223526   1.116   2.148   8.778  0.9728  1.3449 -2.0344
 4022SOL     OW23527   1.378   4.384   4.149 -0.4559  0.0968 -0.0594
 4022SOL    HW123528   1.435   4.460   4.147  1.8322 -1.5723  2.4344
 4022SOL    HW223529   1.378   4.365   4.242  1.7424 -0.9517 -0.2681
 4023SOL     OW23530   0.358   2.343   0.157  0.6684 -0.1572  0.3432
 4023SOL    HW123531   0.346   2.294   0.238 -1.2941  0.0486  0.1707
 4023SOL    HW223532   0.304   2.296   0.093  1.5165  0.2928 -0.7009
 4024SOL     OW23533   1.527   1.262   8.762 -0.8162  0.3468  0.5094
 4024SOL    HW123534   1.613   1.278   8.801 -0.1493  0.1431 -0.8734
 4024SOL    HW223535   1.472   1.308   8.826  1.2096  1.4507  1.4525
 4025SOL     OW23536   0.263   2.379   2.187  0.0082 -0.0017 -0.2004
 4025SOL    HW123537   0.324   2.449   2.163  1.2810 -1.3787 -1.0090
 4025SOL    HW223538   0.264   2.386   2.282 -0.1331  0.9853 -0.2757
 4026SOL     OW23539   0.569   3.487   3.259 -0.2519 -0.5096 -0.1550
 4026SOL    HW123540   0.631   3.539   3.311 -1.8156  2.8809 -1.6765
 4026SOL    HW223541   0.541   3.419   3.319  0.4174 -1.2802 -0.7089
 4027SOL     OW23542   1.110   1.929  15.761 -0.2699 -0.0879  0.3691
 4027SOL    HW123543   1.187   1.880  15.731 -1.5030 -2.4785  1.0913
 4027SOL    HW223544   1.068   1.872  15.826 -0.9758 -0.5806 -0.5332
 4028SOL     OW23545   3.389   2.338   8.806  1.0945 -0.2823 -0.0685
 4028SOL    HW123546   3.414   2.363   8.895  0.5892  0.3137 -0.0915
 4028SOL    HW223547   3.379   2.244   8.819 -3.9485  0.1491 -0.8529
 4029SOL     OW23548   1.730   2.575   7.113  0.5512  0.2576 -0.4264
 4029SOL    HW123549   1.680   2.657   7.112  0.1376  0.0174  0.8066
 4029SOL    HW223550   1.792   2.601   7.045 -0.9953  1.5238 -1.3353
 4030SOL     OW23551   1.457   0.179  15.252  0.3656 -0.5754  0.2383
 4030SOL    HW123552   1.445   0.145  15.164 -1.8534  0.8646 -0.0333
 4030SOL    HW223553   1.379   0.148  15.298  0.0166  1.3310  0.9431
 4031SOL     OW23554   0.256   2.009   2.673 -0.0581  0.1785  0.0476
 4031SOL    HW123555   0.163   1.993   2.657 -0.2202  0.2806  0.9119
 4031SOL    HW223556   0.269   2.100   2.646 -0.2398  0.3380  0.5064
 4032SOL     OW23557   3.809   3.247  13.541 -0.0387 -0.6030 -0.1665
 4032SOL    HW123558   3.802   3.318  13.606 -0.2286 -0.5166 -0.2814
 4032SOL    HW223559   3.742   3.188  13.574 -0.2837 -1.2776 -1.8710
 4033SOL     OW23560   3.313   0.032  11.002  0.1353 -0.5890 -0.0462
 4033SOL    HW123561   3.307   0.084  10.922  1.5667  0.0254  0.2406
 4033SOL    HW223562   3.328   4.668  10.965 -3.0697 -0.5558 -1.3584
 4034SOL     OW23563   1.922   1.808   1.851 -0.2094  0.0329  0.7394
 4034SOL    HW123564   1.871   1.770   1.780 -1.0886 -0.1538  1.4747
 4034SOL    HW223565   1.899   1.900   1.835  2.0848  0.6695  1.0891
 4035SOL     OW23566   3.671   4.253  14.275  0.0389 -0.1121 -0.1347
 4035SOL    HW123567   3.751   4.304  14.263 -0.8498  2.0294  3.0763
 4035SOL    HW223568   3.659   4.256  14.370 -2.0988 -1.4976 -0.3716
 4036SOL     OW23569   1.796   0.402   8.284 -0.1327 -0.3661 -0.2342
 4036SOL    HW123570   1.750   0.467   8.337 -0.1885 -1.3259  0.8805
 4036SOL    HW223571   1.884   0.438   8.276  0.2263 -0.8272  1.6241
 4037SOL     OW23572   2.384   0.285   3.993  0.0495  0.0402 -0.5468
 4037SOL    HW123573   2.381   0.257   3.901 -0.9018  0.3586 -0.6092
 4037SOL    HW223574   2.294   0.270   4.022  0.2487  1.4180  0.7630
 4038SOL     OW23575   2.570   2.055   3.005 -0.4270  0.3570 -0.4020
 4038SOL    HW123576   2.524   2.136   2.983  1.2308  1.3496 -0.1860
 4038SOL    HW223577   2.500   1.991   2.992 -1.1758  1.3443 -1.2327
 4039SOL     OW23578   1.130   4.721   8.142  0.1795  0.3470 -0.0682
 4039SOL    HW123579   1.083   0.028   8.219 -1.6872 -1.2996 -0.5543
 4039SOL    HW223580   1.182   4.647   8.173  1.4861  1.3123  0.0365
 4040SOL     OW23581   1.217   2.445   7.913  0.2966 -0.8038  0.2918
 4040SOL    HW123582   1.206   2.446   8.008  1.2181  1.5542  0.3881
 4040SOL    HW223583   1.171   2.364   7.892  0.1198  0.2273 -3.2712
 4041SOL     OW23584   4.440   0.080   6.457 -0.1656 -0.7814 -0.6156
 4041SOL    HW123585   4.475   0.019   6.392 -0.8098 -1.6847 -0.1281
 4041SOL    HW223586   4.357   0.110   6.421  1.6975  2.4949 -2.1777
 4042SOL     OW23587   4.647   1.301   3.737 -0.7762  0.4861 -0.6832
 4042SOL    HW123588   4.667   1.376   3.681  0.1522  1.3099  0.7538
 4042SOL    HW223589   4.632   1.343   3.821  1.0159  0.3904 -0.3006
 4043SOL     OW23590   1.099   0.717  12.520  0.4322 -0.2635  0.3981
 4043SOL    HW123591   1.052   0.649  12.569 -0.9918  0.9825  0.7963
 4043SOL    HW223592   1.078   0.689  12.431 -1.5151 -0.5939  0.9419
 4044SOL     OW23593   1.034   1.750  15.012  0.3103  0.1447 -0.2470
 4044SOL    HW123594   1.127   1.764  14.996  0.9350 -1.1772  2.1565
 4044SOL    HW223595   1.016   1.671  14.961  0.4018 -0.3897  0.5379
 4045SOL     OW23596   3.671   3.524   5.715  0.4232 -0.6844 -0.3248
 4045SOL    HW123597   3.579   3.509   5.693  0.4602 -1.4065  0.0067
 4045SOL    HW223598   3.673   3.619   5.707  1.4418 -0.5013  2.1705
 4046SOL     OW23599   1.329   0.100   6.779 -0.4716  0.8141  0.7024
 4046SOL    HW123600   1.424   0.103   6.786 -0.3620  0.6566 -0.8074
 4046SOL    HW223601   1.325   0.180   6.728 -1.9588  0.1008 -0.3254
 4047SOL     OW23602   2.762   3.501  16.182  0.0566 -0.2674  0.3296
 4047SOL    HW123603   2.845   3.524  16.140 -0.0658  1.8653  1.2894
 4047SOL    HW223604   2.702   3.566  16.147 -0.8683 -0.6516  1.2018
 4048SOL     OW23605   0.633   0.527   6.493  0.1628 -0.3500  0.1974
 4048SOL    HW123606   0.550   0.494   6.527  0.0837 -3.8148 -3.3842
 4048SOL    HW223607   0.628   0.514   6.398  0.9225  0.9721 -0.0306
 4049SOL     OW23608   2.280   3.004   4.323 -0.5315 -0.4124  0.2884
 4049SOL    HW123609   2.265   2.923   4.276  0.5954 -0.9112  0.8011
 4049SOL    HW223610   2.249   3.064   4.254 -1.1452  2.4250  2.9970
 4050SOL     OW23611   0.793   1.281   6.641  0.5734 -0.1983  0.7605
 4050SOL    HW123612   0.873   1.229   6.644 -0.6811 -2.0443  1.7702
 4050SOL    HW223613   0.804   1.362   6.690 -0.8026  1.4640 -1.6535
 4051SOL     OW23614   1.767   2.633   3.547 -0.1263  0.7700 -0.0708
 4051SOL    HW123615   1.731   2.714   3.581 -2.4206 -0.0515 -0.5437
 4051SOL    HW223616   1.844   2.666   3.501  1.9892 -0.0027  2.8951
 4052SOL     OW23617   0.797   4.561   6.240  0.2480  0.0775 -0.2110
 4052SOL    HW123618   0.883   4.566   6.198  0.6154 -0.6754  0.4632
 4052SOL    HW223619   0.813   4.607   6.322  0.6858 -0.3065 -0.0870
 4053SOL     OW23620   3.585   4.672   4.913  0.3720 -0.2196  0.0667
 4053SOL    HW123621   3.675   4.667   4.881  0.0776 -4.2765 -0.1706
 4053SOL    HW223622   3.581   0.024   4.971  0.6371  1.7280 -2.4665
 4054SOL     OW23623   4.344   2.418   7.357  0.2827  0.1247 -0.4744
 4054SOL    HW123624   4.434   2.450   7.354  1.0551 -1.8948  0.9011
 4054SOL    HW223625   4.359   2.364   7.435  2.0328 -0.2260 -1.0567
 4055SOL     OW23626   0.780   1.331   8.314 -0.0119 -0.1874 -0.7707
 4055SOL    HW123627   0.700   1.289   8.346  2.0255 -2.5590  1.2035
 4055SOL    HW223628   0.811   1.373   8.394 -0.3255 -0.5634 -0.4525
 4056SOL     OW23629   4.066   3.047   8.369 -0.2996 -0.4268  0.1934
 4056SOL    HW123630   4.002   3.086   8.430  0.5099  0.7015  0.3161
 4056SOL    HW223631   4.025   3.077   8.288 -2.4432 -1.5181  0.8626
 4057SOL     OW23632   0.336   2.557   7.939  0.4680 -1.0202 -0.0176
 4057SOL    HW123633   0.394   2.607   7.882  1.5277 -0.1511  1.8419
 4057SOL    HW223634   0.361   2.584   8.028 -0.6708  0.4914 -0.1463
 4058SOL     OW23635   2.764   1.833  10.479  0.2613  0.1013  0.3226
 4058SOL    HW123636   2.717   1.775  10.419 -0.0396  0.3633  0.3018
 4058SOL    HW223637   2.766   1.782  10.560 -0.5078 -1.2947 -0.5434
 4059SOL     OW23638   3.586   1.187   1.927  0.1432  0.5776 -0.0841
 4059SOL    HW123639   3.509   1.193   1.982  1.1455  0.9916  1.2759
 4059SOL    HW223640   3.630   1.270   1.942  0.2605  0.6641 -0.8630
 4060SOL     OW23641   0.896   3.165   7.379 -0.4308  0.0195 -0.4561
 4060SOL    HW123642   0.914   3.206   7.295  2.0362  1.0860  0.5979
 4060SOL    HW223643   0.800   3.173   7.379 -0.1572  3.3073 -0.1011
 4061SOL     OW23644   1.450   1.842   5.916  0.2884  0.7402 -1.0603
 4061SOL    HW123645   1.534   1.870   5.954  0.0589 -0.5834  0.4293
 4061SOL    HW223646   1.476   1.762   5.870  2.3775  0.8532 -0.0985
 4062SOL     OW23647   3.375   2.200   3.708  0.0871 -0.0610  0.0810
 4062SOL    HW123648   3.350   2.155   3.789  1.6360  0.2879  0.7574
 4062SOL    HW223649   3.433   2.133   3.672 -0.2236 -0.3185  0.0573
 4063SOL     OW23650   4.055   4.550  13.051 -0.0893  0.0332 -0.1673
 4063SOL    HW123651   4.012   4.470  13.081 -3.0370  0.8017 -2.3114
 4063SOL    HW223652   4.143   4.520  13.029  0.2802  2.2738 -1.7895
 4064SOL     OW23653   4.686   4.657   7.286  0.0043 -0.1349  0.6304
 4064SOL    HW123654   4.639   0.002   7.239  0.2709  0.1786  0.8136
 4064SOL    HW223655   0.050   4.687   7.261 -0.3791  0.5100  0.0586
 4065SOL     OW23656   4.284   0.535   5.978  0.3236  0.8873 -0.0189
 4065SOL    HW123657   4.228   0.599   6.022 -0.0980  1.4536 -1.3690
 4065SOL    HW223658   4.294   0.476   6.053 -0.1956  1.4785  0.5124
 4066SOL     OW23659   1.849   1.211   6.682 -0.0587 -0.0088 -0.0344
 4066SOL    HW123660   1.903   1.151   6.734  1.8295  2.0833  0.4395
 4066SOL    HW223661   1.800   1.245   6.756  1.2318  0.4990  0.5950
 4067SOL     OW23662   3.900   0.541  10.505 -0.0517 -0.3031 -0.1914
 4067SOL    HW123663   3.991   0.566  10.517 -0.5070  1.8270 -1.1199
 4067SOL    HW223664   3.884   0.612  10.443 -1.3176  1.4359  2.0767
 4068SOL     OW23665   2.130   3.480   1.540 -0.4550 -0.0072 -0.1485
 4068SOL    HW123666   2.085   3.562   1.560  0.4735  0.4511  0.0769
 4068SOL    HW223667   2.058   3.417   1.542  0.3851 -1.0209 -1.5171
 4069SOL     OW23668   3.814   1.708  15.849  0.1390 -0.0878 -0.1152
 4069SOL    HW123669   3.904   1.678  15.844  0.7484  1.2406  2.8212
 4069SOL    HW223670   3.777   1.659  15.776 -0.7534  0.1931  0.1396
 4070SOL     OW23671   1.675   1.809   2.326 -0.4468 -0.6232  0.1926
 4070SOL    HW123672   1.709   1.896   2.308 -0.9718 -0.3056  0.7565
 4070SOL    HW223673   1.729   1.756   2.266  0.4110  1.5474 -0.9366
 4071SOL     OW23674   0.195   0.293  17.551  0.6673  0.0224  0.2117
 4071SOL    HW123675   0.250   0.371  17.540  0.5886  0.1225  0.5063
 4071SOL    HW223676   0.150   0.295  17.467  0.0507 -0.1755  0.5416
 4072SOL     OW23677   1.814   3.926   8.541  0.0963  0.1203  0.3994
 4072SOL    HW123678   1.831   3.933   8.447 -0.2293  0.2356  0.3506
 4072SOL    HW223679   1.903   3.945   8.572 -0.1033  2.4043 -0.4120
 4073SOL     OW23680   1.146   3.953  12.346  0.5285 -0.2086  0.3141
 4073SOL    HW123681   1.169   3.947  12.439 -0.6339  2.5455  0.7983
 4073SOL    HW223682   1.198   4.027  12.313  1.2312 -1.9033 -2.3134
 4074SOL     OW23683   3.153   0.428   2.051 -0.0702  0.3328  0.0994
 4074SOL    HW123684   3.060   0.438   2.031  0.5228 -0.2588 -3.0674
 4074SOL    HW223685   3.148   0.352   2.108  0.6469 -1.0543 -1.6754
 4075SOL     OW23686   3.474   4.268  13.024  0.4070 -0.3515 -0.3491
 4075SOL    HW123687   3.430   4.184  13.036  1.6013 -1.0058 -0.5432
 4075SOL    HW223688   3.553   4.233  12.982 -0.6850 -2.0059 -1.0127
 4076SOL     OW23689   2.081   3.196  14.483 -0.3194 -0.3093  0.3710
 4076SOL    HW123690   2.093   3.289  14.462  2.2919 -0.6465  0.3719
 4076SOL    HW223691   2.010   3.201  14.546  0.9909 -1.6694  1.9616
 4077SOL     OW23692   1.370   0.480   6.070  0.0893  0.0434  0.2342
 4077SOL    HW123693   1.281   0.458   6.042  0.2391  0.4687 -0.5808
 4077SOL    HW223694   1.357   0.573   6.091 -1.2551 -0.4363  1.5145
 4078SOL     OW23695   3.732   1.633   6.743  0.2154  0.6091 -0.0130
 4078SOL    HW123696   3.801   1.638   6.809  1.1572 -1.8904 -0.8244
 4078SOL    HW223697   3.665   1.685   6.787  0.8165  2.8799 -1.8100
 4079SOL     OW23698   3.468   1.173  11.859  0.2345 -0.4417 -0.1246
 4079SOL    HW123699   3.517   1.253  11.876  0.1230 -0.4242  0.1107
 4079SOL    HW223700   3.537   1.123  11.814  1.0463 -0.3891  1.0375
 4080SOL     OW23701   3.013   1.912   7.874  0.2931 -0.6398  0.0511
 4080SOL    HW123702   2.978   1.990   7.916  2.0220 -0.1680  0.6297
 4080SOL    HW223703   3.105   1.912   7.903  0.2983 -0.5737  0.0341
 4081SOL     OW23704   1.248   0.876  15.794 -0.6460  0.1460  0.0163
 4081SOL    HW123705   1.200   0.796  15.775  0.6107 -0.3007 -1.3126
 4081SOL    HW223706   1.213   0.903  15.879  1.6370 -2.6612  1.8435
 4082SOL     OW23707   2.014   2.396  13.344 -0.1707 -0.1438  0.1574
 4082SOL    HW123708   2.028   2.469  13.284  0.0472  0.0976  0.5011
 4082SOL    HW223709   1.931   2.360  13.314  0.2225 -0.0553 -1.0330
 4083SOL     OW23710   3.485   4.539  14.277  0.3621  0.1122 -0.4957
 4083SOL    HW123711   3.550   4.534  14.347 -1.0857 -1.1389  0.7693
 4083SOL    HW223712   3.540   4.545  14.199  0.3255  2.1568 -0.3559
 4084SOL     OW23713   3.051   1.102   8.559 -0.0683 -0.3103  0.3682
 4084SOL    HW123714   3.098   1.106   8.642  0.8862  1.5681 -0.2843
 4084SOL    HW223715   2.966   1.143   8.576  0.1472  0.6065 -0.7823
 4085SOL     OW23716   3.009   1.209   0.920 -0.2984  0.0369 -0.3405
 4085SOL    HW123717   3.005   1.122   0.961  1.2983  0.2305  0.2004
 4085SOL    HW223718   2.967   1.184   0.837  1.6891 -0.2383 -1.2491
 4086SOL     OW23719   1.255   2.479   2.780 -0.4042 -0.3133  0.3039
 4086SOL    HW123720   1.326   2.426   2.817 -0.0105  1.0021  1.4565
 4086SOL    HW223721   1.180   2.422   2.792  1.2943 -2.3614  1.1014
 4087SOL     OW23722   1.497   3.692   9.491 -0.1503 -0.3376 -0.3806
 4087SOL    HW123723   1.512   3.676   9.584  1.4347 -1.0276 -0.7550
 4087SOL    HW223724   1.519   3.603   9.465  0.5381  0.4659 -2.5768
 4088SOL     OW23725   4.573   2.865   9.025  0.1940  0.0378 -0.0272
 4088SOL    HW123726   4.491   2.815   9.016  0.6394 -1.1877  2.6655
 4088SOL    HW223727   4.638   2.801   8.997 -1.1118 -0.8901 -0.9292
 4089SOL     OW23728   0.722   3.601   5.585  0.1500 -0.2813  0.3891
 4089SOL    HW123729   0.693   3.571   5.499  3.5558  0.7070 -1.1098
 4089SOL    HW223730   0.817   3.590   5.592  0.2553  0.7365  0.6618
 4090SOL     OW23731   3.541   1.504   6.180 -0.0868 -0.9156 -0.6933
 4090SOL    HW123732   3.597   1.498   6.257  1.3288  0.9871 -1.5848
 4090SOL    HW223733   3.545   1.412   6.153 -0.8911 -1.0436 -0.4020
 4091SOL     OW23734   3.537   0.415   5.278  0.3548 -0.3616 -0.0286
 4091SOL    HW123735   3.585   0.406   5.360 -0.9670  1.1655  0.8913
 4091SOL    HW223736   3.602   0.395   5.210 -0.2668 -0.8333 -0.4898
 4092SOL     OW23737   1.292   2.262  16.013  0.2162  0.0091 -0.2773
 4092SOL    HW123738   1.330   2.334  15.963  1.6944 -0.5666  0.0186
 4092SOL    HW223739   1.338   2.184  15.982  2.7150  1.6492 -0.6543
 4093SOL     OW23740   0.224   0.059   9.243  0.3421 -0.0470  0.0473
 4093SOL    HW123741   0.269   0.012   9.313  1.3217  0.3618 -0.3014
 4093SOL    HW223742   0.194   4.716   9.181 -1.5961 -0.8588  1.8920
 4094SOL     OW23743   1.304   3.674   4.254  0.1278 -0.5912 -0.6547
 4094SOL    HW123744   1.279   3.765   4.272  1.7872 -0.1231 -0.7014
 4094SOL    HW223745   1.347   3.649   4.336  0.3023  0.7272 -0.3451
 4095SOL     OW23746   2.628   1.409   6.642  0.3378  0.0711 -0.1768
 4095SOL    HW123747   2.682   1.478   6.605 -0.0459 -0.0584 -0.9826
 4095SOL    HW223748   2.559   1.460   6.683 -1.2536 -1.5457 -0.8509
 4096SOL     OW23749   1.661   3.977   7.797 -0.3660  0.0257  0.3324
 4096SOL    HW123750   1.579   3.937   7.827  0.2454 -2.1478 -0.8987
 4096SOL    HW223751   1.628   4.059   7.761  3.1257  1.5402  0.6285
 4097SOL     OW23752   3.064   3.598   5.359  0.1986  0.3593 -0.4008
 4097SOL    HW123753   3.015   3.516   5.358  1.8655 -0.6476 -0.1837
 4097SOL    HW223754   3.100   3.604   5.271  1.0622 -0.4274 -0.1088
 4098SOL     OW23755   3.303   0.052  16.476  0.6205  0.6359  0.5215
 4098SOL    HW123756   3.253   0.036  16.396  0.1328  0.1110  0.9245
 4098SOL    HW223757   3.263   0.133  16.507 -0.4027  0.8099 -1.2201
 4099SOL     OW23758   0.761   0.300   8.789  0.1375  0.1217 -0.1285
 4099SOL    HW123759   0.743   0.224   8.734 -0.1889  0.5185 -0.5660
 4099SOL    HW223760   0.828   0.273   8.852  0.4927 -2.9943 -1.8841
 4100SOL     OW23761   2.388   0.417  13.166  0.3885  0.5931  0.7481
 4100SOL    HW123762   2.367   0.510  13.156  1.4766  0.4353 -3.0661
 4100SOL    HW223763   2.408   0.389  13.077 -2.5831 -1.5946  0.7591
 4101SOL     OW23764   4.073   3.333   6.360  0.2479  0.4304  0.3426
 4101SOL    HW123765   4.014   3.343   6.286  1.0691 -0.5469 -0.4265
 4101SOL    HW223766   4.119   3.252   6.341  0.1253 -0.0739  2.1899
 4102SOL     OW23767   2.240   4.691   4.118 -0.1157  0.0173  0.0791
 4102SOL    HW123768   2.184   4.673   4.194 -1.4857 -1.4962 -1.2934
 4102SOL    HW223769   2.210   0.057   4.108  2.0614  0.9258  1.8284
 4103SOL     OW23770   1.978   2.413   7.970 -0.5832 -0.6427 -0.2332
 4103SOL    HW123771   2.005   2.444   7.884 -0.6879  0.9644  0.3099
 4103SOL    HW223772   1.917   2.343   7.948 -0.1892 -1.0684  0.0031
 4104SOL     OW23773   3.010   4.134  16.712 -0.4986  0.4079 -0.0926
 4104SOL    HW123774   2.992   4.104  16.801  1.7436 -1.1597 -0.1513
 4104SOL    HW223775   2.927   4.121  16.667  0.0375  0.1214 -1.0067
 4105SOL     OW23776   4.560   3.488   3.551  0.4204 -0.1616  0.1795
 4105SOL    HW123777   4.494   3.447   3.606  0.5013 -3.7458 -2.4094
 4105SOL    HW223778   4.524   3.482   3.463  1.3705  0.3772 -0.2453
 4106SOL     OW23779   0.199   3.083   3.407  0.2005  0.4159 -0.1666
 4106SOL    HW123780   0.104   3.080   3.395  0.1780  1.5611 -0.2898
 4106SOL    HW223781   0.227   3.126   3.326 -1.1793 -0.7582 -1.2734
 4107SOL     OW23782   0.322   2.578   8.731  0.0386 -0.2288  0.3958
 4107SOL    HW123783   0.266   2.563   8.808 -0.8043  0.7482 -0.0217
 4107SOL    HW223784   0.349   2.670   8.733 -2.1670  0.4235  1.0044
 4108SOL     OW23785   2.718   3.041  11.493  0.5082 -0.0464  0.1032
 4108SOL    HW123786   2.711   3.019  11.400 -0.1537 -0.9150  0.3580
 4108SOL    HW223787   2.813   3.027  11.495  0.6685  0.8624 -1.2697
 4109SOL     OW23788   3.406   0.463  10.396  0.1870 -0.4745 -0.4695
 4109SOL    HW123789   3.483   0.504  10.356 -0.7468  1.4697 -0.3107
 4109SOL    HW223790   3.347   0.539  10.398 -0.2690 -0.7968 -1.8299
 4110SOL     OW23791   2.272   2.029   0.917  0.4268 -0.3136  0.1421
 4110SOL    HW123792   2.281   2.103   0.977  1.0618  0.2616 -0.6568
 4110SOL    HW223793   2.316   1.955   0.960  0.8396  0.8161  1.6880
 4111SOL     OW23794   3.310   1.602   4.241 -0.2497 -0.1094  0.5632
 4111SOL    HW123795   3.226   1.640   4.214  0.1146  1.7027  1.9599
 4111SOL    HW223796   3.288   1.514   4.270 -1.9630  0.4381  0.8879
 4112SOL     OW23797   0.260   1.826   2.880  0.6578  0.4943  0.0705
 4112SOL    HW123798   0.189   1.770   2.848  1.2477  0.9304 -2.0392
 4112SOL    HW223799   0.250   1.906   2.829 -1.9277 -1.1114 -1.9707
 4113SOL     OW23800   1.094   4.560   8.757  0.3991  0.0504  0.2526
 4113SOL    HW123801   1.131   4.572   8.670  0.3497 -0.0116  0.2229
 4113SOL    HW223802   1.007   4.538   8.724 -0.1723  1.2520  0.9502
 4114SOL     OW23803   1.224   0.383  14.851  0.1028 -0.2179 -0.6732
 4114SOL    HW123804   1.144   0.343  14.817  0.1345 -0.5743 -0.3352
 4114SOL    HW223805   1.289   0.371  14.783 -1.4663 -2.0078 -1.8648
 4115SOL     OW23806   3.541   0.336   4.410  1.0490  0.2500  0.0694
 4115SOL    HW123807   3.543   0.346   4.315 -1.3176 -1.9939 -0.2270
 4115SOL    HW223808   3.559   0.427   4.431 -0.0529  0.2922  0.8240
 4116SOL     OW23809   3.179   1.513   8.925 -0.3110  0.0192 -0.2075
 4116SOL    HW123810   3.097   1.503   8.876  0.4684  1.4975 -1.7982
 4116SOL    HW223811   3.238   1.542   8.856 -1.3115  0.5991 -0.8091
 4117SOL     OW23812   2.139   1.819  17.531 -0.4863 -0.0431  0.0728
 4117SOL    HW123813   2.205   1.775  17.584  1.7622  0.0257 -2.6739
 4117SOL    HW223814   2.197   1.853  17.463  0.3912  0.7832  1.2496
 4118SOL     OW23815   0.987   4.188   6.239 -0.3430  0.0364 -0.6312
 4118SOL    HW123816   1.023   4.271   6.269  0.8312 -1.0551  0.9651
 4118SOL    HW223817   0.938   4.153   6.313  0.1096  0.4767 -0.1210
 4119SOL     OW23818   1.586   4.194   3.377 -0.1493 -1.1021 -0.6215
 4119SOL    HW123819   1.533   4.203   3.456  1.7850 -1.7886  0.7524
 4119SOL    HW223820   1.641   4.270   3.392  1.3268 -2.2441 -0.3100
 4120SOL     OW23821   1.098   3.941   5.801  0.2156  0.1901  0.1645
 4120SOL    HW123822   1.029   3.997   5.767 -1.1170 -0.6489  1.4420
 4120SOL    HW223823   1.089   3.867   5.741  0.6531  0.5010 -0.2772
 4121SOL     OW23824   3.963   1.026   2.407 -0.0575 -0.2324  0.3064
 4121SOL    HW123825   3.906   0.960   2.446 -0.4630 -1.2643 -2.0307
 4121SOL    HW223826   4.001   1.077   2.478  0.0154  3.3945 -2.3149
 4122SOL     OW23827   2.788   4.509  10.762 -0.2958  0.3512 -0.2754
 4122SOL    HW123828   2.803   4.503  10.856 -0.6160  3.4571 -0.0347
 4122SOL    HW223829   2.811   4.421  10.730 -1.2845 -0.6003  1.6714
 4123SOL     OW23830   2.349   1.579   4.936  0.1282 -0.1493  0.5392
 4123SOL    HW123831   2.339   1.669   4.965 -2.2309 -0.1860 -0.1412
 4123SOL    HW223832   2.413   1.573   4.865  2.1621 -0.6796  2.4190
 4124SOL     OW23833   2.430   1.165   8.569  0.2360 -0.3125  0.0264
 4124SOL    HW123834   2.341   1.187   8.596  0.4018 -0.7482  0.9500
 4124SOL    HW223835   2.472   1.147   8.654  0.3977 -0.2357 -0.0366
 4125SOL     OW23836   0.304   2.051   8.686  0.3255  0.3932 -0.1447
 4125SOL    HW123837   0.326   1.959   8.700  0.5842  0.6263  1.0024
 4125SOL    HW223838   0.237   2.063   8.753 -2.0478 -0.7334 -2.3154
 4126SOL     OW23839   0.122   0.441  14.509 -0.2066  0.1476  0.5855
 4126SOL    HW123840   0.065   0.482  14.443  0.9757 -0.1121 -0.5945
 4126SOL    HW223841   0.206   0.437  14.464 -1.1976 -0.9050 -1.1898
 4127SOL     OW23842   3.962   3.479   2.705 -0.0181 -0.1984  0.2794
 4127SOL    HW123843   4.052   3.459   2.678 -0.2535 -2.1033  0.8970
 4127SOL    HW223844   3.913   3.399   2.687 -0.5092 -0.0998  1.1454
 4128SOL     OW23845   2.957   2.807   8.490  0.4020 -0.4745 -0.3646
 4128SOL    HW123846   2.944   2.783   8.398  1.0069  1.6530 -1.0157
 4128SOL    HW223847   2.913   2.735   8.536  1.6212 -1.5394 -0.8760
 4129SOL     OW23848   3.732   1.770   2.880 -0.1846  0.0613  0.1473
 4129SOL    HW123849   3.763   1.815   2.959 -1.5478 -0.6576  1.0959
 4129SOL    HW223850   3.644   1.809   2.876 -0.4851 -0.5181  1.0878
 4130SOL     OW23851   1.273   3.474   6.456  0.1963  0.1394  0.1249
 4130SOL    HW123852   1.243   3.455   6.545 -0.2247  0.3056  0.0186
 4130SOL    HW223853   1.244   3.566   6.450  1.0047  0.3514 -0.5306
 4131SOL     OW23854   3.019   2.586   7.763 -0.3030  0.3853 -0.4178
 4131SOL    HW123855   2.959   2.659   7.746 -1.0387 -0.1120  0.0169
 4131SOL    HW223856   3.043   2.565   7.673 -0.0226 -0.1399 -0.2208
 4132SOL     OW23857   0.638   3.907   4.240  0.1755  1.0403  0.3798
 4132SOL    HW123858   0.568   3.842   4.241  0.4031  0.8021  1.5001
 4132SOL    HW223859   0.709   3.862   4.194  0.6958  0.6198  1.5850
 4133SOL     OW23860   2.981   2.072   9.549 -0.2533  0.0088  0.0784
 4133SOL    HW123861   3.058   2.085   9.604 -0.4778  1.1741  0.1240
 4133SOL    HW223862   2.932   1.999   9.587 -0.0967 -0.1742 -0.0695
 4134SOL     OW23863   2.327   0.453  10.750 -0.3826  0.4617  0.6062
 4134SOL    HW123864   2.258   0.442  10.683  0.0507 -0.8307  0.3732
 4134SOL    HW223865   2.404   0.412  10.710  0.4965  0.8362  1.9555
 4135SOL     OW23866   2.950   3.985   5.372 -0.3207  0.1276 -0.4673
 4135SOL    HW123867   3.024   4.045   5.377  0.8227 -1.4936  1.7258
 4135SOL    HW223868   2.950   3.965   5.278 -0.0729 -0.3984 -0.3556
 4136SOL     OW23869   0.141   3.910   2.961  0.1713  0.3398  0.6105
 4136SOL    HW123870   0.175   3.831   2.920 -4.5405 -1.3223 -0.1289
 4136SOL    HW223871   0.135   3.973   2.888  1.5673 -0.2860 -0.0300
 4137SOL     OW23872   4.131   0.527  13.797 -0.5937  0.5769  0.1496
 4137SOL    HW123873   4.111   0.518  13.704 -1.1738 -1.8021  0.4976
 4137SOL    HW223874   4.145   0.434  13.813  0.3458  0.4730 -1.2534
 4138SOL     OW23875   2.980   2.673   0.728  0.8492 -0.2021 -0.4496
 4138SOL    HW123876   2.997   2.679   0.634  1.2755 -2.1931 -0.5096
 4138SOL    HW223877   2.965   2.764   0.754  0.7107 -0.2775 -0.2630
 4139SOL     OW23878   1.826   2.535   8.373 -0.8889 -0.1610 -0.2647
 4139SOL    HW123879   1.781   2.612   8.340  0.4416  1.1717  1.0221
 4139SOL    HW223880   1.907   2.544   8.323 -0.8572  1.2117  0.0556
 4140SOL     OW23881   4.142   4.103  16.600  0.1061 -0.3121 -0.3617
 4140SOL    HW123882   4.160   4.010  16.582  0.6717 -0.6611  1.9432
 4140SOL    HW223883   4.133   4.133  16.510  0.2759 -2.2136 -1.0113
 4141SOL     OW23884   4.182   0.934  15.953 -0.1868  0.6124  0.6759
 4141SOL    HW123885   4.256   0.958  16.009  1.1637 -2.5344  0.2458
 4141SOL    HW223886   4.198   0.973  15.867 -1.1437 -1.8876 -0.6341
 4142SOL     OW23887   0.865   1.484  12.776  0.3709  0.1289  0.6264
 4142SOL    HW123888   0.899   1.474  12.865 -0.4492  1.6088  1.1169
 4142SOL    HW223889   0.890   1.573  12.751  1.0146 -0.4436 -0.7645
 4143SOL     OW23890   2.892   0.355  11.511  0.3120 -0.0525 -0.1076
 4143SOL    HW123891   2.933   0.429  11.557 -0.4392 -0.0242  0.5275
 4143SOL    HW223892   2.798   0.374  11.518  0.4699  0.2937  1.1282
 4144SOL     OW23893   0.843   1.829   7.927  0.0770 -0.0030  0.2191
 4144SOL    HW123894   0.766   1.789   7.967  1.0904 -2.5110 -0.3379
 4144SOL    HW223895   0.839   1.768   7.853 -1.3479  0.1434  0.1795
 4145SOL     OW23896   1.080   3.475  12.163 -0.1754 -0.5864 -0.3206
 4145SOL    HW123897   1.137   3.538  12.120  0.4538 -0.0314  1.3211
 4145SOL    HW223898   1.016   3.456  12.094 -0.4827  0.4893 -0.3322
 4146SOL     OW23899   1.839   4.181  12.890  0.1190  0.7745  0.1158
 4146SOL    HW123900   1.852   4.230  12.809 -1.3057  0.5886 -0.2104
 4146SOL    HW223901   1.914   4.121  12.890 -0.6824 -0.2401  0.1275
 4147SOL     OW23902   4.015   1.001   5.377 -0.5676 -0.3039 -0.1662
 4147SOL    HW123903   3.958   1.030   5.447 -0.9498  0.7727 -0.9207
 4147SOL    HW223904   4.102   1.032   5.402 -0.9167  1.3124 -0.9452
 4148SOL     OW23905   0.512   1.706  10.295  0.2296 -0.4607  0.8474
 4148SOL    HW123906   0.502   1.799  10.313  0.6758 -0.0463 -1.0913
 4148SOL    HW223907   0.447   1.673  10.358 -0.2645 -0.6374  0.2485
 4149SOL     OW23908   2.816   2.635   4.168 -0.6148 -0.8053 -0.0468
 4149SOL    HW123909   2.770   2.670   4.092  1.4614  0.1454 -0.8568
 4149SOL    HW223910   2.819   2.539   4.158 -0.6712 -0.9385  1.1244
 4150SOL     OW23911   3.169   2.771   5.193  0.4272 -0.5508 -0.2281
 4150SOL    HW123912   3.107   2.784   5.264 -1.7725 -0.8626 -2.0876
 4150SOL    HW223913   3.112   2.733   5.126 -1.6051 -0.8830  1.7042
 4151SOL     OW23914   2.419   1.150   7.598 -0.1460  0.3378  0.2908
 4151SOL    HW123915   2.480   1.088   7.560  0.5238  0.5736  0.9974
 4151SOL    HW223916   2.355   1.171   7.529 -1.3424 -2.9521  0.4110
 4152SOL     OW23917   2.790   1.774   0.472 -0.0681  0.1937 -0.4261
 4152SOL    HW123918   2.753   1.687   0.487 -0.0859  0.7035  2.3967
 4152SOL    HW223919   2.827   1.794   0.558  0.7899  0.9618 -0.9748
 4153SOL     OW23920   0.257   4.423   2.008 -0.0448  0.2450 -0.0175
 4153SOL    HW123921   0.344   4.463   2.020 -0.6493  1.5291  0.0616
 4153SOL    HW223922   0.196   4.485   2.047 -1.2393 -1.0108  0.0964
 4154SOL     OW23923   3.376   2.561   3.001  0.3050  0.3413  0.1017
 4154SOL    HW123924   3.352   2.497   2.934 -1.4539  0.7951  0.2840
 4154SOL    HW223925   3.342   2.520   3.080  1.2381 -0.1132  0.2564
 4155SOL     OW23926   2.461   1.926   9.292  0.4391 -0.2399 -0.3743
 4155SOL    HW123927   2.431   1.851   9.344 -1.4418 -0.0226 -1.1244
 4155SOL    HW223928   2.393   1.990   9.315  0.9785 -0.3302  1.4989
 4156SOL     OW23929   0.130   1.351   4.577  0.2675  0.1471 -0.8995
 4156SOL    HW123930   0.171   1.284   4.521 -0.7909 -0.6742 -0.6900
 4156SOL    HW223931   0.196   1.351   4.646  1.3008  1.6077 -1.8955
 4157SOL     OW23932   2.408   2.607   5.769 -0.0985  0.5001 -1.1707
 4157SOL    HW123933   2.349   2.678   5.795 -1.7745 -2.0070  1.9384
 4157SOL    HW223934   2.349   2.532   5.756 -0.0400  0.8114 -3.1574
 4158SOL     OW23935   0.162   0.673   7.593  0.3210 -0.2188  0.2613
 4158SOL    HW123936   0.097   0.733   7.629  0.5100 -0.1983  0.5726
 4158SOL    HW223937   0.222   0.660   7.666 -0.5080  0.9467  1.1563
 4159SOL     OW23938   2.157   3.805   4.625  0.1884 -0.2320  0.0677
 4159SOL    HW123939   2.241   3.828   4.664  0.5424 -0.3198 -0.6353
 4159SOL    HW223940   2.162   3.853   4.542  1.2301  2.4030  1.6492
 4160SOL     OW23941   4.053   3.381  11.157 -0.2615  0.4724 -0.7560
 4160SOL    HW123942   4.079   3.414  11.243 -0.1533  0.9419 -0.9660
 4160SOL    HW223943   3.965   3.354  11.183 -0.1171  3.0087  2.3203
 4161SOL     OW23944   1.773   3.930   6.209 -0.6819  0.3315  0.0943
 4161SOL    HW123945   1.821   4.012   6.199 -1.1847  0.8670  1.9573
 4161SOL    HW223946   1.691   3.962   6.170 -2.0033 -1.9999  0.9725
 4162SOL     OW23947   2.447   3.347  12.721 -0.0976 -0.7791 -1.2951
 4162SOL    HW123948   2.395   3.395  12.657  0.1318  0.2535 -0.7200
 4162SOL    HW223949   2.536   3.378  12.701 -0.5793  1.7088  0.4828
 4163SOL     OW23950   3.798   3.294  17.039  0.6320  0.0109 -0.5942
 4163SOL    HW123951   3.831   3.252  16.960  0.9167 -0.2184 -0.3521
 4163SOL    HW223952   3.750   3.366  16.999 -0.4789 -1.1264 -1.2993
 4164SOL     OW23953   2.258   2.608   2.725  0.2498  0.4108 -0.0523
 4164SOL    HW123954   2.183   2.666   2.715  1.3365  1.4325 -2.3764
 4164SOL    HW223955   2.337   2.658   2.705  0.3754  0.0374 -0.5065
 4165SOL     OW23956   1.758   2.498  10.481 -1.0157 -0.1007 -0.0083
 4165SOL    HW123957   1.811   2.535  10.553 -2.0556 -4.0406  2.7413
 4165SOL    HW223958   1.810   2.430  10.439  2.1590  2.0025  0.4708
 4166SOL     OW23959   3.168   4.146   7.748  0.2996  0.0599 -0.0708
 4166SOL    HW123960   3.231   4.166   7.818  1.9333 -0.2465 -1.4476
 4166SOL    HW223961   3.168   4.051   7.764  3.2793 -0.2556 -1.9024
 4167SOL     OW23962   0.846   3.999   7.808 -0.1088 -0.1035 -0.5421
 4167SOL    HW123963   0.762   3.969   7.775 -0.5231  1.7354 -1.1336
 4167SOL    HW223964   0.865   3.928   7.871  3.7738  0.5368 -0.9999
 4168SOL     OW23965   4.634   4.290   2.437 -0.2691 -0.1333 -0.3306
 4168SOL    HW123966   0.003   4.272   2.455 -0.1864 -0.2688 -0.8744
 4168SOL    HW223967   4.644   4.357   2.369 -0.6868 -1.1822 -1.4216
 4169SOL     OW23968   4.501   0.237   6.658  0.2779 -0.2794 -0.7378
 4169SOL    HW123969   4.480   0.186   6.579  0.3815 -2.9760  0.9785
 4169SOL    HW223970   4.506   0.323   6.617  2.1998 -0.0788 -0.0874
 4170SOL     OW23971   0.875   3.699  16.271 -0.0559  0.5099  0.3708
 4170SOL    HW123972   0.970   3.691  16.266 -0.3089 -2.7039  0.5178
 4170SOL    HW223973   0.846   3.719  16.182  0.0105  1.8885  0.6534
 4171SOL     OW23974   1.398   0.496   9.513 -0.6042  0.0551 -0.2249
 4171SOL    HW123975   1.439   0.576   9.545 -2.4809  2.0544 -2.8481
 4171SOL    HW223976   1.463   0.438   9.553 -1.7441 -0.1258  1.3480
 4172SOL     OW23977   0.724   2.973  15.655 -0.1871  0.3160 -0.6072
 4172SOL    HW123978   0.800   2.943  15.704 -1.6714  0.2012  1.6060
 4172SOL    HW223979   0.687   2.892  15.621 -0.4871  0.9502 -1.7915
 4173SOL     OW23980   4.249   4.489   6.506 -0.3027 -0.1740 -0.2680
 4173SOL    HW123981   4.223   4.431   6.577 -0.7149  0.6871  0.2966
 4173SOL    HW223982   4.341   4.490   6.531 -0.5658  1.4237  0.6482
 4174SOL     OW23983   3.837   1.029  12.375 -0.9043 -0.4130 -0.3609
 4174SOL    HW123984   3.916   1.011  12.426 -0.7168 -0.6533 -0.7380
 4174SOL    HW223985   3.862   1.012  12.284 -0.8170 -0.7022 -0.2808
 4175SOL     OW23986   0.944   0.462  13.048  0.1397 -0.3985  0.2084
 4175SOL    HW123987   0.932   0.367  13.043  0.6283 -0.6077  2.8159
 4175SOL    HW223988   0.929   0.463  13.143  1.1770  3.4569  0.3451
 4176SOL     OW23989   3.262   4.566   3.634  0.2462  0.2075 -0.1316
 4176SOL    HW123990   3.226   4.623   3.701 -0.3848 -1.8776  1.2932
 4176SOL    HW223991   3.334   4.523   3.680 -0.2158  1.0245  1.3382
 4177SOL     OW23992   4.057   3.537  10.935 -0.6477 -0.0378 -0.3209
 4177SOL    HW123993   4.099   3.497  11.012 -0.3385  0.1297 -0.4006
 4177SOL    HW223994   4.021   3.612  10.982 -0.3805  1.1701 -2.0294
 4178SOL     OW23995   2.990   3.060  13.572  0.2822 -0.5351 -0.4458
 4178SOL    HW123996   3.009   3.134  13.630 -0.7440  0.0423 -0.8454
 4178SOL    HW223997   2.896   3.060  13.552  0.4766  2.0609 -1.3391
 4179SOL     OW23998   3.670   0.505   8.929  0.0474  0.1621  0.0882
 4179SOL    HW123999   3.716   0.487   9.011  1.0334  0.9172 -0.2882
 4179SOL    HW224000   3.655   0.598   8.944 -0.6409  0.0253  0.2196
 4180SOL     OW24001   3.302   1.384   5.967  0.0342  0.0909  0.3227
 4180SOL    HW124002   3.266   1.455   6.020  1.7729 -0.9427  2.8755
 4180SOL    HW224003   3.235   1.320   5.990  0.7774  0.3528  3.1512
 4181SOL     OW24004   1.788   1.652   7.661 -0.1370  0.2938 -0.2294
 4181SOL    HW124005   1.855   1.661   7.729 -0.6376 -2.6642  0.6881
 4181SOL    HW224006   1.842   1.632   7.585 -0.9841 -0.9257 -0.5056
 4182SOL     OW24007   2.783   3.499   7.567 -0.4044 -0.1387  0.1372
 4182SOL    HW124008   2.836   3.575   7.544 -0.4881 -0.2142 -0.3099
 4182SOL    HW224009   2.749   3.469   7.482 -0.4777  1.7027 -0.4971
 4183SOL     OW24010   3.208   4.266   4.229  0.1459 -0.1438 -0.1911
 4183SOL    HW124011   3.194   4.354   4.194 -1.8191 -0.4437 -0.1881
 4183SOL    HW224012   3.288   4.249   4.277 -0.4624  1.5391  1.4055
 4184SOL     OW24013   2.417   2.777   4.474 -0.1238  0.1870 -0.2193
 4184SOL    HW124014   2.507   2.747   4.466 -0.3513 -0.9233  1.3726
 4184SOL    HW224015   2.383   2.774   4.384 -0.2637 -0.9537 -0.1266
 4185SOL     OW24016   4.331   1.746   7.065 -0.1948 -0.4043 -0.0388
 4185SOL    HW124017   4.266   1.717   7.000 -1.5850  0.1281  1.1029
 4185SOL    HW224018   4.330   1.841   7.058 -0.5281 -0.4890 -1.1749
 4186SOL     OW24019   2.694   1.719   5.359  0.0862 -0.1674 -0.2955
 4186SOL    HW124020   2.753   1.782   5.319 -0.2735  0.7842  0.6876
 4186SOL    HW224021   2.725   1.736   5.447 -0.4611  1.2042 -0.3664
 4187SOL     OW24022   3.298   0.999   6.809 -0.5423  0.4985 -0.5094
 4187SOL    HW124023   3.265   0.910   6.821  0.6291 -0.0074 -1.0786
 4187SOL    HW224024   3.221   1.057   6.810 -1.9254 -1.3693  0.9361
 4188SOL     OW24025   3.838   1.455   5.045 -0.1500 -0.3254  0.2580
 4188SOL    HW124026   3.911   1.414   5.091  1.1199  2.3932  0.6613
 4188SOL    HW224027   3.814   1.518   5.113 -0.7368  0.7799 -0.9748
 4189SOL     OW24028   0.819   3.629   2.341 -0.1635 -0.3035 -0.6058
 4189SOL    HW124029   0.831   3.553   2.285  0.7175 -0.8227  0.3011
 4189SOL    HW224030   0.742   3.674   2.305  0.7291  2.3126  0.7256
 4190SOL     OW24031   1.624   2.687   9.745  0.1320 -0.1104 -0.5014
 4190SOL    HW124032   1.532   2.673   9.767 -0.0379  2.1008  0.1840
 4190SOL    HW224033   1.629   2.658   9.654  0.2633  0.9277 -0.8168
 4191SOL     OW24034   4.191   3.188  13.198  0.1158 -0.4083 -0.1016
 4191SOL    HW124035   4.266   3.241  13.174 -0.7019  1.0439  0.5148
 4191SOL    HW224036   4.161   3.255  13.260 -2.6292  1.1768 -3.1427
 4192SOL     OW24037   4.282   0.594   6.536 -0.4678 -0.3428 -0.3107
 4192SOL    HW124038   4.208   0.534   6.547 -0.8989  0.1516 -0.4525
 4192SOL    HW224039   4.335   0.540   6.478  0.8293 -0.6578  1.1691
 4193SOL     OW24040   1.178   0.894  12.972 -0.0661  0.2307 -0.7750
 4193SOL    HW124041   1.273   0.895  12.963  0.0172 -0.2008  0.1117
 4193SOL    HW224042   1.149   0.926  12.886 -0.6319  1.0015 -0.3029
 4194SOL     OW24043   3.534   2.923  17.338  0.2409  0.6769 -0.6363
 4194SOL    HW124044   3.511   2.830  17.339 -0.7197  0.9270  0.0235
 4194SOL    HW224045   3.579   2.923  17.422 -0.9025  1.5301 -0.0377
 4195SOL     OW24046   0.168   2.097   4.551  0.0059  0.7346 -0.1195
 4195SOL    HW124047   0.165   2.020   4.495 -0.6954  2.3680 -2.3618
 4195SOL    HW224048   0.086   2.076   4.596 -0.0824 -1.3184 -1.2830
 4196SOL     OW24049   0.930   0.682   6.989  0.4360 -0.0546  0.3351
 4196SOL    HW124050   0.917   0.766   7.032 -0.2843  0.3225 -0.6470
 4196SOL    HW224051   1.025   0.671   6.994  0.4014 -0.7634 -0.5894
 4197SOL     OW24052   3.891   1.464   2.270  0.3640  0.1946 -0.0238
 4197SOL    HW124053   3.982   1.465   2.300  0.6617 -1.2681 -0.9089
 4197SOL    HW224054   3.851   1.519   2.338  1.1599  1.1818 -0.3548
 4198SOL     OW24055   3.523   0.319   3.841 -0.5341  0.1377  0.6050
 4198SOL    HW124056   3.616   0.337   3.854 -1.0413  2.8993  0.3473
 4198SOL    HW224057   3.521   0.223   3.844  1.7102  0.0443 -0.5504
 4199SOL     OW24058   1.318   4.283   6.761  0.4064  0.0490  0.1653
 4199SOL    HW124059   1.367   4.352   6.806 -0.9733  1.4128 -0.3888
 4199SOL    HW224060   1.259   4.253   6.831  0.1248  1.2320  0.4396
 4200SOL     OW24061   4.076   4.084   5.444  0.4966 -0.1984 -0.1463
 4200SOL    HW124062   4.097   4.084   5.350 -0.7816 -1.7984 -0.4198
 4200SOL    HW224063   4.000   4.026   5.446 -0.5154  1.0705 -2.1168
 4201SOL     OW24064   1.183   1.200   9.213  0.6959 -0.4845 -0.0845
 4201SOL    HW124065   1.101   1.242   9.186  1.5573  1.3090  0.0733
 4201SOL    HW224066   1.156   1.162   9.297 -1.2235  1.5737  0.2337
 4202SOL     OW24067   2.275   0.465   8.181  0.2957  0.2563 -0.0826
 4202SOL    HW124068   2.314   0.383   8.210 -1.3195 -0.5384 -0.1618
 4202SOL    HW224069   2.332   0.536   8.213 -0.0532 -0.0713  1.2602
 4203SOL     OW24070   3.782   0.271   2.733 -0.5871 -0.1399  0.1212
 4203SOL    HW124071   3.785   0.341   2.798  1.3467 -0.2001  0.1077
 4203SOL    HW224072   3.869   0.232   2.735 -0.3246  0.2971 -2.6268
 4204SOL     OW24073   1.375   3.398   5.351  0.3340 -0.1371  0.4655
 4204SOL    HW124074   1.428   3.396   5.431  1.6407  1.3624 -0.3558
 4204SOL    HW224075   1.309   3.460   5.378  0.0692  0.3382 -1.2382
 4205SOL     OW24076   0.650   0.442   4.573 -0.5198 -0.1791 -0.0261
 4205SOL    HW124077   0.575   0.482   4.616 -1.9138 -0.3920 -2.2584
 4205SOL    HW224078   0.616   0.408   4.490  2.4993  0.9332 -1.7649
 4206SOL     OW24079   4.180   1.062   4.630 -0.4879  0.1755  0.0969
 4206SOL    HW124080   4.122   1.135   4.611 -2.2805 -1.3124 -0.1495
 4206SOL    HW224081   4.170   1.037   4.723 -2.6855 -0.2378 -0.2496
 4207SOL     OW24082   3.699   3.127   0.062  0.1624  0.1533  0.8110
 4207SOL    HW124083   3.641   3.188   0.108 -1.9820 -2.2280  1.2421
 4207SOL    HW224084   3.632   3.061   0.046  2.3363 -2.2508  1.5314
 4208SOL     OW24085   2.693   2.417   1.542  0.8027  0.0615  0.1472
 4208SOL    HW124086   2.670   2.383   1.628  0.9746 -1.7889 -0.5264
 4208SOL    HW224087   2.613   2.388   1.498  1.3290 -1.0670 -0.0710
 4209SOL     OW24088   1.453   4.069   1.292 -0.1108  0.0568  0.1613
 4209SOL    HW124089   1.511   4.061   1.368  1.3641  1.8324 -0.7829
 4209SOL    HW224090   1.365   4.045   1.320 -0.6320  2.3082  0.4378
 4210SOL     OW24091   0.767   1.024  12.940  0.2954  0.0722  0.2304
 4210SOL    HW124092   0.737   1.113  12.925  0.0865 -0.4838 -2.6593
 4210SOL    HW224093   0.742   0.980  12.859 -1.5490  0.2473  0.7125
 4211SOL     OW24094   4.315   1.914   7.532  0.2432  0.3168  0.4574
 4211SOL    HW124095   4.257   1.871   7.470  1.9273 -1.4321  0.0826
 4211SOL    HW224096   4.293   1.868   7.613  0.2532 -0.3886  0.0565
 4212SOL     OW24097   1.666   2.379   2.428  0.6638  0.1127 -0.4425
 4212SOL    HW124098   1.574   2.372   2.402 -0.1491  2.2116  1.9119
 4212SOL    HW224099   1.661   2.388   2.523 -1.4012 -1.6761 -0.3773
 4213SOL     OW24100   2.348   0.641  13.000 -0.0922  0.3392  0.8684
 4213SOL    HW124101   2.367   0.722  13.047  1.1774  1.1685 -1.0633
 4213SOL    HW224102   2.411   0.659  12.930 -0.5532  0.5093  0.4997
 4214SOL     OW24103   3.427   2.293   6.271 -0.2289 -0.2518 -0.5305
 4214SOL    HW124104   3.363   2.322   6.336  0.3539  0.2412 -0.1726
 4214SOL    HW224105   3.388   2.314   6.186 -2.0854  0.4172  0.5079
 4215SOL     OW24106   3.921   2.154   1.608 -0.3457 -0.3684 -0.2068
 4215SOL    HW124107   3.963   2.117   1.530 -2.8047  0.9933 -2.2212
 4215SOL    HW224108   3.987   2.190   1.666 -2.1263  0.2834  1.4082
 4216SOL     OW24109   3.628   0.252   3.215 -0.8193 -0.7691 -0.7620
 4216SOL    HW124110   3.636   0.165   3.175  0.1113 -1.0592  0.0739
 4216SOL    HW224111   3.621   0.236   3.309  0.6653  0.3063 -0.4692
 4217SOL     OW24112   0.636   4.128  16.581 -0.0599 -0.3084 -0.4811
 4217SOL    HW124113   0.679   4.078  16.513  1.4082 -0.8769  0.8818
 4217SOL    HW224114   0.694   4.100  16.651 -0.9062  0.2341  0.4502
 4218SOL     OW24115   0.999   3.287   7.983  0.7443 -0.2815 -0.3958
 4218SOL    HW124116   1.036   3.373   7.963  1.0216 -0.3440 -0.1388
 4218SOL    HW224117   1.070   3.253   8.037  1.2879  1.3347 -0.0765
 4219SOL     OW24118   0.246   0.700   6.650 -0.4114  0.2568  0.3661
 4219SOL    HW124119   0.199   0.772   6.607  0.3888  0.2138 -0.5865
 4219SOL    HW224120   0.216   0.710   6.740  0.2461 -0.5796  0.6788
 4220SOL     OW24121   4.100   2.521   7.016 -0.3370 -0.6520 -0.6486
 4220SOL    HW124122   4.088   2.579   6.940  0.6413 -0.9273 -1.0053
 4220SOL    HW224123   4.169   2.564   7.065  2.5977  0.1842 -5.4712
 4221SOL     OW24124   3.120   3.558  15.508  0.0762  0.0406  0.3371
 4221SOL    HW124125   3.176   3.567  15.584  0.4057 -1.8087  0.3206
 4221SOL    HW224126   3.142   3.638  15.461  1.1490 -0.7762 -0.5744
 4222SOL     OW24127   1.631   0.207   7.399 -0.0604 -0.3729 -0.0809
 4222SOL    HW124128   1.717   0.176   7.427  0.2615 -1.0386 -1.8033
 4222SOL    HW224129   1.654   0.299   7.384 -0.5882 -0.2526 -0.1394
 4223SOL     OW24130   2.845   1.487   9.377 -0.1261 -0.1656  0.1121
 4223SOL    HW124131   2.935   1.496   9.409  0.1869 -0.2868 -0.7142
 4223SOL    HW224132   2.844   1.515   9.285 -0.9328 -0.2526  0.0936
 4224SOL     OW24133   2.192   3.880   3.610 -0.7764 -0.2008  0.3601
 4224SOL    HW124134   2.149   3.915   3.532 -0.7165  3.2452  1.9018
 4224SOL    HW224135   2.197   3.963   3.656  0.7060  1.1173 -2.2227
 4225SOL     OW24136   4.145   1.502   3.596 -0.1866  0.2297 -0.8531
 4225SOL    HW124137   4.139   1.537   3.685 -0.8376  1.8736 -1.5359
 4225SOL    HW224138   4.225   1.551   3.575 -0.3368  0.6462 -0.4327
 4226SOL     OW24139   1.359   4.272   9.065 -0.0366  0.2712  0.5514
 4226SOL    HW124140   1.295   4.288   9.134 -0.2761  0.0615  0.3786
 4226SOL    HW224141   1.393   4.359   9.043  2.2210 -1.1748 -1.7763
 4227SOL     OW24142   3.596   1.467   7.411 -0.4881 -0.0754 -0.5852
 4227SOL    HW124143   3.645   1.527   7.355 -0.1517 -0.2021 -0.4228
 4227SOL    HW224144   3.643   1.386   7.392  1.4974  1.0971 -0.5568
 4228SOL     OW24145   2.745   1.818   4.165 -0.8413 -0.5351 -0.6916
 4228SOL    HW124146   2.832   1.825   4.126 -0.1282 -1.5459  0.7448
 4228SOL    HW224147   2.767   1.754   4.233  1.6339 -0.9628 -1.8917
 4229SOL     OW24148   1.421   3.218  16.860  0.3507 -0.1668 -0.1180
 4229SOL    HW124149   1.493   3.271  16.895  0.8347  0.3707 -1.9360
 4229SOL    HW224150   1.346   3.273  16.881  0.1364 -0.1919 -0.8273
 4230SOL     OW24151   0.173   1.449   7.194 -0.1058  0.1432 -0.1447
 4230SOL    HW124152   0.191   1.389   7.267  0.2054 -1.2955 -1.3918
 4230SOL    HW224153   0.125   1.513   7.245 -0.1365  0.3809 -0.4708
 4231SOL     OW24154   4.216   2.520  16.684  0.0425  0.2447 -0.0112
 4231SOL    HW124155   4.294   2.464  16.685 -1.9708 -2.5118 -0.7362
 4231SOL    HW224156   4.259   2.588  16.631 -1.7144  1.4343  0.1050
 4232SOL     OW24157   1.728   2.583   0.532  0.4642  0.1452  0.2593
 4232SOL    HW124158   1.683   2.616   0.455 -0.2952  0.8008  0.9809
 4232SOL    HW224159   1.723   2.660   0.589  1.8006  1.1638 -1.0154
 4233SOL     OW24160   0.375   0.654  15.689  0.1464 -0.6348  0.9011
 4233SOL    HW124161   0.391   0.667  15.596 -0.4133  1.1469  1.0496
 4233SOL    HW224162   0.365   0.558  15.687  1.9619 -0.7599 -2.0943
 4234SOL     OW24163   0.491   3.350   9.267 -0.1897  0.7512  0.4036
 4234SOL    HW124164   0.542   3.406   9.326 -1.9983  2.1931  0.5869
 4234SOL    HW224165   0.543   3.364   9.188  1.8484 -2.9319  1.0881
 4235SOL     OW24166   4.665   3.674   9.977  0.2501  0.3372 -0.4284
 4235SOL    HW124167   4.655   3.640  10.066 -0.8407  2.3986  0.2154
 4235SOL    HW224168   4.668   3.595   9.923 -2.4383 -0.9025  1.2760
 4236SOL     OW24169   3.921   3.793  12.461 -0.6049 -0.1344  0.0168
 4236SOL    HW124170   3.860   3.791  12.387  0.1385 -0.2384 -0.5855
 4236SOL    HW224171   3.909   3.886  12.478  1.1362 -0.2545  1.9004
 4237SOL     OW24172   3.366   4.349   3.977  0.2079 -0.2142  0.6633
 4237SOL    HW124173   3.403   4.361   4.064 -0.7262 -0.8415  1.1441
 4237SOL    HW224174   3.272   4.359   3.985  0.1261 -1.5908  1.4248
 4238SOL     OW24175   3.780   2.544   0.805  0.2759 -0.0726  0.1241
 4238SOL    HW124176   3.721   2.510   0.737  0.0281 -0.0494  0.3263
 4238SOL    HW224177   3.807   2.456   0.831 -0.4603 -0.0756  0.8906
 4239SOL     OW24178   0.795   0.396   7.913 -0.2951  0.2771  0.0611
 4239SOL    HW124179   0.740   0.392   7.991 -0.3842 -1.0415 -0.0764
 4239SOL    HW224180   0.826   0.305   7.916 -0.0537  0.3410 -0.4971
 4240SOL     OW24181   1.720   3.017  10.542  0.1994  0.3970  0.2569
 4240SOL    HW124182   1.788   2.970  10.589  0.3359 -0.0052 -0.3419
 4240SOL    HW224183   1.701   3.081  10.610 -1.7288 -0.9719  1.0074
 4241SOL     OW24184   2.490   1.189   8.168 -0.5607 -0.0714 -0.1737
 4241SOL    HW124185   2.424   1.166   8.102  0.7822 -1.9593 -0.8565
 4241SOL    HW224186   2.507   1.100   8.199 -0.3772  0.2385  0.6255
 4242SOL     OW24187   0.624   3.762   7.209  0.2540  0.5976  0.5575
 4242SOL    HW124188   0.602   3.850   7.241 -1.0702  0.3146  0.4111
 4242SOL    HW224189   0.599   3.763   7.116 -0.8513  0.6855  0.8579
 4243SOL     OW24190   2.048   4.109   3.769 -0.6117 -0.3723 -0.1463
 4243SOL    HW124191   2.015   4.197   3.788 -0.4208  0.0762 -1.8731
 4243SOL    HW224192   1.973   4.052   3.788  0.1693 -1.4451 -0.3048
 4244SOL     OW24193   3.977   0.501  17.562 -0.8535  0.0758 -0.3735
 4244SOL    HW124194   3.896   0.462  17.594 -0.6225  0.3064  0.5167
 4244SOL    HW224195   4.047   0.435  17.560 -1.7003 -0.7105 -3.9551
 4245SOL     OW24196   0.578   1.448   5.204  0.6916 -0.0611  0.3040
 4245SOL    HW124197   0.491   1.473   5.234 -0.1651 -2.7059 -0.0250
 4245SOL    HW224198   0.626   1.471   5.283 -0.2164  1.2006  0.5017
 4246SOL     OW24199   0.805   0.469   2.613  0.7249 -0.1741 -0.4215
 4246SOL    HW124200   0.860   0.449   2.537  1.7506  0.9892  0.0029
 4246SOL    HW224201   0.736   0.404   2.618  2.0111 -1.5222 -0.1814
 4247SOL     OW24202   2.450   0.136  14.053  0.1842 -0.6319 -0.7576
 4247SOL    HW124203   2.519   0.087  14.096  1.4694  0.1075 -1.9393
 4247SOL    HW224204   2.429   0.197  14.123  1.1419 -0.7556 -0.3694
 4248SOL     OW24205   3.015   1.217   3.874 -0.1630  0.6590 -0.5993
 4248SOL    HW124206   2.925   1.248   3.880 -0.4081 -0.2776  0.8620
 4248SOL    HW224207   3.031   1.220   3.780  3.2252 -0.6433 -0.0744
 4249SOL     OW24208   4.238   2.373  12.710  0.0967  0.1346 -0.1142
 4249SOL    HW124209   4.224   2.408  12.798  0.9225 -0.1604  0.1341
 4249SOL    HW224210   4.324   2.408  12.685  0.4862 -1.5346 -1.1368
 4250SOL     OW24211   0.721   4.401  16.169 -0.1423  0.5267 -0.6501
 4250SOL    HW124212   0.799   4.448  16.199  0.6755 -1.6698  0.7206
 4250SOL    HW224213   0.653   4.457  16.206 -1.7420 -2.6649  1.2802
 4251SOL     OW24214   4.504   2.218   5.413 -0.0517  0.3826 -0.0278
 4251SOL    HW124215   4.538   2.174   5.491  2.1940  0.2604 -1.0890
 4251SOL    HW224216   4.542   2.306   5.420  0.8196  0.1746 -2.2730
 4252SOL     OW24217   2.763   1.201   4.618  0.2893  0.3558 -0.3364
 4252SOL    HW124218   2.722   1.268   4.673  0.5307 -1.0790  1.5832
 4252SOL    HW224219   2.693   1.186   4.554 -0.2735  0.9679  0.1292
 4253SOL     OW24220   1.503   0.522   2.523 -0.6085 -0.0386  0.3041
 4253SOL    HW124221   1.484   0.594   2.463 -1.1377 -0.5998 -0.2012
 4253SOL    HW224222   1.559   0.477   2.460  0.5646  0.2548  1.1520
 4254SOL     OW24223   0.252   2.897   3.612  0.1540 -0.1453  0.1151
 4254SOL    HW124224   0.163   2.892   3.647 -1.1615  0.5113 -3.1336
 4254SOL    HW224225   0.244   2.963   3.543  2.0035  1.9709  1.8977
 4255SOL     OW24226   2.667   2.644   7.141  0.1906  0.2716  0.1651
 4255SOL    HW124227   2.752   2.615   7.171  0.0573  0.3243  0.5900
 4255SOL    HW224228   2.681   2.738   7.154  0.2536  0.2034  0.5861
 4256SOL     OW24229   4.247   4.053   2.130  0.1223  0.4755 -0.3334
 4256SOL    HW124230   4.272   4.065   2.222  0.6947 -0.8695 -0.3176
 4256SOL    HW224231   4.323   4.080   2.078 -0.0113 -0.5710 -1.0680
 4257SOL     OW24232   2.225   2.328   4.495 -0.6091  0.2607  0.4085
 4257SOL    HW124233   2.202   2.421   4.493 -0.9768  0.1061 -1.8981
 4257SOL    HW224234   2.310   2.317   4.538 -0.1384  1.7872 -0.1404
 4258SOL     OW24235   4.008   0.008   0.944 -0.3380 -0.2069 -0.5834
 4258SOL    HW124236   3.999   0.003   1.039 -1.4765  1.0532 -0.6221
 4258SOL    HW224237   3.963   0.090   0.924 -0.1075 -0.5034 -2.3220
 4259SOL     OW24238   1.048   3.122   5.856  0.2842  0.1801  0.0721
 4259SOL    HW124239   0.995   3.189   5.899 -0.5232 -0.9581  0.8430
 4259SOL    HW224240   0.995   3.044   5.872 -0.7998  1.2199  1.5096
 4260SOL     OW24241   1.188   3.203  17.176  0.4840  0.0509 -0.1174
 4260SOL    HW124242   1.230   3.244  17.100 -1.0064  4.2253  1.3183
 4260SOL    HW224243   1.216   3.272  17.236  1.0531  1.4893 -2.0000
 4261SOL     OW24244   0.276   0.404   3.799  0.4856  0.2940  0.0070
 4261SOL    HW124245   0.320   0.390   3.716  2.1164  1.7748  0.6301
 4261SOL    HW224246   0.255   0.313   3.822 -0.6497  0.3893 -0.6264
 4262SOL     OW24247   2.701   3.908   7.763 -0.2749 -0.5936 -0.1901
 4262SOL    HW124248   2.728   3.970   7.694 -1.1287 -2.8348 -2.5593
 4262SOL    HW224249   2.627   3.870   7.715 -1.5550  1.2167  0.3142
 4263SOL     OW24250   1.296   4.508   8.233 -0.4442  0.7306  0.2895
 4263SOL    HW124251   1.385   4.481   8.254 -0.3881 -0.1377 -1.0466
 4263SOL    HW224252   1.246   4.433   8.266 -1.3600  1.9331  1.6463
 4264SOL     OW24253   1.232   3.611   5.089  0.3883  0.1918  0.6518
 4264SOL    HW124254   1.194   3.679   5.033  1.9998  0.3005 -0.2854
 4264SOL    HW224255   1.307   3.656   5.129  2.1093 -0.3128 -2.0645
 4265SOL     OW24256   4.197   0.069   4.556 -0.1553 -0.7126 -0.2947
 4265SOL    HW124257   4.211   0.156   4.517  2.3446 -0.7921  0.4339
 4265SOL    HW224258   4.143   0.029   4.488 -1.2653 -0.2908  0.3423
 4266SOL     OW24259   4.533   0.130  11.276 -0.1522  0.0362  0.5262
 4266SOL    HW124260   4.515   0.138  11.183 -0.3446 -0.0049  0.5605
 4266SOL    HW224261   4.446   0.107  11.307 -0.3574 -1.8938 -1.4958
 4267SOL     OW24262   1.516   3.124   7.600 -0.5299 -0.5569  0.8025
 4267SOL    HW124263   1.571   3.132   7.677  0.3493  0.8871  0.0311
 4267SOL    HW224264   1.534   3.205   7.551  1.1888 -1.2600  0.2850
 4268SOL     OW24265   2.165   4.656  16.622 -0.7094 -0.2278  0.7183
 4268SOL    HW124266   2.113   0.002  16.664  0.1063  1.4196 -1.0064
 4268SOL    HW224267   2.114   4.582  16.655  0.4706 -1.2069  0.3166
 4269SOL     OW24268   4.514   1.959   4.849  0.4118  0.2345 -0.0109
 4269SOL    HW124269   4.421   1.956   4.871  0.1686  1.7302 -0.8245
 4269SOL    HW224270   4.551   1.987   4.932 -0.0458  2.3242 -0.4994
 4270SOL     OW24271   1.818   2.988  12.729  0.7060 -0.4014  0.0912
 4270SOL    HW124272   1.729   3.016  12.749  0.2003 -0.5410 -2.0036
 4270SOL    HW224273   1.858   3.068  12.765  0.7246 -0.6716  0.6739
 4271SOL     OW24274   1.431   2.036  12.551 -0.0033 -0.2297  0.1553
 4271SOL    HW124275   1.424   2.131  12.559  0.0077 -0.3924  2.0873
 4271SOL    HW224276   1.410   2.016  12.642  2.6947  0.1290  0.8542
 4272SOL     OW24277   0.824   1.679   7.691  0.1957 -0.5149  0.2342
 4272SOL    HW124278   0.902   1.696   7.638 -0.5863  0.1657 -0.7113
 4272SOL    HW224279   0.848   1.615   7.757  0.8384  1.0972  1.5521
 4273SOL     OW24280   0.336   3.983   3.612 -0.2822 -0.0035  0.0054
 4273SOL    HW124281   0.253   3.953   3.576 -0.4330  0.5105 -0.0795
 4273SOL    HW224282   0.306   4.070   3.640 -0.4633 -0.0537 -0.0348
 4274SOL     OW24283   4.380   0.816   2.106 -0.0546 -0.0800  0.3104
 4274SOL    HW124284   4.389   0.728   2.069  1.7155  0.8405 -1.4069
 4274SOL    HW224285   4.319   0.853   2.042 -0.6416  0.0400  0.9383
 4275SOL     OW24286   2.078   0.447   2.629  0.2032 -0.0489 -0.0795
 4275SOL    HW124287   2.078   0.361   2.589  0.2661 -0.1273  0.0868
 4275SOL    HW224288   2.075   0.431   2.724 -1.5065  0.6092 -0.0284
 4276SOL     OW24289   2.021   1.091   9.482  0.0486 -0.4171  0.1734
 4276SOL    HW124290   1.990   1.074   9.571 -2.1984 -1.5742 -0.8159
 4276SOL    HW224291   2.107   1.131   9.493 -0.5034  1.1175 -1.0724
 4277SOL     OW24292   4.658   3.727  11.275 -0.1432  0.4806  0.4210
 4277SOL    HW124293   0.018   3.725  11.320 -0.0317 -2.0219  0.0923
 4277SOL    HW224294   4.697   3.699  11.192  0.8260  0.3631  0.9250
 4278SOL     OW24295   1.810   4.001   5.682 -0.3737 -0.9253  0.4800
 4278SOL    HW124296   1.804   4.096   5.668  1.3744 -0.9761 -0.5674
 4278SOL    HW224297   1.868   4.001   5.758 -1.3179 -1.0178  1.1994
 4279SOL     OW24298   0.317   2.585   4.236  0.3813 -0.3854  0.4945
 4279SOL    HW124299   0.307   2.527   4.312 -1.7989  0.6491  0.9703
 4279SOL    HW224300   0.401   2.552   4.203  0.5732 -0.5488  1.1428
 4280SOL     OW24301   4.608   0.493   6.607 -0.4400  0.4384  0.2011
 4280SOL    HW124302   4.589   0.571   6.554  2.7933  1.4881  0.5951
 4280SOL    HW224303   4.585   0.521   6.696 -1.1373 -1.0884  0.5024
 4281SOL     OW24304   2.192   4.309   8.521 -0.1124 -1.1257  0.4085
 4281SOL    HW124305   2.198   4.393   8.567  0.1824  0.6256 -2.7900
 4281SOL    HW224306   2.216   4.327   8.430 -0.6254 -0.0617  0.4795
 4282SOL     OW24307   3.657   1.609   8.909  0.7335 -0.0553  0.0304
 4282SOL    HW124308   3.623   1.520   8.917 -0.3313  0.4623  1.2941
 4282SOL    HW224309   3.752   1.603   8.905  0.7735 -0.1809  1.1156
 4283SOL     OW24310   0.437   1.681   0.917  0.1036  0.0195  0.1538
 4283SOL    HW124311   0.518   1.731   0.910  0.9081 -1.4481 -1.0446
 4283SOL    HW224312   0.434   1.634   0.833 -1.0949 -0.0960  0.2592
 4284SOL     OW24313   3.121   4.177   7.097 -0.3185 -0.4988  0.2270
 4284SOL    HW124314   3.032   4.190   7.128 -0.9487 -0.0436 -1.7673
 4284SOL    HW224315   3.164   4.150   7.179 -0.9783  0.9085  1.0341
 4285SOL     OW24316   2.281   3.111   7.036 -0.0301 -0.5949  0.3720
 4285SOL    HW124317   2.292   3.025   7.075  0.6929 -1.3659 -1.4939
 4285SOL    HW224318   2.200   3.095   6.988 -1.3728  0.1704  2.4162
 4286SOL     OW24319   1.380   0.173  17.042  0.0591  0.1232 -0.6752
 4286SOL    HW124320   1.392   0.209  17.130 -1.6978 -2.4718  0.6100
 4286SOL    HW224321   1.380   0.254  16.990 -0.9902 -0.7380 -2.0237
 4287SOL     OW24322   3.070   0.567  12.196 -0.7177 -0.3507 -0.6288
 4287SOL    HW124323   3.021   0.507  12.252  0.0563  0.1112  0.5449
 4287SOL    HW224324   3.094   0.512  12.122  0.1911 -1.3923  0.4379
 4288SOL     OW24325   1.362   3.140   5.272 -0.1312 -0.0485  0.4695
 4288SOL    HW124326   1.371   3.234   5.288 -2.4693  0.0576  1.2372
 4288SOL    HW224327   1.305   3.148   5.195 -1.7254 -0.0468  1.6364
 4289SOL     OW24328   1.506   1.737  11.658  0.2938 -0.0443 -0.4533
 4289SOL    HW124329   1.569   1.770  11.594 -0.2229  0.9910 -0.4132
 4289SOL    HW224330   1.458   1.818  11.675 -0.9409 -0.4968 -1.7984
 4290SOL     OW24331   1.365   4.084   7.477  0.0036 -0.6507 -0.0601
 4290SOL    HW124332   1.425   4.049   7.542  2.3867  1.4738 -1.1061
 4290SOL    HW224333   1.393   4.175   7.463  0.9173 -1.1181 -1.2397
 4291SOL     OW24334   2.276   1.382   4.152 -0.3520 -0.1361  0.1571
 4291SOL    HW124335   2.216   1.456   4.139 -0.1568 -0.1358 -0.7596
 4291SOL    HW224336   2.276   1.364   4.246  0.4031 -1.1263 -0.0306
 4292SOL     OW24337   0.941   0.177   7.978 -0.0971  0.1885 -0.3801
 4292SOL    HW124338   1.024   0.194   7.935  0.1773 -3.0122 -1.0761
 4292SOL    HW224339   0.961   0.156   8.069 -0.0886 -0.1300 -0.4566
 4293SOL     OW24340   4.658   2.667  11.888  0.8452 -0.2111  0.3061
 4293SOL    HW124341   4.602   2.744  11.879  1.3493  0.0726 -0.3344
 4293SOL    HW224342   0.001   2.692  11.952  2.1136 -0.2858 -1.0083
 4294SOL     OW24343   2.527   3.502   5.531  0.7889 -0.5444 -0.1661
 4294SOL    HW124344   2.565   3.505   5.619  1.0878  1.8109 -0.3775
 4294SOL    HW224345   2.545   3.588   5.493 -0.1894  0.2585  1.1959
 4295SOL     OW24346   1.927   0.452   4.049  0.0192 -0.2794  0.0353
 4295SOL    HW124347   2.005   0.474   3.998 -0.4365  1.0357 -0.0866
 4295SOL    HW224348   1.945   0.460   4.142 -4.2953 -1.7934  1.0086
 4296SOL     OW24349   0.164   2.589   2.798 -0.2577 -0.0465 -0.3068
 4296SOL    HW124350   0.252   2.607   2.831 -0.4910 -0.1743  0.3782
 4296SOL    HW224351   0.178   2.612   2.706  0.5196  0.3987 -0.0808
 4297SOL     OW24352   3.904   2.103   3.699 -0.1049  0.0037  0.4566
 4297SOL    HW124353   3.949   2.187   3.711  0.5279 -0.4264  1.0800
 4297SOL    HW224354   3.959   2.053   3.639  0.1237  1.1401 -0.2929
 4298SOL     OW24355   1.841   3.725  16.358 -0.4603 -0.3101  0.7552
 4298SOL    HW124356   1.800   3.809  16.340 -1.1732 -0.4472  1.7975
 4298SOL    HW224357   1.771   3.676  16.401  1.4738 -0.4374  3.7546
 4299SOL     OW24358   1.724   4.442   8.857  0.5496 -0.6012 -0.0712
 4299SOL    HW124359   1.797   4.503   8.847  0.2436 -0.3554 -0.8219
 4299SOL    HW224360   1.653   4.493   8.897  1.0926 -0.6124  0.9113
 4300SOL     OW24361   1.926   0.366   0.412  0.1219  0.1424  0.0940
 4300SOL    HW124362   1.916   0.324   0.327  3.1798  1.0758 -0.7343
 4300SOL    HW224363   2.019   0.380   0.395  0.0770 -0.1244 -0.3739
 4301SOL     OW24364   3.832   4.221   3.531  0.0164  0.3898  0.4767
 4301SOL    HW124365   3.831   4.230   3.436  1.5262  2.3278  0.6557
 4301SOL    HW224366   3.918   4.180   3.544 -0.1917 -0.2864 -0.3039
 4302SOL     OW24367   4.487   2.024   4.191 -0.0846 -0.7339  0.0802
 4302SOL    HW124368   4.404   1.997   4.232 -0.6162  1.2095  0.2824
 4302SOL    HW224369   4.530   1.939   4.204  0.4652 -0.0044  3.0052
 4303SOL     OW24370   4.150   0.605  10.005 -0.2577  0.4328  0.0054
 4303SOL    HW124371   4.185   0.692  10.026  0.2041 -0.1236  1.5643
 4303SOL    HW224372   4.212   0.574   9.939 -1.5735 -1.0972 -0.5078
 4304SOL     OW24373   2.477   2.844   3.518 -0.5722 -0.2216 -0.4959
 4304SOL    HW124374   2.473   2.843   3.613  0.6516 -2.3375 -0.4715
 4304SOL    HW224375   2.389   2.866   3.486 -0.7927 -1.9478 -1.1100
 4305SOL     OW24376   1.780   2.208   7.916  0.0532  0.5383 -0.3041
 4305SOL    HW124377   1.718   2.172   7.979  0.1920  1.9469  0.6167
 4305SOL    HW224378   1.726   2.208   7.836  1.3228 -0.3956 -1.1568
 4306SOL     OW24379   4.145   1.617   4.868  0.5225  0.4173 -0.1140
 4306SOL    HW124380   4.173   1.662   4.788  1.4258  3.4494  1.9361
 4306SOL    HW224381   4.109   1.539   4.825  0.4935 -0.1187  0.8874
 4307SOL     OW24382   4.600   0.683  17.304 -0.1747 -0.3107 -0.3796
 4307SOL    HW124383   4.546   0.761  17.313  0.6507  0.6389 -3.6195
 4307SOL    HW224384   4.609   0.692  17.209  1.7068  0.3916 -0.1288
 4308SOL     OW24385   2.067   1.398  12.959 -0.0254  0.2363 -0.2985
 4308SOL    HW124386   2.087   1.365  13.046  0.9073  3.2926  0.6453
 4308SOL    HW224387   1.973   1.415  12.971  0.0958  0.7994 -0.1558
 4309SOL     OW24388   4.568   0.124   7.139 -0.4211  0.5181 -0.3612
 4309SOL    HW124389   4.509   0.049   7.148 -0.1283  0.2543 -0.6581
 4309SOL    HW224390   4.594   0.122   7.047  0.6125  0.6523 -0.0739
 4310SOL     OW24391   1.893   3.801   3.271 -0.0062 -0.4085 -0.3436
 4310SOL    HW124392   1.914   3.774   3.182  1.5794 -0.3669  0.0064
 4310SOL    HW224393   1.829   3.871   3.257 -0.2701 -0.3209  1.2617
 4311SOL     OW24394   2.063   4.125   5.243 -0.7270 -0.0950  0.4944
 4311SOL    HW124395   1.982   4.174   5.258  0.7858  2.6737 -0.2956
 4311SOL    HW224396   2.111   4.157   5.319 -0.1892  0.0780  0.0874
 4312SOL     OW24397   4.697   1.119   1.303  0.2701 -1.2757 -0.7029
 4312SOL    HW124398   4.676   1.111   1.396  0.8505  0.8497 -0.3900
 4312SOL    HW224399   4.611   1.124   1.262 -0.6444  0.3450  1.4498
 4313SOL     OW24400   4.097   3.530   5.125 -0.3020  0.0275  0.4118
 4313SOL    HW124401   4.077   3.595   5.192 -1.2656 -0.0782  0.2231
 4313SOL    HW224402   4.124   3.582   5.049 -2.3179  1.5709  0.7625
 4314SOL     OW24403   1.274   1.740   3.949 -0.0378  0.0157 -0.7034
 4314SOL    HW124404   1.362   1.772   3.927 -0.1201  1.4900  1.0690
 4314SOL    HW224405   1.281   1.649   3.979  2.1065 -0.0486 -1.3928
 4315SOL     OW24406   3.408   2.201   4.936  0.3533  0.0346  0.2142
 4315SOL    HW124407   3.404   2.278   4.992 -1.9606  0.6177 -0.7516
 4315SOL    HW224408   3.482   2.150   4.969  0.2190 -0.2198  0.1222
 4316SOL     OW24409   3.883   3.158   8.571 -0.7855  0.1760 -0.1919
 4316SOL    HW124410   3.826   3.138   8.645 -1.9753 -2.7768 -1.8903
 4316SOL    HW224411   3.818   3.200   8.514 -2.0695  1.8009  2.4794
 4317SOL     OW24412   3.661   0.064  16.865 -0.1258 -0.2362  0.0283
 4317SOL    HW124413   3.637   0.057  16.773 -1.7852  0.4012  0.4187
 4317SOL    HW224414   3.720   0.140  16.863  0.5815 -0.8311 -1.6135
 4318SOL     OW24415   2.194   4.031  12.038 -0.3528 -0.4646 -0.2083
 4318SOL    HW124416   2.126   3.963  12.034 -0.3094 -0.5430  0.3582
 4318SOL    HW224417   2.269   3.998  11.987 -0.1796  0.0667 -0.2908
 4319SOL     OW24418   4.676   4.298  12.068 -0.1987 -0.2445  0.9231
 4319SOL    HW124419   4.717   4.232  12.012  0.1681  1.0681 -0.3542
 4319SOL    HW224420   4.607   4.335  12.012  0.6698  0.1935  0.1517
 4320SOL     OW24421   3.175   3.026   5.861  0.1041  0.2565  0.1966
 4320SOL    HW124422   3.167   3.121   5.866  2.3016  0.4792 -0.3236
 4320SOL    HW224423   3.096   3.003   5.910 -0.4521 -1.0705 -1.3155
 4321SOL     OW24424   4.595   1.069   9.635  0.0592  0.4497 -0.4561
 4321SOL    HW124425   4.547   1.076   9.553 -1.9778 -0.6201  0.6416
 4321SOL    HW224426   4.687   1.072   9.608  0.0857 -1.0695 -0.5155
 4322SOL     OW24427   4.264   0.352  17.426 -0.1083 -0.2657 -0.4953
 4322SOL    HW124428   4.274   0.447  17.419  0.6537 -0.1095  2.7744
 4322SOL    HW224429   4.355   0.325  17.441 -0.0972 -0.1580 -0.3692
 4323SOL     OW24430   3.374   3.225   4.310 -0.3445 -0.6506  0.2668
 4323SOL    HW124431   3.314   3.175   4.255 -1.3344  1.8063 -0.8682
 4323SOL    HW224432   3.340   3.224   4.399 -1.6778  1.2072 -0.2086
 4324SOL     OW24433   2.711   0.328   6.307  0.3352  0.2493 -0.0560
 4324SOL    HW124434   2.631   0.298   6.350  0.4122  0.0911 -0.0221
 4324SOL    HW224435   2.669   0.366   6.230  1.9703  2.0250 -0.0552
 4325SOL     OW24436   2.727   1.111   3.205 -0.4371 -0.0921  0.5397
 4325SOL    HW124437   2.744   1.203   3.185  0.2885 -0.2211  0.5925
 4325SOL    HW224438   2.657   1.122   3.270 -2.7801 -0.7161 -1.8800
 4326SOL     OW24439   0.677   4.634   4.657  0.3822 -0.3828 -0.2240
 4326SOL    HW124440   0.596   4.664   4.697  1.1293 -0.7602  1.5927
 4326SOL    HW224441   0.668   4.698   4.587 -1.3763 -1.1889 -0.7261
 4327SOL     OW24442   1.149   1.995   8.178  0.1644 -0.1503 -0.1532
 4327SOL    HW124443   1.080   1.955   8.231 -1.0193 -0.8742 -2.2711
 4327SOL    HW224444   1.230   1.965   8.220 -0.6756 -1.7667  0.2837
 4328SOL     OW24445   0.354   0.018   6.911  0.1512  0.8538 -0.4719
 4328SOL    HW124446   0.395   0.101   6.887  2.3150 -0.3162 -0.7549
 4328SOL    HW224447   0.260   0.035   6.915 -0.1209 -0.5605 -0.9193
 4329SOL     OW24448   3.132   4.082  16.268 -0.3645  0.2935  0.6779
 4329SOL    HW124449   3.184   4.034  16.333  1.4965 -0.3320 -1.2544
 4329SOL    HW224450   3.044   4.078  16.305  0.0607  3.1153  2.0055
 4330SOL     OW24451   2.538   1.486   5.371 -0.2011 -0.0530  0.6603
 4330SOL    HW124452   2.444   1.500   5.358  0.1798  0.1724 -1.9333
 4330SOL    HW224453   2.577   1.567   5.402 -1.4008  1.0160 -0.6265
 4331SOL     OW24454   2.737   3.999   6.676  0.5824 -0.9845 -0.2880
 4331SOL    HW124455   2.749   4.019   6.583 -1.4281 -0.9358 -0.5512
 4331SOL    HW224456   2.773   4.071   6.726  0.4021 -2.3887  1.8523
 4332SOL     OW24457   1.260   0.103   6.426  0.1642 -0.1761 -0.3830
 4332SOL    HW124458   1.333   0.052   6.390  0.8557 -0.2856  1.1592
 4332SOL    HW224459   1.302   0.159   6.491 -0.4768 -0.0067 -0.1156
 4333SOL     OW24460   0.981   2.817  14.734  0.0659 -0.0006 -0.1501
 4333SOL    HW124461   1.073   2.794  14.748  0.8318  3.0276 -0.1641
 4333SOL    HW224462   0.977   2.890  14.796  1.8039 -0.4796  0.5470
 4334SOL     OW24463   0.501   1.980   3.252 -0.2475 -0.4569 -0.2396
 4334SOL    HW124464   0.596   1.969   3.255 -0.3813 -1.3178  0.9714
 4334SOL    HW224465   0.499   2.068   3.214  1.2572  0.2829  1.3770
 4335SOL     OW24466   2.345   4.415  17.292  0.4574  0.0035  0.0551
 4335SOL    HW124467   2.346   4.354  17.366  4.8663 -0.2629 -0.2057
 4335SOL    HW224468   2.287   4.367  17.233  1.5810 -1.9338  0.5191
 4336SOL     OW24469   4.202   4.252   0.495  0.0881 -0.0544 -0.2107
 4336SOL    HW124470   4.217   4.163   0.463  1.4603  0.2810 -0.5082
 4336SOL    HW224471   4.274   4.294   0.447  1.2976  0.4064  2.0008
 4337SOL     OW24472   1.878   3.348   7.764 -0.6014 -0.4017 -0.4660
 4337SOL    HW124473   1.882   3.415   7.832 -3.2388 -2.0502  1.3254
 4337SOL    HW224474   1.958   3.299   7.783 -0.3119  0.8055  1.4735
 4338SOL     OW24475   3.169   1.856  10.805 -0.2306 -0.5788 -0.3676
 4338SOL    HW124476   3.075   1.862  10.822 -0.1129 -2.9698  1.1760
 4338SOL    HW224477   3.199   1.856  10.896  0.0060 -1.4292 -0.4514
 4339SOL     OW24478   0.225   1.139   2.931 -0.3933  0.1021 -0.0561
 4339SOL    HW124479   0.301   1.087   2.955  0.7519  1.5148 -0.6076
 4339SOL    HW224480   0.159   1.100   2.989 -2.1760 -0.0236 -2.1284
 4340SOL     OW24481   1.303   1.672   9.294 -0.4080  0.3339 -0.0196
 4340SOL    HW124482   1.344   1.741   9.346 -0.1814 -0.2955  0.6534
 4340SOL    HW224483   1.306   1.599   9.357  0.2654  1.9975  1.8733
 4341SOL     OW24484   4.078   4.032   5.146  0.1484  0.1817  0.3302
 4341SOL    HW124485   4.016   3.967   5.112 -2.4601  1.3762  2.8252
 4341SOL    HW224486   4.042   4.116   5.117 -1.7878  0.2521  2.8702
 4342SOL     OW24487   2.130   0.241  11.610 -0.3685  0.7658 -0.0469
 4342SOL    HW124488   2.075   0.284  11.677  0.3443  1.7257 -0.0817
 4342SOL    HW224489   2.175   0.182  11.670 -3.2280  0.3752  1.7649
 4343SOL     OW24490   2.044   1.566   2.746  0.3307  0.2439  0.2420
 4343SOL    HW124491   2.105   1.640   2.738 -0.3935  0.6278 -1.7862
 4343SOL    HW224492   2.057   1.547   2.839  0.9503  2.0531  0.5404
 4344SOL     OW24493   0.720   1.773   9.994  0.1298  0.2728 -0.2135
 4344SOL    HW124494   0.697   1.715   9.922  1.0548 -3.0423  2.1756
 4344SOL    HW224495   0.811   1.799   9.980 -0.1456  1.0137 -0.6508
 4345SOL     OW24496   4.282   4.504   2.587  0.1489  0.3399  0.3936
 4345SOL    HW124497   4.213   4.561   2.619 -1.1367 -1.0826  0.1175
 4345SOL    HW224498   4.353   4.503   2.652 -0.4182  1.2518  1.0230
 4346SOL     OW24499   4.212   1.264   1.602 -0.0896  0.3843  0.2801
 4346SOL    HW124500   4.181   1.231   1.518 -1.5362  0.7758  0.6591
 4346SOL    HW224501   4.138   1.320   1.627  0.8666  1.7427  0.0213
 4347SOL     OW24502   2.674   1.056   4.889 -0.6087  0.2549  0.0309
 4347SOL    HW124503   2.668   1.145   4.925 -1.7718  0.0577  0.2964
 4347SOL    HW224504   2.702   1.073   4.799 -1.0777 -2.1884 -0.5586
 4348SOL     OW24505   1.376   0.848   5.739  0.1161  0.2620 -0.0173
 4348SOL    HW124506   1.421   0.766   5.719 -2.3537 -1.3836  1.0981
 4348SOL    HW224507   1.332   0.874   5.658 -0.7467  1.6274  0.8832
 4349SOL     OW24508   0.504   0.097   2.886 -0.0100  0.1960  0.6217
 4349SOL    HW124509   0.576   0.091   2.823 -0.0257  2.6160  0.3789
 4349SOL    HW224510   0.421   0.099   2.838 -0.5241 -0.3830  1.5012
 4350SOL     OW24511   3.493   0.571   1.710  0.0715 -0.0767  0.0738
 4350SOL    HW124512   3.454   0.565   1.623 -0.9033 -1.3887  0.5887
 4350SOL    HW224513   3.501   0.476   1.721  0.2225 -0.1231 -0.4544
 4351SOL     OW24514   0.463   0.032   3.513 -0.5499  0.1037 -0.2057
 4351SOL    HW124515   0.458   4.681   3.454  0.1709  0.1478 -0.3250
 4351SOL    HW224516   0.479   0.097   3.444  1.3350 -0.3794 -0.2098
 4352SOL     OW24517   1.964   0.814   3.281  0.2295 -0.4011 -0.1480
 4352SOL    HW124518   1.961   0.732   3.231 -1.1158 -1.5399  1.7879
 4352SOL    HW224519   1.901   0.864   3.229 -0.3753 -0.3762  0.5911
 4353SOL     OW24520   0.574   1.259  12.380  0.0501 -0.0289 -0.0354
 4353SOL    HW124521   0.557   1.253  12.473  1.9795 -0.8343  0.2671
 4353SOL    HW224522   0.663   1.294  12.382  0.1355 -0.3083  0.8757
 4354SOL     OW24523   1.423   0.047   9.784 -0.2104 -0.2783 -0.0853
 4354SOL    HW124524   1.455   0.079   9.868  2.1959  0.9382 -1.4540
 4354SOL    HW224525   1.329   0.034   9.798 -0.4459  2.0277  0.4013
 4355SOL     OW24526   0.022   4.632  14.827  0.5917 -0.4327  0.1482
 4355SOL    HW124527   4.686   4.649  14.754 -0.6765  0.8738  1.4762
 4355SOL    HW224528   0.078   4.709  14.816  0.2619 -0.0568  1.0739
 4356SOL     OW24529   3.244   0.717   7.449  0.8678  0.0881  0.3368
 4356SOL    HW124530   3.256   0.677   7.363  2.2898 -0.5387  0.8291
 4356SOL    HW224531   3.264   0.807   7.426  2.0862 -0.0507  0.8362
 4357SOL     OW24532   0.393   1.814   5.252 -0.4306  0.0349  0.1995
 4357SOL    HW124533   0.422   1.805   5.343 -2.2497 -0.7064  0.6915
 4357SOL    HW224534   0.467   1.860   5.212 -0.4137 -1.1201 -1.0807
 4358SOL     OW24535   3.800   1.830   8.512  0.2376  0.1680 -0.5187
 4358SOL    HW124536   3.714   1.803   8.544  0.9424 -1.7630 -0.2253
 4358SOL    HW224537   3.778   1.913   8.470 -0.2375 -0.3883 -1.3682
 4359SOL     OW24538   2.731   4.024   4.000 -0.2945  0.1098 -0.2061
 4359SOL    HW124539   2.703   3.942   4.042  0.4161 -0.1676 -0.2699
 4359SOL    HW224540   2.664   4.088   4.021 -1.5424 -1.0079 -0.7661
 4360SOL     OW24541   2.546   1.786   8.036  0.0852  0.2258  0.1975
 4360SOL    HW124542   2.511   1.719   7.978  2.9758 -1.0202 -0.0994
 4360SOL    HW224543   2.639   1.775   8.016  0.2482  1.2255  0.4087
 4361SOL     OW24544   3.790   0.757   2.030 -0.0352  0.0826  0.3795
 4361SOL    HW124545   3.823   0.691   1.970 -0.0432 -0.8636  1.4276
 4361SOL    HW224546   3.708   0.770   1.982 -0.2818 -0.0034  0.7795
 4362SOL     OW24547   2.682   0.941   3.759  0.0101  0.1958 -0.6271
 4362SOL    HW124548   2.760   0.930   3.814 -1.0132 -0.7532  0.6546
 4362SOL    HW224549   2.604   0.945   3.814  1.2659  1.1926  1.1024
 4363SOL     OW24550   0.953   3.434  15.212  0.1878 -0.2449 -0.1425
 4363SOL    HW124551   0.893   3.428  15.287 -0.9723  1.0322 -0.9883
 4363SOL    HW224552   1.014   3.505  15.234 -0.3166  0.0477  0.3094
 4364SOL     OW24553   2.406   4.015   5.130 -0.1340 -0.2219 -0.2156
 4364SOL    HW124554   2.433   4.097   5.089 -0.1506  0.7964  1.7914
 4364SOL    HW224555   2.317   4.006   5.094 -0.1288  0.0012 -0.2836
 4365SOL     OW24556   3.479   4.359   5.199 -0.1600  0.1085  0.2469
 4365SOL    HW124557   3.563   4.397   5.224 -0.0622  0.7956 -1.1626
 4365SOL    HW224558   3.497   4.372   5.106 -3.3685  0.1850 -0.3903
 4366SOL     OW24559   4.134   1.577   1.923 -0.0159  0.4097 -0.0468
 4366SOL    HW124560   4.086   1.659   1.937  1.6801  1.7800 -2.2326
 4366SOL    HW224561   4.222   1.615   1.922 -0.1351  0.6705 -0.6922
 4367SOL     OW24562   3.298   2.403   2.808 -0.1605  0.8733 -0.0683
 4367SOL    HW124563   3.259   2.316   2.798  1.6569 -0.1528  1.6008
 4367SOL    HW224564   3.357   2.401   2.732 -0.1783  3.6412 -0.1671
 4368SOL     OW24565   1.499   4.339   1.903 -0.5557  0.0543 -0.3751
 4368SOL    HW124566   1.436   4.370   1.969  0.3399  1.0054  0.0380
 4368SOL    HW224567   1.438   4.355   1.832 -1.0974 -0.0137  0.0726
 4369SOL     OW24568   2.007   3.114   3.591 -0.2499  0.3330  0.3871
 4369SOL    HW124569   2.037   3.026   3.616  2.6664  1.1109 -0.4163
 4369SOL    HW224570   2.087   3.156   3.560 -1.7798  3.7751  1.1904
 4370SOL     OW24571   1.217   0.896  13.556 -0.4604 -0.1111  0.8252
 4370SOL    HW124572   1.182   0.808  13.568  0.3645 -0.4336  0.8691
 4370SOL    HW224573   1.308   0.889  13.585  0.1292  1.7518 -0.5535
 4371SOL     OW24574   3.029   1.227   3.588 -0.4575 -0.3883 -0.6265
 4371SOL    HW124575   3.019   1.215   3.493  0.3184 -3.1046 -0.3696
 4371SOL    HW224576   3.091   1.160   3.617  0.6927  0.9229 -0.0554
 4372SOL     OW24577   2.650   3.151   2.937 -0.0515  0.0099  0.4370
 4372SOL    HW124578   2.703   3.202   2.876 -0.2925  1.9377  1.7987
 4372SOL    HW224579   2.563   3.185   2.914  0.2043  0.3349 -0.0394
 4373SOL     OW24580   3.134   0.281  11.768  0.3731 -0.4492 -0.4317
 4373SOL    HW124581   3.076   0.336  11.715  0.3407  2.0459  2.1336
 4373SOL    HW224582   3.214   0.316  11.728  0.8924 -2.2934 -1.0065
 4374SOL     OW24583   4.320   0.981   8.672  0.0214  0.1466 -0.0092
 4374SOL    HW124584   4.309   0.908   8.733  0.1647 -1.1209 -1.4807
 4374SOL    HW224585   4.233   1.010   8.698  0.0143 -0.4832  0.6648
 4375SOL     OW24586   4.344   3.338   7.040 -0.3976 -0.1737 -0.3570
 4375SOL    HW124587   4.340   3.293   6.956 -0.4445 -1.2604  0.2155
 4375SOL    HW224588   4.399   3.273   7.085 -1.1376 -0.6903 -0.1882
 4376SOL     OW24589   3.301   2.489   8.207 -0.2715  0.4337 -0.1204
 4376SOL    HW124590   3.231   2.553   8.191 -1.3800 -0.7159  0.1543
 4376SOL    HW224591   3.353   2.522   8.280 -0.6363  0.0884  0.2943
 4377SOL     OW24592   3.016   1.958  13.855 -0.4571  0.3217 -0.4649
 4377SOL    HW124593   2.960   2.016  13.907 -1.7896  0.1064 -1.6582
 4377SOL    HW224594   2.977   1.872  13.870  0.2518  0.0772 -0.0239
 4378SOL     OW24595   0.138   3.866   3.432 -0.3946 -0.0395 -0.1786
 4378SOL    HW124596   0.165   3.922   3.359 -0.6683 -0.2653 -0.4554
 4378SOL    HW224597   0.172   3.782   3.401  2.0992  1.5146 -1.6509
 4379SOL     OW24598   2.571   2.673   8.197 -0.1273 -0.0719  0.5671
 4379SOL    HW124599   2.655   2.626   8.191 -0.2327 -0.0229 -1.3949
 4379SOL    HW224600   2.553   2.672   8.291  0.7060  2.4512  0.7427
 4380SOL     OW24601   3.945   2.684   7.948 -0.2449  0.7860  0.2144
 4380SOL    HW124602   4.008   2.623   7.908 -0.2689  1.7904 -1.3366
 4380SOL    HW224603   3.994   2.720   8.022 -0.7961 -0.3630  1.1365
 4381SOL     OW24604   2.194   1.783   2.690  0.1659  0.1376 -0.1136
 4381SOL    HW124605   2.283   1.791   2.655 -0.3160  1.4297 -1.0461
 4381SOL    HW224606   2.205   1.831   2.772 -1.1874  1.0140 -0.4355
 4382SOL     OW24607   3.590   3.551  10.552 -0.1351 -0.1529  0.1682
 4382SOL    HW124608   3.543   3.491  10.610 -1.2560 -0.4240 -0.9981
 4382SOL    HW224609   3.671   3.565  10.601 -1.4403 -0.1216  2.3154
 4383SOL     OW24610   2.154   2.991   5.859  0.6011  0.3286  0.2077
 4383SOL    HW124611   2.100   3.065   5.832  2.0986  0.1991 -3.1263
 4383SOL    HW224612   2.174   3.015   5.949 -2.5942  1.4880  0.5961
 4384SOL     OW24613   0.172   0.579   9.220 -0.6480 -0.1077  0.6704
 4384SOL    HW124614   0.199   0.493   9.252 -0.0491 -0.8744 -1.8913
 4384SOL    HW224615   0.258   0.606   9.186 -0.6531 -2.1052 -0.9176
 4385SOL     OW24616   4.126   3.463   4.683  0.0553  0.0356  0.1414
 4385SOL    HW124617   4.059   3.519   4.642 -0.8049 -1.5770 -0.6652
 4385SOL    HW224618   4.103   3.382   4.637 -2.3140  0.0490  1.2848
 4386SOL     OW24619   0.870   1.765  14.147 -0.4238 -0.2702 -0.3134
 4386SOL    HW124620   0.954   1.724  14.170  0.2723  0.2659 -1.9061
 4386SOL    HW224621   0.834   1.678  14.129  0.9287 -1.1792  1.3205
 4387SOL     OW24622   3.125   0.760   2.500 -0.4317 -0.1911 -0.0313
 4387SOL    HW124623   3.203   0.717   2.465  0.6931  1.5686  0.3188
 4387SOL    HW224624   3.146   0.853   2.510 -0.2931 -0.6436  3.7896
 4388SOL     OW24625   2.018   2.939   4.610  0.0352 -0.5555 -0.5489
 4388SOL    HW124626   2.099   2.970   4.569 -1.2239  0.8540 -2.0018
 4388SOL    HW224627   2.002   2.867   4.549 -0.4927 -2.5290  1.9353
 4389SOL     OW24628   2.945   0.199  16.338 -0.2083 -0.0293 -0.3179
 4389SOL    HW124629   2.862   0.243  16.359  0.3201  1.0446 -0.4964
 4389SOL    HW224630   3.005   0.233  16.404 -0.2624 -0.0569 -0.2539
 4390SOL     OW24631   4.675   3.759   8.287  0.2957  0.5213  0.6442
 4390SOL    HW124632   4.662   3.675   8.242 -1.6645  0.9195  0.4698
 4390SOL    HW224633   4.653   3.728   8.374 -0.4029  0.1424  0.3353
 4391SOL     OW24634   0.099   1.380   1.276 -0.3760 -0.3118 -0.6134
 4391SOL    HW124635   0.045   1.301   1.280 -0.2957 -0.1079  3.5491
 4391SOL    HW224636   0.064   1.438   1.344  2.9500 -0.1878  0.9835
 4392SOL     OW24637   4.585   3.152   2.029 -0.7275 -0.5572 -0.6210
 4392SOL    HW124638   4.498   3.139   1.991 -0.0440 -2.6016 -1.4771
 4392SOL    HW224639   4.637   3.106   1.963  1.0131 -0.0423  0.3949
 4393SOL     OW24640   1.160   0.754   7.818 -0.1925  0.2020  0.5768
 4393SOL    HW124641   1.243   0.740   7.773 -0.2722 -0.0332  0.5026
 4393SOL    HW224642   1.111   0.691   7.765  0.4061  0.2447 -0.0176
 4394SOL     OW24643   0.145   2.289   1.962 -0.2523  0.1173 -0.9610
 4394SOL    HW124644   0.201   2.314   1.889  0.8586 -1.6015 -0.7068
 4394SOL    HW224645   0.201   2.306   2.037  0.9100 -2.7833 -1.1525
 4395SOL     OW24646   3.238   3.548  12.778  0.4761 -0.2815 -0.0248
 4395SOL    HW124647   3.269   3.480  12.718  0.2951 -0.6764  0.3302
 4395SOL    HW224648   3.323   3.573  12.814  0.4108  1.3444 -1.0169
 4396SOL     OW24649   0.857   2.685  10.317  0.5812 -0.1549  0.7666
 4396SOL    HW124650   0.821   2.599  10.340  0.8983 -0.5109 -0.0384
 4396SOL    HW224651   0.907   2.695  10.398  0.8653  1.0378  0.4415
 4397SOL     OW24652   1.271   0.832   4.330  0.0365  0.3706  0.7670
 4397SOL    HW124653   1.365   0.847   4.343  0.2012  0.1153 -0.1440
 4397SOL    HW224654   1.239   0.846   4.419 -2.4026  1.0728 -0.2263
 4398SOL     OW24655   4.163   2.272   4.824  0.0766 -0.6898  0.3703
 4398SOL    HW124656   4.164   2.301   4.915 -2.6253 -0.5167  0.3318
 4398SOL    HW224657   4.069   2.279   4.805  0.2474 -2.7359 -1.3122
 4399SOL     OW24658   2.461   0.195   5.986 -0.1946  0.2971 -0.1137
 4399SOL    HW124659   2.529   0.172   6.049  0.8925  1.4155 -0.8662
 4399SOL    HW224660   2.411   0.262   6.033  1.9151  0.2096  2.2884
 4400SOL     OW24661   0.236   4.268   9.146  0.1972  0.4372  0.1081
 4400SOL    HW124662   0.244   4.243   9.238 -2.0202 -1.3285 -0.1496
 4400SOL    HW224663   0.174   4.200   9.117  0.9253 -0.0772 -0.2477
 4401SOL     OW24664   3.288   0.245   4.408 -0.1232 -0.1395 -0.3638
 4401SOL    HW124665   3.253   0.255   4.497 -0.9749 -2.7853 -0.3903
 4401SOL    HW224666   3.379   0.272   4.414 -0.1631 -0.4320  1.6173
 4402SOL     OW24667   3.905   2.511   8.909  0.0053 -0.2092 -0.7268
 4402SOL    HW124668   3.846   2.584   8.925 -0.7340 -0.5642 -1.8604
 4402SOL    HW224669   3.969   2.553   8.851 -1.0927  1.5742 -0.6556
 4403SOL     OW24670   1.884   1.963   8.877 -0.0671 -0.0304  0.0558
 4403SOL    HW124671   1.826   1.905   8.828 -1.2534 -0.4109  1.9227
 4403SOL    HW224672   1.929   1.906   8.940  0.1014 -0.1380 -0.1608
 4404SOL     OW24673   2.270   2.967   6.740 -0.0868 -0.4330 -0.2940
 4404SOL    HW124674   2.304   3.056   6.745  0.2421 -0.5756 -0.0124
 4404SOL    HW224675   2.262   2.939   6.831  2.5179 -2.3835 -0.6715
 4405SOL     OW24676   0.005   3.760  14.210  0.5939  0.3468  0.2892
 4405SOL    HW124677   4.722   3.800  14.296 -1.6075 -1.7797  1.0909
 4405SOL    HW224678   0.100   3.747  14.206  0.1135 -3.1971  0.3357
 4406SOL     OW24679   0.715   0.323   0.344 -0.0520  0.2814  0.1066
 4406SOL    HW124680   0.666   0.406   0.346 -1.3512 -0.4058 -4.0162
 4406SOL    HW224681   0.800   0.356   0.315  0.0521  0.5570  0.7272
 4407SOL     OW24682   2.356   4.114  12.969 -0.1506 -0.1486 -0.3936
 4407SOL    HW124683   2.426   4.123  12.906  1.8599  2.1299  2.1361
 4407SOL    HW224684   2.284   4.162  12.928 -1.1624 -1.8194 -0.5678
 4408SOL     OW24685   1.805   0.871   9.301 -0.1247  0.3220 -0.1977
 4408SOL    HW124686   1.772   0.781   9.303  0.8217  0.0198  2.4211
 4408SOL    HW224687   1.899   0.851   9.301 -0.3391 -0.7319  0.6027
 4409SOL     OW24688   4.115   1.133   2.593  0.0579  0.2663  0.4921
 4409SOL    HW124689   4.156   1.214   2.562 -1.0839  0.2459 -1.0819
 4409SOL    HW224690   4.045   1.173   2.645  0.4208  0.9648  0.4410
 4410SOL     OW24691   0.819   1.305   3.194 -0.0466  0.0888  0.0749
 4410SOL    HW124692   0.893   1.361   3.217 -0.2437 -1.0308  3.3592
 4410SOL    HW224693   0.783   1.352   3.118 -1.1043 -1.0955 -0.1556
 4411SOL     OW24694   4.196   2.363   4.444  0.0740  0.4521  0.1341
 4411SOL    HW124695   4.271   2.312   4.412 -0.4431 -1.0500  1.3367
 4411SOL    HW224696   4.137   2.297   4.478  1.2542 -1.5195 -1.6495
 4412SOL     OW24697   2.890   4.252   7.280  0.3447  0.8127  0.4172
 4412SOL    HW124698   2.926   4.208   7.357  1.7376  0.6652 -0.3212
 4412SOL    HW224699   2.884   4.342   7.312 -2.4631  1.9339 -3.2485
 4413SOL     OW24700   4.040   0.047   7.062  0.0378 -0.3832  0.2268
 4413SOL    HW124701   4.101   0.004   7.122  0.3088 -0.4725 -0.1199
 4413SOL    HW224702   4.047   4.713   6.986 -0.6038  0.5608 -0.5372
 4414SOL     OW24703   3.572   1.014  12.299  0.1254 -0.1351 -0.1452
 4414SOL    HW124704   3.567   0.978  12.388  0.0433  1.6611  0.5891
 4414SOL    HW224705   3.667   1.023  12.296 -0.1887  2.7612 -1.3139
 4415SOL     OW24706   1.401   0.339   1.941 -0.2076  0.2672  0.7061
 4415SOL    HW124707   1.394   0.379   2.028 -1.2368  1.7468 -0.0603
 4415SOL    HW224708   1.306   0.342   1.926  0.1501  1.5789 -1.2854
 4416SOL     OW24709   4.293   1.715   5.666 -0.1126  0.1210  0.1255
 4416SOL    HW124710   4.331   1.674   5.745  1.4700  0.5728 -0.3973
 4416SOL    HW224711   4.211   1.746   5.704  0.7355  0.9632  1.2979
 4417SOL     OW24712   3.826   2.819  14.035  0.6014 -0.1348  0.0271
 4417SOL    HW124713   3.871   2.863  14.107  0.8723 -0.4378  0.0471
 4417SOL    HW224714   3.900   2.828  13.975 -0.7877 -0.6082 -1.7587
 4418SOL     OW24715   3.169   1.982   7.615 -0.0066  0.1404  0.1841
 4418SOL    HW124716   3.188   2.056   7.673 -2.7558  0.2987  0.8562
 4418SOL    HW224717   3.249   1.988   7.562  2.8506 -0.7733  4.4254
 4419SOL     OW24718   3.656   2.195   3.996  0.3907 -0.2401 -0.3750
 4419SOL    HW124719   3.651   2.268   3.934 -0.0230 -0.1402 -0.2250
 4419SOL    HW224720   3.747   2.210   4.022 -0.7040 -1.0912  4.0139
 4420SOL     OW24721   2.018   4.063   4.712 -0.2308  0.1318  0.3451
 4420SOL    HW124722   1.925   4.063   4.734 -0.4913  1.7813 -0.7776
 4420SOL    HW224723   2.048   3.983   4.756  0.7084  0.1616 -0.2317
 4421SOL     OW24724   1.311   2.655   6.792 -0.2034  0.3464  0.2898
 4421SOL    HW124725   1.383   2.718   6.792 -0.3927  0.5605  0.5439
 4421SOL    HW224726   1.259   2.690   6.864 -0.5627 -1.7653  1.0386
 4422SOL     OW24727   0.696   2.086   6.889 -0.3628  0.2931  0.1672
 4422SOL    HW124728   0.756   2.143   6.937  1.0923 -0.9491 -0.1819
 4422SOL    HW224729   0.663   2.028   6.957 -2.4946  2.6417  1.1517
 4423SOL     OW24730   2.757   4.515   8.810 -0.0952  0.1145  0.3769
 4423SOL    HW124731   2.849   4.527   8.834 -0.1377  0.6565  0.2806
 4423SOL    HW224732   2.730   4.451   8.876 -0.4625  0.0384  0.1481
 4424SOL     OW24733   3.544   4.032  10.507  0.1297  0.4711 -0.2495
 4424SOL    HW124734   3.505   4.112  10.472  0.5148  0.5685 -0.4604
 4424SOL    HW224735   3.598   4.068  10.577 -0.1134 -2.1194  1.2897
 4425SOL     OW24736   1.690   2.279   1.866  0.7489  0.0148  0.0460
 4425SOL    HW124737   1.616   2.254   1.810  1.2079 -2.1529  0.3717
 4425SOL    HW224738   1.639   2.336   1.923  1.5727  2.5105 -1.7363
 4426SOL     OW24739   1.262   4.147   5.107 -0.2484 -0.2088  0.1743
 4426SOL    HW124740   1.267   4.199   5.187 -0.9407 -2.0822  1.4448
 4426SOL    HW224741   1.166   4.139   5.102 -0.2145 -1.1252  1.0132
 4427SOL     OW24742   1.852   0.769   3.734 -0.0557 -0.3352 -0.5209
 4427SOL    HW124743   1.905   0.778   3.813 -0.3916  0.5865 -0.4051
 4427SOL    HW224744   1.768   0.780   3.779 -0.0872 -0.0590 -0.6475
 4428SOL     OW24745   2.876   1.716   4.406  0.5898 -0.2250 -0.5370
 4428SOL    HW124746   2.963   1.720   4.446 -1.0775  0.6563  3.0683
 4428SOL    HW224747   2.845   1.628   4.426  1.3219 -0.7042 -1.5736
 4429SOL     OW24748   0.120   3.469   7.902 -0.0411 -0.0238  0.1503
 4429SOL    HW124749   0.172   3.523   7.842  1.1909 -2.4260 -0.9582
 4429SOL    HW224750   0.036   3.514   7.890  0.5467  0.6697 -1.3356
 4430SOL     OW24751   2.404   4.614  14.324  0.2635  0.1882  0.5240
 4430SOL    HW124752   2.407   4.656  14.409  0.4341  0.7363  0.2445
 4430SOL    HW224753   2.493   4.618  14.290  0.1184  1.1242  0.2752
 4431SOL     OW24754   0.271   3.359   6.775 -0.4846  0.0651  0.1087
 4431SOL    HW124755   0.281   3.267   6.799  1.2548  0.0295 -0.7063
 4431SOL    HW224756   0.356   3.393   6.805  0.4595 -1.3837 -0.9105
 4432SOL     OW24757   1.814   3.082   6.089 -0.5002  0.5801  0.0851
 4432SOL    HW124758   1.723   3.111   6.097 -0.6335 -0.4120  2.1315
 4432SOL    HW224759   1.811   2.987   6.081 -0.5081  0.5685  0.2243
 4433SOL     OW24760   1.224   3.963   5.416  0.2168 -0.2857 -0.1619
 4433SOL    HW124761   1.256   4.053   5.418 -0.2880 -0.0640 -3.7052
 4433SOL    HW224762   1.192   3.949   5.328  0.7215  2.6521 -0.8102
 4434SOL     OW24763   4.109   2.811   7.282 -0.0154  0.0494 -0.0101
 4434SOL    HW124764   4.171   2.763   7.337  0.0800  0.8079  0.5377
 4434SOL    HW224765   4.032   2.754   7.285  1.4693 -2.0195 -0.9857
 4435SOL     OW24766   1.554   2.492   3.816  0.0689 -0.4616 -0.0524
 4435SOL    HW124767   1.607   2.561   3.857 -0.3184  0.5429 -1.2266
 4435SOL    HW224768   1.572   2.417   3.873  0.3052 -0.2060  0.2133
 4436SOL     OW24769   4.226   1.445  13.356 -0.7892  0.6095  0.4153
 4436SOL    HW124770   4.185   1.417  13.438 -1.8631  3.3830  0.8255
 4436SOL    HW224771   4.253   1.359  13.324 -0.5787  0.5551  0.7452
 4437SOL     OW24772   3.239   1.984   2.303 -0.4785  0.0191  0.3834
 4437SOL    HW124773   3.189   2.053   2.259  0.3658  0.2623 -0.1962
 4437SOL    HW224774   3.231   2.015   2.393  0.4407  0.8789  0.1668
 4438SOL     OW24775   2.318   3.442  15.129  0.8902 -0.0862 -0.2632
 4438SOL    HW124776   2.382   3.374  15.148 -2.0593 -1.5785  4.1875
 4438SOL    HW224777   2.284   3.415  15.043 -0.2444 -0.9201  0.4479
 4439SOL     OW24778   0.101   1.231   5.862  0.1957 -0.1324  0.0379
 4439SOL    HW124779   0.030   1.271   5.913  1.5642 -0.9987  2.5963
 4439SOL    HW224780   0.057   1.190   5.788  0.0785 -1.2088  0.7018
 4440SOL     OW24781   3.963   2.653  16.038  0.4134  0.1343 -0.2681
 4440SOL    HW124782   3.886   2.635  16.093 -0.6558 -1.1513 -2.1885
 4440SOL    HW224783   3.935   2.736  15.999  0.2511  0.0032 -0.4268
 4441SOL     OW24784   4.693   1.773   3.275 -0.9263  0.0314 -0.1538
 4441SOL    HW124785   0.022   1.703   3.312  0.1058  1.8150  1.7078
 4441SOL    HW224786   0.037   1.829   3.236 -0.1319 -0.6366  0.2857
 4442SOL     OW24787   4.634   2.018   4.597  0.1515  0.7327  0.4021
 4442SOL    HW124788   4.632   1.922   4.592 -1.1108  0.8372 -1.0449
 4442SOL    HW224789   4.608   2.021   4.689  0.7984 -0.8625  0.6459
 4443SOL     OW24790   0.951   1.876  15.223  0.5264 -0.0395 -0.0489
 4443SOL    HW124791   0.980   1.830  15.144 -0.3338  0.5237 -0.6973
 4443SOL    HW224792   0.869   1.921  15.201  0.0242 -1.2291 -0.5845
 4444SOL     OW24793   1.103   0.586   8.088 -0.3957  0.1914 -0.0014
 4444SOL    HW124794   1.074   0.553   8.002  2.0965  0.6417 -1.0102
 4444SOL    HW224795   1.057   0.670   8.088  0.4735  0.6810 -1.4631
 4445SOL     OW24796   2.928   0.608   3.071 -0.5737 -0.1689 -0.0431
 4445SOL    HW124797   3.010   0.574   3.107 -0.0511  3.6926  2.3820
 4445SOL    HW224798   2.906   0.676   3.134 -0.0364 -0.9368  0.9804
 4446SOL     OW24799   2.182   3.322   6.113  0.0284  0.0959  0.1385
 4446SOL    HW124800   2.163   3.394   6.173 -1.7216 -1.0807  1.0315
 4446SOL    HW224801   2.145   3.363   6.035  0.1399  1.5841  0.8795
 4447SOL     OW24802   2.602   3.391  16.368  0.1721  0.1769 -0.6710
 4447SOL    HW124803   2.667   3.419  16.303 -1.3729  1.1203 -1.8385
 4447SOL    HW224804   2.577   3.303  16.339 -1.2118  0.3456 -0.0108
 4448SOL     OW24805   1.243   2.633   3.314 -0.7763 -0.1839 -0.2820
 4448SOL    HW124806   1.303   2.645   3.388  0.0489 -1.0772 -0.8063
 4448SOL    HW224807   1.250   2.542   3.285  0.8317  0.0350 -0.5885
 4449SOL     OW24808   1.894   0.530  13.267 -0.2554  0.2436  0.3847
 4449SOL    HW124809   1.907   0.622  13.247 -3.0087  0.3499 -0.8544
 4449SOL    HW224810   1.858   0.527  13.355 -0.6615  0.2416  0.2168
 4450SOL     OW24811   4.542   4.104   7.752 -0.3839  0.0860  0.7277
 4450SOL    HW124812   4.595   4.178   7.781  0.8749 -0.1336 -1.0307
 4450SOL    HW224813   4.511   4.069   7.835  1.5976 -0.3434  1.2708
 4451SOL     OW24814   3.497   4.061  11.701 -0.3101 -0.0668  0.0965
 4451SOL    HW124815   3.561   4.065  11.772 -0.7876  0.9348  0.4687
 4451SOL    HW224816   3.551   4.102  11.634 -0.4141 -0.9304 -0.5043
 4452SOL     OW24817   0.685   0.147   5.567  0.1381 -0.3063 -0.5555
 4452SOL    HW124818   0.750   0.215   5.588 -0.9695  1.0276 -1.4782
 4452SOL    HW224819   0.655   0.168   5.479 -2.0839 -2.0862 -0.2065
 4453SOL     OW24820   3.402   3.489   0.175 -0.1847 -0.0784 -0.3340
 4453SOL    HW124821   3.369   3.485   0.265 -3.8507  0.2213 -1.7073
 4453SOL    HW224822   3.319   3.509   0.133  0.1537  2.8027  0.3332
 4454SOL     OW24823   0.452   2.348   9.044 -0.2455  0.4608  0.0241
 4454SOL    HW124824   0.508   2.277   9.012 -0.3897 -0.2492  1.3445
 4454SOL    HW224825   0.438   2.314   9.132 -2.1154 -1.4089 -0.9962
 4455SOL     OW24826   0.214   3.271  10.699 -0.4485  0.3241  0.6258
 4455SOL    HW124827   0.289   3.227  10.660 -1.8323 -1.2118 -0.3050
 4455SOL    HW224828   0.170   3.206  10.754  1.2318  0.0205  1.6059
 4456SOL     OW24829   2.408   3.273   2.805 -0.1008  0.3399  0.9079
 4456SOL    HW124830   2.415   3.356   2.853  1.1947 -0.2498  1.7281
 4456SOL    HW224831   2.356   3.309   2.732 -0.1814 -1.8897 -0.1446
 4457SOL     OW24832   3.853   1.057   5.571  0.3676  0.5760 -0.3469
 4457SOL    HW124833   3.788   0.998   5.608  0.0243 -0.3885 -2.4962
 4457SOL    HW224834   3.807   1.136   5.601 -0.7853 -0.4443  0.6051
 4458SOL     OW24835   1.372   4.180   8.685 -0.0615 -0.0961 -0.1961
 4458SOL    HW124836   1.450   4.184   8.740 -0.4450 -2.3071  0.4831
 4458SOL    HW224837   1.343   4.271   8.696  0.6444  0.0874  0.1563
 4459SOL     OW24838   1.794   3.788   6.965 -0.0565 -0.2080  0.2097
 4459SOL    HW124839   1.841   3.863   7.001  0.8622 -0.8286  0.2888
 4459SOL    HW224840   1.737   3.819   6.894  1.0154  0.8494 -0.1930
 4460SOL     OW24841   0.343   1.967   7.554  0.2883  0.3183  0.4989
 4460SOL    HW124842   0.434   1.981   7.526  0.0738 -1.6309 -1.1973
 4460SOL    HW224843   0.299   2.035   7.503  0.8960 -0.0741 -0.5334
 4461SOL     OW24844   0.656   3.437   2.447 -0.1755  0.3772  0.0453
 4461SOL    HW124845   0.704   3.510   2.409  3.7368 -1.6485  1.1881
 4461SOL    HW224846   0.694   3.425   2.534 -1.8917  0.5443  0.8269
 4462SOL     OW24847   2.160   3.263   5.472 -0.2931  0.4127 -0.5804
 4462SOL    HW124848   2.070   3.285   5.496  0.5769  0.9694  2.1803
 4462SOL    HW224849   2.173   3.243   5.379 -1.1520  1.7032 -0.9651
 4463SOL     OW24850   0.720   3.087   3.246 -0.2564  0.2235  0.1899
 4463SOL    HW124851   0.723   3.176   3.209  1.9113  0.5450  1.1438
 4463SOL    HW224852   0.634   3.085   3.289  0.1011 -0.2378  0.8648
 4464SOL     OW24853   2.414   0.431   7.692  0.1758 -0.0908 -0.0571
 4464SOL    HW124854   2.370   0.448   7.608  1.5982 -0.8479 -0.9715
 4464SOL    HW224855   2.403   0.514   7.737  0.4053 -0.6849  1.0840
 4465SOL     OW24856   3.633   4.203   3.970 -0.8913  0.2084 -0.0762
 4465SOL    HW124857   3.551   4.252   3.958 -1.5537 -0.0751  3.0847
 4465SOL    HW224858   3.625   4.142   3.897  3.1411  1.3305 -1.4267
 4466SOL     OW24859   1.473   3.957  14.006  0.1306 -0.0654  0.1406
 4466SOL    HW124860   1.380   3.979  14.011  0.5461  1.5388  0.8428
 4466SOL    HW224861   1.517   3.988  14.086 -1.4489  0.0364  0.9793
 4467SOL     OW24862   4.371   4.321  16.586  0.4116  0.6632  0.3257
 4467SOL    HW124863   4.383   4.332  16.492 -0.3662 -2.5756 -0.1511
 4467SOL    HW224864   4.331   4.406  16.602 -0.7458  0.6765 -2.6218
 4468SOL     OW24865   3.096   3.539  14.331  0.7685  0.7812 -0.3920
 4468SOL    HW124866   3.128   3.597  14.400 -2.6695  0.5561  1.3833
 4468SOL    HW224867   3.091   3.595  14.254 -1.2039  0.7893 -0.2478
 4469SOL     OW24868   3.449   3.949   2.242  0.3384  0.6421 -0.0466
 4469SOL    HW124869   3.503   4.001   2.300 -0.1415  0.8255  0.2323
 4469SOL    HW224870   3.452   3.865   2.287 -2.5252  1.1509  1.0401
 4470SOL     OW24871   3.113   1.486   2.124 -0.2784  0.1363  0.2110
 4470SOL    HW124872   3.125   1.494   2.219  0.1122  0.9861  0.0877
 4470SOL    HW224873   3.176   1.552   2.094 -1.1569  0.0992 -1.6759
 4471SOL     OW24874   1.351   1.637  11.878 -0.6088  0.1737 -0.1376
 4471SOL    HW124875   1.398   1.671  11.801 -3.5679  0.5029 -1.8148
 4471SOL    HW224876   1.273   1.692  11.877 -0.4068  0.4524 -0.5886
 4472SOL     OW24877   2.945   1.690   7.369 -0.2012  0.0706  0.1219
 4472SOL    HW124878   2.878   1.664   7.432  1.0313  0.1106  1.4501
 4472SOL    HW224879   2.988   1.759   7.419  0.7973 -0.2506 -0.3030
 4473SOL     OW24880   4.580   3.355   1.696 -0.3791 -0.0221  0.5385
 4473SOL    HW124881   4.652   3.362   1.758  0.0050 -1.7549  0.2897
 4473SOL    HW224882   4.581   3.434   1.641 -3.7095  1.2166  2.2503
 4474SOL     OW24883   3.654   2.682   6.926 -0.0273 -0.1448 -0.2315
 4474SOL    HW124884   3.588   2.741   6.963  0.7218  0.9646 -0.6791
 4474SOL    HW224885   3.725   2.677   6.990 -1.5613 -0.5551  1.4609
 4475SOL     OW24886   1.216   0.641   6.486 -1.0103 -0.1551 -0.1259
 4475SOL    HW124887   1.213   0.653   6.581  1.2662 -0.6243  0.0112
 4475SOL    HW224888   1.202   0.547   6.480  1.7370 -0.5800 -0.0970
 4476SOL     OW24889   1.907   2.879   8.420 -0.2674  0.0466  0.8451
 4476SOL    HW124890   1.922   2.938   8.495  1.5746 -0.5174  0.9221
 4476SOL    HW224891   1.912   2.797   8.469 -0.1931 -0.1163  0.5604
 4477SOL     OW24892   2.067   3.170   3.220  0.2355 -0.5737  0.1803
 4477SOL    HW124893   2.144   3.113   3.209  1.1946  0.8660 -0.6502
 4477SOL    HW224894   1.999   3.103   3.213  0.0578 -0.3752 -0.0102
 4478SOL     OW24895   1.891   4.012   0.408  0.0533 -0.5621 -0.0075
 4478SOL    HW124896   1.961   3.959   0.446  0.2948 -1.9229 -2.3358
 4478SOL    HW224897   1.820   3.958   0.375 -1.2339  1.2521 -0.2097
 4479SOL     OW24898   3.255   3.987   7.335 -0.0760 -0.1738  0.0965
 4479SOL    HW124899   3.256   3.891   7.329  2.8335 -0.1515  0.5071
 4479SOL    HW224900   3.345   4.011   7.354  0.9230 -2.9588 -1.0541
 4480SOL     OW24901   0.503   4.529   8.101  0.6761  0.0100  0.5942
 4480SOL    HW124902   0.588   4.510   8.141  1.4424  1.1533 -0.5109
 4480SOL    HW224903   0.484   4.442   8.065  0.2488 -0.6454  2.3612
 4481SOL     OW24904   0.043   3.383  11.307 -0.8671  0.0698 -0.3131
 4481SOL    HW124905   0.050   3.370  11.213  0.9773  0.2418 -0.2043
 4481SOL    HW224906   0.058   3.291  11.329 -0.6623  0.3869  0.8689
 4482SOL     OW24907   2.979   3.759   7.527 -0.1153  0.3235  0.1852
 4482SOL    HW124908   2.964   3.852   7.539 -1.1084  0.2196 -0.2547
 4482SOL    HW224909   3.041   3.742   7.598  1.3560  0.0648 -1.1756
 4483SOL     OW24910   2.458   4.642   7.385  0.1061  0.1433  0.7681
 4483SOL    HW124911   2.464   0.006   7.347 -0.9047 -0.6572 -1.2111
 4483SOL    HW224912   2.377   4.612   7.346 -0.9836  0.1194  3.0262
 4484SOL     OW24913   2.639   1.117   6.636 -0.3838  0.0555  0.4078
 4484SOL    HW124914   2.638   1.213   6.643 -0.5898  0.1026 -0.2311
 4484SOL    HW224915   2.704   1.093   6.570 -1.2232 -0.2591 -0.3215
 4485SOL     OW24916   3.589   0.922  11.751  0.1104  0.3528 -0.1955
 4485SOL    HW124917   3.675   0.885  11.731 -0.4761 -0.6181 -0.9183
 4485SOL    HW224918   3.601   0.906  11.844 -0.6139 -1.4552 -0.4094
 4486SOL     OW24919   2.700   1.665   4.856 -0.2849  0.2348 -0.1344
 4486SOL    HW124920   2.669   1.691   4.943  0.0723  0.1336  0.0243
 4486SOL    HW224921   2.711   1.755   4.826  1.8487  0.0718  0.1997
 4487SOL     OW24922   0.433   1.489   7.428  0.2358  0.0583  0.3573
 4487SOL    HW124923   0.447   1.549   7.501  2.0872 -1.6541  1.4015
 4487SOL    HW224924   0.364   1.433   7.464 -2.6323  2.0970 -1.9540
 4488SOL     OW24925   2.884   3.276   2.758 -0.1744 -0.7762  0.0481
 4488SOL    HW124926   2.961   3.228   2.789  0.6903  0.2109 -0.5948
 4488SOL    HW224927   2.882   3.256   2.665  1.4057 -1.4485  0.1628
 4489SOL     OW24928   2.188   2.580  10.730  0.0024  0.4771  1.1632
 4489SOL    HW124929   2.226   2.590  10.817  0.2730  1.9220  0.8743
 4489SOL    HW224930   2.242   2.651  10.696 -0.1694  0.1161  0.1396
 4490SOL     OW24931   0.535   3.219  13.276 -0.1310 -0.3292 -0.3051
 4490SOL    HW124932   0.531   3.131  13.315  0.1005 -0.1999  0.0056
 4490SOL    HW224933   0.467   3.266  13.324  0.4613 -0.2180  0.4293
 4491SOL     OW24934   3.227   1.990   6.501  0.3888  0.1598 -0.0003
 4491SOL    HW124935   3.175   2.038   6.565  1.1469  0.1059  0.6530
 4491SOL    HW224936   3.224   1.904   6.543 -1.9910 -0.1704 -0.8781
 4492SOL     OW24937   3.855   3.204   2.756  0.0654 -0.1450  0.9380
 4492SOL    HW124938   3.824   3.114   2.758  2.3505 -0.9076  2.2883
 4492SOL    HW224939   3.820   3.229   2.670 -3.1518 -0.4659  2.1727
 4493SOL     OW24940   0.109   1.063   6.228  0.2952 -0.1391 -0.3414
 4493SOL    HW124941   0.091   1.155   6.208  0.0276  0.0429  0.7148
 4493SOL    HW224942   0.195   1.076   6.268  0.6162 -0.0730 -1.0685
 4494SOL     OW24943   0.521   3.957  17.678  0.3617 -0.2909  0.6520
 4494SOL    HW124944   0.543   4.031  17.621 -0.6371  1.2751  2.3128
 4494SOL    HW224945   0.449   3.907  17.640  2.1883 -2.8840  0.6249
 4495SOL     OW24946   3.417   2.073   4.005 -0.9072  0.1260  0.0159
 4495SOL    HW124947   3.508   2.102   3.999 -0.0159 -2.4350  1.0220
 4495SOL    HW224948   3.430   1.978   4.010 -0.4116  0.2068  0.2018
 4496SOL     OW24949   3.711   0.963   7.771  0.0172  0.3970  0.7957
 4496SOL    HW124950   3.783   1.022   7.792  1.4973  0.0797 -3.4853
 4496SOL    HW224951   3.642   1.016   7.809 -1.5357 -0.8708 -0.2401
 4497SOL     OW24952   3.325   0.242   7.523 -0.0170 -0.7986 -0.7054
 4497SOL    HW124953   3.391   0.284   7.579 -1.2791  1.0653 -0.6288
 4497SOL    HW224954   3.367   0.217   7.441  0.4134  0.3792 -0.8494
 4498SOL     OW24955   0.692   2.146   7.793  0.1116 -0.4629 -0.1779
 4498SOL    HW124956   0.697   2.238   7.770 -1.9755 -0.1146  0.7534
 4498SOL    HW224957   0.679   2.100   7.710 -3.0216 -0.9702  0.5682
 4499SOL     OW24958   2.428   3.960  11.913  0.0759  0.0576 -0.0460
 4499SOL    HW124959   2.504   3.918  11.954  0.5189  0.7219 -0.2023
 4499SOL    HW224960   2.462   3.950  11.825  0.6511 -0.8055  0.2713
 4500SOL     OW24961   2.506   4.610   0.091  0.1352 -0.5881  0.5300
 4500SOL    HW124962   2.581   4.606   0.032 -0.2848  0.2299 -0.0589
 4500SOL    HW224963   2.492   4.703   0.107 -0.2657 -0.3277 -1.3949
 4501SOL     OW24964   2.439   3.111  11.823 -0.1413 -0.0512  0.0197
 4501SOL    HW124965   2.412   3.044  11.885 -0.4038  0.0284 -0.0099
 4501SOL    HW224966   2.433   3.058  11.743 -2.1872  0.2658 -0.0196
 4502SOL     OW24967   1.482   3.140   1.681 -0.1383  0.2286  0.5179
 4502SOL    HW124968   1.399   3.165   1.722 -0.2010  0.6641  0.1265
 4502SOL    HW224969   1.448   3.063   1.636 -0.3853  0.3955  0.4118
 4503SOL     OW24970   3.745   1.012   8.707  0.4911 -0.7325 -0.0384
 4503SOL    HW124971   3.732   1.077   8.776  0.4851 -0.2346 -0.5099
 4503SOL    HW224972   3.780   1.060   8.632  0.8374 -2.5127 -1.0099
 4504SOL     OW24973   2.233   4.706   4.825 -0.8213  0.2163 -0.5023
 4504SOL    HW124974   2.313   4.682   4.873 -1.2706 -1.2868 -0.5011
 4504SOL    HW224975   2.220   4.627   4.773 -0.5327  0.0601 -0.3358
 4505SOL     OW24976   1.382   0.101   7.439  0.2698  0.2472  0.4299
 4505SOL    HW124977   1.334   0.181   7.418  0.4485  0.4874  0.9338
 4505SOL    HW224978   1.470   0.138   7.426 -0.0617 -0.0563 -2.7649
 4506SOL     OW24979   0.955   1.600   2.041  0.7448  0.1706 -0.2885
 4506SOL    HW124980   1.027   1.591   1.978  0.6771 -0.6107 -0.2581
 4506SOL    HW224981   1.006   1.578   2.119  2.2879 -1.2172 -1.6839
 4507SOL     OW24982   0.286   2.937   4.566  0.2481 -0.6676  0.3162
 4507SOL    HW124983   0.241   3.008   4.521 -0.0678 -0.9316  0.2122
 4507SOL    HW224984   0.369   2.981   4.583 -2.0587  2.0447  4.3607
 4508SOL     OW24985   2.777   0.780   7.594 -0.0072  0.2572  0.2565
 4508SOL    HW124986   2.772   0.719   7.668 -1.0235 -0.0898 -0.1062
 4508SOL    HW224987   2.844   0.846   7.610 -0.4704  0.2846  2.1120
 4509SOL     OW24988   0.105   4.046   3.880  0.2692 -0.3721 -0.0140
 4509SOL    HW124989   0.044   4.037   3.807  0.9309 -0.1912 -0.5956
 4509SOL    HW224990   0.185   4.070   3.833 -0.0568 -0.5828 -0.6765
 4510SOL     OW24991   1.085   1.449   8.866 -0.7651  0.0611  0.4488
 4510SOL    HW124992   1.126   1.416   8.786 -0.9412  1.9213 -0.4089
 4510SOL    HW224993   1.053   1.534   8.835 -0.5535 -0.3698 -0.9342
 4511SOL     OW24994   3.925   2.610   6.694  0.0432  0.0780  0.3467
 4511SOL    HW124995   3.985   2.657   6.752 -2.0366  1.0975  1.6379
 4511SOL    HW224996   3.894   2.675   6.631 -3.2472 -2.2147 -0.4039
 4512SOL     OW24997   1.937   1.197   1.830 -0.1443 -0.4366 -0.7524
 4512SOL    HW124998   2.013   1.173   1.883 -0.9756 -0.2591  0.5063
 4512SOL    HW224999   1.968   1.276   1.786  0.4261  0.5649  1.4775
 4513SOL     OW25000   1.406   3.076  11.528  0.1778  0.3577  0.7118
 4513SOL    HW125001   1.481   3.095  11.472 -0.1671  0.5453  0.3092
 4513SOL    HW225002   1.416   2.984  11.551  1.6271  0.7704  1.7772
 4514SOL     OW25003   3.768   2.188  16.373 -0.4032  0.4393 -0.2394
 4514SOL    HW125004   3.788   2.282  16.367  0.5214  0.3180  0.8688
 4514SOL    HW225005   3.683   2.193  16.417  0.1293  0.5226  0.7989
 4515SOL     OW25006   2.195   1.149   8.107 -0.1870  0.0108 -0.7605
 4515SOL    HW125007   2.107   1.150   8.069 -0.2703  1.5065 -0.5098
 4515SOL    HW225008   2.174   1.160   8.200  0.0228  1.3982 -0.8818
 4516SOL     OW25009   4.557   0.693   6.196 -0.0713  0.9862  0.3478
 4516SOL    HW125010   4.496   0.759   6.163  1.5603  1.6996 -1.2375
 4516SOL    HW225011   4.615   0.673   6.122 -2.3650  0.8977 -1.4236
 4517SOL     OW25012   0.614   4.675   1.083 -0.0786 -0.8046  0.7193
 4517SOL    HW125013   0.519   4.661   1.087 -0.1749  0.0691  1.8102
 4517SOL    HW225014   0.641   4.609   1.019  4.4391 -0.7373  2.5617
 4518SOL     OW25015   0.408   3.793   7.729 -0.5353 -0.3167 -0.1211
 4518SOL    HW125016   0.475   3.724   7.736 -0.4960  0.0341  2.9953
 4518SOL    HW225017   0.365   3.767   7.648  0.0922 -1.3173 -0.1386
 4519SOL     OW25018   0.883   4.416   2.187  0.8256  0.4969  0.6528
 4519SOL    HW125019   0.800   4.460   2.170  0.2788 -0.7434  0.0837
 4519SOL    HW225020   0.917   4.480   2.250 -0.1403  1.2091  0.4421
 4520SOL     OW25021   2.205   1.997   1.285  0.1139  0.6786  0.3676
 4520SOL    HW125022   2.290   1.957   1.272 -0.6292 -0.4164 -1.0762
 4520SOL    HW225023   2.166   1.930   1.342  2.1850  0.1868  1.1842
 4521SOL     OW25024   2.585   3.769   4.790  0.3656  0.0800 -0.7193
 4521SOL    HW125025   2.654   3.719   4.746  0.1815 -1.7376  1.0713
 4521SOL    HW225026   2.586   3.723   4.874 -2.2553  0.7762 -0.3061
 4522SOL     OW25027   3.736   4.356   7.975 -0.5579 -0.4748 -0.2468
 4522SOL    HW125028   3.829   4.371   7.993 -0.0157  0.2313 -3.6161
 4522SOL    HW225029   3.736   4.269   7.936  2.7280 -1.1482  1.2783
 4523SOL     OW25030   3.649   3.912   1.099  0.0601 -0.6131 -0.2087
 4523SOL    HW125031   3.600   3.985   1.061  0.5337 -0.5169 -0.6318
 4523SOL    HW225032   3.623   3.921   1.191 -2.2177 -2.4743 -0.6607
 4524SOL     OW25033   3.804   4.017   4.126  0.0244 -0.0375  0.3582
 4524SOL    HW125034   3.752   3.960   4.182  0.3999 -1.8254 -1.1399
 4524SOL    HW225035   3.734   4.076   4.097  1.4188  0.8472 -1.1778
 4525SOL     OW25036   0.165   1.127   4.378  0.1637  0.0898 -0.1130
 4525SOL    HW125037   0.161   1.064   4.450 -1.2992  0.8871  0.5132
 4525SOL    HW225038   0.257   1.115   4.354 -0.1215 -0.8093 -0.7623
 4526SOL     OW25039   3.072   0.392  11.062 -0.0376  0.3073 -0.4463
 4526SOL    HW125040   2.992   0.358  11.102 -0.0932  1.8807  0.7986
 4526SOL    HW225041   3.139   0.356  11.121  0.4291  1.2762 -0.3819
 4527SOL     OW25042   3.977   0.375   1.627 -0.1529  0.9989  0.0546
 4527SOL    HW125043   3.897   0.382   1.576 -1.2457  0.4469  1.6800
 4527SOL    HW225044   3.949   0.442   1.689  2.5422  0.9232  1.3730
 4528SOL     OW25045   1.318   4.110   1.048 -0.3280 -0.0801 -0.2358
 4528SOL    HW125046   1.365   4.088   1.128  0.8348 -1.5100 -1.3315
 4528SOL    HW225047   1.248   4.045   1.056 -1.9290  1.7356  0.5275
 4529SOL     OW25048   2.909   0.318  12.240  0.1118 -0.6132 -0.4378
 4529SOL    HW125049   2.972   0.252  12.211 -0.6551 -0.4748 -2.3765
 4529SOL    HW225050   2.847   0.332  12.168  0.0862 -0.5442 -0.4022
 4530SOL     OW25051   2.371   3.505   4.527  0.2515 -0.5769 -0.3483
 4530SOL    HW125052   2.281   3.514   4.496  0.1130  0.2202  0.2796
 4530SOL    HW225053   2.357   3.466   4.613  3.8483 -0.2831  0.3715
 4531SOL     OW25054   1.697   2.184   6.250  0.1522 -0.4806  0.7305
 4531SOL    HW125055   1.651   2.171   6.166  0.3843  0.0773  0.5218
 4531SOL    HW225056   1.700   2.278   6.263 -2.7250 -0.3871  0.7192
 4532SOL     OW25057   3.457   1.861  15.149  0.1646  0.6370 -0.4621
 4532SOL    HW125058   3.444   1.817  15.065 -1.5916  0.8125 -0.2913
 4532SOL    HW225059   3.493   1.795  15.208 -0.7901 -1.5941 -2.4013
 4533SOL     OW25060   4.627   1.116   5.696  0.4215 -0.2411  0.9355
 4533SOL    HW125061   4.640   1.173   5.620  2.5569  0.3888  1.7666
 4533SOL    HW225062   4.533   1.125   5.711  0.6501 -1.5090  3.0837
 4534SOL     OW25063   3.724   1.316   4.639 -0.5571 -0.1478 -0.4596
 4534SOL    HW125064   3.650   1.340   4.694  0.1464 -0.7113  0.7338
 4534SOL    HW225065   3.747   1.401   4.602 -0.2883  0.2105  0.5076
 4535SOL     OW25066   2.501   1.748   6.426 -0.5212  0.4163  0.2927
 4535SOL    HW125067   2.470   1.723   6.339  2.6661  0.5292 -0.8689
 4535SOL    HW225068   2.572   1.806   6.399 -1.3755  1.1331 -0.4256
 4536SOL     OW25069   2.721   2.615   0.688 -0.3256 -0.1694  0.3636
 4536SOL    HW125070   2.804   2.621   0.735 -0.3415 -0.1986  0.3957
 4536SOL    HW225071   2.737   2.544   0.626  1.5988  0.8328 -0.2828
 4537SOL     OW25072   4.012   4.328   1.943  0.3269  0.2663 -0.2054
 4537SOL    HW125073   4.073   4.346   2.015  0.2957  0.8355 -0.3243
 4537SOL    HW225074   4.067   4.285   1.879 -0.1874  2.5578 -2.1834
 4538SOL     OW25075   1.722   3.114   0.479 -0.4769  0.0559  0.2827
 4538SOL    HW125076   1.812   3.084   0.471  0.1620  1.2828  3.0595
 4538SOL    HW225077   1.730   3.197   0.433  0.6780 -1.2495 -1.8540
 4539SOL     OW25078   3.274   3.301   7.328  0.3527  0.1265 -0.1900
 4539SOL    HW125079   3.285   3.396   7.329  0.3884  0.0925  4.0861
 4539SOL    HW225080   3.367   3.280   7.333  0.2872  0.0233  0.5972
 4540SOL     OW25081   0.277   0.326   9.276  0.0470 -0.0336  0.1275
 4540SOL    HW125082   0.266   0.234   9.254  2.1378 -0.5636  1.2432
 4540SOL    HW225083   0.266   0.315   9.371 -2.5325 -1.6639 -0.3734
 4541SOL     OW25084   3.417   3.086   6.847 -0.2535  0.0340 -0.2755
 4541SOL    HW125085   3.328   3.061   6.869 -0.5056  1.4483  0.3080
 4541SOL    HW225086   3.456   3.077   6.934  0.7646 -1.5336 -0.8942
 4542SOL     OW25087   2.024   1.342  10.800  0.2145  0.0306 -0.3228
 4542SOL    HW125088   1.929   1.334  10.791  0.3940 -1.3915 -0.9933
 4542SOL    HW225089   2.046   1.312  10.712 -0.9023 -0.7124 -0.3445
 4543SOL     OW25090   1.634   0.550  11.394 -0.8055 -0.0779 -0.4567
 4543SOL    HW125091   1.558   0.576  11.342 -1.8385 -1.4605  0.3874
 4543SOL    HW225092   1.668   0.486  11.331  0.7251  0.7905 -0.5213
 4544SOL     OW25093   2.335   2.302   6.404 -0.4239 -0.4417 -0.2560
 4544SOL    HW125094   2.296   2.224   6.442 -0.3034 -0.7502 -0.7608
 4544SOL    HW225095   2.424   2.296   6.440 -0.1440  3.1404 -0.3012
 4545SOL     OW25096   3.512   2.676   3.955 -0.0309  0.0017 -0.2900
 4545SOL    HW125097   3.466   2.639   4.031  1.2208  1.1284  1.0234
 4545SOL    HW225098   3.475   2.763   3.940 -0.1280 -0.0892 -0.5778
 4546SOL     OW25099   0.087   1.560   4.366 -0.0369 -0.8533  0.0510
 4546SOL    HW125100   0.111   1.492   4.428 -1.2488 -0.6904  0.6967
 4546SOL    HW225101   0.125   1.635   4.411  1.5349 -0.6001 -1.7052
 4547SOL     OW25102   0.154   1.292   6.503  0.3092  0.0399  0.0768
 4547SOL    HW125103   0.196   1.239   6.571  2.3443 -0.4031 -1.5232
 4547SOL    HW225104   0.217   1.363   6.492  0.8386 -0.2098  1.4615
 4548SOL     OW25105   4.040   3.240   3.792 -0.1987 -0.6620  0.2175
 4548SOL    HW125106   4.058   3.146   3.794  2.7467 -0.1220 -1.3929
 4548SOL    HW225107   3.986   3.234   3.713  0.2154 -4.3052  0.2067
 4549SOL     OW25108   2.330   0.983   2.328  0.0169  0.7990  0.2500
 4549SOL    HW125109   2.303   0.988   2.420 -1.7440 -0.6684 -0.1823
 4549SOL    HW225110   2.281   1.063   2.306 -0.0067  0.5926 -0.4343
 4550SOL     OW25111   2.926   3.506   9.320 -0.0293  0.2003  0.4828
 4550SOL    HW125112   2.877   3.474   9.396 -0.3648 -1.7823 -0.5878
 4550SOL    HW225113   2.954   3.594   9.345  2.5323  0.0111 -1.7802
 4551SOL     OW25114   0.263   4.343   5.766 -0.0449  0.2363 -0.1948
 4551SOL    HW125115   0.287   4.275   5.703 -0.9404 -1.4308  1.2627
 4551SOL    HW225116   0.225   4.302   5.844  0.7616  1.1219  0.6752
 4552SOL     OW25117   0.229   0.669   4.979 -0.0832 -0.6102 -0.0343
 4552SOL    HW125118   0.293   0.730   4.943 -1.2608  0.4654 -0.2991
 4552SOL    HW225119   0.225   0.686   5.074 -0.2954 -0.2998 -0.0979
 4553SOL     OW25120   3.913   4.429  12.212  0.1026  0.0825 -0.1040
 4553SOL    HW125121   3.908   4.438  12.307  1.7040  0.2051 -0.0303
 4553SOL    HW225122   3.879   4.517  12.195  0.9773  0.7105  1.4136
 4554SOL     OW25123   1.827   0.937   3.503 -0.5151 -0.3171  0.0028
 4554SOL    HW125124   1.832   0.894   3.418  0.0975  0.0945 -0.1717
 4554SOL    HW225125   1.830   0.856   3.555  0.2967 -0.0764  0.3226
 4555SOL     OW25126   2.282   1.197   6.904  0.3133  0.1990  0.7319
 4555SOL    HW125127   2.193   1.230   6.915 -0.2494 -1.6430  1.6882
 4555SOL    HW225128   2.275   1.158   6.817  1.2564 -1.6956  1.4980
 4556SOL     OW25129   2.176   0.444   6.432 -0.5943 -0.4918  0.3677
 4556SOL    HW125130   2.223   0.376   6.480 -0.7097 -0.1105  1.0170
 4556SOL    HW225131   2.102   0.391   6.402 -2.4065  2.3162 -0.0996
 4557SOL     OW25132   0.189   0.781   2.734  0.0805  0.6546  0.1720
 4557SOL    HW125133   0.282   0.763   2.750 -0.2726 -2.3546 -1.0828
 4557SOL    HW225134   0.193   0.871   2.702 -0.6637  0.2974 -0.9052
 4558SOL     OW25135   3.988   1.657   2.850  0.0320  0.1432  0.2620
 4558SOL    HW125136   3.914   1.717   2.845 -0.9323 -1.0767  0.0125
 4558SOL    HW225137   4.027   1.669   2.937  0.2177  1.4933 -0.0129
 4559SOL     OW25138   0.472   2.892   6.806 -0.2549 -0.3149 -0.0859
 4559SOL    HW125139   0.523   2.952   6.859 -1.5942  2.1889 -1.6479
 4559SOL    HW225140   0.386   2.933   6.799  0.5213  0.9158 -2.4397
 4560SOL     OW25141   2.025   3.799   4.879 -0.9858  0.0808 -0.4869
 4560SOL    HW125142   1.947   3.752   4.908 -0.7562 -0.7646 -1.2226
 4560SOL    HW225143   2.037   3.760   4.793  2.6087  1.4831 -0.6383
 4561SOL     OW25144   2.056   3.747   6.567 -0.7177 -0.0251  0.2326
 4561SOL    HW125145   1.971   3.767   6.527  0.2419  2.3119 -0.6038
 4561SOL    HW225146   2.114   3.806   6.519 -0.1790 -1.1688 -0.5156
 4562SOL     OW25147   3.414   3.554  11.271  0.3455 -0.4400  0.0487
 4562SOL    HW125148   3.328   3.552  11.230 -0.0190 -1.0138  0.8391
 4562SOL    HW225149   3.422   3.468  11.314  1.5152 -1.1847 -1.6442
 4563SOL     OW25150   1.929   4.723   8.454  0.1407  0.4098  0.0936
 4563SOL    HW125151   1.992   0.010   8.382  0.0724  0.1612 -0.0028
 4563SOL    HW225152   1.852   0.047   8.422 -1.0167 -1.0414  0.7165
 4564SOL     OW25153   1.443   1.004   8.232  0.0074 -0.4818  0.0010
 4564SOL    HW125154   1.387   1.001   8.310 -0.4072  0.6872 -0.2552
 4564SOL    HW225155   1.418   0.927   8.182  0.8444  0.0865 -1.2891
 4565SOL     OW25156   2.851   2.991   9.690  0.3858  0.0157 -0.4917
 4565SOL    HW125157   2.870   2.897   9.689  3.4884  0.6586 -0.8679
 4565SOL    HW225158   2.936   3.025   9.718 -0.2623  3.2127 -2.4840
 4566SOL     OW25159   0.181   2.342   8.171 -0.0912 -0.6673 -0.0900
 4566SOL    HW125160   0.173   2.254   8.135 -2.1357 -1.6607  2.7505
 4566SOL    HW225161   0.259   2.376   8.127 -0.0897  0.4565  0.7923
 4567SOL     OW25162   1.101   0.580   8.923 -0.1818  0.6618 -0.2455
 4567SOL    HW125163   1.157   0.545   8.992 -1.5798 -1.4686 -0.1881
 4567SOL    HW225164   1.009   0.581   8.951 -0.5167 -4.2917 -1.1744
 4568SOL     OW25165   1.577   1.386   7.125 -0.3305 -0.2735  0.2270
 4568SOL    HW125166   1.614   1.395   7.212  0.6801  1.5752 -0.4025
 4568SOL    HW225167   1.540   1.473   7.109  1.9029  0.7451  0.7564
 4569SOL     OW25168   3.485   1.696  10.897 -0.5097  0.1973  0.0155
 4569SOL    HW125169   3.439   1.670  10.818  1.8191  0.1471 -1.3231
 4569SOL    HW225170   3.415   1.747  10.937 -0.5987  1.8435 -2.2478
 4570SOL     OW25171   2.875   3.384   5.335  0.7354 -0.6901 -0.0259
 4570SOL    HW125172   2.818   3.418   5.266  0.6969 -1.6224 -0.4524
 4570SOL    HW225173   2.811   3.335   5.387 -0.2875  0.7723  0.0753
 4571SOL     OW25174   3.181   4.616   2.823 -0.3802 -0.1616 -0.0549
 4571SOL    HW125175   3.127   4.540   2.846  2.0351 -2.2250 -1.2231
 4571SOL    HW225176   3.182   4.612   2.727 -0.2879 -0.4771 -0.0392
 4572SOL     OW25177   3.177   1.811   3.645 -0.1550  0.2773 -0.0027
 4572SOL    HW125178   3.129   1.738   3.606 -0.2012  0.8073 -0.9583
 4572SOL    HW225179   3.242   1.827   3.577 -1.8395  0.8009 -1.4960
 4573SOL     OW25180   1.409   0.627  16.477 -0.1583 -0.2091 -0.2175
 4573SOL    HW125181   1.446   0.696  16.422 -0.3843 -1.0726 -1.4607
 4573SOL    HW225182   1.421   0.675  16.558 -1.4172  2.6955 -1.7404
 4574SOL     OW25183   4.109   2.385  12.150  0.1111  0.1872  0.1600
 4574SOL    HW125184   4.053   2.308  12.151  0.0539  0.2494  2.2870
 4574SOL    HW225185   4.119   2.400  12.244  0.8468  0.5732  0.0202
 4575SOL     OW25186   3.736   1.674   1.960 -0.4296  0.0103 -0.2969
 4575SOL    HW125187   3.750   1.583   1.984  0.0891  0.3319  0.6224
 4575SOL    HW225188   3.649   1.665   1.920 -0.0288 -1.4566 -0.8376
 4576SOL     OW25189   0.034   2.845  13.285  0.4159 -0.4786 -0.2613
 4576SOL    HW125190   0.017   2.758  13.249  1.4240 -0.7550 -0.0718
 4576SOL    HW225191   4.691   2.856  13.353  0.9447  3.1116 -0.3153
 4577SOL     OW25192   4.057   0.469  10.221 -0.0907  0.9550  0.1192
 4577SOL    HW125193   4.050   0.381  10.185  1.6954  0.9597 -0.2383
 4577SOL    HW225194   4.089   0.518  10.145 -0.7238  0.2312 -0.6226
 4578SOL     OW25195   2.684   0.707  12.355 -0.1221  0.0014 -0.4892
 4578SOL    HW125196   2.606   0.758  12.378  0.3288  0.6979 -0.5031
 4578SOL    HW225197   2.747   0.763  12.310  2.0400 -1.6505  0.4556
 4579SOL     OW25198   4.238   1.804   2.102 -0.1185  0.8032  0.3052
 4579SOL    HW125199   4.146   1.818   2.078 -0.4046 -1.5426  0.0378
 4579SOL    HW225200   4.268   1.887   2.138  0.1140 -0.0060  1.9466
 4580SOL     OW25201   4.242   3.005   5.777 -0.2236 -0.3287  0.0749
 4580SOL    HW125202   4.152   3.032   5.795  0.8528  1.0468  3.5215
 4580SOL    HW225203   4.262   3.045   5.693  1.1881  0.8153  0.9410
 4581SOL     OW25204   4.392   1.212   9.832 -0.4813 -0.3807 -0.5329
 4581SOL    HW125205   4.457   1.176   9.772  0.3346 -1.7621  1.1690
 4581SOL    HW225206   4.404   1.148   9.903  2.7454  0.2386 -0.5497
 4582SOL     OW25207   1.035   1.702  16.378 -0.0625  0.8182 -0.4887
 4582SOL    HW125208   1.058   1.619  16.420 -0.6656  1.4537  1.1125
 4582SOL    HW225209   0.947   1.721  16.412 -0.4222 -1.6932 -0.0228
 4583SOL     OW25210   2.927   0.341   0.376 -0.4104  0.5078  0.6871
 4583SOL    HW125211   2.903   0.360   0.285  0.7259  0.2306  0.3313
 4583SOL    HW225212   2.991   0.271   0.361 -0.7744  0.6506 -1.5994
 4584SOL     OW25213   3.750   1.228   7.370  0.0304  0.5146 -0.1889
 4584SOL    HW125214   3.842   1.228   7.394  0.0794  2.9498 -0.4201
 4584SOL    HW225215   3.751   1.148   7.317  2.0497  0.4216  0.0099
 4585SOL     OW25216   1.039   0.775  16.655  0.1065 -0.6583  0.1902
 4585SOL    HW125217   1.092   0.829  16.714 -1.2899  0.8192  0.1060
 4585SOL    HW225218   1.086   0.790  16.573  0.4593  0.5563  0.6081
 4586SOL     OW25219   4.549   4.615   4.523  0.0059 -0.6488  0.2055
 4586SOL    HW125220   4.563   4.689   4.582  2.9724 -0.6902 -0.4745
 4586SOL    HW225221   4.514   4.546   4.580  1.2488 -1.2018  0.3021
 4587SOL     OW25222   0.225   3.036   5.203  0.4881 -0.1769 -0.0106
 4587SOL    HW125223   0.156   3.044   5.269 -1.4161  1.0974 -2.1348
 4587SOL    HW225224   0.210   3.124   5.168 -1.1767 -0.2970  0.3809
 4588SOL     OW25225   1.150   3.910   1.002 -0.3647  0.1515  0.1731
 4588SOL    HW125226   1.137   3.847   1.072  1.8548 -0.6783 -0.1648
 4588SOL    HW225227   1.203   3.858   0.941 -1.0376 -1.3970  0.9303
 4589SOL     OW25228   1.415   3.775   5.224 -0.1697  0.3033 -0.4325
 4589SOL    HW125229   1.448   3.863   5.207  0.0418  0.9490  3.3542
 4589SOL    HW225230   1.419   3.773   5.320 -1.1241 -1.3670 -0.4435
 4590SOL     OW25231   0.129   0.696  17.513 -0.1655 -0.3330 -0.9033
 4590SOL    HW125232   0.104   0.606  17.490  1.4624 -0.3423 -2.5938
 4590SOL    HW225233   0.046   0.718  17.556  0.4143  1.5899 -0.7979
 4591SOL     OW25234   1.297   2.522  14.064 -0.2939 -0.6160  0.0610
 4591SOL    HW125235   1.262   2.596  14.114  2.9548  0.3030  0.9959
 4591SOL    HW225236   1.388   2.516  14.094  0.0028 -0.9385 -0.9080
 4592SOL     OW25237   1.912   3.669   3.499  0.0436  0.1273  0.2947
 4592SOL    HW125238   1.901   3.606   3.427 -0.8931  0.7300 -0.0919
 4592SOL    HW225239   1.884   3.754   3.465 -2.6306 -1.3176 -1.1806
 4593SOL     OW25240   3.487   0.373   7.713 -0.3808  0.7573 -0.9162
 4593SOL    HW125241   3.421   0.441   7.699 -0.1858  1.2095  0.3158
 4593SOL    HW225242   3.552   0.434   7.750 -0.2913  0.2227 -0.2029
 4594SOL     OW25243   0.320   1.125   7.583 -0.7882  0.0030  0.4968
 4594SOL    HW125244   0.381   1.179   7.633 -0.3790 -1.4021  1.5184
 4594SOL    HW225245   0.268   1.094   7.657 -2.5121 -0.3900 -0.8864
 4595SOL     OW25246   4.006   0.800   5.215 -0.2147 -0.2251  0.2547
 4595SOL    HW125247   4.017   0.892   5.239  0.8033  0.0882 -1.4320
 4595SOL    HW225248   3.917   0.785   5.246 -0.5536 -0.0987 -0.6872
 4596SOL     OW25249   1.771   0.819   8.308 -0.7446  0.8404 -0.4666
 4596SOL    HW125250   1.740   0.901   8.269 -0.9697  0.5968 -0.7991
 4596SOL    HW225251   1.858   0.841   8.342 -1.2954  0.3658  1.2310
 4597SOL     OW25252   2.624   4.480   9.672  0.0906 -0.3464  0.8611
 4597SOL    HW125253   2.687   4.542   9.710 -1.1118  0.9093  0.8016
 4597SOL    HW225254   2.685   4.407   9.658 -1.0860 -1.0841 -0.3601
 4598SOL     OW25255   3.990   2.574   4.359 -0.5625 -0.8119  0.1632
 4598SOL    HW125256   4.061   2.516   4.386  0.2854  0.3222  0.3706
 4598SOL    HW225257   3.953   2.605   4.442  1.9055  3.7602 -0.4175
 4599SOL     OW25258   4.693   3.138   2.590 -0.1076 -0.5840  0.2897
 4599SOL    HW125259   4.720   3.228   2.571 -3.1289 -0.0142 -1.3061
 4599SOL    HW225260   4.683   3.104   2.501  1.6252  0.6265 -0.3602
 4600SOL     OW25261   4.406   1.420  17.393 -0.4886 -0.2919 -0.3352
 4600SOL    HW125262   4.407   1.386  17.483 -0.2055  1.4389  0.3093
 4600SOL    HW225263   4.474   1.487  17.403 -0.4520 -0.4537  0.4863
 4601SOL     OW25264   4.697   1.076   4.105 -0.0509 -0.0909  0.0071
 4601SOL    HW125265   4.627   1.020   4.073 -1.4079  1.8899 -0.4353
 4601SOL    HW225266   0.038   1.011   4.133 -0.5307 -0.1342  1.0104
 4602SOL     OW25267   1.808   0.542   8.934 -0.2246 -0.8443  0.3667
 4602SOL    HW125268   1.876   0.575   8.993 -0.8571  0.7101  0.2180
 4602SOL    HW225269   1.753   0.495   8.996 -0.2202 -1.4466 -0.0822
 4603SOL     OW25270   0.795   2.275   5.386 -0.5869 -0.2854 -0.1567
 4603SOL    HW125271   0.809   2.181   5.385  0.3037 -0.1606  1.1551
 4603SOL    HW225272   0.724   2.276   5.321 -0.3362 -1.1947 -0.4354
 4604SOL     OW25273   2.981   2.641  11.154 -0.0307 -0.0383  0.1546
 4604SOL    HW125274   2.950   2.638  11.063  0.7028 -1.9595 -0.0408
 4604SOL    HW225275   3.073   2.664  11.141 -0.1720 -0.5057 -1.7736
 4605SOL     OW25276   1.945   2.804   7.234  0.4331  0.1201 -0.1935
 4605SOL    HW125277   1.892   2.843   7.164  1.7320 -0.1584 -1.3094
 4605SOL    HW225278   2.010   2.749   7.192  1.1051  0.1039  0.8612
 4606SOL     OW25279   0.295   1.772   3.431 -0.1749  1.2660 -0.7498
 4606SOL    HW125280   0.378   1.809   3.461 -0.8311  0.1304  2.4738
 4606SOL    HW225281   0.268   1.844   3.373 -0.3917  2.2843  0.6135
 4607SOL     OW25282   4.318   3.327  11.039 -0.5378 -0.2342  0.0364
 4607SOL    HW125283   4.255   3.337  11.109  0.8060 -0.5545  1.2859
 4607SOL    HW225284   4.270   3.289  10.965  0.3170  0.0871 -0.6971
 4608SOL     OW25285   3.883   0.364   3.695 -0.3887 -0.1437  0.0932
 4608SOL    HW125286   3.942   0.409   3.756 -2.4373  1.3684  0.9808
 4608SOL    HW225287   3.885   0.270   3.710  1.6893  0.1113  1.4558
 4609SOL     OW25288   4.648   2.452   1.856  0.4518  0.2897 -0.1599
 4609SOL    HW125289   4.704   2.514   1.810  1.5063 -0.4934  0.0764
 4609SOL    HW225290   4.710   2.382   1.873  0.8338  1.0566  1.5421
 4610SOL     OW25291   3.373   3.156   6.040 -0.1232  0.2534 -0.6606
 4610SOL    HW125292   3.439   3.175   6.108  0.1579 -1.9426 -0.3348
 4610SOL    HW225293   3.376   3.237   5.989  1.7868  1.0776  0.7571
 4611SOL     OW25294   1.474   4.018   9.418  0.2528  0.5555 -0.6913
 4611SOL    HW125295   1.500   4.011   9.510 -0.3310 -2.5401 -0.7484
 4611SOL    HW225296   1.459   3.925   9.402 -0.7465  0.5476  0.2738
 4612SOL     OW25297   0.482   3.252   3.369 -0.2082  0.4308 -0.1136
 4612SOL    HW125298   0.445   3.244   3.457 -2.1260 -0.0380 -0.9845
 4612SOL    HW225299   0.405   3.241   3.315  0.5592 -2.4165 -0.5875
 4613SOL     OW25300   3.008   1.244  12.890  0.5876  0.1869  0.1566
 4613SOL    HW125301   3.092   1.238  12.844  1.2397 -0.6315  1.4714
 4613SOL    HW225302   2.983   1.329  12.854 -0.3913 -0.1649  0.0056
 4614SOL     OW25303   3.102   1.263   7.228 -0.0515  0.5051  0.2484
 4614SOL    HW125304   3.062   1.205   7.162  2.1088 -2.0376  1.1635
 4614SOL    HW225305   3.024   1.310   7.259 -0.7756 -0.5175 -0.0100
 4615SOL     OW25306   1.113   4.237  13.632  0.3975 -0.8937 -0.0949
 4615SOL    HW125307   1.118   4.285  13.549 -1.1120 -2.0597 -0.8722
 4615SOL    HW225308   1.076   4.311  13.681  1.5732 -0.5283  0.2225
 4616SOL     OW25309   2.231   2.392   5.744 -0.4502  0.3842  0.0539
 4616SOL    HW125310   2.169   2.329   5.781 -0.6858  0.7721  0.3146
 4616SOL    HW225311   2.230   2.362   5.653 -1.8498  1.0606 -0.1558
 4617SOL     OW25312   0.533   1.056   7.839 -0.1723 -0.7085 -0.5407
 4617SOL    HW125313   0.544   0.965   7.866  2.3611  0.3410  1.9620
 4617SOL    HW225314   0.552   1.105   7.919 -1.6066 -1.0977  0.0214
 4618SOL     OW25315   1.544   2.838  13.067  0.1447  0.1467  0.0901
 4618SOL    HW125316   1.565   2.829  12.974  0.2148 -1.2124  0.2404
 4618SOL    HW225317   1.453   2.867  13.066  0.9326  2.6362 -0.1201
 4619SOL     OW25318   0.623   2.400   5.183  0.1991  0.0794  0.1510
 4619SOL    HW125319   0.612   2.367   5.095 -0.2129 -1.5596  0.8248
 4619SOL    HW225320   0.542   2.450   5.195 -0.0856 -0.0161 -1.4555
 4620SOL     OW25321   3.825   3.907  14.043 -0.5281 -0.1816 -0.0526
 4620SOL    HW125322   3.909   3.951  14.059  0.3651 -2.0521  0.4296
 4620SOL    HW225323   3.783   3.965  13.980  1.2561  1.2963  0.1064
 4621SOL     OW25324   3.926   0.957  12.113 -0.2702  0.0238  0.5612
 4621SOL    HW125325   3.948   1.046  12.086  1.2674 -0.9153 -1.2848
 4621SOL    HW225326   3.955   0.911  12.034  1.1662  1.1262  0.4370
 4622SOL     OW25327   3.885   3.860   5.111 -0.3654 -0.0204  0.3468
 4622SOL    HW125328   3.834   3.904   5.044 -1.2831  1.7029  2.1648
 4622SOL    HW225329   3.863   3.767   5.104 -0.6770  0.2528 -2.1237
 4623SOL     OW25330   2.043   3.672   8.810 -0.3678  0.1963 -0.2973
 4623SOL    HW125331   2.117   3.689   8.868  0.5243 -0.0326 -1.3626
 4623SOL    HW225332   2.034   3.761   8.776  1.7316  1.0405  1.4160
 4624SOL     OW25333   0.020   3.861   7.977 -0.7946 -0.3738 -0.6648
 4624SOL    HW125334   0.013   3.940   8.030 -1.2887 -0.4285 -0.6538
 4624SOL    HW225335   0.108   3.834   8.005 -1.5016 -3.2121 -1.1360
 4625SOL     OW25336   0.483   2.577  15.189 -0.2135 -0.0701  0.3586
 4625SOL    HW125337   0.420   2.512  15.219 -1.4460  0.0921 -1.8880
 4625SOL    HW225338   0.531   2.591  15.270 -1.0255  0.1203  0.7974
 4626SOL     OW25339   0.523   4.636   6.158 -0.3901 -0.0259 -0.3288
 4626SOL    HW125340   0.615   4.637   6.184  0.2052 -0.0903 -2.4480
 4626SOL    HW225341   0.538   4.581   6.081 -1.4254 -3.5114  1.9998
 4627SOL     OW25342   2.154   0.789   3.468  0.1291 -0.1252  0.4923
 4627SOL    HW125343   2.099   0.784   3.390  0.0257  0.6634  0.5194
 4627SOL    HW225344   2.237   0.813   3.427  0.5624  0.1104  1.5227
 4628SOL     OW25345   2.671   3.309   9.199  0.0793 -0.3895 -0.3782
 4628SOL    HW125346   2.698   3.278   9.113  0.7936  0.8885 -0.6302
 4628SOL    HW225347   2.738   3.272   9.257 -0.6690  1.2089  1.5262
 4629SOL     OW25348   3.758   1.619   2.466 -0.2547 -0.5784 -0.4719
 4629SOL    HW125349   3.702   1.689   2.497  1.4951  1.0535 -0.9945
 4629SOL    HW225350   3.706   1.542   2.490 -0.0014 -0.4940  0.3253
 4630SOL     OW25351   3.485   1.884   2.986 -0.0313  0.6572  0.7031
 4630SOL    HW125352   3.442   1.839   3.059 -2.4902 -0.2239 -1.3116
 4630SOL    HW225353   3.476   1.978   2.999 -1.8782  0.4270  1.0307
 4631SOL     OW25354   1.763   0.511   1.595 -0.2545 -0.8749 -0.6738
 4631SOL    HW125355   1.824   0.446   1.561 -0.0403 -0.0077 -1.9664
 4631SOL    HW225356   1.699   0.453   1.635  0.0208 -0.5034  0.3016
 4632SOL     OW25357   1.936   4.248  17.426 -0.5051  0.5676  0.1108
 4632SOL    HW125358   1.985   4.296  17.493  1.2518  0.2612 -0.9629
 4632SOL    HW225359   1.879   4.314  17.386  1.0413  1.2758 -0.8856
 4633SOL     OW25360   3.350   1.390   8.553  0.6894  0.3106  0.1199
 4633SOL    HW125361   3.372   1.477   8.585  0.4636  0.5924 -0.4821
 4633SOL    HW225362   3.257   1.400   8.572  0.6898 -0.9521  0.8163
 4634SOL     OW25363   2.185   1.277   9.806 -0.5301  0.2462 -0.1223
 4634SOL    HW125364   2.162   1.294   9.714 -0.9675 -0.5697 -0.1627
 4634SOL    HW225365   2.196   1.182   9.798 -2.0996  0.0371  0.1218
 4635SOL     OW25366   4.022   0.271   6.165 -0.5848  0.6473 -0.5327
 4635SOL    HW125367   4.033   0.213   6.089  2.3610  1.0914 -0.4196
 4635SOL    HW225368   3.927   0.272   6.173 -0.3892  0.6628  1.7658
 4636SOL     OW25369   0.895   4.543   2.828  0.1009 -0.3488  0.1316
 4636SOL    HW125370   0.805   4.514   2.813 -0.4025  1.5816 -0.5519
 4636SOL    HW225371   0.952   4.493   2.770  0.1956 -0.4526  0.3110
 4637SOL     OW25372   0.038   1.672   2.748 -0.7845 -1.0687  0.2940
 4637SOL    HW125373   0.077   1.595   2.708 -0.2237 -1.0842  0.8681
 4637SOL    HW225374   0.019   1.635   2.834  1.0957  0.2450  1.2911
 4638SOL     OW25375   0.208   3.836   8.371 -0.3677 -0.1736 -0.1266
 4638SOL    HW125376   0.189   3.781   8.447 -1.0749  0.3176  0.0578
 4638SOL    HW225377   0.129   3.833   8.318  0.8380  0.8316 -1.9417
 4639SOL     OW25378   3.794   3.589   5.143 -0.3743 -0.5646  0.7096
 4639SOL    HW125379   3.722   3.565   5.085 -0.1981  0.4661  0.0704
 4639SOL    HW225380   3.745   3.622   5.218 -1.0155  0.4603 -0.1595
 4640SOL     OW25381   3.762   0.395  10.283  0.2499 -0.1545  0.4095
 4640SOL    HW125382   3.705   0.468  10.304 -0.8647 -1.0683  0.5886
 4640SOL    HW225383   3.848   0.434  10.293  0.8040 -1.1471 -0.4086
 4641SOL     OW25384   0.777   3.360   1.011 -0.4854  0.3907 -0.4971
 4641SOL    HW125385   0.733   3.279   1.037 -0.7476  1.2924  1.9556
 4641SOL    HW225386   0.723   3.389   0.939 -1.5773 -1.8586 -0.5973
 4642SOL     OW25387   2.671   1.407   8.151 -0.3393  0.0556  0.4512
 4642SOL    HW125388   2.605   1.338   8.160 -1.0205  0.5052 -1.1497
 4642SOL    HW225389   2.628   1.485   8.185 -0.5345  0.2157 -0.1556
 4643SOL     OW25390   0.290   1.466   2.855 -0.2015  0.4403 -0.4274
 4643SOL    HW125391   0.241   1.477   2.936 -2.1764 -2.2665 -1.2690
 4643SOL    HW225392   0.216   1.484   2.797  1.4135  0.1434 -2.5957
 4644SOL     OW25393   2.833   0.284   8.176  0.9484  1.0283  0.0167
 4644SOL    HW125394   2.852   0.332   8.256 -1.3374  1.8758  0.0352
 4644SOL    HW225395   2.761   0.338   8.143  0.7107  0.5833 -0.1910
 4645SOL     OW25396   3.957   2.689   4.114  0.0771  0.3225 -0.3003
 4645SOL    HW125397   3.972   2.651   4.201 -1.0896  1.6834  0.4983
 4645SOL    HW225398   3.890   2.627   4.086  0.4052  0.1074 -0.5933
 4646SOL     OW25399   2.870   1.881   5.237  0.4733 -0.5722 -0.5068
 4646SOL    HW125400   2.913   1.819   5.179  2.3184 -0.0744  0.3420
 4646SOL    HW225401   2.945   1.904   5.292  0.3504 -1.1257 -0.1038
 4647SOL     OW25402   1.458   2.588   8.058  0.1290  0.6729 -0.5953
 4647SOL    HW125403   1.393   2.528   8.020 -1.5761  2.9146 -1.2460
 4647SOL    HW225404   1.452   2.665   8.002 -0.6326  1.0926  0.0563
 4648SOL     OW25405   4.480   3.619  11.754 -0.0156 -0.5003  0.5004
 4648SOL    HW125406   4.544   3.600  11.685 -0.0402 -1.1471  0.6551
 4648SOL    HW225407   4.446   3.699  11.715  0.0910 -0.9923 -0.6044
 4649SOL     OW25408   4.513   4.013   5.744  0.0306 -0.4850 -0.7795
 4649SOL    HW125409   4.462   4.020   5.825  0.3221 -0.8134 -0.5673
 4649SOL    HW225410   4.528   4.106   5.733 -1.4063 -0.0486  0.8509
 4650SOL     OW25411   0.445   1.214  12.637  0.6540  0.1949  0.2460
 4650SOL    HW125412   0.442   1.123  12.606 -1.0034  0.2977  0.1117
 4650SOL    HW225413   0.419   1.211  12.729  1.8976 -0.7780  0.5743
 4651SOL     OW25414   4.306   3.571   4.393 -0.4027  0.3428  0.2485
 4651SOL    HW125415   4.212   3.557   4.403 -0.1880  0.2930  2.2187
 4651SOL    HW225416   4.338   3.487   4.360 -1.9571  0.2720 -1.0864
 4652SOL     OW25417   2.941   3.982   3.474 -0.0875 -0.2930  0.4477
 4652SOL    HW125418   2.901   4.051   3.527  0.2900 -0.1693  0.5676
 4652SOL    HW225419   2.915   3.905   3.524  1.3740  0.7257  2.7513
 4653SOL     OW25420   2.889   0.664   3.746 -0.7989 -0.3385 -0.1074
 4653SOL    HW125421   2.965   0.715   3.774 -0.4811 -0.5418 -0.5886
 4653SOL    HW225422   2.931   0.582   3.719 -1.5128 -0.4012 -1.0246
 4654SOL     OW25423   0.390   2.654   6.953 -0.0882 -0.0483  0.0248
 4654SOL    HW125424   0.433   2.731   6.916  1.5412 -1.1669 -0.3880
 4654SOL    HW225425   0.414   2.668   7.044 -1.3393  0.1061  0.3320
 4655SOL     OW25426   0.222   0.522  14.119 -0.1169  0.0340 -0.1953
 4655SOL    HW125427   0.242   0.460  14.048 -0.3388 -0.9213  0.5695
 4655SOL    HW225428   0.310   0.560  14.116  0.4766 -1.3606 -0.5456
 4656SOL     OW25429   2.972   1.854   3.978  0.3668  0.0218  0.3214
 4656SOL    HW125430   3.043   1.874   3.917  0.7665  3.5821  1.9596
 4656SOL    HW225431   2.896   1.862   3.922 -0.3289 -0.0843  1.2388
 4657SOL     OW25432   0.863   3.303   8.489  0.0893 -0.6551 -0.2607
 4657SOL    HW125433   0.847   3.232   8.552  0.0891  0.0620  0.5438
 4657SOL    HW225434   0.934   3.274   8.431  0.3841 -0.0983 -0.1736
 4658SOL     OW25435   3.143   0.448   4.296  0.3727 -0.0395  0.2052
 4658SOL    HW125436   3.213   0.384   4.312  1.5386  0.8788 -1.3039
 4658SOL    HW225437   3.194   0.498   4.232 -3.0935 -0.8393 -3.1748
 4659SOL     OW25438   0.197   3.519  10.847 -0.4262  0.1613  0.3056
 4659SOL    HW125439   0.186   3.599  10.796 -0.1601  0.1119  0.1651
 4659SOL    HW225440   0.210   3.454  10.777  2.5130  2.3230 -1.1548
 4660SOL     OW25441   3.933   4.268  12.521  0.7388 -0.0270 -0.2087
 4660SOL    HW125442   4.017   4.289  12.564 -0.7145  2.2476  1.5372
 4660SOL    HW225443   3.903   4.359  12.522 -1.3449 -0.7017 -4.0691
 4661SOL     OW25444   0.428   2.019  15.218  0.4288  0.3973 -0.1044
 4661SOL    HW125445   0.436   2.047  15.127  0.5568 -0.8981 -0.5003
 4661SOL    HW225446   0.514   1.979  15.231  1.5227  2.1266 -2.1200
 4662SOL     OW25447   0.327   3.063   8.852  0.0101 -0.0046  0.1799
 4662SOL    HW125448   0.373   3.088   8.932 -0.4753  0.7860  0.2156
 4662SOL    HW225449   0.236   3.074   8.879 -0.0545  0.2810 -0.1540
 4663SOL     OW25450   0.390   2.645  12.529 -0.5249 -0.4574 -0.0045
 4663SOL    HW125451   0.379   2.573  12.591  1.3800  0.2156  1.1213
 4663SOL    HW225452   0.313   2.633  12.474  1.2611 -1.0396 -2.3412
 4664SOL     OW25453   1.088   1.341   5.836  0.3366  0.3268  0.2302
 4664SOL    HW125454   1.003   1.356   5.877  2.1372  1.7660  3.4393
 4664SOL    HW225455   1.144   1.417   5.851  1.3838  0.1480 -2.7214
 4665SOL     OW25456   4.406   0.371   3.791  0.9572 -0.5603 -0.0456
 4665SOL    HW125457   4.375   0.455   3.756  0.7525  0.0820  1.6781
 4665SOL    HW225458   4.481   0.360   3.732  0.6260  0.2184 -0.6146
 4666SOL     OW25459   2.566   1.855  17.192  0.2303  0.0866 -0.4150
 4666SOL    HW125460   2.603   1.767  17.203 -0.2078  0.1271  1.4802
 4666SOL    HW225461   2.635   1.907  17.233  0.0076  1.3213 -1.6257
 4667SOL     OW25462   0.189   2.478   6.908 -0.0227 -1.0224 -0.2668
 4667SOL    HW125463   0.235   2.546   6.957  1.7514 -0.8723 -2.1650
 4667SOL    HW225464   0.264   2.429   6.874  0.3258 -0.5170 -0.2219
 4668SOL     OW25465   3.512   2.074   9.573  0.2469  0.2647 -0.2107
 4668SOL    HW125466   3.553   2.021   9.506  1.4310  0.3106  0.4730
 4668SOL    HW225467   3.488   2.151   9.522 -1.9803  0.8496  1.7110
 4669SOL     OW25468   0.868   3.647   6.362 -0.2540 -0.1912 -0.5498
 4669SOL    HW125469   0.790   3.697   6.337 -0.5191 -0.7129 -0.7673
 4669SOL    HW225470   0.871   3.676   6.453 -0.7113  0.2383 -0.6696
 4670SOL     OW25471   3.397   0.598   7.937 -0.8253 -0.2371  0.1746
 4670SOL    HW125472   3.330   0.583   7.871 -0.6245 -0.3910  0.0047
 4670SOL    HW225473   3.427   0.684   7.908 -1.2948 -0.5160 -1.1311
 4671SOL     OW25474   0.082   3.782  16.105 -0.3324 -0.4274 -0.2637
 4671SOL    HW125475   0.037   3.762  16.187  1.2060  3.5742  1.5905
 4671SOL    HW225476   0.101   3.872  16.132  0.2464 -0.0995 -1.7580
 4672SOL     OW25477   3.824   0.245   4.445  0.0316  0.0481  0.7771
 4672SOL    HW125478   3.837   0.166   4.497  0.2293  0.2590  1.0455
 4672SOL    HW225479   3.729   0.253   4.448 -0.0504 -0.2144 -1.2725
 4673SOL     OW25480   3.069   1.841   2.130 -0.3207  0.2177 -0.1140
 4673SOL    HW125481   3.101   1.865   2.043 -3.8915  0.1780 -1.4495
 4673SOL    HW225482   3.146   1.863   2.181 -2.2140  0.2061  2.7772
 4674SOL     OW25483   2.050   2.094   9.624 -0.2873 -0.2449 -0.6901
 4674SOL    HW125484   1.995   2.017   9.608 -2.2156  1.1992 -0.8721
 4674SOL    HW225485   1.990   2.168   9.625 -1.2081 -0.9766 -2.4642
 4675SOL     OW25486   2.455   0.182   3.395 -0.1789  0.1158 -0.3932
 4675SOL    HW125487   2.545   0.189   3.364 -0.3122  0.9721 -0.5946
 4675SOL    HW225488   2.461   0.089   3.419  0.6809  0.4713  0.7838
 4676SOL     OW25489   2.393   3.515  14.112  0.0119  0.3489  0.2881
 4676SOL    HW125490   2.383   3.530  14.206  0.1166  0.8184  0.2237
 4676SOL    HW225491   2.349   3.430  14.108  2.4032 -0.6392 -4.3641
 4677SOL     OW25492   2.439   4.572   3.296  0.2269  0.1473 -0.2018
 4677SOL    HW125493   2.505   4.576   3.364  0.8987 -0.5978 -0.8063
 4677SOL    HW225494   2.486   4.527   3.226  1.0673 -0.0468  0.4947
 4678SOL     OW25495   1.812   3.779   2.487  0.3882  0.3198 -0.3810
 4678SOL    HW125496   1.766   3.755   2.407 -0.6560 -2.9407  1.2213
 4678SOL    HW225497   1.889   3.818   2.446  0.2114  1.1532  0.0699
 4679SOL     OW25498   0.906   3.206   2.361 -0.5491 -0.8171  0.5535
 4679SOL    HW125499   0.983   3.201   2.418 -1.2747 -1.6720  1.4569
 4679SOL    HW225500   0.838   3.174   2.420  0.5422 -1.1932  1.6072
 4680SOL     OW25501   1.937   1.504   6.032  0.0405  0.2251 -0.1307
 4680SOL    HW125502   1.948   1.425   6.086 -3.0012 -0.1661 -0.1118
 4680SOL    HW225503   1.896   1.566   6.093  0.3332 -0.4594  0.7556
 4681SOL     OW25504   0.948   2.492  10.925  0.2758 -0.3076 -0.0357
 4681SOL    HW125505   0.935   2.398  10.929 -0.8049 -0.1921 -0.8517
 4681SOL    HW225506   0.861   2.517  10.893  0.2241  0.1527  0.4575
 4682SOL     OW25507   1.938   0.420   2.208 -0.0171  0.0275 -0.3403
 4682SOL    HW125508   1.910   0.508   2.185  1.7239  0.0299 -2.4651
 4682SOL    HW225509   2.026   0.451   2.228  0.3775 -0.5735 -1.1278
 4683SOL     OW25510   0.036   0.572   7.091 -0.1972 -0.3562 -0.0124
 4683SOL    HW125511   4.674   0.534   7.108 -1.7313  2.1835 -2.2685
 4683SOL    HW225512   0.047   0.633   7.164 -1.3249  0.9409 -0.9510
 4684SOL     OW25513   1.755   0.145   6.168  0.4432 -0.1190  0.0121
 4684SOL    HW125514   1.743   0.193   6.250 -3.6209 -0.6504 -0.3155
 4684SOL    HW225515   1.678   0.176   6.120 -0.9833 -1.7876  1.2345
 4685SOL     OW25516   1.899   3.940   8.964 -0.2151 -0.0723 -0.0071
 4685SOL    HW125517   1.942   3.971   8.884 -0.0622 -0.0020  0.1028
 4685SOL    HW225518   1.855   4.017   9.001 -2.1408 -1.8313  1.3601
 4686SOL     OW25519   0.074   3.395   2.584  0.3186  0.2968  0.3739
 4686SOL    HW125520   0.055   3.452   2.659  0.9447 -0.2743  0.9585
 4686SOL    HW225521   0.049   3.447   2.507 -1.1462  0.8082  1.1916
 4687SOL     OW25522   3.822   0.291  16.848 -0.2119  0.1923 -0.6812
 4687SOL    HW125523   3.849   0.377  16.881  1.5040 -0.2938 -0.8342
 4687SOL    HW225524   3.864   0.287  16.762  1.4102 -1.8827  0.2066
 4688SOL     OW25525   0.698   3.332   1.358 -0.2147 -0.5228 -0.1201
 4688SOL    HW125526   0.687   3.416   1.315  1.1134  0.4406  1.3903
 4688SOL    HW225527   0.627   3.282   1.318 -1.3417 -0.3577  1.7000
 4689SOL     OW25528   4.442   3.631   6.733 -0.2852 -0.7592  0.3689
 4689SOL    HW125529   4.516   3.591   6.779  0.5413  1.0672  0.6577
 4689SOL    HW225530   4.467   3.613   6.643  0.5788  2.5869 -0.0848
 4690SOL     OW25531   3.188   2.034   4.968 -0.1713  0.2963  0.2278
 4690SOL    HW125532   3.161   2.007   4.881  0.3806  1.9650 -0.4671
 4690SOL    HW225533   3.261   2.092   4.943 -1.9632  2.9435  1.0919
 4691SOL     OW25534   4.009   2.715  13.029 -0.0453 -0.2570 -0.3181
 4691SOL    HW125535   3.925   2.673  13.048  1.4487 -3.3711 -0.6236
 4691SOL    HW225536   3.990   2.796  13.076  0.4314 -1.2599  1.6135
 4692SOL     OW25537   2.156   1.596   5.181  0.3739  0.4734 -0.3737
 4692SOL    HW125538   2.097   1.579   5.108 -0.2258 -2.4344  0.7638
 4692SOL    HW225539   2.208   1.668   5.147  0.3574 -0.0578 -1.5196
 4693SOL     OW25540   1.300   4.084   0.188  0.6896 -0.3546  0.7786
 4693SOL    HW125541   1.273   3.996   0.160 -1.1072  0.1777  0.7949
 4693SOL    HW225542   1.394   4.075   0.201  0.6136  1.0499  2.2492
 4694SOL     OW25543   2.798   3.276   1.720  0.2782 -0.0921 -0.1234
 4694SOL    HW125544   2.849   3.340   1.771 -1.1306  0.7624  0.2014
 4694SOL    HW225545   2.778   3.220   1.794 -0.5728  2.3324  1.4841
 4695SOL     OW25546   2.219   4.375  11.070 -0.4782  0.2609 -0.5215
 4695SOL    HW125547   2.255   4.355  11.157  0.9144  0.6024 -1.0112
 4695SOL    HW225548   2.246   4.290  11.035 -1.4846 -0.1573 -0.2613
 4696SOL     OW25549   1.405   0.224  15.866  0.0831 -0.0310  0.1744
 4696SOL    HW125550   1.417   0.278  15.944  0.2173  0.3251 -0.0920
 4696SOL    HW225551   1.472   0.246  15.800 -0.6872 -0.9060 -0.8860
 4697SOL     OW25552   1.084   1.949   7.797 -0.5986 -0.0180 -0.1338
 4697SOL    HW125553   1.100   1.896   7.718 -1.3788  1.2797 -1.1667
 4697SOL    HW225554   1.008   1.907   7.838  0.4960 -0.9762  0.9111
 4698SOL     OW25555   4.039   0.883   3.151  0.2552 -0.0112 -0.3009
 4698SOL    HW125556   4.114   0.857   3.097 -1.4803  1.7935 -3.6424
 4698SOL    HW225557   4.012   0.796   3.178  1.0348 -0.3662 -0.6655
 4699SOL     OW25558   3.613   0.529   4.045 -0.7559  0.4093  0.1589
 4699SOL    HW125559   3.560   0.605   4.022  0.8685  2.0486  1.7745
 4699SOL    HW225560   3.552   0.466   4.084 -0.5010 -0.4813 -0.8833
 4700SOL     OW25561   3.044   2.231   0.930 -0.9768  0.7239  0.1873
 4700SOL    HW125562   3.058   2.261   1.020 -0.9370  0.9303  0.1124
 4700SOL    HW225563   3.087   2.295   0.873  0.1276  0.0040  0.1925
 4701SOL     OW25564   0.500   0.319   9.613  0.4347 -0.4036 -1.1575
 4701SOL    HW125565   0.541   0.366   9.541  0.1747  0.1563 -0.9404
 4701SOL    HW225566   0.406   0.337   9.611  0.3370 -0.4551  2.0893
 4702SOL     OW25567   0.429   0.739   5.336 -0.0750  0.1211  0.6889
 4702SOL    HW125568   0.472   0.789   5.405 -1.7696  1.3599  0.8737
 4702SOL    HW225569   0.440   0.649   5.366 -0.1007 -0.9193 -2.4287
 4703SOL     OW25570   0.225   0.349  12.148 -0.7907  0.5105  0.1947
 4703SOL    HW125571   0.210   0.434  12.107  1.1364  0.2319 -1.1029
 4703SOL    HW225572   0.306   0.329  12.099 -1.4547 -1.7066 -0.0126
 4704SOL     OW25573   1.880   1.285   7.516 -0.2855 -0.5824  0.5118
 4704SOL    HW125574   1.835   1.301   7.599 -1.4126 -1.8653  0.1370
 4704SOL    HW225575   1.945   1.222   7.549  0.5887  0.2071  0.2879
 4705SOL     OW25576   0.676   2.148   8.443  0.1665  0.9509 -0.1544
 4705SOL    HW125577   0.580   2.158   8.446 -0.2474 -2.5772 -1.7915
 4705SOL    HW225578   0.685   2.134   8.349 -0.2827 -0.7299  0.0492
 4706SOL     OW25579   1.700   1.399  13.613  0.3205  0.0183 -0.2721
 4706SOL    HW125580   1.771   1.352  13.655  0.6856  2.2718  1.6413
 4706SOL    HW225581   1.752   1.472  13.579  3.0250 -1.2595  1.0868
 4707SOL     OW25582   2.984   0.809  13.967 -0.1978 -0.4152  0.1054
 4707SOL    HW125583   2.958   0.900  13.950 -0.0342 -0.4209 -0.1952
 4707SOL    HW225584   2.980   0.763  13.883 -0.1765 -0.1872 -0.0199
 4708SOL     OW25585   3.295   1.275   7.983  0.2857  0.9965 -0.3539
 4708SOL    HW125586   3.221   1.261   7.925 -0.8451 -1.9408  1.8021
 4708SOL    HW225587   3.356   1.334   7.938  2.2761 -0.9323 -0.1779
 4709SOL     OW25588   1.641   2.892   2.980  0.1494 -0.1152  0.5812
 4709SOL    HW125589   1.588   2.822   3.019  1.8519 -2.0423 -0.5324
 4709SOL    HW225590   1.684   2.853   2.904 -0.8369  0.6264 -0.3448
 4710SOL     OW25591   4.316   3.758  15.385 -0.4434 -0.2333  0.1280
 4710SOL    HW125592   4.286   3.834  15.435  1.1504 -0.3098  1.2016
 4710SOL    HW225593   4.388   3.800  15.337 -0.1345 -2.1538 -1.0687
 4711SOL     OW25594   3.142   2.346   1.153 -0.0873  0.5093 -0.4385
 4711SOL    HW125595   3.228   2.372   1.121  0.2952  0.0412  0.2251
 4711SOL    HW225596   3.116   2.424   1.202  1.0060  0.6343 -0.0731
 4712SOL     OW25597   4.376   2.707   7.082  0.4347  0.4967 -1.2139
 4712SOL    HW125598   4.400   2.799   7.091 -1.7150  1.0692 -1.2958
 4712SOL    HW225599   4.346   2.689   7.171 -1.2291 -0.0519 -1.8647
 4713SOL     OW25600   1.056   3.202  11.805 -0.8289  0.1782  0.3062
 4713SOL    HW125601   1.151   3.216  11.807 -0.5183 -1.7203 -0.9088
 4713SOL    HW225602   1.021   3.291  11.796 -0.5439  0.3595  1.0122
 4714SOL     OW25603   1.217   3.735   8.488  0.1663  0.2868 -0.0626
 4714SOL    HW125604   1.274   3.658   8.483 -1.5156 -1.0049  0.4754
 4714SOL    HW225605   1.281   3.803   8.509 -0.3307 -0.0829  2.6263
 4715SOL     OW25606   1.953   4.224   0.271 -0.5717  0.1001 -0.0108
 4715SOL    HW125607   1.903   4.216   0.189 -1.8298 -1.8599  0.9485
 4715SOL    HW225608   1.932   4.142   0.315 -1.1038 -0.3699 -1.1472
 4716SOL     OW25609   1.424   2.533  12.795 -0.3863  0.4423  0.2168
 4716SOL    HW125610   1.456   2.518  12.883  2.8358  1.2687 -0.7948
 4716SOL    HW225611   1.448   2.625  12.778  1.0099  0.2050  0.9293
 4717SOL     OW25612   1.699   3.632   2.295 -0.0266  0.4072  0.2751
 4717SOL    HW125613   1.704   3.536   2.285  1.3663  0.1827  3.2263
 4717SOL    HW225614   1.683   3.657   2.204 -0.0577 -2.1735 -0.4542
 4718SOL     OW25615   1.562   1.935   3.455 -0.6378 -0.3924  0.1971
 4718SOL    HW125616   1.496   1.930   3.524 -0.6603  1.0963  0.2644
 4718SOL    HW225617   1.508   1.912   3.379  1.3629  0.6986 -1.5563
 4719SOL     OW25618   2.452   3.283  17.048 -0.0364  0.1006  0.0239
 4719SOL    HW125619   2.459   3.257  17.140  0.9320 -2.0061 -0.6422
 4719SOL    HW225620   2.426   3.200  17.009 -0.0039  0.5023 -0.8411
 4720SOL     OW25621   2.841   2.819  11.308 -0.4061 -0.1753 -0.1675
 4720SOL    HW125622   2.894   2.750  11.269  0.0910 -0.8462  1.7112
 4720SOL    HW225623   2.837   2.883  11.236  0.2561 -1.6011 -1.4664
 4721SOL     OW25624   4.347   4.050   4.671  0.0689 -0.5897 -0.1530
 4721SOL    HW125625   4.358   3.957   4.691  0.7953 -0.3497  0.5755
 4721SOL    HW225626   4.387   4.090   4.749  0.2142  2.1093 -1.6115
 4722SOL     OW25627   4.258   3.445  14.832  0.0042  0.0830 -0.0389
 4722SOL    HW125628   4.232   3.400  14.752 -2.5567  0.7069  0.4534
 4722SOL    HW225629   4.173   3.456  14.875 -0.1196 -1.6098  0.1602
 4723SOL     OW25630   4.140   0.881  17.371 -0.2367 -0.1557  0.0977
 4723SOL    HW125631   4.121   0.930  17.290  2.1197 -0.4960 -0.6666
 4723SOL    HW225632   4.059   0.836  17.394 -1.7564  2.5079 -0.0314
 4724SOL     OW25633   0.530   3.977   5.714  0.0507 -0.6473 -0.2410
 4724SOL    HW125634   0.610   3.928   5.735  1.0703  0.6730 -1.0583
 4724SOL    HW225635   0.538   3.966   5.619 -1.0812 -0.1538 -0.3880
 4725SOL     OW25636   3.106   2.432   4.287  0.0938  0.4086 -0.0304
 4725SOL    HW125637   3.081   2.510   4.238  2.4337  1.6191  0.6621
 4725SOL    HW225638   3.124   2.375   4.213 -0.1694 -1.5372  1.4205
 4726SOL     OW25639   3.972   1.780   2.003 -0.1797  0.1264 -0.2607
 4726SOL    HW125640   3.944   1.853   1.947  0.6335 -0.3110 -1.2392
 4726SOL    HW225641   3.896   1.725   1.982  0.4153 -0.9028  0.2667
 4727SOL     OW25642   4.258   0.094   3.896  0.0752 -0.2894  0.4382
 4727SOL    HW125643   4.347   0.068   3.876  0.0260 -1.0889  1.2534
 4727SOL    HW225644   4.253   0.178   3.851  3.4432  1.1631  2.7792
 4728SOL     OW25645   4.125   0.355   5.846 -0.0404 -0.1714  0.3747
 4728SOL    HW125646   4.194   0.294   5.818  0.0375  0.9190 -1.8736
 4728SOL    HW225647   4.170   0.404   5.915  0.0659 -0.0136  0.1955
 4729SOL     OW25648   4.620   0.952   2.210  0.5480 -0.2434  0.2576
 4729SOL    HW125649   4.545   0.901   2.178  0.2819  0.1402  0.2660
 4729SOL    HW225650   4.693   0.916   2.160  0.9645  0.3542  0.4360
 4730SOL     OW25651   3.785   4.493  11.468  0.0270 -0.1527  0.0269
 4730SOL    HW125652   3.694   4.472  11.449 -0.0039 -1.1629  1.2940
 4730SOL    HW225653   3.777   4.540  11.551 -1.1636 -0.0167 -0.1729
 4731SOL     OW25654   3.894   2.761   9.151  0.3775 -0.1654 -0.1477
 4731SOL    HW125655   3.853   2.690   9.201  3.7407 -1.2980  1.0306
 4731SOL    HW225656   3.965   2.792   9.207  0.7717 -0.1171 -0.6761
 4732SOL     OW25657   2.749   1.812   3.745 -0.8070 -0.5776 -0.0699
 4732SOL    HW125658   2.666   1.826   3.791 -2.0598 -0.9920 -2.2350
 4732SOL    HW225659   2.736   1.871   3.672 -2.0401 -0.1021  0.5460
 4733SOL     OW25660   3.187   2.992   4.599 -0.0790 -0.3971  0.1105
 4733SOL    HW125661   3.151   2.920   4.547 -5.0703  0.4975  2.2988
 4733SOL    HW225662   3.281   2.977   4.594 -0.1970 -1.6975  2.0070
 4734SOL     OW25663   2.806   0.916   0.940 -0.1444 -0.2308 -0.7568
 4734SOL    HW125664   2.877   0.923   1.004 -1.5671  2.7185  0.4726
 4734SOL    HW225665   2.736   0.885   0.999  2.2496  1.4181  2.9086
 4735SOL     OW25666   3.913   1.137   4.694  0.1037  0.5298 -0.1448
 4735SOL    HW125667   3.836   1.192   4.679 -1.2772 -1.0883  0.9018
 4735SOL    HW225668   3.895   1.087   4.774 -0.6327  3.5048  1.5576
 4736SOL     OW25669   2.372   3.423   2.557  0.1046  0.1598 -0.1814
 4736SOL    HW125670   2.467   3.421   2.545  0.1987  0.6362  0.4429
 4736SOL    HW225671   2.334   3.375   2.484  2.3832 -1.2009 -0.4366
 4737SOL     OW25672   4.078   2.487   8.233  0.2860  0.0291 -0.5281
 4737SOL    HW125673   4.063   2.398   8.202  1.4323 -0.7304  1.1061
 4737SOL    HW225674   4.107   2.532   8.154 -0.1799 -0.1554 -0.8030
 4738SOL     OW25675   1.305   2.746   2.802  0.2264  0.0856  0.2573
 4738SOL    HW125676   1.382   2.725   2.855  0.8246 -1.5961 -1.2913
 4738SOL    HW225677   1.276   2.658   2.777  1.5655 -0.7320  1.6257
 4739SOL     OW25678   3.244   2.799   6.897 -0.0331 -0.6322 -0.3116
 4739SOL    HW125679   3.258   2.718   6.847 -2.0699 -1.7969  0.9880
 4739SOL    HW225680   3.322   2.807   6.952 -0.1328  1.0142 -0.4199
 4740SOL     OW25681   0.273   1.210  14.506  0.2936 -0.0036 -0.2180
 4740SOL    HW125682   0.360   1.193  14.540 -1.4048 -1.3074  3.5058
 4740SOL    HW225683   0.301   1.227  14.416 -0.3903 -0.8921 -0.6025
 4741SOL     OW25684   1.956   4.721   4.596  0.3016  0.3219  0.5737
 4741SOL    HW125685   1.984   0.080   4.634  1.1319 -0.0496  0.7663
 4741SOL    HW225686   1.874   0.016   4.550 -0.5329 -1.9566  1.1199
 4742SOL     OW25687   2.413   0.483   2.011 -0.2236 -0.4751  0.5481
 4742SOL    HW125688   2.393   0.403   1.963  0.8911 -0.5402  0.1858
 4742SOL    HW225689   2.445   0.539   1.941  0.7005 -1.0255  0.5246
 4743SOL     OW25690   2.061   1.857   0.324 -0.4089 -0.2959 -0.0200
 4743SOL    HW125691   2.150   1.836   0.354  0.3554  3.0958  0.1105
 4743SOL    HW225692   2.055   1.948   0.354  2.4265 -0.5049  1.2235
 4744SOL     OW25693   0.501   3.524  11.989  0.0036 -0.3557  0.1282
 4744SOL    HW125694   0.525   3.470  12.065 -0.0396 -2.6373 -1.4811
 4744SOL    HW225695   0.446   3.464  11.938 -0.1647  0.9174 -1.1706
 4745SOL     OW25696   2.933   4.357   4.971  0.3048  0.4868  0.0573
 4745SOL    HW125697   2.925   4.280   4.916 -0.7157  0.9923 -0.4937
 4745SOL    HW225698   3.027   4.375   4.967  0.6546 -0.8861  2.4173
 4746SOL     OW25699   0.487   4.337   9.624 -0.2887  0.0507  0.0319
 4746SOL    HW125700   0.525   4.337   9.536  0.4801  1.3806  0.3736
 4746SOL    HW225701   0.486   4.242   9.635  0.1296  0.1693  1.0754
 4747SOL     OW25702   2.065   0.020   6.370 -0.5504  0.2632  0.8851
 4747SOL    HW125703   2.021   0.090   6.418  1.1593  1.9292  0.0272
 4747SOL    HW225704   2.085   0.062   6.286  0.1746 -1.7735  0.0568
 4748SOL     OW25705   2.986   0.458  17.351  0.6577  0.1383 -0.1893
 4748SOL    HW125706   2.964   0.517  17.278 -1.5505 -1.6037 -0.9520
 4748SOL    HW225707   2.930   0.385  17.323  0.4333  0.9382 -1.8159
 4749SOL     OW25708   1.450   4.523   6.862  0.0412 -0.0660 -0.2702
 4749SOL    HW125709   1.382   4.551   6.924 -1.2537  0.9932 -2.1477
 4749SOL    HW225710   1.481   4.612   6.846  1.0062 -0.2854  0.3671
 4750SOL     OW25711   2.724   1.190   3.567 -0.1737  0.0756  0.3116
 4750SOL    HW125712   2.700   1.134   3.641 -1.0403 -1.0908 -0.8397
 4750SOL    HW225713   2.799   1.137   3.540 -0.7817 -0.6354  0.0193
 4751SOL     OW25714   1.294   0.439  12.217 -0.0659  0.9490 -0.0053
 4751SOL    HW125715   1.324   0.382  12.287  1.0551  1.0713 -0.3861
 4751SOL    HW225716   1.381   0.450  12.178 -1.0423 -0.0622 -2.5116
 4752SOL     OW25717   2.749   2.339   7.785 -0.0534 -0.6206  0.7841
 4752SOL    HW125718   2.769   2.321   7.694 -1.7680 -0.0898  0.3103
 4752SOL    HW225719   2.689   2.413   7.777  0.3712 -0.3973 -0.2667
 4753SOL     OW25720   0.301   1.837  15.393 -0.1646  0.1225  0.0826
 4753SOL    HW125721   0.362   1.898  15.352 -0.5869 -0.1667 -0.9765
 4753SOL    HW225722   0.331   1.833  15.484 -0.8151  1.3234  0.3571
 4754SOL     OW25723   0.554   2.571   4.942  0.2100  0.1887 -0.4545
 4754SOL    HW125724   0.523   2.480   4.947  0.3226  0.1186 -1.0384
 4754SOL    HW225725   0.507   2.598   4.863 -1.5964 -0.3505  0.4175
 4755SOL     OW25726   3.826   0.513   2.549 -0.4134  0.5334  0.1109
 4755SOL    HW125727   3.863   0.567   2.619  1.0177 -1.7224  1.0691
 4755SOL    HW225728   3.812   0.578   2.479 -0.5113 -0.3288 -0.6704
 4756SOL     OW25729   0.415   4.033   8.835  0.0330 -0.6384 -0.1630
 4756SOL    HW125730   0.463   4.038   8.752  1.3527  0.2113  0.6506
 4756SOL    HW225731   0.445   3.944   8.855  0.4098 -0.7238 -1.1074
 4757SOL     OW25732   2.676   1.619   7.718 -0.4231  0.5491  0.4596
 4757SOL    HW125733   2.716   1.679   7.781  0.0931  1.3870 -0.6625
 4757SOL    HW225734   2.617   1.574   7.779  1.0416  0.4052  1.7650
 4758SOL     OW25735   1.198   0.444   2.575 -0.2184  0.1531  0.7168
 4758SOL    HW125736   1.287   0.448   2.541 -0.7093 -1.7825 -0.7987
 4758SOL    HW225737   1.165   0.531   2.553  2.9123  1.1317 -0.1144
 4759SOL     OW25738   4.563   3.310   5.651  0.4760 -0.2118 -0.1147
 4759SOL    HW125739   4.651   3.322   5.689  1.1001  2.0308 -2.2154
 4759SOL    HW225740   4.518   3.261   5.720  0.0966  1.1130  0.5778
 4760SOL     OW25741   3.801   3.248   7.939  0.1752  0.0550  0.0305
 4760SOL    HW125742   3.825   3.293   7.858  0.4686  2.6459  1.5793
 4760SOL    HW225743   3.724   3.194   7.919  0.2639  0.2313 -0.8083
 4761SOL     OW25744   1.070   3.156   3.838 -0.0524  0.0078 -0.2046
 4761SOL    HW125745   1.131   3.226   3.816 -0.4979  0.0560 -1.2932
 4761SOL    HW225746   0.986   3.199   3.851  0.6864  0.9343  1.4467
 4762SOL     OW25747   1.487   4.074   5.411 -0.3752  0.1433  0.5302
 4762SOL    HW125748   1.486   4.105   5.502  1.8583 -3.3321  1.7674
 4762SOL    HW225749   1.467   3.983   5.433  1.4000 -1.6136 -5.1173
 4763SOL     OW25750   2.410   3.402   6.863 -0.1000 -0.0632 -0.1595
 4763SOL    HW125751   2.463   3.380   6.940 -0.6462 -0.9576 -0.0260
 4763SOL    HW225752   2.330   3.432   6.907 -0.3335  0.0446 -0.6506
 4764SOL     OW25753   1.605   0.024   8.802  0.0750 -0.0121 -0.3215
 4764SOL    HW125754   1.633   4.707   8.884 -1.0013  0.2793  0.1907
 4764SOL    HW225755   1.549   0.096   8.830  2.0279  1.4212 -0.0928
 4765SOL     OW25756   0.382   4.490  13.384  0.3967 -0.2800  0.1936
 4765SOL    HW125757   0.346   4.515  13.469 -0.9439 -3.8093  0.6798
 4765SOL    HW225758   0.464   4.446  13.405  1.6505  2.5418  1.1666
 4766SOL     OW25759   4.646   2.969  11.820  0.5590  0.0934 -0.0770
 4766SOL    HW125760   4.690   2.964  11.905 -0.0773  3.8189  0.4931
 4766SOL    HW225761   4.715   2.943  11.760 -1.8772 -0.2708 -2.6911
 4767SOL     OW25762   3.077   3.073   9.806  0.5327 -0.4796 -0.2248
 4767SOL    HW125763   3.172   3.072   9.789  0.3081 -0.7061 -1.5042
 4767SOL    HW225764   3.072   3.017   9.883 -1.6655 -0.8915 -0.6698
 4768SOL     OW25765   3.772   1.706   3.793 -0.5180  0.2013 -0.1346
 4768SOL    HW125766   3.755   1.660   3.875  1.2183  1.6251  1.0081
 4768SOL    HW225767   3.785   1.791   3.834  3.3687 -0.2182 -0.5192
 4769SOL     OW25768   0.014   3.820   9.181 -0.1021  0.0353  0.6817
 4769SOL    HW125769   0.087   3.864   9.224  0.4883 -1.4328  1.1975
 4769SOL    HW225770   0.060   3.796   9.100 -2.1745 -0.5934 -0.2941
 4770SOL     OW25771   2.984   2.861   4.981 -0.2946 -0.2347  0.0727
 4770SOL    HW125772   2.955   2.890   4.895 -0.0762  1.4902  0.5741
 4770SOL    HW225773   3.027   2.939   5.017 -0.7401  0.2969 -0.5473
 4771SOL     OW25774   4.104   4.043   4.554  0.3352  0.2777 -0.3503
 4771SOL    HW125775   4.191   4.077   4.576 -0.4556 -0.6534  4.2708
 4771SOL    HW225776   4.107   4.029   4.460 -2.2370  3.6286 -0.9324
 4772SOL     OW25777   3.809   1.425   8.533 -0.5374 -0.1851 -0.3162
 4772SOL    HW125778   3.784   1.438   8.625  1.9683 -0.5625  0.4169
 4772SOL    HW225779   3.724   1.427   8.488  0.1034  0.6844 -1.4897
 4773SOL     OW25780   4.586   3.689   9.601 -0.2540 -0.6315 -0.1882
 4773SOL    HW125781   4.505   3.643   9.583 -1.1979  0.5830  0.9213
 4773SOL    HW225782   4.570   3.726   9.688  0.0912 -2.4556  0.6325
 4774SOL     OW25783   1.371   2.043   8.931 -0.0301 -0.5406  0.1505
 4774SOL    HW125784   1.420   1.982   8.876 -1.2325 -2.4093  1.1360
 4774SOL    HW225785   1.305   2.071   8.868 -0.2198  0.2798  0.7054
 4775SOL     OW25786   2.745   0.651  12.632  0.1821  0.5142 -0.1930
 4775SOL    HW125787   2.719   0.653  12.540 -0.1616 -1.3715 -0.1439
 4775SOL    HW225788   2.818   0.588  12.632 -0.3540 -0.1093 -3.9228
 4776SOL     OW25789   1.399   4.222  15.267 -0.2932 -0.0709  0.0524
 4776SOL    HW125790   1.388   4.315  15.290  2.0422  0.8317 -2.4169
 4776SOL    HW225791   1.455   4.193  15.339 -0.2571 -1.0222 -0.3631
 4777SOL     OW25792   4.131   4.400   3.431 -0.1686  0.3092  0.0754
 4777SOL    HW125793   4.137   4.494   3.418 -0.6399  0.5658  1.6628
 4777SOL    HW225794   4.131   4.400   3.527  0.8865 -0.0300  0.0718
 4778SOL     OW25795   1.006   1.653   3.880 -0.2941  0.5798 -0.2016
 4778SOL    HW125796   1.028   1.561   3.892 -1.1482  0.2042 -1.4295
 4778SOL    HW225797   1.095   1.684   3.896 -0.2343 -0.1804  0.8597
 4779SOL     OW25798   3.463   1.221   7.250 -0.3213 -0.5635 -0.5725
 4779SOL    HW125799   3.480   1.145   7.305 -0.0956 -0.1473 -0.0708
 4779SOL    HW225800   3.552   1.236   7.219  0.6130 -1.0068  1.8728
 4780SOL     OW25801   0.316   1.446   7.816 -0.7528 -0.2088  0.1219
 4780SOL    HW125802   0.374   1.518   7.842  1.2566 -1.8604  0.2054
 4780SOL    HW225803   0.368   1.380   7.772  0.2689  1.2472 -0.8533
 4781SOL     OW25804   1.522   2.302   9.278  0.1800  0.0242  0.0034
 4781SOL    HW125805   1.507   2.298   9.183 -0.5504  0.6844  0.0837
 4781SOL    HW225806   1.430   2.290   9.302 -0.5305  2.7001 -1.3559
 4782SOL     OW25807   4.116   2.659   5.398  0.0583  0.2576  0.2974
 4782SOL    HW125808   4.059   2.735   5.407  1.7060  1.4588  0.5838
 4782SOL    HW225809   4.196   2.694   5.360 -0.9077  1.1594 -0.8933
 4783SOL     OW25810   2.158   3.851   1.635 -0.0434 -0.2467 -0.0222
 4783SOL    HW125811   2.095   3.781   1.652  2.4912 -1.8725  2.6215
 4783SOL    HW225812   2.138   3.921   1.698  0.5677  0.9665 -1.1661
 4784SOL     OW25813   4.286   2.249   3.510 -0.0069  0.2304 -0.5339
 4784SOL    HW125814   4.290   2.160   3.474  1.5220 -0.6136  1.7358
 4784SOL    HW225815   4.310   2.244   3.602  0.6647  0.1706 -0.7117
 4785SOL     OW25816   0.280   3.082   2.223 -0.2813 -0.5995 -0.1962
 4785SOL    HW125817   0.305   2.991   2.213  0.1889 -0.7216  2.2312
 4785SOL    HW225818   0.345   3.124   2.279 -0.9113 -0.9930  0.8272
 4786SOL     OW25819   0.573   3.438   5.083  0.1857 -0.2196 -0.3426
 4786SOL    HW125820   0.495   3.465   5.035  0.2194 -1.2820 -0.9802
 4786SOL    HW225821   0.639   3.496   5.045 -0.7178  0.1336 -1.3764
 4787SOL     OW25822   0.796   3.484   2.685  0.3825  0.0927  0.3181
 4787SOL    HW125823   0.780   3.443   2.770  0.3693  0.0777  0.3084
 4787SOL    HW225824   0.799   3.573   2.721  0.9565  0.3087 -0.2696
 4788SOL     OW25825   1.236   2.467  10.745  0.0433  0.3687  0.3932
 4788SOL    HW125826   1.222   2.544  10.691 -0.0303  0.2565  0.2504
 4788SOL    HW225827   1.215   2.499  10.832  0.9182  2.7996 -0.2862
 4789SOL     OW25828   1.263   0.675   9.797  0.5180  0.4253  0.0153
 4789SOL    HW125829   1.283   0.632   9.880  2.4497 -1.6737 -1.5515
 4789SOL    HW225830   1.350   0.713   9.788 -0.1994  1.2954 -3.2385
 4790SOL     OW25831   2.685   1.005  16.924  0.0319  0.2898  0.5619
 4790SOL    HW125832   2.608   0.994  16.979  0.6446 -0.4234  1.2862
 4790SOL    HW225833   2.754   1.009  16.991  1.7083 -0.7532 -1.0958
 4791SOL     OW25834   2.096   2.366   0.287  0.3621 -0.1042  0.1735
 4791SOL    HW125835   2.102   2.441   0.229 -0.7893 -0.7933 -0.8217
 4791SOL    HW225836   2.060   2.413   0.362  3.1151 -1.1353  2.1296
 4792SOL     OW25837   3.769   2.871   8.276 -0.0926  0.2540 -0.0719
 4792SOL    HW125838   3.735   2.875   8.365 -0.4846 -1.8318 -0.1102
 4792SOL    HW225839   3.821   2.790   8.283 -3.0618 -1.5085  1.6734
 4793SOL     OW25840   3.271   3.639   5.520 -0.6451 -0.0523  0.0539
 4793SOL    HW125841   3.293   3.730   5.497 -3.2319  0.5134 -0.1570
 4793SOL    HW225842   3.201   3.623   5.457 -0.1718 -1.9979  0.0200
 4794SOL     OW25843   0.678   4.367  10.923  0.6466 -0.1333  0.1564
 4794SOL    HW125844   0.721   4.289  10.958 -0.5275 -0.4371  0.8926
 4794SOL    HW225845   0.726   4.389  10.843  1.1423 -2.3152 -0.1610
 4795SOL     OW25846   3.757   3.083   2.227  0.3118  0.0655 -0.4098
 4795SOL    HW125847   3.756   2.988   2.218 -0.4122 -0.1267  1.7189
 4795SOL    HW225848   3.739   3.106   2.136  0.6638  0.0279 -0.4884
 4796SOL     OW25849   0.914   4.635   9.088 -0.1780  0.0522 -0.2315
 4796SOL    HW125850   0.822   4.636   9.063 -0.1302  1.4534 -0.3583
 4796SOL    HW225851   0.914   4.584   9.169  1.8305 -0.7963 -0.7687
 4797SOL     OW25852   4.051   1.219   1.958 -0.1630 -0.2280 -0.3121
 4797SOL    HW125853   4.053   1.146   2.020  0.5284  0.0411 -0.0225
 4797SOL    HW225854   4.143   1.212   1.934 -0.8132  0.3530 -3.0071
 4798SOL     OW25855   2.644   0.303   3.563 -0.2204  0.5681  0.2753
 4798SOL    HW125856   2.564   0.346   3.531  0.0844  0.7377 -0.2505
 4798SOL    HW225857   2.710   0.322   3.497 -0.3893  0.9550  0.2186
 4799SOL     OW25858   0.320   1.433   2.272 -0.0429  0.0895  0.2877
 4799SOL    HW125859   0.374   1.484   2.212  0.0184  1.9297  1.9026
 4799SOL    HW225860   0.283   1.371   2.209  0.5584 -0.1876  0.2046
 4800SOL     OW25861   3.488   1.139   3.628 -0.0710  0.2881  0.6087
 4800SOL    HW125862   3.525   1.086   3.698 -0.4960  0.2657  0.8133
 4800SOL    HW225863   3.536   1.099   3.555 -0.3041 -1.5636  1.4793
 4801SOL     OW25864   4.440   0.956   4.030  0.2448 -0.1624  0.5679
 4801SOL    HW125865   4.369   0.916   3.979  2.0559 -0.5379 -1.6574
 4801SOL    HW225866   4.411   0.930   4.118 -1.3851 -0.8711 -0.1597
 4802SOL     OW25867   0.473   0.920   6.180  0.8351  0.4573  0.0845
 4802SOL    HW125868   0.555   0.969   6.173  1.8397 -1.1490  0.5861
 4802SOL    HW225869   0.478   0.901   6.273  0.6381  2.9631  0.6230
 4803SOL     OW25870   1.876   1.566   9.052 -0.1230 -0.4955  0.4008
 4803SOL    HW125871   1.827   1.484   9.063 -0.7911 -0.2755 -0.8987
 4803SOL    HW225872   1.948   1.537   8.996  0.6368  1.9890  0.0826
 4804SOL     OW25873   1.228   2.455  17.413 -0.1416  0.1391  0.0928
 4804SOL    HW125874   1.229   2.458  17.508  1.2970  1.0687  0.0477
 4804SOL    HW225875   1.164   2.526  17.404  0.9864  1.3947  2.1453
 4805SOL     OW25876   1.655   4.424   5.150 -0.2773  0.1506 -0.2657
 4805SOL    HW125877   1.590   4.427   5.079 -2.8139 -1.8241  1.9630
 4805SOL    HW225878   1.601   4.397   5.225  1.5081 -1.7009  0.3332
 4806SOL     OW25879   2.595   3.294   6.532  0.3007 -0.2433 -0.4000
 4806SOL    HW125880   2.634   3.373   6.495 -1.4501  0.8693  0.1607
 4806SOL    HW225881   2.531   3.268   6.466  1.7016 -2.2221 -0.9981
 4807SOL     OW25882   2.434   3.305   3.931  0.1558  0.0335 -0.0619
 4807SOL    HW125883   2.525   3.305   3.960  0.4684 -1.0744 -1.0483
 4807SOL    HW225884   2.387   3.343   4.006 -2.6272 -2.5174 -0.5080
 4808SOL     OW25885   0.091   1.693  15.709  0.3537 -0.5573 -0.2919
 4808SOL    HW125886   0.167   1.635  15.714 -0.8592 -2.2068 -0.7547
 4808SOL    HW225887   0.050   1.655  15.630 -1.5920 -2.5575  1.6761
 4809SOL     OW25888   2.223   0.413   6.951 -0.6731  0.2460  0.0399
 4809SOL    HW125889   2.139   0.405   6.905 -1.0430 -0.9859  0.9305
 4809SOL    HW225890   2.270   0.336   6.921  0.8457  1.4500 -0.6471
 4810SOL     OW25891   2.928   1.998   5.655  0.5877 -0.5889 -0.3737
 4810SOL    HW125892   2.850   2.052   5.668  2.0492  1.4974 -0.2251
 4810SOL    HW225893   2.977   2.036   5.583  2.3213  0.1685  1.2162
 4811SOL     OW25894   1.479   2.959   6.281 -0.0290  0.2293  0.1634
 4811SOL    HW125895   1.385   2.963   6.263  0.2620 -0.0100 -1.4374
 4811SOL    HW225896   1.483   2.863   6.286 -2.3210  0.1202  0.2645
 4812SOL     OW25897   3.358   3.557   4.701 -0.1609 -0.2892 -0.5198
 4812SOL    HW125898   3.304   3.568   4.780 -0.6170 -0.9123 -0.7437
 4812SOL    HW225899   3.308   3.617   4.645 -0.0594 -2.1902 -2.6621
 4813SOL     OW25900   3.090   3.170  15.636  0.7691 -0.1571  0.4953
 4813SOL    HW125901   3.057   3.095  15.685  1.5669  0.1036  1.4384
 4813SOL    HW225902   3.136   3.126  15.565  1.3299  2.0825 -0.5195
 4814SOL     OW25903   0.295   2.409   7.619  0.3834 -0.0626 -0.2073
 4814SOL    HW125904   0.290   2.394   7.713  2.9720 -1.0092 -0.2309
 4814SOL    HW225905   0.211   2.455   7.610  0.5328  0.0489 -1.0284
 4815SOL     OW25906   3.268   4.657  11.330  0.2964 -0.7492  0.0845
 4815SOL    HW125907   3.219   4.719  11.385  0.0215 -2.7242  2.0240
 4815SOL    HW225908   3.350   4.705  11.318 -0.3304  0.0534 -1.0728
 4816SOL     OW25909   3.705   2.388   3.785  0.3693 -0.1810  0.1595
 4816SOL    HW125910   3.684   2.454   3.720  1.4589  1.8138  1.8032
 4816SOL    HW225911   3.782   2.348   3.744  0.5807  1.1087 -0.7133
 4817SOL     OW25912   1.726   0.569   3.540 -0.3523  0.0431 -0.6669
 4817SOL    HW125913   1.711   0.490   3.591  0.6857 -0.1782 -0.7016
 4817SOL    HW225914   1.781   0.630   3.589 -2.4217  1.4623 -0.1059
 4818SOL     OW25915   2.827   1.742   7.940  0.1530 -0.1409 -0.2762
 4818SOL    HW125916   2.880   1.672   7.979 -0.4208  0.2865  1.2805
 4818SOL    HW225917   2.894   1.808   7.922  0.1343 -0.1285 -0.3006
 4819SOL     OW25918   1.521   3.811   5.484 -0.0035 -0.5862  0.2615
 4819SOL    HW125919   1.532   3.803   5.579 -2.3854  2.0937  0.7559
 4819SOL    HW225920   1.616   3.804   5.475 -0.1373 -1.3465 -0.5094
 4820SOL     OW25921   4.137   3.836   8.880 -0.1216  0.2117  0.0914
 4820SOL    HW125922   4.113   3.921   8.916 -1.8513 -0.0800 -0.3778
 4820SOL    HW225923   4.110   3.784   8.956  1.9763  0.7293  1.1689
 4821SOL     OW25924   1.380   3.542   4.492  0.1785  0.1507 -0.5228
 4821SOL    HW125925   1.429   3.518   4.571  1.0002 -0.3525 -1.1877
 4821SOL    HW225926   1.297   3.503   4.517  1.3135 -1.0529  1.4135
 4822SOL     OW25927   3.129   2.020   4.181 -0.1045  0.0310  0.1925
 4822SOL    HW125928   3.066   1.970   4.129 -0.6122  0.0481  0.7781
 4822SOL    HW225929   3.183   2.061   4.114  0.4557  0.5772  0.9683
 4823SOL     OW25930   2.597   1.319   4.998 -0.2884  0.3174  0.0527
 4823SOL    HW125931   2.646   1.374   5.058 -0.0193 -2.1336  2.1030
 4823SOL    HW225932   2.546   1.270   5.063 -0.3165  0.1800 -0.0719
 4824SOL     OW25933   1.534   1.220   8.083  0.3213  0.2089  0.5641
 4824SOL    HW125934   1.516   1.151   8.147 -0.5256 -3.0880 -3.2501
 4824SOL    HW225935   1.612   1.179   8.045 -2.0028 -2.7291 -1.0465
 4825SOL     OW25936   2.685   3.233   5.474  0.3966  0.1048 -0.1532
 4825SOL    HW125937   2.621   3.269   5.535  2.2181 -0.1294  1.9044
 4825SOL    HW225938   2.690   3.139   5.492 -0.8317  0.5902  2.7651
 4826SOL     OW25939   0.854   1.374   0.714  0.6187  0.0306 -0.4985
 4826SOL    HW125940   0.940   1.391   0.751  1.7074 -0.9513 -2.5986
 4826SOL    HW225941   0.868   1.391   0.620 -0.1794 -0.7011 -0.7511
 4827SOL     OW25942   3.535   4.452  11.351  0.4550 -0.4709  0.1651
 4827SOL    HW125943   3.512   4.537  11.316 -1.1632 -0.1177  2.0949
 4827SOL    HW225944   3.451   4.406  11.352 -0.2418  0.8272  0.0844
 4828SOL     OW25945   1.569   1.655   7.114  0.2387 -0.3094 -0.2585
 4828SOL    HW125946   1.640   1.665   7.177  0.1286  0.4527 -0.2571
 4828SOL    HW225947   1.595   1.724   7.052  1.6860 -0.3159  0.3459
 4829SOL     OW25948   2.615   3.204   4.208  0.3625 -0.8556 -0.0553
 4829SOL    HW125949   2.670   3.241   4.138  0.4886 -1.4790 -0.2878
 4829SOL    HW225950   2.600   3.284   4.258 -2.0049 -0.6400 -1.0850
 4830SOL     OW25951   0.598   4.676   5.132 -0.5974 -0.4007  0.1003
 4830SOL    HW125952   0.585   0.038   5.171 -0.3946 -0.5657  0.5358
 4830SOL    HW225953   0.612   4.622   5.211  2.0993 -0.5803 -0.4941
 4831SOL     OW25954   2.119   0.197  11.357 -0.5764  0.8730 -0.0761
 4831SOL    HW125955   2.140   0.227  11.446  0.7375  0.7809 -0.3585
 4831SOL    HW225956   2.152   0.108  11.364 -0.3023  0.9620 -0.2144
 4832SOL     OW25957   0.219   2.463  12.887  0.2858 -0.4077  0.7914
 4832SOL    HW125958   0.270   2.395  12.841 -0.7818  0.0741 -1.1309
 4832SOL    HW225959   0.283   2.524  12.924 -0.4453  0.5851  0.3836
 4833SOL     OW25960   2.565   0.135   6.997  0.1655  0.3275  0.3227
 4833SOL    HW125961   2.597   0.219   7.028 -0.3459  0.4826  0.4337
 4833SOL    HW225962   2.635   0.133   6.931  1.1998  0.4021  1.4210
 4834SOL     OW25963   1.886   0.616  13.628  0.7360 -0.8178  0.3769
 4834SOL    HW125964   1.944   0.548  13.593  0.2594  0.1104 -2.2172
 4834SOL    HW225965   1.890   0.594  13.721  0.4655  0.1654  0.6130
 4835SOL     OW25966   3.855   1.257  16.055  0.5529 -0.0046 -0.3965
 4835SOL    HW125967   3.889   1.172  16.085  1.2933  0.4242 -0.0023
 4835SOL    HW225968   3.907   1.265  15.975 -1.0417 -4.0790 -1.8174
 4836SOL     OW25969   2.942   1.902  16.126 -0.2943 -0.0852  0.5093
 4836SOL    HW125970   2.952   1.996  16.139 -1.1133  0.0159  0.4015
 4836SOL    HW225971   2.856   1.883  16.164 -0.3237 -1.6035 -0.3429
 4837SOL     OW25972   0.222   4.350   7.343  0.4980 -0.0842 -0.5901
 4837SOL    HW125973   0.212   4.407   7.418 -0.3060  0.0562 -0.8045
 4837SOL    HW225974   0.317   4.340   7.347  0.6321  1.3721 -0.4138
 4838SOL     OW25975   0.851   0.214  12.324 -0.2443  0.1584 -0.2369
 4838SOL    HW125976   0.765   0.174  12.332 -0.6554  0.7656 -1.6578
 4838SOL    HW225977   0.906   0.145  12.285  0.2956  0.4069  0.0773
 4839SOL     OW25978   2.464   0.492   3.416 -0.1342  0.2891  0.3428
 4839SOL    HW125979   2.482   0.552   3.344  2.5826 -0.4514  0.4297
 4839SOL    HW225980   2.369   0.481   3.409  0.1891 -1.6656 -0.9975
 4840SOL     OW25981   0.304   1.456  12.567  0.0879 -0.4308 -0.6203
 4840SOL    HW125982   0.354   1.374  12.573 -2.1674 -1.7465  0.1454
 4840SOL    HW225983   0.240   1.449  12.637  0.0636  0.2126 -0.5792
 4841SOL     OW25984   3.733   1.923   2.073  0.4753  0.2812 -0.3493
 4841SOL    HW125985   3.744   1.836   2.035  1.6140 -0.0822  0.8041
 4841SOL    HW225986   3.641   1.919   2.098  0.7595 -1.5318  0.3760
 4842SOL     OW25987   2.126   3.390   3.548 -0.0415  0.1228  0.2282
 4842SOL    HW125988   2.161   3.332   3.616  1.3506  0.6125 -0.0594
 4842SOL    HW225989   2.148   3.475   3.587  0.6740 -0.7794  1.7918
 4843SOL     OW25990   2.860   4.638   8.283 -0.2172  0.6157  0.2781
 4843SOL    HW125991   2.936   4.586   8.308 -0.8998 -0.7645 -0.5163
 4843SOL    HW225992   2.828   4.603   8.199  0.4541 -0.2755  0.3880
 4844SOL     OW25993   0.309   3.688   4.438  0.0173 -0.3753  0.2728
 4844SOL    HW125994   0.240   3.626   4.415  0.6887 -0.9913 -0.1116
 4844SOL    HW225995   0.249   3.761   4.450  0.1464  0.0811 -1.9008
 4845SOL     OW25996   1.935   1.824   9.605 -0.1528 -0.3743 -0.4577
 4845SOL    HW125997   1.841   1.810   9.621 -0.0721  2.1111  2.4100
 4845SOL    HW225998   1.980   1.767   9.667  1.8207  1.7037  0.0203
 4846SOL     OW25999   1.593   3.186  11.913  0.0710  0.3475  0.3306
 4846SOL    HW126000   1.556   3.232  11.838 -0.5553  0.2428  0.5781
 4846SOL    HW226001   1.529   3.205  11.981 -0.4766 -0.0290 -0.0856
 4847SOL     OW26002   2.016   0.324  12.921 -0.0700 -0.0574  0.1331
 4847SOL    HW126003   2.069   0.398  12.948 -3.2225  1.2488  2.7062
 4847SOL    HW226004   1.995   0.342  12.829 -2.4865 -2.7804  0.1299
 4848SOL     OW26005   3.636   3.555   3.842  0.4870 -0.4740 -0.0203
 4848SOL    HW126006   3.667   3.466   3.860  0.3984 -0.3020  0.9455
 4848SOL    HW226007   3.542   3.540   3.832  0.2121  1.3741 -0.0958
 4849SOL     OW26008   2.964   2.857   5.936  0.0579 -0.1962  0.4945
 4849SOL    HW126009   2.921   2.833   5.854 -1.4538 -0.4578  1.3430
 4849SOL    HW226010   2.912   2.796   5.989  2.0232 -0.0178  2.6379
 4850SOL     OW26011   1.045   2.387  15.761  0.6324  0.7294 -0.5682
 4850SOL    HW126012   1.139   2.371  15.765  0.6657  1.5681  2.6384
 4850SOL    HW226013   1.012   2.304  15.725  4.0429 -0.4223 -1.0103
 4851SOL     OW26014   2.038   3.792   1.922  0.2909 -0.0676 -0.1847
 4851SOL    HW126015   1.971   3.771   1.856 -1.0227  1.9301  0.5184
 4851SOL    HW226016   2.048   3.707   1.963 -0.0478 -1.2722 -2.5884
 4852SOL     OW26017   1.448   3.411   0.528  0.3202  0.0773 -0.4870
 4852SOL    HW126018   1.451   3.489   0.584  2.4295 -0.1711 -0.2726
 4852SOL    HW226019   1.538   3.392   0.503  0.8296  1.7731  0.0162
 4853SOL     OW26020   3.672   0.196   4.098 -0.1243  0.2245  0.2191
 4853SOL    HW126021   3.646   0.150   4.019  1.4506 -2.3777  1.2116
 4853SOL    HW226022   3.587   0.236   4.116 -0.1376  0.0368  0.5676
 4854SOL     OW26023   2.789   0.558   9.321 -0.2008  0.2084  0.3374
 4854SOL    HW126024   2.831   0.643   9.333  0.1944 -0.2126  1.8872
 4854SOL    HW226025   2.761   0.533   9.409 -0.3410  2.2843  0.8833
 4855SOL     OW26026   4.301   4.315   3.207  0.1994 -0.3481 -0.2912
 4855SOL    HW126027   4.260   4.337   3.291  0.6338  1.0999 -0.4474
 4855SOL    HW226028   4.235   4.256   3.172 -0.4828  0.2107  0.0531
 4856SOL     OW26029   2.869   2.834  16.747 -0.3003 -0.4137  0.1488
 4856SOL    HW126030   2.946   2.835  16.805 -0.4759  1.2468  0.3353
 4856SOL    HW226031   2.812   2.896  16.793 -0.4167 -0.0527 -0.4967
 4857SOL     OW26032   1.597   0.385   1.777  0.5230  0.3672 -0.1790
 4857SOL    HW126033   1.520   0.362   1.829  1.3988 -2.1392  0.0011
 4857SOL    HW226034   1.648   0.415   1.852 -0.0900 -2.2121  1.2816
 4858SOL     OW26035   3.869   2.059   6.304  0.0773 -0.1081  0.1450
 4858SOL    HW126036   3.822   1.979   6.282 -0.3958  0.3667 -0.5503
 4858SOL    HW226037   3.901   2.088   6.219  0.9673 -1.2542  0.0747
 4859SOL     OW26038   2.433   4.226   9.061  0.7035 -0.3409  0.3005
 4859SOL    HW126039   2.351   4.225   9.012 -0.7390 -0.3236  2.7089
 4859SOL    HW226040   2.445   4.132   9.079  0.9345 -0.4369 -0.3640
 4860SOL     OW26041   0.187   4.103   7.705 -0.5708  0.3625 -0.5099
 4860SOL    HW126042   0.112   4.157   7.729 -3.4194 -2.9921 -1.9443
 4860SOL    HW226043   0.146   4.018   7.692 -0.8756  0.2317  1.2920
 4861SOL     OW26044   0.503   2.109   6.068  0.5489 -0.1454 -0.0433
 4861SOL    HW126045   0.474   2.180   6.126  3.3178  2.7092 -2.1064
 4861SOL    HW226046   0.564   2.157   6.011 -1.6558  1.7957 -0.7854
 4862SOL     OW26047   2.687   1.767  16.557  1.0789 -0.4974 -0.3960
 4862SOL    HW126048   2.739   1.800  16.629  0.7751 -0.4856 -0.1824
 4862SOL    HW226049   2.634   1.840  16.525 -0.1219 -0.8219  0.8677
 4863SOL     OW26050   2.890   2.706   4.593 -0.1135 -0.1523 -0.5403
 4863SOL    HW126051   2.898   2.787   4.643  1.0681  0.2797 -1.4479
 4863SOL    HW226052   2.933   2.648   4.656 -0.7781 -2.3002 -2.0531
 4864SOL     OW26053   4.108   0.876   7.988  1.1685  0.8300  0.1858
 4864SOL    HW126054   4.148   0.932   8.054  1.9975  0.3783  0.0762
 4864SOL    HW226055   4.019   0.874   8.022  1.1434  1.5141  0.1558
 4865SOL     OW26056   0.837   3.039  14.828 -1.0558  0.4876 -0.4903
 4865SOL    HW126057   0.922   3.083  14.824  0.4139 -2.2687 -0.0199
 4865SOL    HW226058   0.791   3.069  14.906 -0.7826  0.6572 -0.3921
 4866SOL     OW26059   2.572   0.471   6.037 -0.3253  0.2529  0.2336
 4866SOL    HW126060   2.648   0.526   6.054  0.2338 -0.0854 -1.1846
 4866SOL    HW226061   2.562   0.464   5.942 -0.7627 -1.9275  0.4371
 4867SOL     OW26062   1.096   1.051   6.772 -0.0356 -0.7247 -0.1857
 4867SOL    HW126063   1.176   0.999   6.759  1.1692  0.9152  0.6233
 4867SOL    HW226064   1.077   1.092   6.688 -0.2171 -0.9010 -0.2287
 4868SOL     OW26065   2.999   4.595   6.661  0.1559  0.0860 -0.2329
 4868SOL    HW126066   3.059   4.564   6.728 -0.8048 -1.4370 -0.0951
 4868SOL    HW226067   2.919   4.568   6.706 -1.0204 -0.2631 -2.4847
 4869SOL     OW26068   3.959   0.629   7.603 -0.3272 -0.2524  0.0533
 4869SOL    HW126069   3.890   0.664   7.659 -0.5970 -0.8254  0.0882
 4869SOL    HW226070   4.021   0.597   7.668 -0.3235 -0.1078  0.1210
 4870SOL     OW26071   1.199   0.433   3.744  0.3491 -0.6296  0.2007
 4870SOL    HW126072   1.285   0.436   3.702  0.0102 -1.9481 -0.6028
 4870SOL    HW226073   1.187   0.338   3.753 -0.5505 -0.4540  0.8220
 4871SOL     OW26074   3.572   4.557   0.827 -0.1949  0.0499 -0.3729
 4871SOL    HW126075   3.611   4.623   0.885  0.7593 -0.6320 -0.2220
 4871SOL    HW226076   3.605   4.474   0.860 -1.7877 -0.5408 -0.2969
 4872SOL     OW26077   1.463   2.797   4.491 -0.1644  0.2156 -0.7561
 4872SOL    HW126078   1.549   2.836   4.510 -1.3114  2.1557  0.5058
 4872SOL    HW226079   1.424   2.791   4.578  0.2171  1.4035 -0.5000
 4873SOL     OW26080   4.500   1.973   2.845  0.2054  0.3021  0.9443
 4873SOL    HW126081   4.475   2.062   2.818 -1.6518 -0.1224  1.2782
 4873SOL    HW226082   4.566   1.949   2.780 -0.2485 -0.7060  0.8681
 4874SOL     OW26083   3.155   1.108   5.310 -0.3027 -0.5998 -0.0242
 4874SOL    HW126084   3.130   1.047   5.241  0.7890 -0.6604 -0.3665
 4874SOL    HW226085   3.227   1.063   5.354 -0.8399  0.2148  1.6582
 4875SOL     OW26086   4.592   0.222   6.191  0.4012  0.4905  0.4094
 4875SOL    HW126087   4.635   0.138   6.204  1.2113  0.0526 -5.0713
 4875SOL    HW226088   4.657   0.283   6.225 -0.3419  2.0043 -0.8841
 4876SOL     OW26089   2.192   4.111   4.034  0.1536 -0.0363 -0.3421
 4876SOL    HW126090   2.179   4.193   4.081  2.2360 -1.2004  2.2537
 4876SOL    HW226091   2.143   4.116   3.952 -0.5586 -1.3231  0.0071
 4877SOL     OW26092   3.571   3.147  10.604  0.0847  0.0658  0.2459
 4877SOL    HW126093   3.515   3.222  10.622 -2.1379 -1.1245 -1.6817
 4877SOL    HW226094   3.655   3.189  10.585  0.0648 -1.1413 -2.5785
 4878SOL     OW26095   4.135   0.293  12.668 -0.1060  0.3002 -0.0764
 4878SOL    HW126096   4.098   0.336  12.745  0.2530 -1.9572  1.3642
 4878SOL    HW226097   4.092   0.208  12.680 -2.1417  0.9751 -2.4178
 4879SOL     OW26098   1.143   4.412   4.013 -0.2245 -0.1669  0.1661
 4879SOL    HW126099   1.093   4.331   4.008 -1.9020  0.8953 -0.4071
 4879SOL    HW226100   1.223   4.390   4.061  0.1605  0.3974 -0.2272
 4880SOL     OW26101   3.541   3.134   5.011 -0.4925  0.5285 -0.1136
 4880SOL    HW126102   3.612   3.072   5.031 -1.5273 -1.0653 -1.3285
 4880SOL    HW226103   3.472   3.077   5.045  0.2866  0.2541  1.0065
 4881SOL     OW26104   3.200   3.261   6.688 -0.0440 -0.3172  0.5012
 4881SOL    HW126105   3.139   3.226   6.752 -1.2560  1.0855  0.1097
 4881SOL    HW226106   3.240   3.324   6.748  0.9052 -0.0757 -0.3634
 4882SOL     OW26107   2.166   4.083   8.910 -0.1146  0.2603 -0.4149
 4882SOL    HW126108   2.208   4.149   8.854  1.1740 -1.9222 -1.9798
 4882SOL    HW226109   2.097   4.128   8.959  0.1097  1.5497 -1.2821
 4883SOL     OW26110   0.856   2.529  12.930  0.8074  0.2339 -0.4810
 4883SOL    HW126111   0.874   2.600  12.869 -1.8698 -0.0485 -1.5981
 4883SOL    HW226112   0.940   2.485  12.938 -0.3943 -1.6041  1.9811
 4884SOL     OW26113   1.971   1.522   1.692  0.3702  0.3907 -0.1718
 4884SOL    HW126114   1.880   1.502   1.711  0.5524 -1.0562 -0.7821
 4884SOL    HW226115   1.981   1.480   1.606 -1.3337 -1.0925  0.3443
 4885SOL     OW26116   4.426   1.504   7.830 -0.0119  0.0014 -0.3870
 4885SOL    HW126117   4.397   1.581   7.780  0.3491  0.1809 -0.3231
 4885SOL    HW226118   4.520   1.527   7.834  0.6555 -2.9997  0.6619
 4886SOL     OW26119   3.761   2.889   2.629  0.3788  0.3396 -0.6491
 4886SOL    HW126120   3.745   2.813   2.684 -0.4832 -0.0053 -1.3678
 4886SOL    HW226121   3.713   2.958   2.675  1.0525  0.3332  0.0550
 4887SOL     OW26122   1.912   3.293  10.392  0.4647  0.3532  0.2901
 4887SOL    HW126123   1.849   3.283  10.321  0.4270  0.0966  0.3606
 4887SOL    HW226124   1.983   3.330  10.340  0.1913  1.2552  0.5635
 4888SOL     OW26125   2.690   2.032   6.718  0.6793  0.1565 -0.0176
 4888SOL    HW126126   2.638   1.986   6.784 -1.4531 -0.1542 -1.9030
 4888SOL    HW226127   2.718   2.108   6.768  0.3874  0.9163 -0.9998
 4889SOL     OW26128   0.416   2.048   6.486  0.3610  0.7091 -0.3677
 4889SOL    HW126129   0.462   2.085   6.562 -0.4543  0.5147  0.2127
 4889SOL    HW226130   0.361   2.125   6.475  0.6277  0.8486 -0.7302
 4890SOL     OW26131   2.794   2.893   3.539 -0.0610  0.3754  0.4496
 4890SOL    HW126132   2.706   2.872   3.507  0.2037 -0.7224  0.4502
 4890SOL    HW226133   2.847   2.831   3.489 -0.4573 -1.1557  1.9179
 4891SOL     OW26134   3.431   3.799  10.195 -0.7602 -0.3795 -0.3747
 4891SOL    HW126135   3.344   3.839  10.192 -0.3766  0.4414 -0.3477
 4891SOL    HW226136   3.488   3.868  10.161 -0.8140 -0.6191 -0.9484
 4892SOL     OW26137   2.064   3.588  17.631  0.1410 -0.4190  0.0050
 4892SOL    HW126138   2.146   3.632  17.651  0.4644 -1.8316  1.7393
 4892SOL    HW226139   2.006   3.630  17.695 -2.2298 -3.4149 -0.1824
 4893SOL     OW26140   2.712   4.341   3.995  0.7718  0.2527  0.9100
 4893SOL    HW126141   2.762   4.388   4.062  2.1718 -0.6694  0.5133
 4893SOL    HW226142   2.782   4.287   3.958  0.3223 -0.4308  1.0810
 4894SOL     OW26143   0.804   3.490   8.756 -0.2304  0.4054  0.6218
 4894SOL    HW126144   0.725   3.436   8.753 -1.0150  1.5983 -0.2809
 4894SOL    HW226145   0.870   3.422   8.771 -3.3796 -2.6413  0.5652
 4895SOL     OW26146   2.452   1.598   0.327  0.3494  0.4115  0.0118
 4895SOL    HW126147   2.496   1.530   0.379  1.5999  0.4192 -1.0328
 4895SOL    HW226148   2.455   1.666   0.394 -0.2302  0.8334 -0.3951
 4896SOL     OW26149   4.600   0.130   2.092  0.6244 -0.4194 -0.2541
 4896SOL    HW126150   4.671   0.190   2.112 -0.8627  0.5899  2.0754
 4896SOL    HW226151   4.526   0.190   2.099 -0.2572 -1.8059  2.3678
 4897SOL     OW26152   2.714   0.417   3.155 -0.1028 -0.5678  0.5442
 4897SOL    HW126153   2.696   0.484   3.221  0.8429  1.1750 -0.9699
 4897SOL    HW226154   2.772   0.463   3.095 -0.0175 -1.3518  0.0290
 4898SOL     OW26155   3.853   3.105   7.560  0.2777  0.4055 -0.3327
 4898SOL    HW126156   3.856   3.199   7.573  0.5077  0.3808 -0.1994
 4898SOL    HW226157   3.763   3.099   7.593  0.6291 -0.8880  0.4319
 4899SOL     OW26158   2.711   0.461   9.574 -0.0948 -0.2249  0.5215
 4899SOL    HW126159   2.716   0.367   9.554 -0.6813 -0.6767  2.4954
 4899SOL    HW226160   2.777   0.466   9.643  1.2113 -1.7083 -0.6051
 4900SOL     OW26161   3.872   0.142   4.796 -0.1310  0.0526 -0.8032
 4900SOL    HW126162   3.866   0.054   4.831 -1.4348  0.2638 -0.4670
 4900SOL    HW226163   3.957   0.172   4.827  0.6453 -2.4781 -0.5498
 4901SOL     OW26164   1.878   3.761   4.546  0.2589  0.6474 -0.1399
 4901SOL    HW126165   1.970   3.772   4.571  0.2964  2.1003 -0.9406
 4901SOL    HW226166   1.850   3.839   4.594 -2.3210  0.7538 -1.8334
 4902SOL     OW26167   0.984   0.593  14.061 -0.3495 -0.1428  0.5610
 4902SOL    HW126168   0.941   0.641  13.989  3.0189 -0.5551 -1.7252
 4902SOL    HW226169   0.907   0.581  14.117 -0.5248  0.1466  0.3860
 4903SOL     OW26170   4.240   4.578  16.545 -0.3539  0.0205  0.0571
 4903SOL    HW126171   4.214   4.564  16.637 -0.1939  1.6047  0.3390
 4903SOL    HW226172   4.233   4.673  16.538  1.2663  0.1143 -0.2132
 4904SOL     OW26173   1.581   1.521   3.351 -0.1010  0.1361  0.0463
 4904SOL    HW126174   1.668   1.552   3.374 -0.4756 -0.1046  1.8081
 4904SOL    HW226175   1.567   1.438   3.398 -0.0861 -0.1593 -0.4640
 4905SOL     OW26176   3.109   0.869   7.037 -0.1968  0.0413  0.1291
 4905SOL    HW126177   3.094   0.788   6.988  1.0792  2.1114 -3.6330
 4905SOL    HW226178   3.041   0.922   6.996 -1.6137 -0.3717  1.9678
 4906SOL     OW26179   3.863   3.170  16.776 -0.1123  0.6002  0.5398
 4906SOL    HW126180   3.889   3.090  16.730 -1.2603  1.0718 -0.9273
 4906SOL    HW226181   3.799   3.208  16.716 -1.1867  2.0270  2.5850
 4907SOL     OW26182   0.435   2.350  13.698 -0.4648  0.1522  0.0034
 4907SOL    HW126183   0.389   2.362  13.615  0.7086 -1.0459 -0.8120
 4907SOL    HW226184   0.427   2.255  13.697 -1.2474  0.2545 -3.0098
 4908SOL     OW26185   1.218   1.502   4.061 -0.0409 -0.7936 -0.0159
 4908SOL    HW126186   1.261   1.530   4.142 -0.7661 -2.3666  0.9187
 4908SOL    HW226187   1.216   1.407   4.078 -0.9815 -0.8325 -0.3642
 4909SOL     OW26188   3.369   3.890   4.363  0.6431  0.1792  0.2025
 4909SOL    HW126189   3.427   3.944   4.310 -1.7426  0.8996 -1.6443
 4909SOL    HW226190   3.341   3.955   4.428  0.7302 -1.6138  2.0231
 4910SOL     OW26191   2.658   2.970  17.646  0.1199 -0.0844  0.2748
 4910SOL    HW126192   2.714   2.958  17.569 -0.7266 -2.2022 -0.0087
 4910SOL    HW226193   2.587   2.910  17.620 -0.9910  1.6740 -0.7206
 4911SOL     OW26194   3.663   0.307   2.493  0.3547  0.1005  0.0029
 4911SOL    HW126195   3.729   0.371   2.521  1.8691 -1.9408  1.0736
 4911SOL    HW226196   3.669   0.233   2.553  0.1265 -1.6948 -2.1664
 4912SOL     OW26197   3.418   0.347   0.292  0.6526  0.5496  0.1424
 4912SOL    HW126198   3.453   0.331   0.204 -1.7752  0.4010 -0.7975
 4912SOL    HW226199   3.473   0.285   0.340 -1.5411 -1.6891 -0.2483
 4913SOL     OW26200   0.276   2.100   2.266  0.5943 -0.4492 -0.4654
 4913SOL    HW126201   0.222   2.176   2.245  0.6707  0.1521  1.4859
 4913SOL    HW226202   0.336   2.149   2.323 -0.7677 -1.4389  1.8182
 4914SOL     OW26203   0.378   3.502  14.095 -0.2132 -0.3548 -0.3298
 4914SOL    HW126204   0.433   3.497  14.173 -0.7638  0.3098  0.1054
 4914SOL    HW226205   0.437   3.468  14.028  0.3991  0.4760 -0.2210
 4915SOL     OW26206   2.018   1.972   6.627  0.3059 -0.2575 -0.2406
 4915SOL    HW126207   1.950   1.986   6.561  0.8232  2.3967 -0.1923
 4915SOL    HW226208   1.970   1.910   6.682  0.3999 -0.8187 -0.7884
 4916SOL     OW26209   1.033   1.153   7.016 -0.3634 -0.6544 -0.1119
 4916SOL    HW126210   0.947   1.189   6.995 -0.5924 -1.3650 -0.4045
 4916SOL    HW226211   1.071   1.113   6.938  1.5065 -1.2127  1.0638
 4917SOL     OW26212   1.221   0.129   3.693 -0.5189 -0.2008 -0.2265
 4917SOL    HW126213   1.168   0.065   3.739  0.7045 -0.8894  0.1916
 4917SOL    HW226214   1.305   0.139   3.736 -0.0283 -2.3388 -0.7250
 4918SOL     OW26215   0.649   0.069   7.692 -0.0455  0.3254 -0.0742
 4918SOL    HW126216   0.579   0.111   7.743 -1.3639 -2.4773  0.4014
 4918SOL    HW226217   0.599   0.020   7.626  1.8191 -1.0666 -0.4441
 4919SOL     OW26218   1.865   3.227   6.568  0.2677 -0.1229  0.8897
 4919SOL    HW126219   1.845   3.274   6.487  1.2395 -0.0847  0.6682
 4919SOL    HW226220   1.961   3.237   6.571  0.2555  0.7207 -1.5238
 4920SOL     OW26221   3.690   0.035   1.005 -0.0680  0.1127  0.5066
 4920SOL    HW126222   3.761   0.079   0.958  0.2983  0.9703  1.8882
 4920SOL    HW226223   3.707   4.665   1.017  2.4691  0.7478  1.7646
 4921SOL     OW26224   1.016   2.138   4.533 -0.1367 -0.3020 -0.4667
 4921SOL    HW126225   0.937   2.133   4.479 -0.7054 -0.4880  0.3636
 4921SOL    HW226226   1.066   2.211   4.496  0.0439 -0.5571 -0.7167
 4922SOL     OW26227   2.075   2.418   9.842  0.4427  0.3448  0.0250
 4922SOL    HW126228   1.981   2.416   9.824 -0.2758 -1.4559  4.1252
 4922SOL    HW226229   2.079   2.407   9.937  0.4477 -1.7140 -0.2231
 4923SOL     OW26230   1.868   0.205   9.047 -0.3163 -0.0675 -0.1014
 4923SOL    HW126231   1.963   0.194   9.052 -0.4886 -1.0618  0.8178
 4923SOL    HW226232   1.865   0.209   8.951  1.2032 -0.8473 -0.1764
 4924SOL     OW26233   0.846   2.969   6.881  0.1184 -0.2875  0.7040
 4924SOL    HW126234   0.820   2.877   6.877 -2.4516  0.4684  0.4402
 4924SOL    HW226235   0.913   2.977   6.950 -0.3305 -1.0827  1.2263
 4925SOL     OW26236   4.021   0.305   7.107  0.0475 -0.6766  0.3221
 4925SOL    HW126237   4.113   0.327   7.097 -0.1646  0.0340 -0.1187
 4925SOL    HW226238   4.022   0.213   7.081  1.3422 -1.1704  2.1434
 4926SOL     OW26239   4.069   0.677   0.660  0.6190 -0.6198  0.0909
 4926SOL    HW126240   4.130   0.698   0.731  2.3174 -0.3428 -1.4520
 4926SOL    HW226241   4.082   0.736   0.586  2.0143 -1.2853 -0.1835
 4927SOL     OW26242   4.097   1.263   3.501 -0.3166 -0.2367 -0.3716
 4927SOL    HW126243   4.112   1.342   3.552 -0.4275  0.1089 -0.8816
 4927SOL    HW226244   4.181   1.215   3.504 -0.7817 -1.0809 -0.6836
 4928SOL     OW26245   4.079   2.039  16.029  0.0914  0.2941  0.4383
 4928SOL    HW126246   4.067   2.033  16.123  0.0930  0.2290  0.4341
 4928SOL    HW226247   4.138   1.963  16.023 -0.2693 -0.1438  2.4763
 4929SOL     OW26248   1.643   2.686   9.474 -0.2994 -0.6156 -0.4576
 4929SOL    HW126249   1.558   2.728   9.458 -1.7441 -2.6812  1.8577
 4929SOL    HW226250   1.705   2.756   9.452 -0.6639  0.0111  0.5340
 4930SOL     OW26251   0.880   3.673   5.289  0.3736  0.0230  0.4932
 4930SOL    HW126252   0.793   3.656   5.325  1.3146 -0.6324  2.4525
 4930SOL    HW226253   0.868   3.748   5.231 -0.1218 -0.5820 -0.1833
 4931SOL     OW26254   0.460   3.543  10.593 -0.0592  0.0932  0.2409
 4931SOL    HW126255   0.548   3.575  10.613 -0.8361  1.7646  1.0237
 4931SOL    HW226256   0.438   3.500  10.675  3.2296 -1.9785  0.0319
 4932SOL     OW26257   1.187   4.108   3.006  0.3111 -0.1528 -0.3203
 4932SOL    HW126258   1.164   4.096   2.914  0.9321  0.0904 -0.5009
 4932SOL    HW226259   1.274   4.070   3.006  0.4348  0.1298 -0.2579
 4933SOL     OW26260   1.520   3.481   7.061  0.1488  0.1898 -0.5982
 4933SOL    HW126261   1.597   3.469   7.006 -1.5416 -5.8699 -1.6063
 4933SOL    HW226262   1.490   3.395   7.091 -1.1785  0.6468 -0.6506
 4934SOL     OW26263   0.562   2.479   1.856 -0.1291  0.2452 -0.6519
 4934SOL    HW126264   0.523   2.399   1.891  0.9651 -0.7164 -1.6280
 4934SOL    HW226265   0.645   2.437   1.833 -1.6424 -3.2696  0.3144
 4935SOL     OW26266   2.279   2.592   8.732  0.1925 -0.0177 -0.2365
 4935SOL    HW126267   2.281   2.656   8.661  1.6555  0.7169  0.4530
 4935SOL    HW226268   2.363   2.551   8.711 -0.3252 -1.5533  0.7526
 4936SOL     OW26269   1.352   0.709   3.754  0.1826  0.2078  0.4295
 4936SOL    HW126270   1.258   0.701   3.766 -0.1374  1.7022 -1.1315
 4936SOL    HW226271   1.381   0.631   3.707 -0.0938 -0.8615  2.0205
 4937SOL     OW26272   2.962   0.654   2.255 -0.3078  0.3495  0.1076
 4937SOL    HW126273   3.019   0.590   2.297 -1.1902 -0.8268 -0.5117
 4937SOL    HW226274   3.011   0.731   2.285 -0.0895  0.8002 -1.4009
 4938SOL     OW26275   2.826   1.228   1.728  0.4936 -0.2800  0.1521
 4938SOL    HW126276   2.797   1.188   1.645 -0.0011 -0.7063  0.5313
 4938SOL    HW226277   2.871   1.305   1.694 -1.4304  0.6249 -0.3730
 4939SOL     OW26278   1.234   3.323   6.245  0.1055  0.4118 -0.3949
 4939SOL    HW126279   1.238   3.388   6.316 -1.5978  2.2192 -1.9368
 4939SOL    HW226280   1.206   3.245   6.292  0.7475  1.5266  1.8241
 4940SOL     OW26281   4.366   4.399  17.044  0.2721 -0.0726  0.1346
 4940SOL    HW126282   4.382   4.377  16.952 -0.6445 -0.9477  0.1804
 4940SOL    HW226283   4.308   4.327  17.067  0.4941 -0.6516 -1.1198
 4941SOL     OW26284   1.398   2.855  16.087  0.3202 -0.5222  0.0033
 4941SOL    HW126285   1.486   2.861  16.049  0.5440 -0.7109  0.4795
 4941SOL    HW226286   1.394   2.761  16.109 -2.6372 -0.1267  1.1002
 4942SOL     OW26287   1.104   2.402   5.630 -0.3175 -0.0041  0.1338
 4942SOL    HW126288   1.197   2.425   5.622 -0.8832  1.8025 -1.1960
 4942SOL    HW226289   1.073   2.409   5.539 -0.2281  0.4291  0.1360
 4943SOL     OW26290   0.582   3.622   6.571 -0.7551 -0.6656 -0.3650
 4943SOL    HW126291   0.608   3.530   6.556 -0.3278 -0.4421 -1.0200
 4943SOL    HW226292   0.491   3.616   6.599 -0.7707 -0.0158 -0.2827
 4944SOL     OW26293   4.024   1.017   4.385  0.3643 -1.0048  0.0927
 4944SOL    HW126294   3.932   0.992   4.388  0.0916  0.0237  0.2237
 4944SOL    HW226295   4.056   0.996   4.473 -1.8646 -1.6556  0.7523
 4945SOL     OW26296   2.964   2.236   2.549 -0.0171 -0.2159  0.1372
 4945SOL    HW126297   2.964   2.316   2.496  1.5135 -0.5016 -0.2961
 4945SOL    HW226298   2.890   2.190   2.508 -1.7706  1.7989  1.0606
 4946SOL     OW26299   3.059   1.201  14.767 -0.2061 -0.0962  0.0959
 4946SOL    HW126300   3.009   1.275  14.801 -1.5193 -0.6773 -0.5674
 4946SOL    HW226301   3.111   1.256  14.708  1.3893 -3.1266 -1.3794
 4947SOL     OW26302   0.743   0.611  16.572  0.3207 -0.0148  0.7016
 4947SOL    HW126303   0.776   0.692  16.610  0.4088 -0.0918  0.7911
 4947SOL    HW226304   0.716   0.635  16.483  1.2569 -3.7679 -0.6116
 4948SOL     OW26305   3.141   3.021  14.008 -0.7203 -0.5596 -0.8479
 4948SOL    HW126306   3.205   3.066  14.064 -2.1392 -0.9005  1.0617
 4948SOL    HW226307   3.125   3.061  13.922  0.2555  1.6420 -0.0097
 4949SOL     OW26308   2.385   3.844  10.488 -0.2836 -0.5240 -0.0973
 4949SOL    HW126309   2.464   3.894  10.469 -0.6512  0.3365  0.6275
 4949SOL    HW226310   2.349   3.882  10.568 -2.6586 -2.1436 -0.3936
 4950SOL     OW26311   1.733   1.651   3.873  0.2268 -0.5143  0.5105
 4950SOL    HW126312   1.705   1.588   3.807  0.2534  1.5881 -1.5374
 4950SOL    HW226313   1.704   1.605   3.951 -0.4487 -0.1110  0.4958
 4951SOL     OW26314   0.768   2.546   8.108  0.5217 -0.3249 -0.4205
 4951SOL    HW126315   0.843   2.490   8.129  0.6987 -0.8010 -2.3601
 4951SOL    HW226316   0.748   2.509   8.023  0.0911 -1.1100  0.0192
 4952SOL     OW26317   1.994   2.279  10.789 -0.4127 -0.3671  0.3896
 4952SOL    HW126318   1.923   2.237  10.741 -0.6830 -0.3990  0.8136
 4952SOL    HW226319   1.942   2.296  10.868  0.2320 -0.5453  0.8535
 4953SOL     OW26320   3.879   4.497   7.412 -0.1317  0.4217  0.4519
 4953SOL    HW126321   3.828   4.576   7.428 -2.4827 -1.5150  2.4883
 4953SOL    HW226322   3.807   4.438   7.389 -1.8811  2.4074  0.8553
 4954SOL     OW26323   4.221   0.536   8.802  0.3800  0.3569 -0.3290
 4954SOL    HW126324   4.173   0.499   8.876 -1.2310  2.0352 -0.5382
 4954SOL    HW226325   4.154   0.590   8.759  0.1474  0.9274  0.7428
 4955SOL     OW26326   0.516   3.775   5.119  0.4951  0.1052  0.0550
 4955SOL    HW126327   0.441   3.763   5.060  0.9535 -0.0913 -0.4901
 4955SOL    HW226328   0.501   3.861   5.158  1.0615  1.1562 -2.0374
 4956SOL     OW26329   4.348   4.003   2.379  0.2160  0.2762  0.1141
 4956SOL    HW126330   4.357   3.971   2.469  1.2586  3.3464  1.1123
 4956SOL    HW226331   4.392   4.087   2.392 -1.7868  0.9505  2.5611
 4957SOL     OW26332   2.367   2.638   7.126 -0.0183 -0.0035 -0.2272
 4957SOL    HW126333   2.445   2.617   7.074 -1.0867  0.5956 -2.0931
 4957SOL    HW226334   2.399   2.683   7.204 -0.7431 -0.2041  0.1888
 4958SOL     OW26335   1.005   2.433   9.055  0.0626  0.0101 -0.1191
 4958SOL    HW126336   0.989   2.458   9.146 -0.8808 -1.6810  0.1944
 4958SOL    HW226337   0.946   2.496   9.013 -0.5642 -0.5509 -0.0813
 4959SOL     OW26338   1.840   2.511   4.504 -0.0197 -0.2422  0.3824
 4959SOL    HW126339   1.841   2.552   4.591 -3.8642  1.8513 -0.5844
 4959SOL    HW226340   1.934   2.519   4.484 -0.0515 -2.2683 -0.4850
 4960SOL     OW26341   4.314   2.142   4.570  0.3936 -0.3168 -0.1540
 4960SOL    HW126342   4.381   2.076   4.588  0.3004 -0.2030  0.5978
 4960SOL    HW226343   4.285   2.167   4.658 -0.5973  1.5992 -1.0482
 4961SOL     OW26344   0.295   2.581   9.204 -0.8064  0.4820 -0.8480
 4961SOL    HW126345   0.341   2.560   9.286  1.2413 -0.6392 -2.2952
 4961SOL    HW226346   0.228   2.642   9.235 -0.4964 -0.8067  2.4470
 4962SOL     OW26347   2.418   1.777   9.820 -0.4842  0.2709  0.5421
 4962SOL    HW126348   2.492   1.837   9.810 -1.4930  0.8911 -3.3343
 4962SOL    HW226349   2.351   1.831   9.777 -1.1991  0.9703  2.5553
 4963SOL     OW26350   2.904   3.735  10.598 -0.8531 -0.7593  0.1741
 4963SOL    HW126351   2.990   3.699  10.580 -1.2282 -0.0518 -2.9001
 4963SOL    HW226352   2.911   3.792  10.675 -1.7674  0.1975 -0.4463
 4964SOL     OW26353   2.377   0.799   6.774  0.2858  0.2471 -0.2344
 4964SOL    HW126354   2.360   0.793   6.868  1.0296 -0.3699 -0.1378
 4964SOL    HW226355   2.330   0.719   6.750 -0.0505  0.4333 -0.1969
 4965SOL     OW26356   4.684   2.905   7.830  0.1991  0.2012 -0.0235
 4965SOL    HW126357   4.651   2.859   7.907  2.1153  0.1990  0.8011
 4965SOL    HW226358   0.032   2.844   7.814  1.3281  1.1252  1.5202
 4966SOL     OW26359   1.136   1.828   8.877  0.0205  0.9847 -0.3435
 4966SOL    HW126360   1.125   1.767   8.804 -0.7611  2.8756 -1.8144
 4966SOL    HW226361   1.145   1.911   8.830  0.0960  0.0912 -1.9198
 4967SOL     OW26362   0.177   3.021   8.266  0.0937  0.4959 -0.3527
 4967SOL    HW126363   0.245   2.984   8.209 -0.1557 -0.0410 -0.3021
 4967SOL    HW226364   0.175   3.103   8.218  0.4642 -0.0766 -1.3378
 4968SOL     OW26365   2.614   1.382  12.060  0.6568  0.0456  0.0201
 4968SOL    HW126366   2.591   1.344  11.975 -3.5513  0.8854  0.8195
 4968SOL    HW226367   2.609   1.474  12.033 -1.7402 -0.3969 -0.9976
 4969SOL     OW26368   1.571   0.054   6.885 -0.3254 -0.0957  0.4666
 4969SOL    HW126369   1.539   0.073   6.973  2.2090  1.4584  1.0368
 4969SOL    HW226370   1.618   0.136   6.868 -0.7719  0.2852  1.0595
 4970SOL     OW26371   0.835   0.901  16.804  0.3296  0.2633 -0.5565
 4970SOL    HW126372   0.919   0.886  16.762  1.4486 -0.6382  2.0090
 4970SOL    HW226373   0.860   0.966  16.870  0.5758 -1.8138  1.4052
 4971SOL     OW26374   2.677   3.159   8.967 -0.0377 -0.6943 -0.9921
 4971SOL    HW126375   2.598   3.168   8.914  0.6834  1.0509 -1.7423
 4971SOL    HW226376   2.747   3.175   8.905  0.0325 -0.9809 -0.9872
 4972SOL     OW26377   2.104   3.583   6.281  0.0859  0.1951 -0.3900
 4972SOL    HW126378   2.192   3.614   6.258  1.0289 -1.7975  0.5515
 4972SOL    HW226379   2.055   3.641   6.223  0.2233  0.5322 -0.1741
 4973SOL     OW26380   0.611   4.208   2.954 -0.3020  0.4421 -0.1478
 4973SOL    HW126381   0.527   4.186   2.913 -1.2742  1.8650  1.0784
 4973SOL    HW226382   0.674   4.141   2.925 -1.4526 -0.7461  0.0795
 4974SOL     OW26383   1.496   3.422  15.382 -0.7881 -0.0864 -0.4971
 4974SOL    HW126384   1.468   3.330  15.391 -1.3544 -0.0048 -1.4915
 4974SOL    HW226385   1.423   3.480  15.404 -1.0976 -0.5855 -0.2016
 4975SOL     OW26386   0.581   4.677   3.899  0.0319  0.1337  0.4174
 4975SOL    HW126387   0.634   4.650   3.825  0.0601  0.6169  0.2596
 4975SOL    HW226388   0.653   4.717   3.949  0.0279  2.2567 -1.2565
 4976SOL     OW26389   1.161   1.269   5.384  0.2357  0.0694 -0.5610
 4976SOL    HW126390   1.137   1.218   5.461  0.3460  1.2355  0.2433
 4976SOL    HW226391   1.086   1.249   5.328 -0.4320 -1.1001  0.7493
 4977SOL     OW26392   0.868   3.766   1.243 -0.5462  0.3073  0.9844
 4977SOL    HW126393   0.803   3.697   1.231  0.4250 -0.5703  0.8344
 4977SOL    HW226394   0.951   3.719   1.242 -0.5968  0.2373 -0.1578
 4978SOL     OW26395   0.848   2.548  15.847 -0.0152 -0.1890  0.1405
 4978SOL    HW126396   0.919   2.485  15.835 -0.9609 -1.0097 -1.2445
 4978SOL    HW226397   0.898   2.629  15.854 -0.3312 -0.0786  1.0260
 4979SOL     OW26398   2.160   2.136   3.239  0.2884 -0.1027  0.2399
 4979SOL    HW126399   2.140   2.056   3.288  1.8597 -1.0658 -0.6913
 4979SOL    HW226400   2.244   2.162   3.278 -0.4764  0.4179  1.5212
 4980SOL     OW26401   0.956   1.323   9.079  0.6832 -1.0381 -0.5471
 4980SOL    HW126402   1.010   1.389   9.034  0.9333 -1.3651 -0.7251
 4980SOL    HW226403   0.881   1.307   9.021 -1.5250  1.7402  1.5517
 4981SOL     OW26404   1.779   1.656   9.400 -0.1938 -0.5678 -0.3656
 4981SOL    HW126405   1.715   1.706   9.349  0.2379  0.8453  0.4777
 4981SOL    HW226406   1.805   1.721   9.465  2.1550 -0.8782 -0.9832
 4982SOL     OW26407   4.549   4.641  10.908  0.4483 -0.5248  0.4564
 4982SOL    HW126408   4.511   4.717  10.953 -0.5752  0.6386 -2.4111
 4982SOL    HW226409   4.614   4.620  10.975  2.3761  1.3569 -0.8351
 4983SOL     OW26410   2.530   2.627  11.217 -0.6430 -0.6869  0.0675
 4983SOL    HW126411   2.476   2.568  11.270 -1.3932 -0.7066 -0.7191
 4983SOL    HW226412   2.613   2.580  11.216 -0.2873 -0.0336 -0.7448
 4984SOL     OW26413   2.747   4.516   7.282  0.2837  0.0290 -0.0719
 4984SOL    HW126414   2.667   4.563   7.303 -1.0226 -1.7444 -1.0698
 4984SOL    HW226415   2.805   4.550   7.350  0.8659 -2.6201  0.7823
 4985SOL     OW26416   2.713   2.311  14.231  0.3560  0.1233  0.0914
 4985SOL    HW126417   2.786   2.276  14.283  0.1736 -0.2913  0.0693
 4985SOL    HW226418   2.751   2.374  14.170 -0.9775  1.1197  0.2923
 4986SOL     OW26419   2.901   1.485   4.901 -0.0488  0.1499  0.1218
 4986SOL    HW126420   2.835   1.551   4.879 -0.5353 -0.2001  0.5282
 4986SOL    HW226421   2.915   1.510   4.992  1.0462 -0.9325  0.2491
 4987SOL     OW26422   0.224   3.718   5.893 -0.2899  0.1624  0.3853
 4987SOL    HW126423   0.169   3.644   5.923 -0.7406  0.1286 -0.5328
 4987SOL    HW226424   0.311   3.680   5.894 -1.4640 -2.4680  3.1969
 4988SOL     OW26425   3.411   3.780  10.526  0.6362 -0.0430  0.1300
 4988SOL    HW126426   3.449   3.867  10.528  1.1763 -0.2396 -1.1851
 4988SOL    HW226427   3.411   3.760  10.619  0.5602  0.4031  0.2246
 4989SOL     OW26428   2.351   1.448   9.062  0.3817  0.5837 -0.4337
 4989SOL    HW126429   2.293   1.499   9.119  2.0575  0.4444  1.3869
 4989SOL    HW226430   2.427   1.438   9.119  0.0048 -0.6581 -0.1667
 4990SOL     OW26431   4.670   3.971   5.523 -0.6060  0.1176 -0.0434
 4990SOL    HW126432   4.659   3.985   5.617 -2.6914  0.2377 -0.3077
 4990SOL    HW226433   4.691   3.877   5.530  2.0521  0.8617  1.8945
 4991SOL     OW26434   1.859   4.604   2.382 -0.1201  0.1356 -0.8934
 4991SOL    HW126435   1.919   4.558   2.323  2.2501  1.3936  0.5456
 4991SOL    HW226436   1.838   4.547   2.456  0.4683  2.1166  0.7674
 4992SOL     OW26437   1.371   1.887   2.822  0.1842  0.2755 -0.2986
 4992SOL    HW126438   1.461   1.876   2.792  0.7399 -0.6990  1.7086
 4992SOL    HW226439   1.320   1.877   2.741  1.8329 -2.3811 -1.0150
 4993SOL     OW26440   4.014   2.231  17.051 -0.8761 -1.0104  0.3823
 4993SOL    HW126441   4.013   2.318  17.010 -1.6568 -0.1898  2.1513
 4993SOL    HW226442   3.973   2.254  17.134 -1.2664  0.1707 -0.1293
 4994SOL     OW26443   1.959   4.321   7.622 -0.0004 -0.0453 -0.1705
 4994SOL    HW126444   1.951   4.296   7.714 -0.7606  1.2089  0.1045
 4994SOL    HW226445   2.015   4.252   7.586 -0.3394 -1.8174  2.7107
 4995SOL     OW26446   4.675   3.314  10.751 -0.2850  0.5136 -0.2859
 4995SOL    HW126447   4.612   3.326  10.680 -1.0121 -0.7276  0.1632
 4995SOL    HW226448   0.031   3.291  10.702 -0.9418 -0.9040 -0.6782
 4996SOL     OW26449   1.554   1.398  12.003  0.2229 -0.4596  0.0814
 4996SOL    HW126450   1.650   1.408  12.002  0.2980 -1.1967 -0.0854
 4996SOL    HW226451   1.553   1.350  12.086 -1.7704  0.3394  0.5061
 4997SOL     OW26452   1.556   0.110   5.732  0.6080  0.2119 -0.0040
 4997SOL    HW126453   1.481   0.145   5.684 -0.4148 -0.0170  1.4515
 4997SOL    HW226454   1.515   0.074   5.810  0.4653  1.1465  0.3425
 4998SOL     OW26455   2.657   4.316  16.935 -0.0799  0.2358  0.3085
 4998SOL    HW126456   2.749   4.315  16.960  0.7656  0.2863 -2.8284
 4998SOL    HW226457   2.628   4.229  16.962 -0.1581 -0.8835 -3.3286
 4999SOL     OW26458   0.134   1.733   3.804  0.1946 -0.3197 -0.0898
 4999SOL    HW126459   0.164   1.648   3.835  0.8920  1.2536  3.5818
 4999SOL    HW226460   0.058   1.759   3.857 -0.3299 -0.2975 -0.8381
 5000SOL     OW26461   4.466   3.241   5.255  0.2232  0.2750  0.0678
 5000SOL    HW126462   4.397   3.288   5.207 -0.0587  1.2820  1.4624
 5000SOL    HW226463   4.514   3.318   5.286  0.3630  0.4491 -0.5721
 5001SOL     OW26464   3.917   4.200   7.780  0.1445 -0.1387 -0.1842
 5001SOL    HW126465   3.908   4.289   7.745  0.9422 -0.0275 -0.1055
 5001SOL    HW226466   4.012   4.187   7.778  0.3630  1.4622 -0.2427
 5002SOL     OW26467   3.849   1.761   3.210  0.2160  0.0711  0.0058
 5002SOL    HW126468   3.871   1.834   3.152  2.6007 -0.8922 -0.2985
 5002SOL    HW226469   3.939   1.733   3.224  0.0274 -0.8532 -0.6042
 5003SOL     OW26470   0.528   4.584  15.151 -0.5279  0.1933  0.5499
 5003SOL    HW126471   0.433   4.584  15.151 -0.5334  1.9487  0.1709
 5003SOL    HW226472   0.566   4.496  15.147  3.6436  1.9695  0.5105
 5004SOL     OW26473   4.398   2.860   9.792  0.3876 -0.0118  0.1048
 5004SOL    HW126474   4.457   2.918   9.840  1.5925 -1.6215  0.5860
 5004SOL    HW226475   4.432   2.780   9.832 -1.4606 -0.6645  0.4057
 5005SOL     OW26476   3.628   3.232  12.808 -0.4537  0.8120 -0.2202
 5005SOL    HW126477   3.704   3.284  12.833 -0.5664  1.5569 -1.4097
 5005SOL    HW226478   3.560   3.273  12.861 -1.1562 -0.0329 -0.4763
 5006SOL     OW26479   1.107   0.757  10.047  0.2017  0.1943 -0.1351
 5006SOL    HW126480   1.126   0.664  10.045  1.8887  0.5459 -0.2544
 5006SOL    HW226481   1.062   0.756  10.132  1.4976 -0.7808  0.5249
 5007SOL     OW26482   0.647   0.107  15.236  0.0779  0.4297 -0.1157
 5007SOL    HW126483   0.669   0.098  15.143  0.7761  1.1535 -0.0190
 5007SOL    HW226484   0.608   0.021  15.255  2.8746 -0.6505  0.8530
 5008SOL     OW26485   4.530   4.063  11.179 -0.2846  0.0892  0.3180
 5008SOL    HW126486   4.617   4.046  11.142  0.0003  1.5614  0.3309
 5008SOL    HW226487   4.517   3.991  11.240  1.4895  0.5137  1.1952
 5009SOL     OW26488   2.403   0.139   8.990 -0.9481 -0.1052  0.1330
 5009SOL    HW126489   2.401   0.158   8.896  1.0159 -0.9621 -0.0914
 5009SOL    HW226490   2.396   0.229   9.022 -1.0927 -0.2368  0.4726
 5010SOL     OW26491   1.486   1.078  14.772  0.5754 -0.1649  0.6531
 5010SOL    HW126492   1.577   1.069  14.801  1.2959  1.0531 -1.2011
 5010SOL    HW226493   1.469   0.987  14.746 -1.3423  0.3582  0.1325
 5011SOL     OW26494   3.528   2.971   5.611 -0.0429  0.1774  0.5999
 5011SOL    HW126495   3.464   2.956   5.541  2.0522  1.7556 -1.6884
 5011SOL    HW226496   3.511   2.907   5.679  0.6869  1.1190  1.6689
 5012SOL     OW26497   2.161   2.184   0.092  0.7081  0.3835  0.1310
 5012SOL    HW126498   2.129   2.244   0.160 -2.6206  1.0263 -2.0024
 5012SOL    HW226499   2.180   2.121   0.161 -1.6296 -0.9106 -0.4069
 5013SOL     OW26500   2.271   2.462  12.836  0.7904  0.2658  0.1421
 5013SOL    HW126501   2.285   2.369  12.817  0.1082  0.1989 -0.0428
 5013SOL    HW226502   2.310   2.461  12.924  1.6435 -1.7390 -0.2547
 5014SOL     OW26503   0.716   4.675  16.082 -0.2765  0.1996 -0.6359
 5014SOL    HW126504   0.746   4.628  16.004 -1.4106 -1.2553 -0.2159
 5014SOL    HW226505   0.629   4.701  16.051 -0.5597 -1.7863 -1.5013
 5015SOL     OW26506   0.138   4.385  15.670 -0.1332 -0.1438 -0.5765
 5015SOL    HW126507   0.213   4.433  15.634 -2.2525  2.8391 -1.0051
 5015SOL    HW226508   0.111   4.336  15.592  2.7329 -0.8254 -1.1289
 5016SOL     OW26509   0.625   4.307  16.899  0.3852 -0.1311  0.5883
 5016SOL    HW126510   0.615   4.343  16.811  1.9061  0.5259  0.6785
 5016SOL    HW226511   0.701   4.253  16.877 -2.3482 -4.0937  0.9831
 5017SOL     OW26512   1.925   2.283   4.268 -0.1383  0.1806  0.2131
 5017SOL    HW126513   2.008   2.236   4.256 -0.4210  0.4072 -2.6998
 5017SOL    HW226514   1.868   2.215   4.304  0.8607  0.4536  2.3209
 5018SOL     OW26515   2.162   4.392   5.634  0.2895 -0.4381 -0.3886
 5018SOL    HW126516   2.112   4.470   5.610 -1.1656 -1.2764 -0.1297
 5018SOL    HW226517   2.181   4.362   5.545  2.0651  1.4889 -0.6453
 5019SOL     OW26518   0.569   0.684   6.024  0.4118  0.6441 -0.2426
 5019SOL    HW126519   0.548   0.765   6.072  0.9354  0.1682  0.7997
 5019SOL    HW226520   0.505   0.640   6.079  0.0645  1.6964  0.2090
 5020SOL     OW26521   3.173   0.694   3.179  0.1556 -0.0149  0.0818
 5020SOL    HW126522   3.157   0.754   3.106  1.6473 -1.1906 -1.2143
 5020SOL    HW226523   3.268   0.686   3.168  0.0837 -0.8255  0.0519
 5021SOL     OW26524   1.100   1.005   7.941 -0.2165  0.2930  0.5526
 5021SOL    HW126525   1.020   0.962   7.910  0.0683 -1.0674  1.7416
 5021SOL    HW226526   1.161   0.937   7.915 -0.1117  0.5042  0.2386
 5022SOL     OW26527   0.549   4.461   5.940 -0.1382  0.5690  0.3338
 5022SOL    HW126528   0.558   4.404   5.863  0.8582  0.6353  0.4010
 5022SOL    HW226529   0.576   4.395   6.003  0.0999  0.9686  0.6510
 5023SOL     OW26530   2.945   2.206   7.289 -0.6891 -0.0243 -0.2646
 5023SOL    HW126531   2.851   2.199   7.272 -0.2887  2.1364 -3.3325
 5023SOL    HW226532   2.948   2.189   7.383  2.1120  0.0753 -0.3509
 5024SOL     OW26533   1.282   2.712   4.714 -0.2314 -0.4441 -0.1999
 5024SOL    HW126534   1.287   2.622   4.748 -0.4254 -0.7697 -1.0363
 5024SOL    HW226535   1.302   2.764   4.792 -2.3791 -1.2799  0.9155
 5025SOL     OW26536   0.386   2.450  15.519  0.3498 -0.0196  0.4396
 5025SOL    HW126537   0.371   2.544  15.501 -0.9918 -0.2764  0.1669
 5025SOL    HW226538   0.386   2.420  15.428 -1.3750  2.5470 -0.4358
 5026SOL     OW26539   3.971   3.372   1.350 -0.3997  0.3569 -0.3102
 5026SOL    HW126540   4.014   3.331   1.275  1.0881  1.2266  0.0868
 5026SOL    HW226541   3.905   3.426   1.306 -0.9955  1.4351  1.9275
 5027SOL     OW26542   1.933   2.029   4.748  0.0800 -0.5677 -0.3485
 5027SOL    HW126543   1.855   2.079   4.724  2.1966  3.4726  1.1163
 5027SOL    HW226544   1.884   1.951   4.774 -1.1106  0.5612  0.8026
 5028SOL     OW26545   1.770   3.594   0.494  0.2055 -0.6141 -0.1666
 5028SOL    HW126546   1.855   3.552   0.485  1.8073  2.8649 -1.0532
 5028SOL    HW226547   1.775   3.634   0.581 -1.8530 -1.3965  0.3216
 5029SOL     OW26548   1.116   1.305   7.731 -0.3661 -0.1682 -0.1257
 5029SOL    HW126549   1.055   1.239   7.766  0.9806 -1.0974  0.4517
 5029SOL    HW226550   1.195   1.292   7.784 -0.3893  0.3357  0.0316
 5030SOL     OW26551   0.533   0.434   3.196 -0.0016  0.8256  0.5499
 5030SOL    HW126552   0.473   0.366   3.166  0.5284 -0.2357  1.8917
 5030SOL    HW226553   0.490   0.519   3.183  1.2410  1.2393 -0.8032
 5031SOL     OW26554   2.773   4.465   6.778  0.1590 -0.0330  0.0925
 5031SOL    HW126555   2.717   4.388   6.780  1.5833 -1.0709  0.2612
 5031SOL    HW226556   2.770   4.495   6.869 -1.1294  2.4463 -0.7887
 5032SOL     OW26557   1.335   4.170   6.156 -0.4323 -0.1071  0.0367
 5032SOL    HW126558   1.345   4.265   6.146 -0.8129  0.0281  0.9377
 5032SOL    HW226559   1.293   4.136   6.077 -0.5711  0.2067 -0.0261
 5033SOL     OW26560   3.041   0.555   9.501 -0.1244  0.3152  0.3577
 5033SOL    HW126561   3.120   0.576   9.551  0.6749  1.0536 -1.2132
 5033SOL    HW226562   2.975   0.558   9.570  0.9061 -0.4804  1.3939
 5034SOL     OW26563   1.924   2.648   7.457  0.3271 -0.5205 -0.7318
 5034SOL    HW126564   1.960   2.684   7.376  1.5415  1.0901  0.5120
 5034SOL    HW226565   1.876   2.574   7.421 -1.2966 -0.3734  1.0868
 5035SOL     OW26566   0.778   1.491   5.690 -0.5526  0.1575 -0.1404
 5035SOL    HW126567   0.727   1.571   5.684  0.2161  0.6930  0.5332
 5035SOL    HW226568   0.778   1.461   5.599 -1.5479 -0.6934  0.1346
 5036SOL     OW26569   2.914   2.788   2.874  0.2493 -0.1149  0.5242
 5036SOL    HW126570   2.876   2.782   2.962 -0.5288 -0.2920  0.1766
 5036SOL    HW226571   2.934   2.697   2.855  1.3021  0.4386 -1.0263
 5037SOL     OW26572   2.389   1.160   8.869 -0.4336  0.3836 -0.1016
 5037SOL    HW126573   2.340   1.218   8.928 -2.1724  0.5914 -1.7560
 5037SOL    HW226574   2.314   1.104   8.849 -0.9960  0.1707  2.5922
 5038SOL     OW26575   2.927   3.439   1.883 -0.2071 -0.3441  0.1353
 5038SOL    HW126576   2.871   3.514   1.903  1.0717  0.7183 -0.2998
 5038SOL    HW226577   3.014   3.476   1.897 -0.4376  0.8856 -1.7881
 5039SOL     OW26578   2.283   2.600   5.413  0.2042 -0.2620 -0.6055
 5039SOL    HW126579   2.319   2.679   5.454  0.1190 -0.7268  0.3672
 5039SOL    HW226580   2.368   2.559   5.394 -0.6294 -0.6866 -3.3753
 5040SOL     OW26581   3.003   2.473   3.893  0.3809 -0.2417 -0.2556
 5040SOL    HW126582   3.050   2.410   3.838  2.1711  1.1905 -0.3834
 5040SOL    HW226583   2.911   2.456   3.875  0.6632 -0.3493 -1.6258
 5041SOL     OW26584   3.523   4.697   8.366 -0.0949  0.0361 -0.0038
 5041SOL    HW126585   3.491   0.059   8.339 -0.1760 -0.3275 -1.0634
 5041SOL    HW226586   3.461   4.677   8.436 -0.9950  0.6884 -0.6100
 5042SOL     OW26587   0.728   1.838   3.521  0.0176 -0.2309 -0.0801
 5042SOL    HW126588   0.725   1.807   3.431 -0.1610  1.3806 -0.6111
 5042SOL    HW226589   0.817   1.809   3.544  0.6154  0.0244 -2.0439
 5043SOL     OW26590   2.678   0.641   3.287 -0.1862  0.0091  0.3522
 5043SOL    HW126591   2.740   0.713   3.284 -0.8806  0.6179  0.8443
 5043SOL    HW226592   2.661   0.633   3.381  0.0636 -1.2112  0.3035
 5044SOL     OW26593   0.531   4.461   8.427 -0.3704  0.1843  0.6947
 5044SOL    HW126594   0.440   4.435   8.444 -0.2387 -0.3828  0.5306
 5044SOL    HW226595   0.566   4.440   8.513  0.8896  0.4206  0.2393
 5045SOL     OW26596   1.173   4.412   4.971 -0.2855  0.7614 -0.2734
 5045SOL    HW126597   1.176   4.417   5.067  0.1689 -0.8682 -0.1871
 5045SOL    HW226598   1.156   4.501   4.942 -0.5060  0.3501 -1.3879
 5046SOL     OW26599   1.464   0.655   9.250  0.2904 -0.7871 -0.0591
 5046SOL    HW126600   1.433   0.620   9.334 -0.4098  0.7247  0.2955
 5046SOL    HW226601   1.559   0.661   9.263  0.0393 -0.1701  1.5114
 5047SOL     OW26602   2.234   2.330  10.968 -0.2122  0.1857  1.1138
 5047SOL    HW126603   2.210   2.290  10.885  0.2068  2.1742  0.0308
 5047SOL    HW226604   2.150   2.311  11.010 -1.3893 -0.2777 -1.4486
 5048SOL     OW26605   0.035   3.728   6.311 -0.1075  0.6367 -0.4424
 5048SOL    HW126606   0.127   3.746   6.333 -0.3316  2.2779 -0.8393
 5048SOL    HW226607   0.051   3.667   6.239  3.4081  1.2028 -0.1702
 5049SOL     OW26608   2.660   0.277   5.540 -0.3188  0.1787 -0.7232
 5049SOL    HW126609   2.755   0.280   5.554 -0.5333  0.5699  0.6239
 5049SOL    HW226610   2.636   0.189   5.571  0.5315  0.5843  1.1287
 5050SOL     OW26611   0.781   4.004   3.668  0.4371 -0.4126 -0.2258
 5050SOL    HW126612   0.808   4.083   3.621  0.5559  0.2655  0.9937
 5050SOL    HW226613   0.777   3.939   3.598  2.7958 -1.5797  0.7222
 5051SOL     OW26614   2.879   2.717  13.542  0.2166  0.4887  0.6178
 5051SOL    HW126615   2.965   2.727  13.501 -1.1323 -1.2050 -2.6267
 5051SOL    HW226616   2.833   2.658  13.482  0.1396  1.1393  0.0460
 5052SOL     OW26617   1.460   1.908   8.212 -0.1721 -0.2084  0.2980
 5052SOL    HW126618   1.537   1.951   8.251  0.5253 -1.1906 -0.0067
 5052SOL    HW226619   1.480   1.925   8.120 -0.0843 -0.9766  0.1770
 5053SOL     OW26620   2.029   4.639  14.301  0.4809  0.1480 -0.0755
 5053SOL    HW126621   2.094   4.569  14.288 -1.4238 -1.7960  0.9262
 5053SOL    HW226622   1.987   4.616  14.383  0.3942 -2.6179 -0.8960
 5054SOL     OW26623   2.111   2.528   1.965 -0.2785 -0.1515 -0.2228
 5054SOL    HW126624   2.162   2.558   2.041 -0.4474  1.6488 -0.8215
 5054SOL    HW226625   2.178   2.531   1.897 -1.8373  1.9700 -1.6624
 5055SOL     OW26626   0.810   4.141   4.752 -0.0153  0.4977 -0.4010
 5055SOL    HW126627   0.764   4.222   4.730  1.0021  1.0579 -0.4367
 5055SOL    HW226628   0.895   4.180   4.770  0.0331  0.1871  0.0368
 5056SOL     OW26629   0.940   3.006  10.758  0.0651 -0.2569 -0.1646
 5056SOL    HW126630   0.947   2.913  10.779  0.5864  0.1022  1.2629
 5056SOL    HW226631   0.998   3.049  10.821  0.4441 -0.2247 -0.5348
 5057SOL     OW26632   3.899   0.177   5.848 -0.4412 -0.1364 -0.1860
 5057SOL    HW126633   3.838   0.225   5.904  2.1849 -0.2647  2.7532
 5057SOL    HW226634   3.976   0.232   5.840  0.4629 -1.2484  0.8834
 5058SOL     OW26635   4.175   1.394   3.251 -0.7070 -0.0282  0.1038
 5058SOL    HW126636   4.256   1.348   3.231  0.8867  2.1431  1.5616
 5058SOL    HW226637   4.137   1.339   3.320 -2.4449 -0.7804 -1.4589
 5059SOL     OW26638   3.836   0.455   5.074  0.4496  0.6552  0.8107
 5059SOL    HW126639   3.859   0.471   4.983 -0.7381 -2.2114  0.0212
 5059SOL    HW226640   3.808   0.540   5.110 -1.3088  0.1273  0.6663
 5060SOL     OW26641   1.629   0.355   2.299  0.4060 -0.1639 -0.3426
 5060SOL    HW126642   1.674   0.415   2.240  0.7603 -1.2705 -1.1916
 5060SOL    HW226643   1.663   0.272   2.264  2.3665  0.8698 -0.8799
 5061SOL     OW26644   0.136   1.400   3.322 -0.2890 -0.5865 -0.3230
 5061SOL    HW126645   0.073   1.390   3.251 -0.9242 -0.1758  0.1759
 5061SOL    HW226646   0.093   1.467   3.376 -0.1262  0.8204 -1.9419
 5062SOL     OW26647   2.981   1.574   0.236  0.9196  0.5517  0.3573
 5062SOL    HW126648   2.956   1.482   0.238  2.3669  0.1499  0.3448
 5062SOL    HW226649   2.950   1.625   0.311  0.1965 -0.8000  0.9680
 5063SOL     OW26650   0.531   4.585  13.986 -0.3425  0.3362  0.1404
 5063SOL    HW126651   0.626   4.574  13.985 -0.3586  0.2880 -1.9835
 5063SOL    HW226652   0.511   4.492  13.973 -0.3836  0.2988  0.4748
 5064SOL     OW26653   2.304   0.510   5.775  0.6123  0.6456  0.0826
 5064SOL    HW126654   2.384   0.475   5.735  1.0055  0.9232  0.6333
 5064SOL    HW226655   2.304   0.601   5.748 -0.4029  0.7102  0.2773
 5065SOL     OW26656   1.551   3.852   4.398  0.4989 -0.3183 -0.0179
 5065SOL    HW126657   1.481   3.883   4.341  0.4984  0.6714  0.5187
 5065SOL    HW226658   1.509   3.860   4.484  2.0074 -0.3900  0.7327
 5066SOL     OW26659   1.395   2.763   9.393  0.7044  0.2372  0.0989
 5066SOL    HW126660   1.365   2.673   9.385 -1.1228  0.8166  0.2581
 5066SOL    HW226661   1.312   2.812   9.390  0.4091 -0.2861 -0.3474
 5067SOL     OW26662   0.602   4.205   3.760  0.5741 -1.1218 -0.1482
 5067SOL    HW126663   0.625   4.246   3.677  0.3656  4.3112  2.4501
 5067SOL    HW226664   0.645   4.120   3.751  2.3585 -0.2309 -0.0175
 5068SOL     OW26665   2.148   0.447   3.437  0.1507 -0.1135 -0.0731
 5068SOL    HW126666   2.067   0.483   3.401  1.2963  0.5359 -2.0037
 5068SOL    HW226667   2.163   0.360   3.399  1.2528  0.1465 -0.2212
 5069SOL     OW26668   1.443   0.306  10.272 -0.9432  0.4168 -0.2092
 5069SOL    HW126669   1.417   0.398  10.273 -0.5289  0.5412 -1.4643
 5069SOL    HW226670   1.537   0.311  10.288 -1.1625  0.8233  0.9307
 5070SOL     OW26671   4.651   0.002  12.478 -0.0457 -0.0851 -0.1898
 5070SOL    HW126672   4.672   4.633  12.462  1.2495 -0.0140  1.1519
 5070SOL    HW226673   4.662   0.038  12.389  0.3323 -0.3576 -0.2533
 5071SOL     OW26674   1.877   4.568   0.076  0.1407 -0.3112  0.4309
 5071SOL    HW126675   1.967   4.537   0.082  1.4161  3.6480  1.2199
 5071SOL    HW226676   1.874   4.606  17.684  0.1830 -0.0620  0.5386
 5072SOL     OW26677   0.684   2.891  15.165 -0.7271 -0.3435 -0.1196
 5072SOL    HW126678   0.643   2.834  15.099  0.6610  0.6563 -1.8569
 5072SOL    HW226679   0.772   2.899  15.128  0.7096  0.2593  3.5269
 5073SOL     OW26680   4.114   2.401  10.444  0.0537 -0.0756  0.4197
 5073SOL    HW126681   4.088   2.412  10.536  1.1294  0.3506  0.6831
 5073SOL    HW226682   4.033   2.369  10.406 -0.5756  2.6496 -0.5505
 5074SOL     OW26683   3.826   4.427   4.588  0.1919 -0.5577 -0.6005
 5074SOL    HW126684   3.776   4.352   4.620 -0.5481  0.2604  0.1580
 5074SOL    HW226685   3.876   4.384   4.518  0.3612 -0.3970 -0.5767
 5075SOL     OW26686   2.523   4.227   7.440 -0.0511  0.3409  0.2031
 5075SOL    HW126687   2.612   4.261   7.436  0.6587 -1.6548 -1.0961
 5075SOL    HW226688   2.500   4.244   7.531 -0.8731  1.0327 -0.1287
 5076SOL     OW26689   1.331   4.090  16.631 -0.0759 -0.1099 -0.4978
 5076SOL    HW126690   1.346   4.162  16.571 -0.8360 -0.0206 -0.5856
 5076SOL    HW226691   1.399   4.031  16.599 -0.0014 -1.2118  1.6436
 5077SOL     OW26692   4.455   0.472   6.351 -0.1150 -0.3540 -0.3371
 5077SOL    HW126693   4.531   0.530   6.347 -0.6145  0.3299 -0.0033
 5077SOL    HW226694   4.470   0.405   6.284 -0.3655 -1.5113  0.7702
 5078SOL     OW26695   2.149   2.223  15.465 -0.5612 -0.6904  0.4532
 5078SOL    HW126696   2.179   2.261  15.382 -1.2770 -1.4817 -0.1665
 5078SOL    HW226697   2.188   2.137  15.445  1.5282  0.2404  0.5377
 5079SOL     OW26698   4.155   2.766  14.591 -0.1916  0.0425  0.1387
 5079SOL    HW126699   4.071   2.758  14.546 -0.6381 -0.5113  1.0762
 5079SOL    HW226700   4.166   2.672  14.602  0.7918  0.3915  2.0297
 5080SOL     OW26701   2.371   4.406  16.235 -0.5628 -0.1849 -0.2675
 5080SOL    HW126702   2.438   4.374  16.294 -2.1420 -0.4041  1.4147
 5080SOL    HW226703   2.327   4.322  16.222  2.0448 -1.9017  2.0110
 5081SOL     OW26704   4.187   3.889   7.125 -0.5772 -0.3689  0.1744
 5081SOL    HW126705   4.259   3.892   7.189 -1.1712 -0.5790  0.8499
 5081SOL    HW226706   4.238   3.862   7.049 -0.2655  1.0393 -0.1231
 5082SOL     OW26707   2.511   0.001   6.531 -0.0702 -0.7961  0.5496
 5082SOL    HW126708   2.598   0.031   6.504 -0.4825  0.6014  0.8149
 5082SOL    HW226709   2.488   4.651   6.473  0.0887 -1.1257  0.9060
 5083SOL     OW26710   1.171   4.469   2.157 -0.4247 -0.2740  0.2242
 5083SOL    HW126711   1.080   4.440   2.148 -1.7846  3.5652  1.6792
 5083SOL    HW226712   1.195   4.473   2.065 -0.3706 -1.3766  0.1831
 5084SOL     OW26713   2.416   4.440   1.830 -0.2374 -0.1362  0.2988
 5084SOL    HW126714   2.468   4.395   1.896  1.1424  0.6492 -0.2653
 5084SOL    HW226715   2.384   4.374   1.769 -1.4794  1.0477 -0.3548
 5085SOL     OW26716   2.716   3.068   5.139 -0.4919 -0.2472  0.3468
 5085SOL    HW126717   2.790   3.055   5.199 -0.6463  0.3394  0.6682
 5085SOL    HW226718   2.755   3.104   5.059  0.1941 -2.7179 -0.4388
 5086SOL     OW26719   0.538   3.857   2.969  0.3333 -0.7228  0.0142
 5086SOL    HW126720   0.622   3.877   2.926  0.9291 -2.0121  0.5518
 5086SOL    HW226721   0.568   3.879   3.058  1.7547  0.5343 -0.7694
 5087SOL     OW26722   4.137   1.871  10.839  0.5206  0.3338 -0.1251
 5087SOL    HW126723   4.139   1.813  10.762 -0.6565  1.2035 -0.8196
 5087SOL    HW226724   4.107   1.951  10.795  0.5657  1.0804  1.2113
 5088SOL     OW26725   4.438   3.163   5.931 -0.1581 -0.1238  0.0827
 5088SOL    HW126726   4.388   3.125   5.859  0.6095 -2.3789  0.7460
 5088SOL    HW226727   4.514   3.105   5.920  0.4776  0.6765  0.2395
 5089SOL     OW26728   4.396   1.111   8.074 -0.1586  0.3583  0.4653
 5089SOL    HW126729   4.318   1.102   8.129 -0.0129 -0.8549  0.4660
 5089SOL    HW226730   4.389   1.207   8.069 -0.6823  0.1875 -2.0375
 5090SOL     OW26731   3.649   2.223   9.207 -0.5556 -0.0182 -0.1451
 5090SOL    HW126732   3.601   2.260   9.281  0.4155 -1.1445  1.0591
 5090SOL    HW226733   3.690   2.303   9.172  0.1231 -0.2043  0.2223
 5091SOL     OW26734   2.815   4.549   9.461  0.0947  0.3693  0.1523
 5091SOL    HW126735   2.806   4.467   9.411 -2.3478  0.1881  0.9133
 5091SOL    HW226736   2.747   4.539   9.527  0.7126  2.1967  1.0362
 5092SOL     OW26737   3.022   1.470   6.481 -0.1949  0.2298 -0.1969
 5092SOL    HW126738   3.109   1.441   6.511  0.3015  1.0651 -0.8539
 5092SOL    HW226739   2.993   1.473   6.572  2.6785 -0.6731  0.7579
 5093SOL     OW26740   0.957   4.302   5.711  0.3361 -0.0516  0.1432
 5093SOL    HW126741   0.928   4.354   5.786  2.1370  0.0737  0.7413
 5093SOL    HW226742   0.910   4.219   5.719  2.1128 -1.2281 -1.4957
 5094SOL     OW26743   1.063   2.285   2.289 -0.1649  0.5995 -0.8436
 5094SOL    HW126744   1.146   2.324   2.261  0.8979  0.4477  2.1322
 5094SOL    HW226745   1.022   2.252   2.209 -0.5431 -1.0163  0.0245
 5095SOL     OW26746   4.465   4.451   6.926  0.4033 -0.4571 -0.0999
 5095SOL    HW126747   4.552   4.433   6.889 -0.2513  0.0941 -1.8951
 5095SOL    HW226748   4.426   4.498   6.853 -0.2515  1.4336  1.4493
 5096SOL     OW26749   0.326   3.274   4.591 -0.1323 -0.0605 -0.5155
 5096SOL    HW126750   0.404   3.228   4.622  0.3514  0.3454 -1.1317
 5096SOL    HW226751   0.345   3.364   4.618 -1.1556 -0.8623  2.8580
 5097SOL     OW26752   3.160   0.725  14.941 -0.2150 -0.6139  0.2385
 5097SOL    HW126753   3.091   0.787  14.918 -0.2407 -0.0289  1.8395
 5097SOL    HW226754   3.136   0.645  14.896  0.8945 -0.3116 -0.8741
 5098SOL     OW26755   2.345   1.409   2.743  0.0463 -0.2399 -0.5520
 5098SOL    HW126756   2.432   1.446   2.755 -0.2801  0.2907  0.1958
 5098SOL    HW226757   2.310   1.407   2.833  1.4828  0.6905  0.0190
 5099SOL     OW26758   1.821   4.123  14.793 -0.3959  0.4162 -0.1312
 5099SOL    HW126759   1.727   4.109  14.778  0.2586 -0.3895 -3.6450
 5099SOL    HW226760   1.824   4.121  14.888 -0.8048 -0.3210 -0.1345
 5100SOL     OW26761   2.612   3.186   2.174  0.0718 -0.6120  0.4255
 5100SOL    HW126762   2.533   3.178   2.120 -0.0691  2.3516  0.2168
 5100SOL    HW226763   2.682   3.187   2.108 -0.2161  0.9566  0.1486
 5101SOL     OW26764   3.481   1.999   5.719 -0.0737 -0.2225  0.0287
 5101SOL    HW126765   3.469   2.025   5.628 -0.5782  0.2877  0.2476
 5101SOL    HW226766   3.401   1.956   5.747 -0.2557 -0.1242 -0.3343
 5102SOL     OW26767   4.383   4.493  10.745 -0.0182 -0.2455 -0.2864
 5102SOL    HW126768   4.393   4.409  10.791 -2.4354 -1.2645 -1.5981
 5102SOL    HW226769   4.439   4.550  10.796 -2.2836  4.6870 -3.3072
 5103SOL     OW26770   4.106   2.408   4.036  0.0391  0.1092  0.6976
 5103SOL    HW126771   4.123   2.438   4.126  0.1944 -1.2392  1.1188
 5103SOL    HW226772   4.184   2.422   3.983 -0.4829 -0.3563 -0.1935
 5104SOL     OW26773   1.250   0.042   4.057  0.5645 -0.2678 -0.2226
 5104SOL    HW126774   1.199   0.120   4.079 -0.0281 -0.2244 -1.7791
 5104SOL    HW226775   1.344   0.060   4.053  0.5415 -0.3219 -1.0197
 5105SOL     OW26776   3.521   1.965   6.720 -0.3426  0.3756 -0.4871
 5105SOL    HW126777   3.595   2.022   6.739 -2.0749  2.3253  0.4957
 5105SOL    HW226778   3.544   1.898   6.785  0.6071 -1.4381 -2.7172
 5106SOL     OW26779   0.644   0.465   2.365  0.0884  0.1296  0.0785
 5106SOL    HW126780   0.591   0.505   2.295 -1.9461 -1.5005  0.6795
 5106SOL    HW226781   0.699   0.538   2.394 -1.7887  1.7736 -0.4639
 5107SOL     OW26782   2.157   2.768  13.727  0.2480 -0.3186 -0.2441
 5107SOL    HW126783   2.107   2.697  13.766  0.4143 -1.3067 -1.8118
 5107SOL    HW226784   2.241   2.763  13.774  1.4718  2.4713 -2.1557
 5108SOL     OW26785   4.310   2.736  10.467  0.1771  0.0765 -0.1621
 5108SOL    HW126786   4.280   2.819  10.430  2.1004  0.9480  0.2472
 5108SOL    HW226787   4.289   2.690  10.386 -1.0367 -1.3251  0.9535
 5109SOL     OW26788   1.699   2.420  13.341  0.0063  0.2991 -0.4276
 5109SOL    HW126789   1.627   2.458  13.391 -0.6861 -0.9794 -0.4518
 5109SOL    HW226790   1.667   2.410  13.251 -0.4425  0.3475 -0.2747
 5110SOL     OW26791   3.661   4.532   2.276 -0.2555 -0.5331 -0.1292
 5110SOL    HW126792   3.699   4.464   2.221 -1.0798 -3.2260  2.6418
 5110SOL    HW226793   3.656   4.608   2.218  1.4863  1.0307  1.6968
 5111SOL     OW26794   4.313   1.980   3.472  0.0387  0.1898 -1.2356
 5111SOL    HW126795   4.397   1.992   3.517 -0.7034  0.1727  0.1648
 5111SOL    HW226796   4.338   1.900   3.426  0.3690  0.2297 -1.1236
 5112SOL     OW26797   0.352   1.753   8.174  0.1964 -0.3807 -0.0596
 5112SOL    HW126798   0.388   1.809   8.243 -0.3457 -0.8064  0.5825
 5112SOL    HW226799   0.320   1.676   8.222  1.7485 -0.1600  1.3245
 5113SOL     OW26800   1.651   3.047   4.374  0.4528  0.7267 -0.0501
 5113SOL    HW126801   1.619   3.000   4.451  1.5900 -1.0332 -0.6642
 5113SOL    HW226802   1.596   3.124   4.362 -1.1196 -0.6454 -1.5751
 5114SOL     OW26803   3.262   4.578   5.728 -0.2191  0.6082  0.1028
 5114SOL    HW126804   3.232   4.568   5.638  0.4103  0.0269 -0.0497
 5114SOL    HW226805   3.319   4.654   5.717  0.3207 -0.0331 -1.5764
 5115SOL     OW26806   3.676   0.180  10.165  0.2133  0.3623 -1.0234
 5115SOL    HW126807   3.719   0.251  10.213 -0.7191 -0.2485  0.6951
 5115SOL    HW226808   3.625   0.225  10.097 -1.1060  0.6462  0.1732
 5116SOL     OW26809   1.052   1.120   9.547 -0.0256 -0.5659  0.2134
 5116SOL    HW126810   1.059   1.037   9.500 -3.6129 -1.7117  1.7118
 5116SOL    HW226811   1.128   1.119   9.605  1.2946  0.4073 -1.4871
 5117SOL     OW26812   0.150   0.867   7.995 -0.6730  0.0365  0.6290
 5117SOL    HW126813   0.092   0.880   8.071 -0.7739  0.1094  0.5400
 5117SOL    HW226814   0.218   0.810   8.029  0.4355  0.3437 -1.0930
 5118SOL     OW26815   3.839   4.452   7.096  0.4071 -0.0501  0.0906
 5118SOL    HW126816   3.794   4.369   7.075  1.0398 -0.2566 -0.4626
 5118SOL    HW226817   3.925   4.424   7.128 -0.3194 -1.7418  0.5547
 5119SOL     OW26818   2.950   1.313   6.282 -0.7522 -0.3590 -0.6458
 5119SOL    HW126819   2.949   1.377   6.353  0.1142  1.7861 -2.5658
 5119SOL    HW226820   3.045   1.295   6.281 -0.1867  2.5737  1.0821
 5120SOL     OW26821   2.549   2.461   8.686 -0.4719 -0.5552  0.0730
 5120SOL    HW126822   2.643   2.471   8.702 -0.1474 -1.6783 -1.2091
 5120SOL    HW226823   2.542   2.370   8.714 -0.8565 -0.0382  1.6953
 5121SOL     OW26824   2.424   0.211   8.720  0.1053  0.4247 -0.0596
 5121SOL    HW126825   2.404   0.133   8.668 -0.0193 -0.7810  1.8033
 5121SOL    HW226826   2.354   0.269   8.690 -0.0893  0.8290  1.1861
 5122SOL     OW26827   3.920   1.068   1.188 -0.2089 -0.1795 -0.5465
 5122SOL    HW126828   3.917   1.096   1.097  2.0165  1.0517 -0.2509
 5122SOL    HW226829   3.859   1.133   1.224  0.7204  1.1202 -1.2911
 5123SOL     OW26830   2.650   3.540   7.023 -0.3498 -0.1878 -0.1902
 5123SOL    HW126831   2.669   3.616   6.967  2.8712 -0.9028 -0.0819
 5123SOL    HW226832   2.703   3.472   6.981 -2.3867 -3.0394  1.8953
 5124SOL     OW26833   0.104   3.136   7.783 -0.3094 -0.7743  0.0554
 5124SOL    HW126834   0.118   3.174   7.870  0.1089  0.7610 -0.6667
 5124SOL    HW226835   0.038   3.071   7.804 -1.1546  0.3472  0.8407
 5125SOL     OW26836   1.457   3.383   8.132 -0.0512  0.1181  0.0144
 5125SOL    HW126837   1.514   3.422   8.066  1.0263 -0.1613  0.7612
 5125SOL    HW226838   1.495   3.421   8.212 -1.2384  2.2287 -0.4286
 5126SOL     OW26839   3.323   3.103   8.597  0.0781 -0.1516  0.4830
 5126SOL    HW126840   3.344   3.183   8.547  0.5085 -0.1444  0.6694
 5126SOL    HW226841   3.231   3.122   8.610 -0.0425 -0.0926 -0.4973
 5127SOL     OW26842   2.461   1.257   3.051 -0.1084 -0.4918 -0.0122
 5127SOL    HW126843   2.497   1.169   3.037  1.0976  0.1867 -1.1845
 5127SOL    HW226844   2.421   1.239   3.136 -0.4425 -1.9870 -0.4875
 5128SOL     OW26845   3.127   0.066   5.156 -0.1023  0.2662  0.1435
 5128SOL    HW126846   3.213   0.034   5.183  0.2247  1.3601  0.3745
 5128SOL    HW226847   3.110   0.026   5.071 -1.1588 -0.6492  0.7811
 5129SOL     OW26848   0.356   4.586  13.657  0.5420  0.2872 -0.1811
 5129SOL    HW126849   0.303   4.645  13.604 -1.4593 -0.0537  1.4444
 5129SOL    HW226850   0.395   4.655  13.711  0.9498 -1.9111  2.3698
 5130SOL     OW26851   4.505   4.619  15.016  0.4527 -0.5955  0.2015
 5130SOL    HW126852   4.583   4.637  14.964  1.0506  0.1217  1.3637
 5130SOL    HW226853   4.518   4.674  15.092 -0.9821 -0.6086  0.4502
 5131SOL     OW26854   4.333   1.753   3.959 -0.2189  0.1980 -0.9619
 5131SOL    HW126855   4.347   1.816   3.888 -0.5853  0.5904 -0.6926
 5131SOL    HW226856   4.252   1.713   3.929 -1.4412  0.9719  1.2672
 5132SOL     OW26857   2.256   4.147  16.239  0.1944 -1.1405  0.1175
 5132SOL    HW126858   2.229   4.134  16.330 -3.3992  0.6196 -0.6764
 5132SOL    HW226859   2.181   4.117  16.188 -2.0992  2.4199  1.3856
 5133SOL     OW26860   1.744   1.339   9.111 -0.3225  0.0837 -0.4823
 5133SOL    HW126861   1.650   1.343   9.128  0.0983  1.0806  1.6082
 5133SOL    HW226862   1.770   1.261   9.160 -1.6600  0.3780  0.6771
 5134SOL     OW26863   4.429   0.154   5.250  0.1550 -0.5463 -0.1892
 5134SOL    HW126864   4.480   0.215   5.197 -2.7724  1.8027 -0.2931
 5134SOL    HW226865   4.502   0.126   5.306 -0.7179  0.8958  1.6918
 5135SOL     OW26866   0.465   3.373   2.736 -0.3267  0.2579 -0.4750
 5135SOL    HW126867   0.412   3.325   2.672  3.9276 -1.8031 -2.4383
 5135SOL    HW226868   0.430   3.461   2.721 -0.1550  0.4959  0.5350
 5136SOL     OW26869   2.217   4.554   8.633  0.0211 -0.2921  0.0651
 5136SOL    HW126870   2.177   4.637   8.659 -1.3865 -0.7792 -0.5741
 5136SOL    HW226871   2.294   4.587   8.587  0.1587 -0.7650 -0.0386
 5137SOL     OW26872   1.392   0.595  10.133 -0.1774  0.5410  0.2532
 5137SOL    HW126873   1.407   0.618  10.225  0.3955  3.2044 -0.5372
 5137SOL    HW226874   1.483   0.572  10.115  0.1810  0.4764  2.1010
 5138SOL     OW26875   0.249   2.248   6.449  0.3017 -0.4191  0.1158
 5138SOL    HW126876   0.205   2.226   6.367  1.1647 -0.1001 -0.4324
 5138SOL    HW226877   0.172   2.232   6.503  0.6972 -2.5482  0.0229
 5139SOL     OW26878   1.500   2.003  14.905 -0.2880  0.4468 -0.1480
 5139SOL    HW126879   1.589   1.996  14.870  0.0662  1.1874  0.6020
 5139SOL    HW226880   1.448   2.017  14.826  0.3484 -1.5403 -0.9272
 5140SOL     OW26881   3.573   1.192  10.608  0.3274 -0.7767  0.3305
 5140SOL    HW126882   3.642   1.145  10.562  1.1346 -0.5919  1.3536
 5140SOL    HW226883   3.549   1.251  10.537  1.4239 -1.4282 -0.5729
 5141SOL     OW26884   2.560   1.522   8.387  0.5232 -0.5345  0.3813
 5141SOL    HW126885   2.564   1.533   8.482 -1.3886 -1.7824  0.6098
 5141SOL    HW226886   2.633   1.578   8.360  1.4769 -2.6549 -1.4710
 5142SOL     OW26887   0.972   3.111   6.308 -0.6159  0.0390 -0.1431
 5142SOL    HW126888   0.883   3.087   6.285  0.0431 -1.4688 -1.0618
 5142SOL    HW226889   0.963   3.206   6.314 -0.6450  0.1024 -1.1265
 5143SOL     OW26890   2.433   4.655  17.010  0.0030 -0.4906  0.8601
 5143SOL    HW126891   2.489   4.605  17.069 -0.5057  0.1027  1.8481
 5143SOL    HW226892   2.499   4.691  16.951 -0.8839  0.5936  0.5245
 5144SOL     OW26893   0.251   1.679   7.376  0.1093  0.0520 -0.5723
 5144SOL    HW126894   0.330   1.629   7.395  0.1444 -0.1020 -1.1284
 5144SOL    HW226895   0.268   1.749   7.440 -1.7859  0.7265 -0.7922
 5145SOL     OW26896   4.223   3.045   4.573  0.4015 -0.2668 -0.2983
 5145SOL    HW126897   4.187   3.123   4.529 -4.4109 -2.6065 -0.4815
 5145SOL    HW226898   4.143   2.998   4.598 -1.1229  1.6126 -1.6444
 5146SOL     OW26899   2.075   0.585  12.965 -0.3846  0.0821  0.0513
 5146SOL    HW126900   2.156   0.628  12.990 -1.2399  1.7797 -0.1098
 5146SOL    HW226901   2.016   0.658  12.984 -1.3437  0.1002 -3.1087
 5147SOL     OW26902   3.256   0.653   5.773  1.1556 -0.1298  0.0924
 5147SOL    HW126903   3.313   0.700   5.713 -0.5087 -2.0222 -2.9385
 5147SOL    HW226904   3.323   0.644   5.842  1.0484 -0.4515  0.1523
 5148SOL     OW26905   2.428   1.383   3.573 -0.1117 -0.5841 -0.2721
 5148SOL    HW126906   2.386   1.459   3.612 -0.0486 -1.5720  1.7138
 5148SOL    HW226907   2.408   1.412   3.484 -1.2589 -2.6078 -0.6709
 5149SOL     OW26908   2.280   3.750   0.037  0.2776 -0.4186  0.2345
 5149SOL    HW126909   2.309   3.813   0.103 -0.7172  2.7326 -2.3063
 5149SOL    HW226910   2.365   3.714   0.013  0.1370 -1.6085  1.4868
 5150SOL     OW26911   1.598   4.156   2.865  0.2242 -0.8220 -0.1471
 5150SOL    HW126912   1.523   4.213   2.885  1.5118  1.1974 -1.0495
 5150SOL    HW226913   1.600   4.095   2.938  1.4759  0.8742  1.2221
 5151SOL     OW26914   1.606   1.031  17.461  0.2297 -0.4518 -0.4794
 5151SOL    HW126915   1.678   1.080  17.500 -0.6931 -0.2153  0.9504
 5151SOL    HW226916   1.619   1.041  17.367  3.6497  1.4000  0.2157
 5152SOL     OW26917   2.384   2.378   1.185  0.1068 -0.0560 -0.1131
 5152SOL    HW126918   2.458   2.348   1.238 -0.1414  2.3470  1.5679
 5152SOL    HW226919   2.317   2.354   1.250 -0.0008 -2.5826 -1.1316
 5153SOL     OW26920   3.969   3.649  10.364 -0.4486 -0.0746 -0.5799
 5153SOL    HW126921   3.923   3.713  10.418  0.6258  0.2161 -0.0209
 5153SOL    HW226922   3.895   3.621  10.310 -0.9066  0.5843 -0.2989
 5154SOL     OW26923   0.781   3.973  16.398  0.2748 -0.4527 -0.3713
 5154SOL    HW126924   0.862   3.969  16.347  1.0785 -0.7193  0.9169
 5154SOL    HW226925   0.712   3.970  16.332  0.0898  4.5443 -0.4597
 5155SOL     OW26926   2.003   4.013  17.001  0.1536  0.1866 -0.2874
 5155SOL    HW126927   2.049   4.026  17.084  0.2373  0.6439 -0.4033
 5155SOL    HW226928   2.066   4.042  16.936 -1.0152  0.7012 -1.2032
 5156SOL     OW26929   0.135   3.016   9.248  0.3486 -0.0907  0.3855
 5156SOL    HW126930   0.063   3.074   9.222  0.5423  1.2903  2.8608
 5156SOL    HW226931   0.202   3.084   9.257  0.2423 -0.0319  0.7538
 5157SOL     OW26932   1.525   3.630   3.891  0.1815 -0.5435  0.1388
 5157SOL    HW126933   1.539   3.722   3.915 -2.8701  0.0626 -0.4517
 5157SOL    HW226934   1.603   3.611   3.838 -1.8579 -1.6923 -2.4547
 5158SOL     OW26935   1.831   3.963   5.255  0.1508  0.3703 -0.7391
 5158SOL    HW126936   1.912   4.006   5.285  1.2305 -0.9899 -1.6958
 5158SOL    HW226937   1.789   3.940   5.337  0.3414  0.8044 -0.5173
 5159SOL     OW26938   1.819   1.652   3.427 -0.1053 -0.5314 -0.4975
 5159SOL    HW126939   1.819   1.693   3.340 -2.2374  0.7366  0.0993
 5159SOL    HW226940   1.829   1.733   3.476 -0.2493 -1.7398  1.5173
 5160SOL     OW26941   2.970   3.104   3.557  0.1697 -0.5372  0.0356
 5160SOL    HW126942   2.909   3.157   3.507 -1.0752  1.2354  3.4642
 5160SOL    HW226943   2.913   3.027   3.567 -0.1999 -0.4718 -1.5696
 5161SOL     OW26944   2.281   0.002   7.662 -0.1831  0.1100 -0.0414
 5161SOL    HW126945   2.352   0.055   7.625 -1.4835  1.7544 -0.1853
 5161SOL    HW226946   2.278   0.042   7.749 -0.0375  1.9593 -0.8849
 5162SOL     OW26947   1.672   1.838   2.809  0.3330 -0.1820 -0.0698
 5162SOL    HW126948   1.661   1.782   2.886  1.1556  1.1441  1.0167
 5162SOL    HW226949   1.701   1.918   2.853  3.3295 -0.2691 -1.8509
 5163SOL     OW26950   0.602   0.264   9.928 -0.2129  0.4714  0.3581
 5163SOL    HW126951   0.575   0.298   9.843  0.9464  2.3067  0.7229
 5163SOL    HW226952   0.642   0.181   9.902  2.3350  1.5251  0.8981
 5164SOL     OW26953   3.562   1.382  14.811  0.5838  0.7070  0.2575
 5164SOL    HW126954   3.624   1.309  14.812  0.2240  0.3892 -0.2940
 5164SOL    HW226955   3.526   1.370  14.899 -0.8654 -1.2844 -0.6010
 5165SOL     OW26956   4.556   0.841   9.177 -0.2580 -0.1851 -0.5689
 5165SOL    HW126957   4.545   0.806   9.265 -1.0764  1.0353 -0.1805
 5165SOL    HW226958   4.602   0.769   9.134 -2.2507 -2.3831  0.9770
 5166SOL     OW26959   4.028   0.486   3.888  0.2640 -0.1293 -0.0673
 5166SOL    HW126960   3.987   0.463   3.972  2.1140  2.1853  1.4466
 5166SOL    HW226961   4.123   0.480   3.895  0.1888  0.0495  1.1472
 5167SOL     OW26962   1.290   2.359   3.790 -0.1190  0.0694  0.1336
 5167SOL    HW126963   1.218   2.374   3.851 -0.3601  2.4437 -0.7694
 5167SOL    HW226964   1.293   2.449   3.759  0.9503  0.8035  2.4193
 5168SOL     OW26965   2.502   1.035  15.540  0.0113 -0.3756 -0.1071
 5168SOL    HW126966   2.464   1.113  15.501 -0.2785 -1.9771 -2.9863
 5168SOL    HW226967   2.470   1.053  15.628 -0.6208 -1.8798 -0.0231
 5169SOL     OW26968   3.931   3.363   3.004  0.3126 -0.1010  0.5238
 5169SOL    HW126969   3.893   3.338   2.920  0.9327 -1.1430  0.5607
 5169SOL    HW226970   3.916   3.458   3.007 -0.8846 -0.2135 -1.6895
 5170SOL     OW26971   1.937   4.164   6.780  0.0425  0.0671 -0.4171
 5170SOL    HW126972   1.988   4.085   6.761 -0.3349 -0.3029  0.0821
 5170SOL    HW226973   2.005   4.218   6.822 -0.4319  1.0255 -0.8910
 5171SOL     OW26974   0.762   3.233   5.722 -0.9651  0.1775 -0.3339
 5171SOL    HW126975   0.738   3.141   5.718  1.6508 -0.4544 -1.4022
 5171SOL    HW226976   0.798   3.244   5.810 -0.7316 -0.4270 -0.3571
 5172SOL     OW26977   2.989   2.845   2.255 -0.2474  0.2149  0.7867
 5172SOL    HW126978   2.922   2.911   2.234  1.5248  2.0792  1.0494
 5172SOL    HW226979   3.019   2.860   2.345 -0.0441  0.4106  0.6857
 5173SOL     OW26980   1.488   4.640  12.906 -0.6255 -0.2320  0.1645
 5173SOL    HW126981   1.443   4.678  12.830 -0.3740 -2.9622 -1.3609
 5173SOL    HW226982   1.515   4.719  12.953  0.7664 -1.5746  1.6431
 5174SOL     OW26983   2.089   1.317   6.578 -0.1590 -0.7684 -0.1650
 5174SOL    HW126984   2.010   1.265   6.586 -1.1746  0.7721 -0.1145
 5174SOL    HW226985   2.149   1.263   6.527 -0.4700  0.9909 -2.4370
 5175SOL     OW26986   2.695   3.658   5.683  0.0203 -0.4198 -0.5836
 5175SOL    HW126987   2.619   3.710   5.708  1.7072  1.4985  0.5373
 5175SOL    HW226988   2.746   3.712   5.622 -0.9029  1.1608  0.0346
 5176SOL     OW26989   1.945   0.233  14.698 -0.2805  0.0524  0.4702
 5176SOL    HW126990   1.913   0.218  14.609  1.5263 -0.3287 -0.1111
 5176SOL    HW226991   2.016   0.295  14.685 -0.5338  0.0643 -0.8132
 5177SOL     OW26992   4.689   0.036   2.650  0.0289 -0.6326  0.2839
 5177SOL    HW126993   4.613   0.081   2.614 -1.1538 -1.3293  1.9513
 5177SOL    HW226994   4.691   4.680   2.598 -1.8584  0.8845 -2.0988
 5178SOL     OW26995   2.716   3.993  15.530 -0.5758  0.4877 -0.3240
 5178SOL    HW126996   2.750   3.956  15.611  0.9770  0.5019 -0.9616
 5178SOL    HW226997   2.630   3.951  15.529 -0.2639 -0.1553 -0.5388
 5179SOL     OW26998   3.117   3.776   1.192 -0.0473 -0.0001  0.4809
 5179SOL    HW126999   3.199   3.772   1.241  0.4631  0.5314 -0.3321
 5179SOL    HW227000   3.076   3.832   1.258  0.9628  0.5056  0.6835
 5180SOL     OW27001   0.054   3.145  11.478  0.0111  0.3449 -0.2830
 5180SOL    HW127002   4.685   3.125  11.468 -0.2163  2.2449 -1.9268
 5180SOL    HW227003   0.091   3.066  11.519 -1.5302 -0.0980  0.2298
 5181SOL     OW27004   3.415   3.329  12.969  0.1211  0.3948  0.4826
 5181SOL    HW127005   3.372   3.384  13.035 -1.5440  0.1331 -0.3581
 5181SOL    HW227006   3.419   3.402  12.907  0.3763  0.6953  0.8552
 5182SOL     OW27007   0.070   0.284   4.719 -0.2663 -0.7094  0.8414
 5182SOL    HW127008   0.090   0.336   4.641  0.0616 -2.0281  0.0470
 5182SOL    HW227009   0.080   0.350   4.788 -1.0449  1.9541 -1.5748
 5183SOL     OW27010   4.137   3.343  15.997  0.6549 -0.2493 -0.2545
 5183SOL    HW127011   4.085   3.392  15.933  1.2092 -0.6058 -0.9678
 5183SOL    HW227012   4.094   3.259  15.979 -1.0640  0.2071  1.6856
 5184SOL     OW27013   2.264   3.123   3.431  0.2616  0.1719  0.2439
 5184SOL    HW127014   2.357   3.148   3.437  0.0227  0.6221  2.0471
 5184SOL    HW227015   2.228   3.193   3.377 -1.5213  0.0902  1.3288
 5185SOL     OW27016   0.324   0.365   1.547 -0.0098 -0.7381 -0.1001
 5185SOL    HW127017   0.387   0.428   1.511 -1.0265  1.0827  1.3199
 5185SOL    HW227018   0.355   0.293   1.492  1.2056 -0.1385 -0.2114
 5186SOL     OW27019   0.749   0.255   2.122  0.2208 -0.0089 -0.9125
 5186SOL    HW127020   0.771   0.304   2.201  1.9315 -1.3908 -0.5183
 5186SOL    HW227021   0.748   0.325   2.057  4.1449  0.0392 -0.9464
 5187SOL     OW27022   2.335   3.664   1.681 -0.2003 -0.0276 -0.2858
 5187SOL    HW127023   2.307   3.584   1.637 -0.4637 -1.0956  1.8424
 5187SOL    HW227024   2.271   3.733   1.664 -1.2418 -0.6220  1.1853
 5188SOL     OW27025   0.977   2.551  17.176 -0.4765 -0.1685 -0.2658
 5188SOL    HW127026   0.964   2.531  17.269  1.8677  0.2368  0.1444
 5188SOL    HW227027   1.042   2.620  17.184  1.8698 -2.1056 -2.6850
 5189SOL     OW27028   2.833   4.345   3.026 -0.4053 -0.6717  0.2405
 5189SOL    HW127029   2.793   4.270   2.982  0.9237 -1.0247 -0.3620
 5189SOL    HW227030   2.839   4.314   3.116 -0.0222  1.7114  1.0487
 5190SOL     OW27031   1.530   3.617   4.920 -0.3139 -0.6356  0.5341
 5190SOL    HW127032   1.508   3.707   4.898 -1.3727 -1.2062 -0.6987
 5190SOL    HW227033   1.624   3.619   4.940  0.0881  1.0751 -1.5237
 5191SOL     OW27034   2.898   4.053  16.376 -0.1763 -0.3084 -0.1648
 5191SOL    HW127035   2.848   4.135  16.369  1.3658  0.4013 -2.8972
 5191SOL    HW227036   2.829   3.987  16.364 -1.5457  1.3099 -1.2722
 5192SOL     OW27037   4.187   3.999  16.879 -0.4190 -0.4420  0.1923
 5192SOL    HW127038   4.280   4.022  16.870  0.3170 -2.2861  3.2092
 5192SOL    HW227039   4.151   4.014  16.791  2.0092  1.1645 -0.5304
 5193SOL     OW27040   2.736   1.145  15.706  0.3461  0.1074 -0.1431
 5193SOL    HW127041   2.736   1.215  15.641 -1.6374  0.2684  0.0416
 5193SOL    HW227042   2.647   1.120  15.682 -0.0148  2.7092 -1.4706
 5194SOL     OW27043   2.494   0.739   8.236  0.0127 -0.1739  0.3395
 5194SOL    HW127044   2.445   0.799   8.180  1.2151  2.0428  1.6613
 5194SOL    HW227045   2.505   0.791   8.316 -1.7574 -1.3302  1.3520
 5195SOL     OW27046   4.541   1.717   7.229  0.3116  0.0879 -0.6903
 5195SOL    HW127047   4.513   1.639   7.275 -0.8822  0.8174 -0.1921
 5195SOL    HW227048   4.476   1.724   7.159 -0.4655 -2.9055 -0.2555
 5196SOL     OW27049   2.104   2.563   4.440 -0.4779 -0.1117  0.0870
 5196SOL    HW127050   2.075   2.628   4.375 -0.3448 -1.7526 -1.6256
 5196SOL    HW227051   2.152   2.615   4.504  0.8434 -1.3082  0.0718
 5197SOL     OW27052   0.983   1.919   4.834 -0.6761 -0.0326  0.1983
 5197SOL    HW127053   0.938   1.881   4.758  2.2081 -2.8931 -0.0892
 5197SOL    HW227054   0.931   1.877   4.903 -1.4056  1.1944  0.3854
 5198SOL     OW27055   3.379   2.572  14.867  0.3324  0.0581 -0.2152
 5198SOL    HW127056   3.447   2.563  14.934  1.4266  0.1215 -1.3272
 5198SOL    HW227057   3.350   2.663  14.859 -0.5888 -0.2629 -0.6025
 5199SOL     OW27058   1.880   3.976   7.967  0.3773 -0.4035 -0.3651
 5199SOL    HW127059   1.900   3.911   7.900  0.5046 -0.0256 -0.6964
 5199SOL    HW227060   1.808   4.016   7.919 -0.7298 -1.8633  0.0622
 5200SOL     OW27061   3.225   4.332   4.739 -0.5407 -0.2442  0.0941
 5200SOL    HW127062   3.145   4.361   4.695 -0.3496  0.8018  0.4336
 5200SOL    HW227063   3.232   4.392   4.814 -0.0034 -0.4881  0.2373
 5201SOL     OW27064   4.393   2.775   6.607 -0.2501 -0.1161 -0.3085
 5201SOL    HW127065   4.410   2.688   6.642  1.4929  0.3598 -0.0074
 5201SOL    HW227066   4.306   2.769   6.567 -0.3134  0.6346 -0.2818
 5202SOL     OW27067   1.050   4.440  16.259  0.3322 -0.1556 -0.3988
 5202SOL    HW127068   1.118   4.387  16.299 -1.0321 -1.6183 -0.0118
 5202SOL    HW227069   0.985   4.436  16.329  1.6745  2.2589  0.9804
 5203SOL     OW27070   4.227   2.972  12.997  0.2187 -0.7927  0.4186
 5203SOL    HW127071   4.150   2.970  13.054  0.4165  0.4229  0.7327
 5203SOL    HW227072   4.284   3.026  13.051  0.8611 -2.5357  1.4622
 5204SOL     OW27073   0.183   4.565   9.086 -0.5779  0.1613 -0.0176
 5204SOL    HW127074   0.122   4.575   9.013  0.4498  0.7863 -0.8009
 5204SOL    HW227075   0.182   4.476   9.120  1.9900  0.2759  0.3563
 5205SOL     OW27076   3.520   4.308   9.651  0.4491 -0.4484 -0.0048
 5205SOL    HW127077   3.587   4.335   9.588 -0.8535  0.4166 -1.0341
 5205SOL    HW227078   3.448   4.311   9.588  0.8325 -1.1192 -0.4816
 5206SOL     OW27079   4.688   3.125   4.704 -0.0528  0.0834 -0.1949
 5206SOL    HW127080   4.718   3.171   4.783  0.2823 -0.9387  0.2727
 5206SOL    HW227081   4.677   3.035   4.734 -0.3025 -0.4650 -1.9564
 5207SOL     OW27082   0.314   3.204   1.106 -0.2819 -0.2239 -0.3028
 5207SOL    HW127083   0.289   3.176   1.018 -2.9589  0.3750  0.2707
 5207SOL    HW227084   0.372   3.277   1.086  0.6609 -0.8802  0.0046
 5208SOL     OW27085   2.247   2.847   6.993 -0.1541  0.3831 -0.1483
 5208SOL    HW127086   2.170   2.801   6.960  0.5939 -0.1547 -1.1402
 5208SOL    HW227087   2.296   2.774   7.031  1.0953  0.7971 -0.9565
 5209SOL     OW27088   1.474   1.293   9.199  0.2411 -0.3089 -0.3599
 5209SOL    HW127089   1.442   1.205   9.219 -0.8037  0.1276 -0.0966
 5209SOL    HW227090   1.408   1.331   9.142 -0.4760 -0.4892  0.3444
 5210SOL     OW27091   0.358   1.989   2.043  0.6000 -0.4835 -0.3157
 5210SOL    HW127092   0.338   2.014   2.133  3.4243  1.1030 -0.1314
 5210SOL    HW227093   0.271   1.959   2.018  1.7278 -4.5313  0.5940
 5211SOL     OW27094   0.132   2.630  13.157 -0.0342  0.6324 -0.4020
 5211SOL    HW127095   0.157   2.708  13.107  0.3479 -0.0502 -1.2622
 5211SOL    HW227096   0.205   2.639  13.219 -2.2100  1.4126  2.0922
 5212SOL     OW27097   1.697   4.534  10.704 -0.1813 -0.2110  0.1614
 5212SOL    HW127098   1.782   4.496  10.682  0.7990  2.2443 -0.2448
 5212SOL    HW227099   1.736   4.618  10.726 -1.9666  0.6444  0.0497
 5213SOL     OW27100   1.167   1.796   2.563  0.2693 -0.7515  0.3467
 5213SOL    HW127101   1.261   1.818   2.559 -0.3505  1.7699 -0.8230
 5213SOL    HW227102   1.130   1.856   2.499  0.8011  0.0695  0.7967
 5214SOL     OW27103   2.120   2.613   4.108  0.2387 -0.2157 -0.1996
 5214SOL    HW127104   2.171   2.606   4.027 -2.2454 -0.1221 -1.7741
 5214SOL    HW227105   2.105   2.519   4.111  1.0410 -0.3365  0.1171
 5215SOL     OW27106   3.699   1.446  15.718 -0.1764  0.0433 -0.0052
 5215SOL    HW127107   3.710   1.351  15.725 -0.1007  0.1979  1.8368
 5215SOL    HW227108   3.606   1.441  15.741 -0.2900  2.4719  0.0814
 5216SOL     OW27109   1.430   1.863   8.642 -0.3304  0.4423 -0.0333
 5216SOL    HW127110   1.438   1.784   8.697  3.3876  0.6844 -0.2368
 5216SOL    HW227111   1.417   1.828   8.554  0.6306  0.3475 -0.1348
 5217SOL     OW27112   3.743   1.385  13.445 -0.0383  0.6730  0.2623
 5217SOL    HW127113   3.693   1.305  13.429 -0.3697  0.8795  0.2635
 5217SOL    HW227114   3.679   1.449  13.477 -0.3264  0.3001  0.4318
 5218SOL     OW27115   2.544   3.803   0.730  0.2143  0.1929 -0.3990
 5218SOL    HW127116   2.569   3.712   0.748 -1.3539 -0.0401  0.6484
 5218SOL    HW227117   2.630   3.843   0.717  0.6881 -0.0258  2.0682
 5219SOL     OW27118   4.660   2.595   2.967  0.1695  0.1183 -0.1596
 5219SOL    HW127119   0.016   2.620   2.920  0.5880  1.3025  1.1993
 5219SOL    HW227120   4.621   2.665   3.018 -0.0322 -0.5663  0.6317
 5220SOL     OW27121   4.606   3.910  10.060 -0.1869  0.4013  0.1969
 5220SOL    HW127122   4.619   3.839   9.998  2.2949 -0.2482  1.4881
 5220SOL    HW227123   4.532   3.863  10.100 -1.5591  0.6177 -2.0764
 5221SOL     OW27124   1.545   1.333  14.871 -0.3158  0.1666 -0.5497
 5221SOL    HW127125   1.505   1.259  14.825 -1.3804  0.6496 -0.3954
 5221SOL    HW227126   1.611   1.285  14.922 -2.1514 -1.2595  0.4743
 5222SOL     OW27127   4.526   3.078  11.529  0.2209  0.2231  0.5363
 5222SOL    HW127128   4.486   3.122  11.605 -1.8674  1.1024 -1.0980
 5222SOL    HW227129   4.546   2.993  11.567  0.9112 -0.1298 -0.6203
 5223SOL     OW27130   3.454   2.069   8.879  0.3667  0.1487  0.0340
 5223SOL    HW127131   3.444   2.053   8.973  1.7527 -0.7227  0.0357
 5223SOL    HW227132   3.513   2.001   8.847  0.0132  0.2402 -0.8138
 5224SOL     OW27133   2.603   3.259  11.983  0.1174  0.1169  0.4226
 5224SOL    HW127134   2.665   3.285  11.916 -0.0289 -1.9391 -0.4898
 5224SOL    HW227135   2.535   3.219  11.929 -0.7573 -0.1346  1.6913
 5225SOL     OW27136   0.648   4.278   6.480 -0.1730 -0.6181 -0.0385
 5225SOL    HW127137   0.584   4.265   6.550 -2.2547 -0.0549 -1.8381
 5225SOL    HW227138   0.695   4.359   6.499 -1.2612  0.1453 -0.6190
 5226SOL     OW27139   1.007   2.315   6.832 -0.0923 -0.0729 -0.1874
 5226SOL    HW127140   1.012   2.238   6.888 -0.1713 -1.0008 -1.4727
 5226SOL    HW227141   1.089   2.361   6.849 -0.4617  1.0388 -1.4337
 5227SOL     OW27142   0.059   0.428  16.123 -0.0985 -0.5802 -0.2242
 5227SOL    HW127143   0.086   0.503  16.176 -2.4047 -0.4387  0.7659
 5227SOL    HW227144   0.001   0.389  16.189 -0.6453 -0.3807 -0.5832
 5228SOL     OW27145   1.277   0.374  16.475  0.4916 -0.3290 -0.4101
 5228SOL    HW127146   1.349   0.436  16.466 -1.1223  1.5648 -0.5375
 5228SOL    HW227147   1.202   0.430  16.452  1.2381  0.6126 -0.5319
 5229SOL     OW27148   2.190   1.421  10.234  0.0603 -0.3563  0.5036
 5229SOL    HW127149   2.151   1.428  10.147  0.6842 -2.0324  0.0949
 5229SOL    HW227150   2.182   1.509  10.271  1.6292 -0.9944  2.3718
 5230SOL     OW27151   3.727   1.464   5.316 -0.0380  0.5322 -0.2619
 5230SOL    HW127152   3.641   1.489   5.349 -0.1905 -0.2176 -0.0853
 5230SOL    HW227153   3.772   1.466   5.401  0.0201 -0.3103 -0.2720
 5231SOL     OW27154   3.174   1.576   6.836  0.6419  0.2753 -0.1974
 5231SOL    HW127155   3.257   1.530   6.823 -0.3724 -1.3582 -0.9333
 5231SOL    HW227156   3.185   1.608   6.926 -0.1470 -2.7953  0.9821
 5232SOL     OW27157   1.542   4.364  15.014  0.1841 -0.2795  0.4625
 5232SOL    HW127158   1.452   4.364  14.983  0.3606 -0.1794 -0.0426
 5232SOL    HW227159   1.574   4.438  14.964 -3.5615  1.0514  0.1091
 5233SOL     OW27160   4.180   1.717  16.944  0.1467 -0.3821  0.0002
 5233SOL    HW127161   4.204   1.794  16.995 -1.4640 -0.8428  1.4310
 5233SOL    HW227162   4.089   1.701  16.969 -0.5810 -0.1789 -2.5280
 5234SOL     OW27163   2.086   0.110   3.062 -0.1891 -0.5386 -0.0843
 5234SOL    HW127164   2.164   0.155   3.093 -1.1303  0.9152  0.1524
 5234SOL    HW227165   2.027   0.126   3.136  2.6470 -2.1942  2.5342
 5235SOL     OW27166   0.885   1.750   4.623  0.3785  0.8720  0.4200
 5235SOL    HW127167   0.841   1.667   4.609  1.1135  0.7199 -0.9481
 5235SOL    HW227168   0.970   1.731   4.584 -0.8420 -0.7674 -1.3852
 5236SOL     OW27169   0.505   2.785   3.664 -0.6771  0.1323 -0.3726
 5236SOL    HW127170   0.517   2.828   3.580 -1.8558 -1.2293 -1.2301
 5236SOL    HW227171   0.413   2.801   3.683 -0.6087 -2.7520  2.3465
 5237SOL     OW27172   1.212   1.588   1.398  0.0232  0.4006  0.1783
 5237SOL    HW127173   1.183   1.502   1.427 -3.5169  1.0088 -1.4899
 5237SOL    HW227174   1.192   1.648   1.470  0.0970 -0.2078  0.7086
 5238SOL     OW27175   4.516   0.115   0.724  0.3173  0.6795 -0.2742
 5238SOL    HW127176   4.505   0.133   0.817  0.7759 -1.4653  0.2075
 5238SOL    HW227177   4.574   0.186   0.696 -0.4122  2.9837  4.1530
 5239SOL     OW27178   2.319   0.186   7.859  0.2222  0.1814 -0.2877
 5239SOL    HW127179   2.335   0.170   7.952 -0.4014 -2.3318 -0.6152
 5239SOL    HW227180   2.351   0.275   7.843  0.5441 -0.4635 -3.2765
 5240SOL     OW27181   1.825   0.122   5.816  0.5400  0.2537 -0.4490
 5240SOL    HW127182   1.731   0.135   5.804  0.4511  0.4969  0.4951
 5240SOL    HW227183   1.846   0.029   5.805  2.3746  0.8709 -2.1812
 5241SOL     OW27184   0.124   3.907  12.156  0.1069 -0.4051 -0.3112
 5241SOL    HW127185   0.160   3.986  12.196 -1.8014 -0.2655  1.1312
 5241SOL    HW227186   0.034   3.940  12.147  0.3625  0.2084 -0.5655
 5242SOL     OW27187   2.911   1.903   6.586 -0.5450 -0.0165  0.0699
 5242SOL    HW127188   2.833   1.950   6.617 -2.4113 -2.4922 -0.8721
 5242SOL    HW227189   2.980   1.956   6.627 -0.7432  0.6531 -0.4549
 5243SOL     OW27190   4.722   2.703   0.723 -0.1292 -0.2533  0.5779
 5243SOL    HW127191   0.091   2.698   0.699  0.0397 -2.0634  1.6383
 5243SOL    HW227192   4.689   2.614   0.731 -2.9609  0.7338 -0.1747
 5244SOL     OW27193   1.404   4.699   2.919 -0.3284  0.0789 -0.5273
 5244SOL    HW127194   1.321   4.667   2.955  0.3718  1.6371  2.4239
 5244SOL    HW227195   1.372   0.064   2.905  0.9345  0.7188  0.6263
 5245SOL     OW27196   2.258   3.779   6.911 -0.1588 -0.1635  0.5220
 5245SOL    HW127197   2.334   3.770   6.968 -0.0982 -2.0775  0.1418
 5245SOL    HW227198   2.189   3.775   6.977 -0.7201 -1.2046 -0.1221
 5246SOL     OW27199   1.198   1.626   1.883  0.7269 -0.2637  0.5578
 5246SOL    HW127200   1.194   1.669   1.797 -0.5551 -0.3946  0.5441
 5246SOL    HW227201   1.250   1.550   1.859 -0.3636 -0.9049  0.2306
 5247SOL     OW27202   0.896   4.371   4.299  0.3895  0.2489  0.0830
 5247SOL    HW127203   0.816   4.381   4.351 -0.7691 -0.1767 -1.5967
 5247SOL    HW227204   0.916   4.278   4.309 -1.9283 -0.2164  0.3756
 5248SOL     OW27205   2.111   1.311  16.269  0.2800  0.0749  0.2539
 5248SOL    HW127206   2.103   1.318  16.174 -0.5063  3.2386  0.5541
 5248SOL    HW227207   2.196   1.271  16.283  0.1655  1.4132  4.8592
 5249SOL     OW27208   1.835   1.537  11.429 -0.7962 -0.8317  0.8783
 5249SOL    HW127209   1.797   1.473  11.369 -0.8693  1.1455 -1.1905
 5249SOL    HW227210   1.861   1.471  11.494  0.1487 -0.3871  0.9570
 5250SOL     OW27211   4.509   1.262   5.101  0.1021  0.3478  0.1453
 5250SOL    HW127212   4.419   1.252   5.071  0.0605 -0.7444  0.6262
 5250SOL    HW227213   4.512   1.358   5.100 -1.7291  0.4092  1.2026
 5251SOL     OW27214   1.493   0.574   6.619  0.2735 -0.2597 -0.1116
 5251SOL    HW127215   1.498   0.668   6.599 -0.7752  0.1895  1.7139
 5251SOL    HW227216   1.512   0.537   6.533  0.1606  1.0288 -0.6851
 5252SOL     OW27217   3.367   3.529   0.446  0.0094 -0.3316  0.0908
 5252SOL    HW127218   3.440   3.499   0.500 -2.5885 -1.6082  2.8578
 5252SOL    HW227219   3.297   3.516   0.510  0.6402 -0.8671  0.6671
 5253SOL     OW27220   3.652   2.433   4.527  0.1420 -0.1853 -0.1246
 5253SOL    HW127221   3.680   2.354   4.481  0.1320  0.6909 -1.6271
 5253SOL    HW227222   3.589   2.399   4.590  0.1048 -0.1033 -0.1176
 5254SOL     OW27223   0.293   0.586   3.107 -0.3591  0.4794 -0.2742
 5254SOL    HW127224   0.206   0.597   3.069  0.2518 -0.1509 -1.8764
 5254SOL    HW227225   0.308   0.672   3.146  0.5871  0.1350  0.1207
 5255SOL     OW27226   3.548   2.684   5.023 -0.2532  0.5288 -0.1118
 5255SOL    HW127227   3.630   2.661   4.978 -1.0502 -2.1697 -0.1676
 5255SOL    HW227228   3.562   2.756   5.085 -3.3373  1.7273 -0.8177
 5256SOL     OW27229   2.628   1.874   6.971 -0.0465  0.0408 -1.3142
 5256SOL    HW127230   2.645   1.780   6.971 -1.8589 -0.2852 -1.6871
 5256SOL    HW227231   2.598   1.898   7.059 -0.7275 -1.2414 -1.2067
 5257SOL     OW27232   3.253   3.005   6.565 -0.2892 -0.1479 -0.4426
 5257SOL    HW127233   3.175   2.985   6.617 -0.2702 -1.2735 -0.8435
 5257SOL    HW227234   3.260   3.101   6.563 -1.1092 -0.1096 -1.7998
 5258SOL     OW27235   1.759   0.489   3.827 -1.0885  0.3317 -0.0822
 5258SOL    HW127236   1.816   0.464   3.900 -2.0921 -0.8895  0.2689
 5258SOL    HW227237   1.723   0.570   3.864  0.7564  1.2806 -0.3145
 5259SOL     OW27238   0.483   1.973   9.463  0.2138  0.1993  0.1938
 5259SOL    HW127239   0.485   2.011   9.551 -0.5568 -0.3000  0.4278
 5259SOL    HW227240   0.419   2.026   9.417  0.4082  1.0978  0.9625
 5260SOL     OW27241   3.212   2.211   5.797 -0.6488 -0.1097 -0.0011
 5260SOL    HW127242   3.286   2.232   5.854 -2.0167 -2.4873  2.6475
 5260SOL    HW227243   3.140   2.215   5.861  0.2162  1.4626  0.8795
 5261SOL     OW27244   1.531   4.685   9.234  0.7012 -0.2482  0.7377
 5261SOL    HW127245   1.493   0.029   9.292 -0.9149  0.5334 -1.2412
 5261SOL    HW227246   1.513   4.612   9.293  3.3481 -1.1863  0.3482
 5262SOL     OW27247   1.789   3.864   9.973  0.2134  0.5098 -0.7187
 5262SOL    HW127248   1.880   3.855  10.003  0.1282 -1.1986 -0.9701
 5262SOL    HW227249   1.820   3.928   9.909  1.6356  0.7335  0.1691
 5263SOL     OW27250   3.872   1.568   4.285  0.0642  0.0440 -0.0670
 5263SOL    HW127251   3.855   1.492   4.230  0.5163  0.2754 -0.5222
 5263SOL    HW227252   3.910   1.633   4.226  1.6352  1.9389  3.0150
 5264SOL     OW27253   1.745   2.531   5.799  0.2993 -0.4625  0.7482
 5264SOL    HW127254   1.823   2.571   5.839  1.7130 -2.0708 -0.4172
 5264SOL    HW227255   1.757   2.550   5.706 -1.7494 -3.6257 -0.1672
 5265SOL     OW27256   0.213   3.349   4.125 -0.3960  0.0494 -0.4641
 5265SOL    HW127257   0.139   3.359   4.065 -1.0011  2.6764  0.7127
 5265SOL    HW227258   0.275   3.369   4.055  1.0629  0.3826  0.9472
 5266SOL     OW27259   1.226   3.345   7.375  0.3549 -0.5948  0.0993
 5266SOL    HW127260   1.275   3.300   7.306 -2.0152 -1.8798 -0.7690
 5266SOL    HW227261   1.293   3.410   7.395  2.1896 -2.5885  0.4354
 5267SOL     OW27262   0.214   2.507   8.975 -0.3785  0.2683 -0.2725
 5267SOL    HW127263   0.261   2.426   8.957 -2.2479 -0.3147 -2.5568
 5267SOL    HW227264   0.254   2.527   9.060 -1.0705 -0.0628  0.1311
 5268SOL     OW27265   3.618   1.077   4.125  0.1865  0.4763  0.0625
 5268SOL    HW127266   3.704   1.085   4.084 -0.5806  2.4780 -1.1462
 5268SOL    HW227267   3.631   0.988   4.157 -1.1968 -0.0246 -0.8048
 5269SOL     OW27268   0.672   0.343   7.380  0.1065 -0.3131  0.0088
 5269SOL    HW127269   0.740   0.300   7.431  1.3397  1.1427 -0.4120
 5269SOL    HW227270   0.688   0.293   7.300 -1.6732 -4.3468  2.1840
 5270SOL     OW27271   3.591   2.979   7.782  0.2578 -0.0857  0.7173
 5270SOL    HW127272   3.669   2.944   7.827  1.3102  0.3671 -0.7616
 5270SOL    HW227273   3.554   2.895   7.755 -1.2539  0.9301 -0.2873
 5271SOL     OW27274   0.521   3.231   7.716  0.0900  0.5250 -0.3650
 5271SOL    HW127275   0.589   3.272   7.769  0.0466 -0.8300  0.7557
 5271SOL    HW227276   0.570   3.200   7.640 -2.5065  1.0421 -2.2474
 5272SOL     OW27277   4.027   1.116   9.684  0.5243  0.3693  0.1743
 5272SOL    HW127278   4.089   1.043   9.690  0.8237  0.7307  1.4862
 5272SOL    HW227279   3.956   1.101   9.746  0.5494  0.6705  0.2765
 5273SOL     OW27280   2.753   0.504   1.808 -0.1657  0.0093  0.2458
 5273SOL    HW127281   2.768   0.597   1.826  0.2685 -0.2999  1.5254
 5273SOL    HW227282   2.658   0.498   1.804 -0.1021 -1.3002  0.6335
 5274SOL     OW27283   1.315   0.384   5.498 -0.4313 -0.4611 -0.1403
 5274SOL    HW127284   1.271   0.305   5.529 -1.3342  0.6047  1.2981
 5274SOL    HW227285   1.397   0.351   5.462  0.3485  0.6129  0.6325
 5275SOL     OW27286   3.285   4.431   7.213  0.5982 -0.4840 -0.2910
 5275SOL    HW127287   3.346   4.488   7.262  1.3074 -0.3673 -1.3107
 5275SOL    HW227288   3.213   4.419   7.275  0.5330  2.0454  0.1480
 5276SOL     OW27289   2.457   1.984   8.187 -0.4909 -0.0461  0.1677
 5276SOL    HW127290   2.482   1.907   8.136  0.3763  0.0709  0.4208
 5276SOL    HW227291   2.470   1.967   8.280 -3.4233 -0.4653  0.5175
 5277SOL     OW27292   0.656   4.374   4.719 -0.0539 -0.3133  0.2977
 5277SOL    HW127293   0.614   4.351   4.802  0.3912 -0.5068  0.4720
 5277SOL    HW227294   0.672   4.467   4.737  1.4250 -0.2104 -1.5266
 5278SOL     OW27295   4.173   1.922   5.180 -0.1323 -0.0715 -0.2323
 5278SOL    HW127296   4.194   1.947   5.270  1.0861 -1.0400 -0.2455
 5278SOL    HW227297   4.214   1.836   5.176  0.2174  0.0264  1.2702
 5279SOL     OW27298   1.952   2.952  11.812 -0.2724  0.5003  0.5367
 5279SOL    HW127299   1.943   2.957  11.716 -3.4991  2.0027  0.9259
 5279SOL    HW227300   2.045   2.930  11.821 -0.3115 -0.2734 -0.8568
 5280SOL     OW27301   3.850   1.309  10.509 -0.3064 -0.4737  0.2282
 5280SOL    HW127302   3.874   1.244  10.575  0.3921 -2.1624 -1.6838
 5280SOL    HW227303   3.781   1.363  10.549 -0.8613 -0.1733 -1.1540
 5281SOL     OW27304   2.816   2.647   4.948 -0.4159  0.4224  0.2357
 5281SOL    HW127305   2.865   2.622   4.869 -0.6113  0.4683  0.1014
 5281SOL    HW227306   2.861   2.724   4.982  2.4117 -1.3915  0.6473
 5282SOL     OW27307   1.272   2.076  15.542  0.1115  0.3259  0.4579
 5282SOL    HW127308   1.223   2.105  15.465 -0.1305 -1.1125  0.0858
 5282SOL    HW227309   1.228   1.992  15.550  0.6496  0.1569  1.6187
 5283SOL     OW27310   1.496   0.254  12.758  0.2267 -0.1854 -0.3343
 5283SOL    HW127311   1.523   0.235  12.668  1.0498 -0.5016 -0.0144
 5283SOL    HW227312   1.409   0.214  12.768 -0.3236  1.1527  0.2953
 5284SOL     OW27313   0.858   3.175   3.513  0.0711  0.6046  0.2444
 5284SOL    HW127314   0.805   3.197   3.590  0.3606 -0.3672  0.7265
 5284SOL    HW227315   0.794   3.172   3.442  0.8765  1.0935 -0.5025
 5285SOL     OW27316   1.006   0.590   4.960 -0.1520  0.5631 -0.5192
 5285SOL    HW127317   1.080   0.554   5.008  1.6062  3.2856 -1.2433
 5285SOL    HW227318   0.931   0.555   5.009  1.4804 -1.6108  0.4678
 5286SOL     OW27319   1.051   1.316   1.830  0.4293  0.0007  0.1027
 5286SOL    HW127320   1.035   1.327   1.924  0.9619 -2.8955  0.5170
 5286SOL    HW227321   1.140   1.352   1.818 -0.0508 -0.1908 -4.1171
 5287SOL     OW27322   4.695   2.525   6.745  0.3861 -0.4051  0.1914
 5287SOL    HW127323   0.029   2.518   6.822 -1.5105 -1.5172  1.5119
 5287SOL    HW227324   0.032   2.533   6.671 -0.3553 -0.0998 -0.3812
 5288SOL     OW27325   3.184   2.330  10.298  0.3816  0.1299 -0.0173
 5288SOL    HW127326   3.224   2.253  10.259 -2.5823 -1.9264  0.9461
 5288SOL    HW227327   3.131   2.307  10.375 -0.9443  0.4114 -0.8340
 5289SOL     OW27328   0.079   0.578   2.190 -0.0102 -0.2974 -0.6137
 5289SOL    HW127329   0.090   0.645   2.122  0.3673  1.3684  1.0938
 5289SOL    HW227330   0.115   0.627   2.264 -0.0859 -0.5549 -0.4064
 5290SOL     OW27331   1.303   4.203  14.300  0.2625 -0.0424 -0.0152
 5290SOL    HW127332   1.394   4.194  14.272  0.3916  0.6077  0.1872
 5290SOL    HW227333   1.248   4.202  14.222  0.4470  2.1981 -0.1903
 5291SOL     OW27334   3.708   0.625  17.303  0.4581  0.2239 -0.4735
 5291SOL    HW127335   3.665   0.544  17.331  1.3440  0.3576  1.2552
 5291SOL    HW227336   3.637   0.688  17.315  0.2938  0.0255 -0.3935
 5292SOL     OW27337   3.092   0.544   8.256  0.6079  0.2006 -0.3971
 5292SOL    HW127338   3.185   0.524   8.263  0.1555 -2.2275 -1.3632
 5292SOL    HW227339   3.056   0.510   8.338 -1.3120 -1.4934 -1.9550
 5293SOL     OW27340   0.842   0.699  13.532 -0.1625 -0.3786  0.3245
 5293SOL    HW127341   0.821   0.709  13.439  0.8162 -2.6456 -0.1370
 5293SOL    HW227342   0.932   0.669  13.527 -0.2033 -0.3392 -0.8668
 5294SOL     OW27343   0.099   3.494  14.138 -0.0856  0.0949  0.4035
 5294SOL    HW127344   0.088   3.531  14.226  0.7624 -1.5617  1.2069
 5294SOL    HW227345   0.192   3.472  14.144 -0.6449 -2.1836  0.7419
 5295SOL     OW27346   1.789   3.265   8.075 -0.3050  0.1068  0.3627
 5295SOL    HW127347   1.808   3.317   8.152 -0.4976 -0.9667  1.1344
 5295SOL    HW227348   1.874   3.235   8.043  0.3570 -0.2423  2.4573
 5296SOL     OW27349   0.927   0.165   3.330 -0.4659  0.5340  0.3182
 5296SOL    HW127350   0.876   0.093   3.369 -0.6121 -0.0450 -0.9629
 5296SOL    HW227351   0.933   0.144   3.237  2.7143 -1.5303  0.9860
 5297SOL     OW27352   4.222   3.333  12.630 -0.6015  0.2551  0.0878
 5297SOL    HW127353   4.162   3.306  12.699  1.0774  0.3632  1.5825
 5297SOL    HW227354   4.256   3.414  12.668 -2.4009  1.4781 -0.8929
 5298SOL     OW27355   4.279   1.122   5.508 -0.3819  0.2719 -0.4369
 5298SOL    HW127356   4.304   1.054   5.571  2.4541  2.2864  0.6072
 5298SOL    HW227357   4.220   1.178   5.559 -0.6818 -0.3600 -0.0853
 5299SOL     OW27358   2.236   2.123  16.148  0.2098 -0.2331 -0.5771
 5299SOL    HW127359   2.169   2.188  16.128 -0.0346  0.2077  1.7079
 5299SOL    HW227360   2.280   2.109  16.064  0.5582  2.4216 -0.8269
 5300SOL     OW27361   2.360   2.850   1.945  0.5648 -0.2820  0.2780
 5300SOL    HW127362   2.307   2.806   1.879  0.0867 -0.5330  0.8294
 5300SOL    HW227363   2.440   2.800   1.930 -0.2319 -1.3509 -0.4213
 5301SOL     OW27364   3.399   0.803   8.676 -0.3886 -0.0543 -0.1670
 5301SOL    HW127365   3.412   0.718   8.634 -1.1001  0.3539 -1.2359
 5301SOL    HW227366   3.426   0.855   8.600 -2.5059  1.2517 -0.0491
 5302SOL     OW27367   3.357   1.117   4.990  0.4342  0.4510  0.0557
 5302SOL    HW127368   3.281   1.129   5.047 -1.2850 -0.1046 -2.1459
 5302SOL    HW227369   3.346   1.198   4.941 -0.1119  0.6925  0.5708
 5303SOL     OW27370   2.286   1.755   9.422  0.2088  0.4939 -0.0035
 5303SOL    HW127371   2.319   1.741   9.511 -1.1984  3.2867  0.9595
 5303SOL    HW227372   2.328   1.677   9.384 -2.5399 -0.5168 -0.9751
 5304SOL     OW27373   2.318   2.626   6.267 -0.2672  0.1951 -0.7254
 5304SOL    HW127374   2.299   2.685   6.194  2.3269  1.9092 -0.0123
 5304SOL    HW227375   2.289   2.536   6.251 -0.6199 -0.0892  1.5820
 5305SOL     OW27376   0.378   0.335  15.748 -0.2270  0.0252  0.1466
 5305SOL    HW127377   0.318   0.389  15.800  1.4771  1.3366  0.7314
 5305SOL    HW227378   0.312   0.280  15.704  1.0454 -1.3931 -0.0062
 5306SOL     OW27379   1.688   0.056   5.141 -0.1650  0.1487  0.8108
 5306SOL    HW127380   1.757   0.121   5.153  1.3027 -1.0752 -0.9973
 5306SOL    HW227381   1.653   0.048   5.230 -3.2427 -3.3438 -0.6995
 5307SOL     OW27382   0.560   0.472   1.712  0.0720 -0.1364  0.0924
 5307SOL    HW127383   0.475   0.497   1.747 -0.0990 -0.6897  0.0776
 5307SOL    HW227384   0.590   0.558   1.684  0.6550 -0.0009  1.1000
 5308SOL     OW27385   3.117   0.734   8.603 -0.2550  0.5619  0.0190
 5308SOL    HW127386   3.061   0.731   8.681  0.1359 -0.0542  0.2767
 5308SOL    HW227387   3.179   0.672   8.642 -2.2358 -0.8172  0.9732
 5309SOL     OW27388   1.520   0.152  10.029 -0.6686 -0.1066 -0.1156
 5309SOL    HW127389   1.596   0.200   9.996 -1.6527  1.0078 -0.7329
 5309SOL    HW227390   1.518   0.196  10.114 -0.4618 -1.7865  0.7577
 5310SOL     OW27391   3.877   2.257  10.000  1.1092  0.1348 -0.4092
 5310SOL    HW127392   3.871   2.340  10.046  2.0877 -1.0932  1.9067
 5310SOL    HW227393   3.850   2.189  10.061 -1.9689  0.9051 -0.9138
 5311SOL     OW27394   1.638   2.807   1.780  0.0694  0.7056 -0.5939
 5311SOL    HW127395   1.624   2.727   1.730 -0.4327  0.5319 -0.1790
 5311SOL    HW227396   1.665   2.764   1.862  0.0133  1.6394 -0.0898
 5312SOL     OW27397   2.898   1.501   1.713  0.1302  0.2299 -0.0239
 5312SOL    HW127398   2.889   1.527   1.805  0.2466 -2.5528  0.7808
 5312SOL    HW227399   2.993   1.490   1.714 -0.2331 -2.8135  0.8013
 5313SOL     OW27400   2.721   0.516  14.144 -0.0899  0.5195 -0.0513
 5313SOL    HW127401   2.714   0.446  14.208 -2.5651  0.2348 -0.6234
 5313SOL    HW227402   2.634   0.555  14.141  0.2119  0.9576 -3.7851
 5314SOL     OW27403   0.261   4.422  13.886 -0.1540  0.1534 -0.3286
 5314SOL    HW127404   0.291   4.457  13.802 -2.1964  0.3161 -0.9938
 5314SOL    HW227405   0.345   4.385  13.910  1.5966  3.1780 -1.7671
 5315SOL     OW27406   4.698   2.420   7.063 -0.4550  0.5647  0.0955
 5315SOL    HW127407   4.621   2.417   7.006  0.0162 -1.9537 -0.3723
 5315SOL    HW227408   0.050   2.423   7.005  0.8166  1.5978  1.8023
 5316SOL     OW27409   0.055   4.128   2.037 -0.4461  0.5672  0.0110
 5316SOL    HW127410   0.030   4.210   1.995 -3.4283  0.1401  0.9571
 5316SOL    HW227411   4.706   4.066   2.045 -1.3733  1.5263 -1.0162
 5317SOL     OW27412   1.964   4.688  16.929  0.7838 -0.1437 -0.0838
 5317SOL    HW127413   2.039   4.634  16.955  1.3416  0.4154 -0.5246
 5317SOL    HW227414   2.007   0.049  16.914  0.1811  0.1023 -0.3819
 5318SOL     OW27415   1.843   3.373  11.408 -0.8726 -0.4059  0.0439
 5318SOL    HW127416   1.792   3.292  11.407 -0.5401 -0.6218  0.6336
 5318SOL    HW227417   1.900   3.359  11.483  1.5395 -0.8220 -1.8521
 5319SOL     OW27418   1.963   2.661   8.614  0.7398 -0.3529 -0.5526
 5319SOL    HW127419   1.970   2.691   8.705 -0.6681  0.5243 -0.7271
 5319SOL    HW227420   1.986   2.568   8.621  2.0201  0.0989  1.0270
 5320SOL     OW27421   3.440   2.918   3.838 -0.2785  0.0692 -0.0257
 5320SOL    HW127422   3.477   2.957   3.917 -1.7290 -0.4841  0.9300
 5320SOL    HW227423   3.350   2.948   3.844 -0.6792 -0.8138 -1.5663
 5321SOL     OW27424   3.822   1.357   3.037  0.2337  0.5782 -0.4050
 5321SOL    HW127425   3.777   1.352   3.121  0.1743  0.2045 -0.4569
 5321SOL    HW227426   3.900   1.305   3.053 -0.3082 -0.3729 -0.8038
 5322SOL     OW27427   3.331   2.228   4.397  0.3489  0.4791  0.1127
 5322SOL    HW127428   3.318   2.219   4.303 -0.8636  1.7485  0.1699
 5322SOL    HW227429   3.409   2.173   4.410  0.6116  1.3896  2.4715
 5323SOL     OW27430   0.596   1.355   4.377 -0.1889  0.0574  0.2243
 5323SOL    HW127431   0.531   1.291   4.405  0.4284 -0.6723 -0.0105
 5323SOL    HW227432   0.633   1.323   4.294  1.1760  3.7018 -0.5775
 5324SOL     OW27433   0.787   1.807   1.950  0.1874 -0.3773 -0.1700
 5324SOL    HW127434   0.856   1.745   1.974  0.4887  0.3148  0.7888
 5324SOL    HW227435   0.717   1.742   1.946 -0.7117  0.5720  0.4485
 5325SOL     OW27436   3.294   1.322   3.172 -0.2087  0.2000 -0.0031
 5325SOL    HW127437   3.263   1.397   3.223  0.0214  1.9718 -2.4645
 5325SOL    HW227438   3.221   1.297   3.114 -0.2686 -2.1730  1.1047
 5326SOL     OW27439   0.798   3.141   7.643  0.0454  0.0714 -0.4816
 5326SOL    HW127440   0.875   3.170   7.595  0.9038 -1.5982 -0.0932
 5326SOL    HW227441   0.808   3.189   7.726  0.2868  1.0572 -1.0861
 5327SOL     OW27442   1.463   0.967   9.781  0.4463  0.1078 -0.2378
 5327SOL    HW127443   1.431   0.935   9.865 -1.0728  2.9251  0.2777
 5327SOL    HW227444   1.547   0.922   9.773  0.3597  0.0585 -0.9080
 5328SOL     OW27445   2.291   1.169   9.162 -0.5001 -0.0442 -0.5159
 5328SOL    HW127446   2.232   1.244   9.151  0.1180  0.4741 -0.3153
 5328SOL    HW227447   2.369   1.201   9.207 -0.4170 -0.0767 -0.6356
 5329SOL     OW27448   1.742   2.105   3.673  0.9535  0.1610 -0.4222
 5329SOL    HW127449   1.808   2.165   3.708  0.5677  0.5905 -0.4240
 5329SOL    HW227450   1.688   2.082   3.749 -0.3992  0.0823 -1.4115
 5330SOL     OW27451   1.017   1.534  15.188  0.1009 -0.5958  0.3493
 5330SOL    HW127452   1.041   1.616  15.145  0.4175 -0.7037  0.3168
 5330SOL    HW227453   1.017   1.569  15.277 -0.0476 -0.5326  0.3255
 5331SOL     OW27454   0.920   3.220  12.917 -0.0713  0.6544 -0.3645
 5331SOL    HW127455   0.851   3.286  12.913 -1.3683 -0.6108  1.1175
 5331SOL    HW227456   0.910   3.177  13.002 -1.5790  1.0877 -0.3270
 5332SOL     OW27457   1.431   3.284   3.911  0.3199  0.3450 -0.2919
 5332SOL    HW127458   1.386   3.213   3.958  1.4986 -1.4937 -1.9147
 5332SOL    HW227459   1.462   3.338   3.984 -0.9123  1.8530 -0.8889
 5333SOL     OW27460   1.158   3.366   5.771 -0.7500 -0.3807 -0.3852
 5333SOL    HW127461   1.163   3.354   5.676  2.2853  0.2159 -0.2969
 5333SOL    HW227462   1.121   3.284   5.803 -0.6332 -1.5874 -3.3289
 5334SOL     OW27463   1.234   1.411   3.649  0.3548  0.1122 -0.0102
 5334SOL    HW127464   1.302   1.362   3.602 -1.4305  0.0207 -2.4692
 5334SOL    HW227465   1.245   1.497   3.609 -0.5156  0.5842  0.7749
 5335SOL     OW27466   2.859   0.115   2.911  0.3769 -0.6121  0.1487
 5335SOL    HW127467   2.765   0.102   2.902  0.2370  0.1078  0.6820
 5335SOL    HW227468   2.875   0.034   2.960 -0.1501  0.0910  1.4742
 5336SOL     OW27469   2.969   4.272   6.662 -0.6761  0.5896 -0.3304
 5336SOL    HW127470   2.891   4.260   6.608  0.3850 -2.0681 -1.2796
 5336SOL    HW227471   2.944   4.342   6.723 -0.0930  1.5979 -1.2533
 5337SOL     OW27472   1.573   2.092  16.582  0.3639  0.4630 -0.1926
 5337SOL    HW127473   1.534   2.006  16.569 -2.9119  2.0245 -0.5684
 5337SOL    HW227474   1.492   2.138  16.603  0.5908  0.3224  0.9978
 5338SOL     OW27475   0.917   2.753   7.323 -0.3540  0.1685 -0.0096
 5338SOL    HW127476   1.003   2.719   7.300  0.1101  1.7507 -0.5681
 5338SOL    HW227477   0.892   2.788   7.237  0.8707  0.0724 -0.3923
 5339SOL     OW27478   0.524   3.107   4.608  0.4126  0.2280  0.0965
 5339SOL    HW127479   0.564   3.075   4.689 -0.9162  1.4094  1.2111
 5339SOL    HW227480   0.596   3.104   4.546  2.0727  0.3782  1.9991
 5340SOL     OW27481   1.694   1.603   6.699  0.5558  0.1719  0.2541
 5340SOL    HW127482   1.742   1.583   6.618  2.3415  0.1285  1.3183
 5340SOL    HW227483   1.604   1.598   6.667  0.3406 -0.7042  0.9938
 5341SOL     OW27484   2.316   1.572   2.382  0.1947  0.0947 -0.0878
 5341SOL    HW127485   2.397   1.521   2.374  1.3041  1.3930  3.1546
 5341SOL    HW227486   2.266   1.504   2.427 -1.5155  0.1474 -1.9221
 5342SOL     OW27487   3.344   3.585  14.997 -0.3071 -0.1520  0.0086
 5342SOL    HW127488   3.395   3.544  15.067 -0.0655  0.5063  0.2207
 5342SOL    HW227489   3.356   3.680  15.010  2.0119 -0.3882 -0.4877
 5343SOL     OW27490   3.513   0.706   4.957 -0.1277 -0.2317 -0.0904
 5343SOL    HW127491   3.529   0.800   4.953 -1.9992 -0.0081 -2.5160
 5343SOL    HW227492   3.419   0.723   4.944 -0.3064 -1.8660 -0.9253
 5344SOL     OW27493   0.969   2.593  15.574 -0.2478 -0.3958 -0.1723
 5344SOL    HW127494   0.908   2.583  15.501 -1.6603  0.1665  0.9292
 5344SOL    HW227495   0.933   2.531  15.638  0.6834  0.4448  1.1666
 5345SOL     OW27496   3.907   0.532  14.718  0.4090  0.5902 -0.2221
 5345SOL    HW127497   3.977   0.470  14.696  1.1315  0.4104  2.5453
 5345SOL    HW227498   3.859   0.489  14.789  0.2483  1.0391 -0.0596
 5346SOL     OW27499   2.495   0.894   7.016 -0.3870  0.0613 -0.1516
 5346SOL    HW127500   2.541   0.877   6.934 -3.2197 -0.3366 -1.6718
 5346SOL    HW227501   2.564   0.899   7.082  0.1613 -2.4484 -0.5150
 5347SOL     OW27502   3.411   3.064  12.917 -0.1075  0.4504 -0.2823
 5347SOL    HW127503   3.386   3.012  12.993  0.7015  3.3407  1.9615
 5347SOL    HW227504   3.414   3.153  12.953 -5.0362  0.3500  0.4719
 5348SOL     OW27505   4.470   1.397   3.187 -0.8135  0.3944  0.3752
 5348SOL    HW127506   4.413   1.474   3.181  1.9167  2.2390 -1.4834
 5348SOL    HW227507   4.506   1.386   3.099  0.8351  0.5984  1.0267
 5349SOL     OW27508   4.067   0.393   0.432 -0.3943  0.3278  0.3625
 5349SOL    HW127509   4.073   0.450   0.356  1.1120 -1.2395 -0.6840
 5349SOL    HW227510   4.156   0.365   0.454 -0.2970  1.6717  1.6970
 5350SOL     OW27511   3.607   1.268   6.085 -0.5610  0.0077 -0.8579
 5350SOL    HW127512   3.701   1.285   6.096 -0.4112 -1.3940  0.1122
 5350SOL    HW227513   3.599   1.266   5.990  1.5866 -1.8191 -1.0260
 5351SOL     OW27514   4.332   0.433   0.532 -0.3220  0.2779  0.3913
 5351SOL    HW127515   4.336   0.512   0.586 -0.2573 -0.2567  1.1752
 5351SOL    HW227516   4.317   0.385   0.614 -1.2164  0.7137  0.4837
 5352SOL     OW27517   0.421   1.149   5.291  0.6033  0.1210  0.1056
 5352SOL    HW127518   0.497   1.131   5.346  0.3271 -0.4988  0.2821
 5352SOL    HW227519   0.353   1.094   5.330 -0.1104  0.6223 -0.4212
 5353SOL     OW27520   0.708   2.875   2.206  0.4387 -0.9242 -0.3859
 5353SOL    HW127521   0.705   2.964   2.170 -1.7580 -0.8779 -0.1012
 5353SOL    HW227522   0.732   2.889   2.298  0.5346  0.1975 -0.5756
 5354SOL     OW27523   2.543   3.487   9.708 -0.3413  1.0152  0.5063
 5354SOL    HW127524   2.508   3.482   9.619  0.2352 -1.6914  0.4543
 5354SOL    HW227525   2.567   3.580   9.715  0.3460  0.8941 -0.2233
 5355SOL     OW27526   2.533   0.774   2.033  0.3403  0.1862  0.3322
 5355SOL    HW127527   2.611   0.729   2.066 -0.5807 -1.0217  0.8902
 5355SOL    HW227528   2.467   0.744   2.096  2.5194 -0.3391  2.3274
 5356SOL     OW27529   1.388   0.403   7.137 -0.0425 -0.0337 -0.2299
 5356SOL    HW127530   1.418   0.324   7.092 -2.6210 -1.2853  0.2570
 5356SOL    HW227531   1.471   0.450   7.138  1.0146 -1.8971  1.3672
 5357SOL     OW27532   4.594   3.995  12.911  0.1499  0.1557 -0.0092
 5357SOL    HW127533   4.669   3.976  12.854  1.4370 -1.3657  2.1458
 5357SOL    HW227534   4.627   4.051  12.982 -0.6260 -0.0545  0.5144
 5358SOL     OW27535   2.943   4.556   2.299  0.9066 -0.0004 -0.1434
 5358SOL    HW127536   2.968   4.586   2.211 -1.7911  1.0918 -0.5532
 5358SOL    HW227537   2.847   4.561   2.298  0.7769 -2.2216  1.1053
 5359SOL     OW27538   2.004   4.558   7.494 -0.2661  0.8898  0.4486
 5359SOL    HW127539   2.097   4.575   7.515 -0.0331  0.8259 -0.5555
 5359SOL    HW227540   1.980   4.480   7.544 -0.0056  1.9929  2.3374
 5360SOL     OW27541   3.311   3.325   3.116  0.0328 -0.1898 -0.5923
 5360SOL    HW127542   3.390   3.366   3.080 -0.9820  0.9199 -1.5815
 5360SOL    HW227543   3.320   3.344   3.209 -0.0725  1.0573 -0.8379
 5361SOL     OW27544   1.694   1.441   3.690  0.6163 -0.1271  0.0194
 5361SOL    HW127545   1.715   1.364   3.744 -0.8320 -1.0210 -0.6908
 5361SOL    HW227546   1.772   1.458   3.638 -0.9713  1.6484 -1.7849
 5362SOL     OW27547   2.891   3.813   2.655 -0.1704  0.3573 -0.1081
 5362SOL    HW127548   2.828   3.788   2.588 -0.1075 -1.0188  0.3576
 5362SOL    HW227549   2.873   3.744   2.718  2.5462 -2.1517 -2.0888
 5363SOL     OW27550   1.513   0.163   4.073 -0.3421  0.0773 -0.3454
 5363SOL    HW127551   1.574   0.092   4.093  1.1707  1.2734 -0.6945
 5363SOL    HW227552   1.518   0.221   4.149 -2.4661  1.1443 -1.0125
 5364SOL     OW27553   4.363   2.778   5.912  0.0272  0.1989  0.0039
 5364SOL    HW127554   4.439   2.834   5.899  0.9020 -0.6279  1.5291
 5364SOL    HW227555   4.305   2.823   5.851  1.1949 -1.5205 -2.3812
 5365SOL     OW27556   3.874   1.689   1.373  0.2336  0.2802  0.3270
 5365SOL    HW127557   3.825   1.767   1.399  0.9655  0.7231  0.3975
 5365SOL    HW227558   3.874   1.659   1.464  2.2983  0.9055  0.5368
 5366SOL     OW27559   1.497   2.961   0.504 -0.0828  0.0948 -0.0436
 5366SOL    HW127560   1.581   3.006   0.498 -0.0159 -0.1450 -0.8597
 5366SOL    HW227561   1.442   3.038   0.489 -2.3091 -1.0778  2.0557
 5367SOL     OW27562   1.380   1.593  17.319 -0.2240 -0.1850 -0.8178
 5367SOL    HW127563   1.286   1.605  17.328 -0.2139 -0.0251 -0.9289
 5367SOL    HW227564   1.397   1.573  17.411  0.8323 -0.6476 -1.1060
 5368SOL     OW27565   2.025   2.530   1.339 -0.4898 -0.4439  0.9097
 5368SOL    HW127566   1.944   2.524   1.389 -1.7093 -0.8937 -1.0844
 5368SOL    HW227567   2.055   2.441   1.351 -0.7686 -0.9129 -1.7527
 5369SOL     OW27568   1.665   1.327   6.005  0.8705  0.0802  0.0284
 5369SOL    HW127569   1.645   1.409   6.049 -2.8326 -0.4045 -0.7236
 5369SOL    HW227570   1.760   1.334   5.999  0.9099  0.6468  1.5181
 5370SOL     OW27571   1.721   4.410   3.493  0.0023 -0.4086 -0.2432
 5370SOL    HW127572   1.684   4.455   3.569 -0.8442  1.2978 -1.6587
 5370SOL    HW227573   1.814   4.430   3.503 -0.2391  0.9036 -0.6429
 5371SOL     OW27574   4.525   0.105   9.636 -0.0432  0.2220  0.1298
 5371SOL    HW127575   4.523   0.162   9.713 -2.8023  0.5711 -0.1904
 5371SOL    HW227576   4.599   0.048   9.654  0.3582  0.8949  0.6135
 5372SOL     OW27577   3.705   1.002  10.451  0.4924  0.4453 -0.1521
 5372SOL    HW127578   3.784   1.003  10.397  1.0793  0.1541  0.6939
 5372SOL    HW227579   3.717   0.919  10.496  1.6380 -0.6925 -2.5791
 5373SOL     OW27580   0.520   2.310   1.222 -0.0664  0.2309 -0.3424
 5373SOL    HW127581   0.498   2.378   1.158  0.5312 -0.4981 -1.3227
 5373SOL    HW227582   0.432   2.282   1.247  1.5018 -2.5071  2.2023
 5374SOL     OW27583   3.579   2.477   8.562 -0.0906  0.6039 -0.0521
 5374SOL    HW127584   3.599   2.426   8.483 -1.8385 -2.0829  1.2746
 5374SOL    HW227585   3.528   2.416   8.615  0.2781  0.4338  0.1071
 5375SOL     OW27586   3.149   0.407  12.017 -0.2123 -0.1820 -0.1690
 5375SOL    HW127587   3.158   0.387  11.924 -2.7021  1.4555 -0.7739
 5375SOL    HW227588   3.190   0.331  12.058  0.0916  0.2512  0.3260
 5376SOL     OW27589   4.595   2.364   3.096 -0.2528  0.2074 -0.3045
 5376SOL    HW127590   4.595   2.455   3.065 -0.3763  0.3067 -0.0179
 5376SOL    HW227591   4.553   2.319   3.023 -1.9821  0.0476  0.8026
 5377SOL     OW27592   3.625   3.779   4.583 -0.0398  0.8381 -0.0023
 5377SOL    HW127593   3.609   3.709   4.520  1.5184 -0.6721  1.2713
 5377SOL    HW227594   3.538   3.794   4.620  0.0657 -1.3977  1.1585
 5378SOL     OW27595   4.659   0.606   9.080  0.2405  0.3459  0.1073
 5378SOL    HW127596   0.015   0.563   9.113  0.5225  0.4085 -0.4903
 5378SOL    HW227597   4.607   0.533   9.047  0.8379 -0.5230  1.0478
 5379SOL     OW27598   2.484   1.920   5.289  0.2021 -0.1571 -0.0876
 5379SOL    HW127599   2.507   2.012   5.277  1.5399 -0.6952 -1.5568
 5379SOL    HW227600   2.546   1.894   5.357 -0.1109 -1.2633 -0.2203
 5380SOL     OW27601   3.695   2.093   5.452 -0.0817  0.3151 -0.4708
 5380SOL    HW127602   3.603   2.118   5.460 -0.5088 -0.6607 -2.4885
 5380SOL    HW227603   3.728   2.150   5.383 -0.4051  2.5799  1.2419
 5381SOL     OW27604   0.813   0.516   5.131 -0.2043  0.1634 -0.1772
 5381SOL    HW127605   0.790   0.517   5.223  0.4144  1.2049 -0.0299
 5381SOL    HW227606   0.724   0.517   5.096 -0.4069  0.6614  0.3510
 5382SOL     OW27607   2.629   3.499   7.779 -0.1713 -0.0072 -0.7660
 5382SOL    HW127608   2.701   3.495   7.717  1.2603  0.6212  0.8543
 5382SOL    HW227609   2.558   3.508   7.715  0.4767 -1.3400 -1.6725
 5383SOL     OW27610   1.827   4.547   0.352  0.5516 -0.3449 -0.0343
 5383SOL    HW127611   1.748   4.501   0.380 -0.7594  1.2843 -0.9872
 5383SOL    HW227612   1.811   4.528   0.259  0.9344  0.1515 -0.1974
 5384SOL     OW27613   3.206   3.078  13.375  0.2747 -0.1504 -0.3560
 5384SOL    HW127614   3.282   3.093  13.431 -1.1815 -2.3852  2.2543
 5384SOL    HW227615   3.147   3.050  13.446 -0.1544  1.9537  0.1054
 5385SOL     OW27616   0.650   1.964   3.761 -0.2268 -0.7951  0.0124
 5385SOL    HW127617   0.655   1.920   3.676  1.5866  0.0463 -0.3138
 5385SOL    HW227618   0.740   1.996   3.771 -0.2026 -0.3109 -1.7008
 5386SOL     OW27619   1.175   4.139   8.041  0.1920  0.3414  0.2040
 5386SOL    HW127620   1.243   4.079   8.073  0.2960  0.6873  0.6265
 5386SOL    HW227621   1.155   4.131   7.947  1.3689  3.4426 -0.2917
 5387SOL     OW27622   0.926   1.229   9.810  0.5706  0.1542  0.3495
 5387SOL    HW127623   0.881   1.156   9.853  0.0112 -0.1588 -0.7802
 5387SOL    HW227624   0.995   1.177   9.769 -0.4390 -0.5496 -0.4765
 5388SOL     OW27625   1.587   4.183   8.854  0.4576 -0.0256  0.0959
 5388SOL    HW127626   1.659   4.245   8.858 -0.3270  0.9010 -0.2720
 5388SOL    HW227627   1.549   4.187   8.941  0.9330  2.2340  0.1968
 5389SOL     OW27628   1.505   3.460  11.793 -0.9342 -0.4513  0.2335
 5389SOL    HW127629   1.510   3.553  11.769  0.4968 -0.8584 -1.0366
 5389SOL    HW227630   1.576   3.467  11.857 -2.1546 -1.4483  1.7006
 5390SOL     OW27631   3.277   4.256   2.549 -0.2530 -0.2120 -0.5260
 5390SOL    HW127632   3.225   4.320   2.499  0.5586 -0.2041 -1.3537
 5390SOL    HW227633   3.328   4.303   2.614  0.2315  0.9742 -1.7708
 5391SOL     OW27634   1.560   3.113   7.055  0.3691 -0.4427 -0.6023
 5391SOL    HW127635   1.546   3.142   6.965  0.8703  0.0093 -0.5360
 5391SOL    HW227636   1.655   3.125   7.063  0.3333 -0.6509  0.1394
 5392SOL     OW27637   3.312   3.455  15.235 -0.1208  0.4255 -0.0022
 5392SOL    HW127638   3.272   3.368  15.236  1.1008 -0.1466 -1.6773
 5392SOL    HW227639   3.239   3.502  15.276 -1.5724  0.0499 -2.1559
 5393SOL     OW27640   3.856   3.284   3.277 -0.0606 -0.7655 -0.2859
 5393SOL    HW127641   3.882   3.294   3.185  2.7951  0.8537  0.7074
 5393SOL    HW227642   3.763   3.304   3.268 -0.8396 -4.3322 -0.3449
 5394SOL     OW27643   2.360   2.742  12.794  0.0941  0.1167  0.3986
 5394SOL    HW127644   2.347   2.653  12.761  2.3224  0.8046 -2.3427
 5394SOL    HW227645   2.378   2.728  12.887 -0.0220 -1.3118  0.1936
 5395SOL     OW27646   3.477   1.681   7.745 -0.4804 -0.4205 -0.1241
 5395SOL    HW127647   3.542   1.734   7.698  0.7373 -0.5771  1.3863
 5395SOL    HW227648   3.418   1.659   7.673  1.1105 -0.9228 -1.2650
 5396SOL     OW27649   2.312   1.959   6.252  0.3379  0.3110 -0.4644
 5396SOL    HW127650   2.288   1.970   6.344 -0.1902  1.6506 -0.7601
 5396SOL    HW227651   2.236   2.001   6.211 -2.1000 -2.2606  1.4244
 5397SOL     OW27652   0.822   1.771  11.187 -0.2195  0.2864  0.5200
 5397SOL    HW127653   0.883   1.698  11.203  0.1075  0.5454  0.4708
 5397SOL    HW227654   0.740   1.731  11.159  0.9707 -1.2373 -0.8882
 5398SOL     OW27655   3.801   4.422   2.080 -0.0149 -0.1899  0.2412
 5398SOL    HW127656   3.823   4.514   2.067 -0.1796 -0.3320 -1.0535
 5398SOL    HW227657   3.861   4.371   2.024  2.5623  0.7595  2.1452
 5399SOL     OW27658   3.318   2.314   6.944 -0.2426 -0.2557  0.3202
 5399SOL    HW127659   3.350   2.256   6.875  0.7698  0.4485  0.1990
 5399SOL    HW227660   3.395   2.361   6.975 -0.0054 -0.2615 -0.2681
 5400SOL     OW27661   1.342   0.310   9.906 -0.6689 -0.2864 -0.3509
 5400SOL    HW127662   1.322   0.297   9.813 -0.3602  1.1959 -0.6209
 5400SOL    HW227663   1.401   0.235   9.914 -0.2545  0.3581  2.3923
 5401SOL     OW27664   1.942   3.747   3.932  0.6092  0.0750  0.1345
 5401SOL    HW127665   1.855   3.731   3.896  0.4109 -1.5953  1.3484
 5401SOL    HW227666   1.995   3.712   3.860  0.4649  0.3274 -0.0942
 5402SOL     OW27667   4.370   1.951   9.961 -0.0835  0.0987 -0.4127
 5402SOL    HW127668   4.423   1.982  10.035  1.0969  0.6066 -1.4810
 5402SOL    HW227669   4.287   1.996   9.977  1.0007  1.5595  1.1900
 5403SOL     OW27670   1.947   1.373   4.786 -0.3476 -0.0184  0.8238
 5403SOL    HW127671   2.041   1.358   4.785 -0.2369  0.7685 -0.2171
 5403SOL    HW227672   1.913   1.290   4.753 -0.8648  0.9608 -1.0937
 5404SOL     OW27673   4.063   1.610   7.688 -0.2127 -0.0596 -0.2199
 5404SOL    HW127674   4.075   1.542   7.621  1.6925  0.1516 -0.0998
 5404SOL    HW227675   3.974   1.637   7.667 -0.1391  1.1767  1.0524
 5405SOL     OW27676   0.801   3.704   9.145  0.4279  0.1103 -0.5901
 5405SOL    HW127677   0.836   3.623   9.183 -1.5993 -1.1560 -1.4158
 5405SOL    HW227678   0.812   3.702   9.050  0.8733  1.9792 -0.5690
 5406SOL     OW27679   0.730   0.737   8.294  0.4530 -0.2514  0.5395
 5406SOL    HW127680   0.820   0.759   8.270 -0.6176  2.4290 -1.0348
 5406SOL    HW227681   0.669   0.798   8.252  0.5669 -1.5665 -1.5375
 5407SOL     OW27682   2.965   3.415   8.784  0.4116  0.8915  0.6371
 5407SOL    HW127683   2.944   3.442   8.873  0.4338  0.6379  0.7189
 5407SOL    HW227684   2.925   3.328   8.778 -1.1572  1.6122  0.8296
 5408SOL     OW27685   2.430   1.770   1.842  0.7152  0.3699  0.2212
 5408SOL    HW127686   2.359   1.833   1.834 -0.5451 -1.0267  0.2293
 5408SOL    HW227687   2.489   1.796   1.771  0.0961  1.5732  0.1471
 5409SOL     OW27688   0.903   1.772   5.446 -0.1386 -0.5068 -0.1117
 5409SOL    HW127689   0.975   1.765   5.383  1.1068 -0.8433  1.3618
 5409SOL    HW227690   0.945   1.782   5.531 -0.6242 -1.7059  0.2621
 5410SOL     OW27691   3.106   2.636   4.113  0.1220  0.1173  0.4647
 5410SOL    HW127692   3.052   2.600   4.043 -0.3080 -1.1425  1.4442
 5410SOL    HW227693   3.073   2.726   4.109  0.8766  0.4116  0.8611
 5411SOL     OW27694   0.094   3.781  16.799 -0.5675 -0.1837  0.0734
 5411SOL    HW127695   0.146   3.701  16.794  1.0381  0.8454  0.2543
 5411SOL    HW227696   0.012   3.750  16.760 -0.4714  0.9904 -1.0998
 5412SOL     OW27697   3.450   3.398   8.142  0.3025 -0.1874  0.1362
 5412SOL    HW127698   3.375   3.432   8.191  0.4986  2.1925 -1.2017
 5412SOL    HW227699   3.491   3.345   8.210  0.7960 -1.0794 -0.8534
 5413SOL     OW27700   3.079   4.412   7.653 -0.0000 -0.3183  0.4700
 5413SOL    HW127701   3.137   4.455   7.716  0.4846  0.1346 -0.2858
 5413SOL    HW227702   3.109   4.321   7.663  0.0441 -0.2262  1.1275
 5414SOL     OW27703   4.060   2.851   8.128  0.4926  0.5056 -0.0544
 5414SOL    HW127704   4.062   2.918   8.059 -1.0305 -0.1224 -0.6952
 5414SOL    HW227705   4.073   2.897   8.211  1.7400 -0.3752  0.2482
 5415SOL     OW27706   1.862   1.917   3.509 -0.3571 -0.2323 -0.3175
 5415SOL    HW127707   1.947   1.961   3.503 -0.2968 -0.3997 -0.6680
 5415SOL    HW227708   1.823   1.969   3.580 -0.0050 -1.5848  0.8750
 5416SOL     OW27709   4.309   4.697  10.553  0.3278 -0.3534  0.4283
 5416SOL    HW127710   4.233   4.649  10.584 -0.6067 -0.5022 -2.1097
 5416SOL    HW227711   4.374   4.631  10.574 -0.5380 -0.4614  2.7919
 5417SOL     OW27712   1.974   3.136   9.598  0.3473  0.4616  0.0423
 5417SOL    HW127713   2.030   3.213   9.601  2.0441 -0.7912  0.9719
 5417SOL    HW227714   2.042   3.069   9.586  0.1216  0.4451 -1.0908
 5418SOL     OW27715   4.326   0.422   7.780 -0.5257 -0.1722 -0.3262
 5418SOL    HW127716   4.276   0.473   7.844  1.1831 -1.9266  2.4024
 5418SOL    HW227717   4.387   0.493   7.762 -1.5041  0.4510 -1.2290
 5419SOL     OW27718   2.208   3.146   9.882 -0.0802  0.3363  0.2478
 5419SOL    HW127719   2.156   3.211   9.835 -0.4493 -0.0390  0.1376
 5419SOL    HW227720   2.168   3.164   9.967 -0.0476  3.0194 -0.3007
 5420SOL     OW27721   3.907   2.426  16.303  0.4593  0.1161 -0.1845
 5420SOL    HW127722   3.954   2.500  16.341 -0.2846 -0.8565  2.6667
 5420SOL    HW227723   3.982   2.369  16.284 -0.3011 -1.2789  0.9522
 5421SOL     OW27724   3.662   3.072  13.685 -0.1810  0.4153  0.2046
 5421SOL    HW127725   3.727   3.002  13.688 -1.6714 -0.9585  0.6181
 5421SOL    HW227726   3.638   3.086  13.776 -0.8127 -2.4025  0.4557
 5422SOL     OW27727   2.419   0.378   9.390  0.9716 -0.1163 -0.2221
 5422SOL    HW127728   2.417   0.453   9.331  1.5534  0.6433  0.7322
 5422SOL    HW227729   2.386   0.413   9.472  0.3086 -0.2780 -0.4175
 5423SOL     OW27730   0.913   2.284  16.266 -0.1758  0.0592  0.5392
 5423SOL    HW127731   0.866   2.355  16.222  1.9698  0.7037 -0.7020
 5423SOL    HW227732   0.916   2.216  16.199 -0.7718 -0.4135  0.9885
 5424SOL     OW27733   4.115   4.606   6.848 -0.2188  0.0618  0.0937
 5424SOL    HW127734   4.210   4.603   6.842 -0.2303 -1.2220  0.5241
 5424SOL    HW227735   4.088   4.514   6.845  2.5213 -0.6884 -1.1560
 5425SOL     OW27736   0.716   3.386  14.000  0.2667 -0.4376  0.5781
 5425SOL    HW127737   0.808   3.406  14.016  0.7756 -3.1129  1.0125
 5425SOL    HW227738   0.713   3.446  13.925 -1.6105  0.1378  1.1310
 5426SOL     OW27739   3.871   2.532   9.526 -0.1630  0.3551  0.0110
 5426SOL    HW127740   3.894   2.473   9.598 -0.0716  3.5259  2.5789
 5426SOL    HW227741   3.910   2.614   9.554  0.2490 -0.0800  0.7228
 5427SOL     OW27742   2.391   3.668   5.975 -0.3726  0.8526 -0.1313
 5427SOL    HW127743   2.414   3.576   5.960  0.8582  0.9080  1.4007
 5427SOL    HW227744   2.386   3.659   6.070  0.8056  0.2056 -0.1273
 5428SOL     OW27745   3.918   1.732   5.139  0.0180 -0.1275 -0.7064
 5428SOL    HW127746   4.014   1.736   5.136  0.0558 -0.3779  0.0598
 5428SOL    HW227747   3.903   1.693   5.225  0.5970 -1.0067 -1.0070
 5429SOL     OW27748   3.835   1.817  16.424 -0.5031  0.4767  0.3427
 5429SOL    HW127749   3.839   1.906  16.388 -1.7302 -0.4472 -2.0831
 5429SOL    HW227750   3.874   1.835  16.510  1.5784 -0.4266 -0.4125
 5430SOL     OW27751   1.105   4.123   8.805  0.3786 -0.1651  0.3317
 5430SOL    HW127752   1.195   4.094   8.796  0.5360  0.2489  0.5843
 5430SOL    HW227753   1.076   4.121   8.714 -1.6862 -1.7885  1.0030
 5431SOL     OW27754   0.664   2.077  11.259  0.7494  0.4848  0.1996
 5431SOL    HW127755   0.737   2.047  11.204  0.5726  2.0582 -0.8989
 5431SOL    HW227756   0.706   2.083  11.344  0.3536 -0.4066  0.4568
 5432SOL     OW27757   1.026   4.543   5.333 -0.1244 -0.0842  0.0101
 5432SOL    HW127758   0.980   4.532   5.417 -0.1997 -0.1989 -0.0455
 5432SOL    HW227759   0.964   4.601   5.287  0.0961  0.9152  0.9721
 5433SOL     OW27760   0.104   3.576   3.347 -0.0148 -0.5028  1.1457
 5433SOL    HW127761   0.013   3.567   3.374 -0.5203  1.6286  0.1753
 5433SOL    HW227762   0.132   3.488   3.371  0.6926 -0.2634  1.2030
 5434SOL     OW27763   3.391   2.371   9.074  0.0098  0.0105  0.0645
 5434SOL    HW127764   3.433   2.407   9.152  0.6546  0.3581 -0.4343
 5434SOL    HW227765   3.303   2.408   9.084 -0.0800 -0.1141 -0.2703
 5435SOL     OW27766   1.571   4.159  11.541  0.4063  0.6593 -0.2327
 5435SOL    HW127767   1.529   4.240  11.568 -0.4914 -0.2001  0.9447
 5435SOL    HW227768   1.503   4.128  11.481 -0.0234  1.4532 -0.1553
 5436SOL     OW27769   4.538   1.795   5.185 -0.1808 -0.0678  0.1046
 5436SOL    HW127770   4.536   1.891   5.181  2.1284 -0.0688 -0.7965
 5436SOL    HW227771   4.505   1.780   5.273 -0.3900  0.4700  0.1181
 5437SOL     OW27772   2.262   4.636   1.716  0.0573 -0.1559  0.2171
 5437SOL    HW127773   2.322   4.628   1.790 -0.6893 -2.6152  0.5833
 5437SOL    HW227774   2.185   4.602   1.763 -1.1828  0.5528 -1.3244
 5438SOL     OW27775   2.663   1.400   9.963 -0.0311 -0.6269 -0.1376
 5438SOL    HW127776   2.571   1.383   9.945 -0.8003  1.1995  2.0995
 5438SOL    HW227777   2.708   1.332   9.912  0.3982  1.2017 -2.2099
 5439SOL     OW27778   1.689   0.576   6.383  0.0273 -0.0874  0.0016
 5439SOL    HW127779   1.781   0.597   6.396  0.1297  0.4809 -1.5695
 5439SOL    HW227780   1.658   0.663   6.359 -1.0695 -1.0822 -2.2334
 5440SOL     OW27781   1.470   2.377   2.893  0.3955 -0.3818 -0.3003
 5440SOL    HW127782   1.543   2.409   2.946  0.9736 -1.4286 -0.4708
 5440SOL    HW227783   1.441   2.313   2.957 -1.3811 -0.5333 -1.2526
 5441SOL     OW27784   4.065   1.922   3.562 -0.0829 -1.0408  0.1714
 5441SOL    HW127785   4.128   1.928   3.634 -0.4373  0.0158  0.3927
 5441SOL    HW227786   4.118   1.948   3.488  1.2796 -0.0258  1.5090
 5442SOL     OW27787   1.451   1.396  10.871 -0.8087  0.0978 -0.1305
 5442SOL    HW127788   1.363   1.416  10.840 -1.0098 -0.5176  0.0419
 5442SOL    HW227789   1.483   1.340  10.800  0.3043 -0.7837  1.0629
 5443SOL     OW27790   1.013   0.496  12.637  0.3597  0.0603  0.1929
 5443SOL    HW127791   1.089   0.437  12.636 -1.1646 -1.8723 -1.0364
 5443SOL    HW227792   0.951   0.438  12.593  1.8772 -1.5148  0.1255
 5444SOL     OW27793   1.036   4.158  16.602  0.4805 -0.5194  0.0377
 5444SOL    HW127794   1.037   4.067  16.572  0.4601 -1.0711  1.7051
 5444SOL    HW227795   1.110   4.156  16.663 -0.7292  1.1332  1.5856
 5445SOL     OW27796   1.932   1.740  13.233 -0.6376  0.0257  0.1379
 5445SOL    HW127797   1.987   1.757  13.157 -1.5778  0.8031 -0.3659
 5445SOL    HW227798   1.873   1.815  13.238 -0.1437  0.3901  0.5068
 5446SOL     OW27799   3.222   1.128   6.452  0.5473 -0.6787  0.8297
 5446SOL    HW127800   3.313   1.121   6.482  1.1944 -0.4623 -1.0618
 5446SOL    HW227801   3.171   1.113   6.532 -0.2181  1.6489  0.7871
 5447SOL     OW27802   1.652   1.484  15.103 -0.2644 -0.7142 -0.3448
 5447SOL    HW127803   1.667   1.570  15.142 -0.3678 -1.2841  0.9372
 5447SOL    HW227804   1.737   1.474  15.061  1.6106  1.1778  3.0397
 5448SOL     OW27805   3.779   3.612  10.173  0.4982 -0.0263  0.0737
 5448SOL    HW127806   3.800   3.636  10.083 -0.0491 -0.7730 -0.2519
 5448SOL    HW227807   3.687   3.638  10.169  0.4220 -0.8030 -3.4298
 5449SOL     OW27808   4.664   3.753   5.013 -0.4865  0.7001 -0.9296
 5449SOL    HW127809   4.716   3.728   4.937  0.8405  1.1804 -0.1850
 5449SOL    HW227810   4.619   3.830   4.979  0.4014  1.2671 -0.8520
 5450SOL     OW27811   2.196   1.645   8.611  0.0664  0.5977 -0.0057
 5450SOL    HW127812   2.215   1.709   8.543 -1.6220  0.0443 -1.0056
 5450SOL    HW227813   2.279   1.647   8.659 -0.9544 -1.2759  1.8797
 5451SOL     OW27814   1.399   1.707  13.694 -0.3328  0.3443  0.4776
 5451SOL    HW127815   1.341   1.771  13.654 -1.6040 -1.3806 -0.4638
 5451SOL    HW227816   1.463   1.697  13.624 -0.0352 -0.1944  0.8275
 5452SOL     OW27817   0.089   2.364  10.642 -0.4422 -0.0136 -0.8033
 5452SOL    HW127818   0.030   2.432  10.674 -0.4415 -1.7049  2.7721
 5452SOL    HW227819   0.111   2.315  10.721  0.0888 -1.1623 -1.6631
 5453SOL     OW27820   1.254   4.133   3.302  0.1393  0.2189  0.1666
 5453SOL    HW127821   1.220   4.179   3.225  1.3301  3.0833  1.3592
 5453SOL    HW227822   1.350   4.136   3.298  0.3166 -3.9995  1.5258
 5454SOL     OW27823   1.116   0.325   2.809  0.7318 -0.4322 -0.5360
 5454SOL    HW127824   1.133   0.361   2.722 -1.3085  0.8499 -0.4143
 5454SOL    HW227825   1.187   0.346   2.869  0.0183  0.8561 -0.1396
 5455SOL     OW27826   2.958   4.248   4.378  0.4748  0.2687  0.1549
 5455SOL    HW127827   3.021   4.222   4.310  0.2257  0.5614 -0.1860
 5455SOL    HW227828   3.014   4.278   4.450  1.8363  1.8390 -1.5768
 5456SOL     OW27829   0.102   0.663   1.694  0.3560  0.3165 -0.5927
 5456SOL    HW127830   0.062   0.604   1.630  0.4083  0.0449 -0.3731
 5456SOL    HW227831   0.104   0.753   1.659 -0.7299 -0.1285 -1.8149
 5457SOL     OW27832   2.828   1.685   6.194 -0.3195 -0.4272  0.0123
 5457SOL    HW127833   2.902   1.675   6.254 -0.2618 -0.7921 -0.1171
 5457SOL    HW227834   2.794   1.766   6.232 -0.3965  0.5264 -2.0825
 5458SOL     OW27835   0.169   2.447   3.208 -0.1477  0.2221 -0.2050
 5458SOL    HW127836   0.117   2.384   3.259 -0.4467  0.0332 -0.7438
 5458SOL    HW227837   0.111   2.522   3.196  0.2137  0.3656 -1.0055
 5459SOL     OW27838   4.408   4.615   8.319 -0.2207  0.2409  0.5083
 5459SOL    HW127839   4.340   4.562   8.278  0.4109 -0.6779  0.6605
 5459SOL    HW227840   4.489   4.592   8.276 -0.1779  2.2065 -0.4805
 5460SOL     OW27841   4.018   0.740  13.040 -0.5995  0.4234  0.2508
 5460SOL    HW127842   3.924   0.755  13.037 -0.4281  0.6590 -3.2384
 5460SOL    HW227843   4.045   0.792  12.964 -2.2374  1.2570  0.2400
 5461SOL     OW27844   0.393   2.026   4.686 -0.5011 -0.0328  0.3833
 5461SOL    HW127845   0.318   2.048   4.630 -1.3629 -0.2747  1.4330
 5461SOL    HW227846   0.464   2.039   4.622  0.4242  0.5222  1.5281
 5462SOL     OW27847   0.488   0.058   9.705  0.4227  0.4346 -0.6223
 5462SOL    HW127848   0.553   0.011   9.653 -0.9971 -3.7502  1.3359
 5462SOL    HW227849   0.491   0.147   9.670  2.1230  1.5330  2.4236
 5463SOL     OW27850   0.241   4.225   2.363 -0.5048 -0.2631 -0.7563
 5463SOL    HW127851   0.303   4.292   2.333  0.2490 -1.1939 -1.2926
 5463SOL    HW227852   0.210   4.183   2.283 -2.3212 -0.2847 -0.0406
 5464SOL     OW27853   4.286   3.070   7.555 -0.2618  0.0656 -0.2936
 5464SOL    HW127854   4.308   3.158   7.587 -1.4878  1.1255 -2.3377
 5464SOL    HW227855   4.377   3.040   7.555  0.4766  2.2886  0.9451
 5465SOL     OW27856   0.173   0.076  15.749 -0.1058 -0.6700 -0.2723
 5465SOL    HW127857   0.235   0.075  15.677 -1.2383  1.0512 -1.2586
 5465SOL    HW227858   0.154   4.707  15.769  1.4399 -1.0138 -0.3933
 5466SOL     OW27859   4.113   3.642  14.271 -0.1818  0.4897 -0.4310
 5466SOL    HW127860   4.186   3.689  14.229  0.5504  0.6193  0.9965
 5466SOL    HW227861   4.093   3.691  14.351  0.8821 -1.5662  1.0892
 5467SOL     OW27862   4.141   0.681  17.695  0.3717 -0.1481 -0.2671
 5467SOL    HW127863   4.112   0.623  17.625  0.3849 -0.1242 -0.2920
 5467SOL    HW227864   4.099   0.639   0.075  0.6321 -0.8235 -0.5009
 5468SOL     OW27865   0.696   3.625   3.877 -0.0088 -0.0348 -0.0893
 5468SOL    HW127866   0.616   3.679   3.871 -0.5149 -0.6626  1.0518
 5468SOL    HW227867   0.672   3.580   3.958  0.4333  0.6690  0.4334
 5469SOL     OW27868   3.203   3.167   3.355  0.2989  0.0891  0.6454
 5469SOL    HW127869   3.137   3.123   3.302  0.8183  0.0165  0.0555
 5469SOL    HW227870   3.247   3.097   3.404  0.5974 -0.3808 -0.3002
 5470SOL     OW27871   1.237   4.229   5.524  0.1878 -0.4567  0.3091
 5470SOL    HW127872   1.153   4.185   5.511  0.6743 -1.8488  1.9196
 5470SOL    HW227873   1.230   4.251   5.616  0.2702  0.8064  0.0074
 5471SOL     OW27874   3.253   1.326  14.586 -0.0177 -0.1062 -0.1418
 5471SOL    HW127875   3.252   1.385  14.510 -1.5954 -0.1227 -0.1226
 5471SOL    HW227876   3.311   1.260  14.547  0.5552 -0.8620  2.0123
 5472SOL     OW27877   4.314   3.359   5.079  0.0939 -0.2855 -0.7724
 5472SOL    HW127878   4.367   3.376   5.001 -0.0181  1.1470 -0.5415
 5472SOL    HW227879   4.245   3.422   5.062 -1.2675 -1.9733 -1.4562
 5473SOL     OW27880   1.373   2.487   2.444  0.0152  0.9884 -0.2547
 5473SOL    HW127881   1.356   2.465   2.352  1.1478 -1.3454  0.1004
 5473SOL    HW227882   1.303   2.451   2.499  1.5002  0.1111  1.0363
 5474SOL     OW27883   2.643   0.493   8.174  0.3467 -0.7745 -0.1602
 5474SOL    HW127884   2.682   0.520   8.257  0.8525 -1.1515 -0.2742
 5474SOL    HW227885   2.576   0.561   8.181  1.1658 -0.0391  0.6557
 5475SOL     OW27886   0.482   0.432   7.549 -0.4018 -0.3859  0.2144
 5475SOL    HW127887   0.531   0.447   7.630 -1.3285  0.9223  0.5352
 5475SOL    HW227888   0.551   0.392   7.498 -1.4020 -1.1173 -0.5543
 5476SOL     OW27889   2.369   0.181   5.730  0.2319 -0.4316 -0.0243
 5476SOL    HW127890   2.404   0.179   5.819  0.9942 -0.9724 -0.3397
 5476SOL    HW227891   2.379   0.090   5.704 -0.7621 -1.4144  3.0724
 5477SOL     OW27892   4.116   3.208  12.838 -0.2734  0.1181  0.0267
 5477SOL    HW127893   4.150   3.127  12.876  2.7680  2.0171  1.3144
 5477SOL    HW227894   4.062   3.238  12.910 -0.4499 -2.4985  0.9945
 5478SOL     OW27895   3.309   2.387   0.109  0.2439 -0.1602 -0.1738
 5478SOL    HW127896   3.222   2.396   0.148  0.0362 -1.4546 -0.3212
 5478SOL    HW227897   3.373   2.398   0.180 -0.4328 -0.8639  0.5450
 5479SOL     OW27898   2.501   4.181   3.560  0.5866 -0.0382  0.4967
 5479SOL    HW127899   2.481   4.116   3.493  1.8239  0.7328 -0.6046
 5479SOL    HW227900   2.519   4.116   3.627 -1.6050 -0.8887  0.2786
 5480SOL     OW27901   3.693   1.360   0.442  0.3000  0.0891 -0.1945
 5480SOL    HW127902   3.736   1.313   0.371  0.0635 -1.1528  0.4931
 5480SOL    HW227903   3.738   1.320   0.517  1.2018 -0.5269 -1.0627
 5481SOL     OW27904   2.302   2.993   4.628  0.3596 -0.6124 -0.2461
 5481SOL    HW127905   2.318   2.923   4.565 -0.0547 -1.7861  0.9603
 5481SOL    HW227906   2.349   3.061   4.580  0.4827  0.6460  1.6549
 5482SOL     OW27907   0.963   0.166   8.906  0.6384  0.0443  0.2104
 5482SOL    HW127908   0.949   0.096   8.970  0.2063  0.2185  0.3103
 5482SOL    HW227909   1.058   0.180   8.907  0.3852  1.7708  0.2947
 5483SOL     OW27910   3.618   4.149   9.229 -0.1284  0.0935 -0.1829
 5483SOL    HW127911   3.676   4.117   9.159  3.0327 -0.1556  2.5738
 5483SOL    HW227912   3.555   4.209   9.188  1.1989  1.2412 -0.5571
 5484SOL     OW27913   2.261   0.153   2.588 -0.0189  0.2248  0.4346
 5484SOL    HW127914   2.249   0.234   2.537  0.9060  1.6836  2.5197
 5484SOL    HW227915   2.184   0.101   2.566  1.0290 -0.6535 -1.1497
 5485SOL     OW27916   3.229   3.308   1.984 -0.2518 -0.0493  0.0750
 5485SOL    HW127917   3.197   3.397   1.990 -1.4990 -0.6066  1.6760
 5485SOL    HW227918   3.183   3.267   1.910 -1.2550  0.6299  0.3302
 5486SOL     OW27919   3.177   3.125   1.111  0.5616  0.1570 -0.0352
 5486SOL    HW127920   3.182   3.131   1.206  1.3038  4.1815 -0.3442
 5486SOL    HW227921   3.147   3.034   1.104 -0.3330  0.5293 -0.9155
 5487SOL     OW27922   1.840   1.449   8.235  0.0140 -0.5835 -0.1090
 5487SOL    HW127923   1.828   1.490   8.149  0.4668  1.4692  0.7915
 5487SOL    HW227924   1.903   1.506   8.278  0.7288 -3.6196  2.8562
 5488SOL     OW27925   0.555   1.540   6.642  0.2837  0.6526 -0.6615
 5488SOL    HW127926   0.568   1.630   6.613 -0.2495  0.7775 -0.5076
 5488SOL    HW227927   0.621   1.534   6.711 -0.6551  1.0622  0.2812
 5489SOL     OW27928   1.206   1.382   2.603  0.5494  0.1116 -0.0249
 5489SOL    HW127929   1.248   1.404   2.520 -0.5223 -1.2309 -0.9275
 5489SOL    HW227930   1.213   1.287   2.609 -1.8388  0.0108  1.7813
 5490SOL     OW27931   1.285   0.642   8.356  0.1134  0.1750 -0.0722
 5490SOL    HW127932   1.219   0.639   8.287  1.0824  0.4524 -1.0153
 5490SOL    HW227933   1.260   0.727   8.393 -0.4613 -0.3751  0.7971
 5491SOL     OW27934   2.803   0.966   4.457  0.1749  0.7467 -0.2249
 5491SOL    HW127935   2.788   1.023   4.381 -2.8341 -0.1254 -0.2926
 5491SOL    HW227936   2.839   1.033   4.515  2.5436 -0.0277 -0.8133
 5492SOL     OW27937   1.401   2.386   6.041  0.3743 -0.2144 -0.0100
 5492SOL    HW127938   1.468   2.450   6.018  1.3342 -1.8083 -1.6563
 5492SOL    HW227939   1.453   2.308   6.059 -0.1434 -1.0308 -2.0195
 5493SOL     OW27940   1.595   4.537   3.289  0.0373 -0.1128 -0.0510
 5493SOL    HW127941   1.597   4.625   3.327 -2.9505 -1.0218  2.1624
 5493SOL    HW227942   1.626   4.488   3.366 -0.5597  0.9528  0.8672
 5494SOL     OW27943   2.161   3.909   8.061 -0.3551 -1.0011 -0.3029
 5494SOL    HW127944   2.102   3.937   8.130  0.0641 -1.4194  0.2242
 5494SOL    HW227945   2.125   3.951   7.983  1.2080  2.3648  0.7962
 5495SOL     OW27946   1.010   1.924  17.600  0.1047 -0.6887  0.2506
 5495SOL    HW127947   1.015   1.985  17.673  0.5294 -0.4072 -0.0119
 5495SOL    HW227948   1.101   1.894  17.595 -0.3761 -2.0663 -0.4008
 5496SOL     OW27949   4.151   1.569   2.324  0.1133 -0.2821 -0.4956
 5496SOL    HW127950   4.174   1.617   2.244  1.2464  0.1509  0.0910
 5496SOL    HW227951   4.196   1.601   2.402 -2.9460  0.3645  0.9878
 5497SOL     OW27952   4.041   2.398   2.390  0.2381 -0.0663  0.1285
 5497SOL    HW127953   4.026   2.325   2.450  2.4294 -0.1423  0.5527
 5497SOL    HW227954   3.984   2.463   2.432 -0.8395 -0.4310 -0.7878
 5498SOL     OW27955   1.910   4.408  16.975  0.2121 -0.5769 -0.5877
 5498SOL    HW127956   1.924   4.496  16.940 -0.2434 -0.5747 -0.7773
 5498SOL    HW227957   1.823   4.389  16.939 -0.9106  0.9408  1.3265
 5499SOL     OW27958   1.955   2.683   9.326 -0.3910 -0.8903 -0.1390
 5499SOL    HW127959   1.958   2.698   9.421 -0.0133 -1.2385 -0.0930
 5499SOL    HW227960   2.012   2.754   9.296  0.3060 -0.9714  0.9876
 5500SOL     OW27961   1.644   4.475  12.220  0.2674  0.3162 -0.3412
 5500SOL    HW127962   1.737   4.454  12.227  0.2949  0.2460 -0.8629
 5500SOL    HW227963   1.648   4.544  12.153  1.3563 -0.2670 -0.8819
 5501SOL     OW27964   0.441   0.488   7.256  0.3031 -0.1656  0.2816
 5501SOL    HW127965   0.461   0.486   7.349 -2.0806  0.4235  0.7963
 5501SOL    HW227966   0.396   0.572   7.246 -2.2006 -1.4904  0.5035
 5502SOL     OW27967   4.674   2.830   6.799  0.1555 -0.5776  0.1756
 5502SOL    HW127968   4.699   2.742   6.771  1.1683 -0.4503  0.6925
 5502SOL    HW227969   4.580   2.832   6.781  0.0181  0.5691  1.0520
 5503SOL     OW27970   3.494   2.572   2.036  0.2228 -0.0642  0.3313
 5503SOL    HW127971   3.523   2.489   2.074 -2.3617 -0.7923  0.7693
 5503SOL    HW227972   3.473   2.620   2.116 -1.7601  0.5263 -0.5321
 5504SOL     OW27973   0.401   0.185   6.599 -0.3545  0.1776  0.2794
 5504SOL    HW127974   0.486   0.167   6.638 -0.2999 -1.2758 -0.4754
 5504SOL    HW227975   0.357   0.224   6.674 -0.5968 -1.5495  1.0445
 5505SOL     OW27976   0.283   1.911   6.141  0.4111 -0.2743 -0.0548
 5505SOL    HW127977   0.366   1.869   6.165 -0.6712 -0.6103  3.1099
 5505SOL    HW227978   0.242   1.919   6.228  0.8026  1.3419 -0.0223
 5506SOL     OW27979   4.312   2.615   5.083  0.2062 -0.3365  0.5862
 5506SOL    HW127980   4.391   2.617   5.028  1.2889  0.3163  2.1836
 5506SOL    HW227981   4.339   2.667   5.159 -0.3193  1.2443 -0.2994
 5507SOL     OW27982   3.711   2.453  17.141 -0.4654  0.4493 -0.2194
 5507SOL    HW127983   3.786   2.478  17.086  1.7392 -0.1546  2.4817
 5507SOL    HW227984   3.757   2.389  17.196 -1.5764  0.3116  0.5401
 5508SOL     OW27985   2.000   1.740   1.397 -0.1765  0.0050  0.8072
 5508SOL    HW127986   1.987   1.652   1.362  0.3338  0.1162  0.3372
 5508SOL    HW227987   2.049   1.723   1.477  0.5110 -1.0329  0.1664
 5509SOL     OW27988   3.348   1.900   4.289 -0.4323 -0.3141  0.0831
 5509SOL    HW127989   3.270   1.914   4.236 -0.5243  0.9631  0.5676
 5509SOL    HW227990   3.318   1.920   4.378  0.9602 -3.6362  1.3096
 5510SOL     OW27991   1.307   3.188   0.430 -0.0727 -0.0278 -0.7331
 5510SOL    HW127992   1.355   3.261   0.470  1.3515  0.3264 -3.0872
 5510SOL    HW227993   1.296   3.222   0.341 -0.1934 -1.9491 -1.4664
 5511SOL     OW27994   2.179   1.336   0.081  0.0788  0.3151  0.2090
 5511SOL    HW127995   2.096   1.341   0.034 -0.0629  2.4484  0.6935
 5511SOL    HW227996   2.168   1.417   0.131 -1.3713 -0.3424  0.9551
 5512SOL     OW27997   1.463   4.521  12.604  0.2626 -0.4015 -0.0212
 5512SOL    HW127998   1.461   4.427  12.583  2.2294 -0.6935  1.1713
 5512SOL    HW227999   1.514   4.529  12.684 -1.7376 -0.2683  1.2410
 5513SOL     OW28000   4.402   4.209  16.826  0.4067 -0.8844  0.3608
 5513SOL    HW128001   4.384   4.251  16.742  1.6273 -0.1893  0.4515
 5513SOL    HW228002   4.488   4.169  16.813  0.2220 -0.7274 -1.3632
 5514SOL     OW28003   0.562   0.553   4.986  0.5889  0.6144  0.8055
 5514SOL    HW128004   0.497   0.568   5.055 -0.4417 -0.6038  0.1101
 5514SOL    HW228005   0.550   0.627   4.926  1.2925  1.6511  1.9514
 5515SOL     OW28006   1.741   3.912   5.004 -0.0989  0.4527 -0.2509
 5515SOL    HW128007   1.653   3.932   5.037 -0.1444  0.1810 -0.1997
 5515SOL    HW228008   1.795   3.941   5.077 -0.1231 -0.3680  0.0934
 5516SOL     OW28009   3.617   2.839   6.367  0.7164  0.0768 -0.0483
 5516SOL    HW128010   3.568   2.834   6.449  0.4856  0.6907 -0.1508
 5516SOL    HW228011   3.664   2.921   6.379  0.1982  0.5414 -1.1956
 5517SOL     OW28012   2.031   1.155  17.072 -0.7349  0.0098 -0.0419
 5517SOL    HW128013   2.066   1.179  16.986 -1.1734  0.2688 -0.1515
 5517SOL    HW228014   2.102   1.096  17.094 -0.3986  0.7935  0.9465
 5518SOL     OW28015   0.061   2.352  11.729 -0.0104 -0.0750  0.4408
 5518SOL    HW128016   0.026   2.264  11.739 -2.3600  0.7525 -0.6275
 5518SOL    HW228017   0.145   2.330  11.689 -0.7496 -1.1530 -0.4875
 5519SOL     OW28018   1.860   0.900  10.809 -0.9062 -0.3010  0.1003
 5519SOL    HW128019   1.882   0.933  10.722 -0.0172 -0.7893  0.1367
 5519SOL    HW228020   1.853   0.805  10.795  1.9419 -0.2594 -1.6103
 5520SOL     OW28021   0.180   0.227   8.783 -0.2966 -0.1771  0.0974
 5520SOL    HW128022   0.242   0.299   8.797 -0.0590 -0.1022 -1.3152
 5520SOL    HW228023   0.134   0.263   8.708  0.4570 -2.2365 -1.3561
 5521SOL     OW28024   0.714   1.711   9.678 -0.0972  0.4001 -0.3145
 5521SOL    HW128025   0.702   1.617   9.672 -1.9996  0.5391  1.3603
 5521SOL    HW228026   0.620   1.729   9.680  0.2259  1.7561  2.5685
 5522SOL     OW28027   1.245   2.004  11.849  0.3094 -0.0943  0.3110
 5522SOL    HW128028   1.242   2.024  11.942 -2.6929 -1.6478  0.5643
 5522SOL    HW228029   1.188   1.927  11.846  0.1032  0.0719  0.0402
 5523SOL     OW28030   3.228   3.156   1.378 -0.0472  0.3086  0.1710
 5523SOL    HW128031   3.298   3.124   1.435 -0.9827 -1.8602  0.1143
 5523SOL    HW228032   3.168   3.158   1.453  1.0630  1.2121  1.0480
 5524SOL     OW28033   2.224   4.508  16.926  0.0973 -0.0109  0.6599
 5524SOL    HW128034   2.283   4.569  16.970  0.6159 -1.6730  2.3286
 5524SOL    HW228035   2.282   4.495  16.851 -0.7241  0.2469 -0.0070
 5525SOL     OW28036   0.842   4.079   6.427  0.6649 -0.4701 -0.4112
 5525SOL    HW128037   0.784   4.006   6.405  0.0087  0.3003 -1.2535
 5525SOL    HW228038   0.778   4.148   6.446  2.2178  0.6496  0.7222
 5526SOL     OW28039   1.630   3.731  13.544  0.1386  0.0073 -0.2275
 5526SOL    HW128040   1.684   3.754  13.468  2.4454  3.8273  2.5952
 5526SOL    HW228041   1.677   3.659  13.586  0.2582  0.2153 -0.0088
 5527SOL     OW28042   4.104   0.153  17.499 -0.1226  0.3346  0.4266
 5527SOL    HW128043   4.168   0.082  17.505 -0.9461 -0.4359 -0.0006
 5527SOL    HW228044   4.175   0.217  17.494  1.7995 -2.0215 -2.3177
 5528SOL     OW28045   0.413   0.785   3.291 -0.4159 -0.3159  0.2507
 5528SOL    HW128046   0.506   0.761   3.298  0.4427  2.5725 -1.1225
 5528SOL    HW228047   0.392   0.815   3.379  0.7193 -1.7689  1.0163
 5529SOL     OW28048   1.323   2.978  12.902  0.0709  0.9206  0.4762
 5529SOL    HW128049   1.381   2.914  12.861  0.9358  1.2482  1.1778
 5529SOL    HW228050   1.330   3.056  12.846  0.0225  0.8642  0.3918
 5530SOL     OW28051   0.037   3.695   7.267  0.4085 -0.1952 -0.4499
 5530SOL    HW128052   4.711   3.613   7.261 -0.0124  0.0444 -0.2762
 5530SOL    HW228053   0.005   3.740   7.345 -0.0623 -0.3786 -0.5392
 5531SOL     OW28054   4.024   1.297  17.248  0.1847 -0.0232  0.0687
 5531SOL    HW128055   4.041   1.374  17.301  0.8151  0.3227 -0.6236
 5531SOL    HW228056   4.056   1.333  17.165  3.8950 -1.9416  0.6302
 5532SOL     OW28057   0.178   2.245  14.311  0.4237 -0.2176  0.4511
 5532SOL    HW128058   0.108   2.195  14.268 -0.3662  1.0339  0.2457
 5532SOL    HW228059   0.249   2.181  14.314  1.4848  1.1300  3.9751
 5533SOL     OW28060   3.993   2.256   8.088  0.4250 -0.1600  0.2110
 5533SOL    HW128061   4.041   2.184   8.048  0.8365  1.2744 -1.8911
 5533SOL    HW228062   3.972   2.204   8.166 -0.4449  0.9769  0.7268
 5534SOL     OW28063   0.610   0.692  17.680 -0.1560  0.3202  0.1581
 5534SOL    HW128064   0.695   0.726   0.010  0.4289 -0.6704 -0.4630
 5534SOL    HW228065   0.634   0.627  17.614  0.3824 -0.7921  1.4598
 5535SOL     OW28066   2.493   3.991   3.368 -0.0958  0.3154  0.8168
 5535SOL    HW128067   2.444   4.032   3.297  1.8994  0.1175 -0.6663
 5535SOL    HW228068   2.578   3.976   3.327  0.1069  2.4798  0.4918
 5536SOL     OW28069   1.321   2.883  13.951  0.7983 -0.2426  0.5974
 5536SOL    HW128070   1.321   2.820  13.878  0.0853 -1.3022  1.5092
 5536SOL    HW228071   1.365   2.957  13.909 -2.8310  2.1178  0.9368
 5537SOL     OW28072   0.159   1.587   1.093  0.3968 -0.0379 -0.4244
 5537SOL    HW128073   0.137   1.513   1.150  1.2199 -1.9697 -2.5832
 5537SOL    HW228074   0.254   1.577   1.089  0.0903 -1.9158 -3.0795
 5538SOL     OW28075   1.740   0.716   7.486 -0.2886 -0.5288 -0.0133
 5538SOL    HW128076   1.660   0.762   7.461 -1.5736 -2.0182  1.4191
 5538SOL    HW228077   1.751   0.733   7.580  1.2224  0.4005 -0.3567
 5539SOL     OW28078   3.897   3.720   9.841  0.3483 -0.3904  1.0943
 5539SOL    HW128079   3.885   3.790   9.905 -0.1312 -0.2418  0.8462
 5539SOL    HW228080   3.806   3.711   9.812  0.1565  0.2213  1.5112
 5540SOL     OW28081   3.222   3.056   7.637 -0.0713 -0.3224 -0.0050
 5540SOL    HW128082   3.291   2.996   7.609 -1.3862 -2.2365  0.8742
 5540SOL    HW228083   3.250   3.079   7.726  2.2442  0.7022 -1.0026
 5541SOL     OW28084   3.412   2.061   5.453  0.2967  0.2157 -1.1134
 5541SOL    HW128085   3.342   2.055   5.389  1.6281 -0.4491 -2.5087
 5541SOL    HW228086   3.470   1.991   5.424 -0.1693 -0.9514  0.7365
 5542SOL     OW28087   0.208   0.023  17.352  0.7252 -0.1729 -0.5070
 5542SOL    HW128088   0.132   4.694  17.376 -0.5373  1.5117 -0.7669
 5542SOL    HW228089   0.167   0.101  17.314  0.4263  1.2197  2.6927
 5543SOL     OW28090   1.922   2.582   2.799  0.2843  0.4882  0.1020
 5543SOL    HW128091   1.987   2.608   2.865  1.8582 -1.5547 -0.6593
 5543SOL    HW228092   1.876   2.665   2.787 -0.7942 -0.2590 -0.9798
 5544SOL     OW28093   1.613   3.904   8.733 -0.1811  0.5078  0.2504
 5544SOL    HW128094   1.693   3.905   8.681 -0.6007  2.6091 -0.3566
 5544SOL    HW228095   1.622   3.995   8.761  0.2979  0.2268  0.9755
 5545SOL     OW28096   1.733   3.764   0.707  0.4262 -0.1244 -0.3742
 5545SOL    HW128097   1.783   3.789   0.785  3.5294 -1.7820 -1.8426
 5545SOL    HW228098   1.702   3.850   0.680 -0.2499 -1.2001 -3.0327
 5546SOL     OW28099   4.280   0.746   3.986 -0.0200  0.3735 -0.2079
 5546SOL    HW128100   4.185   0.736   3.990  0.0988  0.0157  1.5291
 5546SOL    HW228101   4.315   0.673   4.037  0.7611 -0.3893 -1.8315
 5547SOL     OW28102   3.930   0.095   3.177  0.3791 -0.6125 -0.0494
 5547SOL    HW128103   3.934   0.181   3.136 -1.2817 -0.2361  0.5894
 5547SOL    HW228104   3.838   0.077   3.155  0.4696 -0.1926 -0.7643
 5548SOL     OW28105   2.554   4.267   3.185  0.1732  0.3096 -0.0857
 5548SOL    HW128106   2.490   4.196   3.191  0.0092  0.4616 -0.0428
 5548SOL    HW228107   2.522   4.323   3.114 -1.0951 -0.0683  0.1752
 5549SOL     OW28108   1.344   1.671   9.019 -0.1601  0.8697  0.2948
 5549SOL    HW128109   1.325   1.706   9.106  1.9518 -0.7104  1.3896
 5549SOL    HW228110   1.281   1.721   8.967 -1.4508 -1.4667 -0.3624
 5550SOL     OW28111   4.465   2.255   2.829 -0.2638  0.0028 -0.3878
 5550SOL    HW128112   4.384   2.300   2.807  0.6728  0.4121 -3.0569
 5550SOL    HW228113   4.538   2.304   2.792  0.9047 -2.4503 -1.3812
 5551SOL     OW28114   0.860   1.721   8.958  0.0860 -0.0475 -0.5354
 5551SOL    HW128115   0.888   1.662   9.028 -0.3997  0.0809 -0.2351
 5551SOL    HW228116   0.943   1.754   8.925  0.7199 -1.0972  0.0225
 5552SOL     OW28117   3.480   0.513  10.026 -0.4167 -0.4611  0.1351
 5552SOL    HW128118   3.530   0.439   9.992  1.7142  0.7830  0.5631
 5552SOL    HW228119   3.549   0.577  10.042 -0.0000 -1.3625  1.9514
 5553SOL     OW28120   3.543   1.692  14.943  0.1906 -0.0847  0.2864
 5553SOL    HW128121   3.498   1.608  14.931 -0.6243  0.2410  1.0599
 5553SOL    HW228122   3.627   1.664  14.907 -0.0597  1.6237 -1.6034
 5554SOL     OW28123   2.205   1.578   0.198 -0.2294 -0.1938  0.6581
 5554SOL    HW128124   2.240   1.626   0.122  1.7960  1.5189  2.6670
 5554SOL    HW228125   2.287   1.570   0.246  0.4208  1.0701 -0.2203
 5555SOL     OW28126   4.434   4.509   5.760 -0.6440  0.1552 -0.3424
 5555SOL    HW128127   4.431   4.539   5.850 -0.7493 -0.4185 -0.1504
 5555SOL    HW228128   4.379   4.568   5.708 -1.3315 -0.5014 -0.3716
 5556SOL     OW28129   3.772   0.804   2.713  0.1131 -0.4379  0.8214
 5556SOL    HW128130   3.734   0.873   2.658  0.7766  1.3455  2.5785
 5556SOL    HW228131   3.698   0.761   2.755 -0.8463 -0.9058 -1.3863
 5557SOL     OW28132   3.384   4.441  12.055 -0.7703 -0.0641  0.8292
 5557SOL    HW128133   3.433   4.499  12.112 -1.2189 -0.7282  1.8786
 5557SOL    HW228134   3.373   4.365  12.112 -0.5568  0.1141  1.1071
 5558SOL     OW28135   3.672   1.946   9.378 -0.3050 -0.0294  0.7007
 5558SOL    HW128136   3.742   2.011   9.387  0.3810 -0.5934 -0.6818
 5558SOL    HW228137   3.648   1.948   9.286  1.1244  2.9657  0.3895
 5559SOL     OW28138   0.385   3.608   3.961 -1.0678  0.0916 -0.2084
 5559SOL    HW128139   0.400   3.524   3.917 -0.1811  0.3515 -0.4029
 5559SOL    HW228140   0.393   3.670   3.889  1.7365  0.1940  0.1919
 5560SOL     OW28141   1.086   3.641  15.300  0.1265 -0.1823  0.2156
 5560SOL    HW128142   1.053   3.721  15.341  1.4441  0.4951 -0.0522
 5560SOL    HW228143   1.171   3.630  15.344  0.0348 -0.0117  0.4382
 5561SOL     OW28144   3.097   1.252  12.152 -0.2210 -0.0302 -0.2129
 5561SOL    HW128145   3.070   1.343  12.139 -0.7126  0.1603  2.1592
 5561SOL    HW228146   3.009   1.219  12.140 -0.3492 -0.5525  2.1078
 5562SOL     OW28147   2.010   1.563   5.603  0.4635 -0.7640 -0.0633
 5562SOL    HW128148   2.087   1.589   5.552  0.3852 -0.8753 -0.2400
 5562SOL    HW228149   1.936   1.570   5.543 -0.6254 -0.0419  1.3873
 5563SOL     OW28150   2.602   3.087  10.024 -0.0276  0.2434 -0.9563
 5563SOL    HW128151   2.689   3.119  10.046 -0.4194  1.2167 -0.8148
 5563SOL    HW228152   2.586   3.134   9.942  1.2006  3.3116  0.5500
 5564SOL     OW28153   1.369   0.479   8.534 -0.0748 -0.2004  0.0016
 5564SOL    HW128154   1.356   0.551   8.472 -0.6522 -0.0507  0.2914
 5564SOL    HW228155   1.282   0.443   8.551  0.2820 -0.5523  1.0883
 5565SOL     OW28156   4.067   2.982   3.731 -0.2037 -0.0986 -0.0773
 5565SOL    HW128157   4.159   2.963   3.752 -0.2550 -0.7292 -0.4241
 5565SOL    HW228158   4.043   2.909   3.673  1.6395 -0.0940 -0.8570
 5566SOL     OW28159   3.195   1.130   2.668  0.3757  0.3208 -0.5627
 5566SOL    HW128160   3.126   1.079   2.710 -0.2222  0.8312 -0.9506
 5566SOL    HW228161   3.217   1.076   2.592 -1.0330  0.3668 -0.9908
 5567SOL     OW28162   0.925   3.103  12.073  0.4405 -0.1047 -0.4719
 5567SOL    HW128163   0.951   3.171  12.011  3.8425 -1.3239 -0.3981
 5567SOL    HW228164   1.010   3.060  12.086  0.3844 -0.4396 -1.1839
 5568SOL     OW28165   0.808   0.704   7.568  0.3895  0.3888 -1.0109
 5568SOL    HW128166   0.752   0.681   7.494 -1.1509 -1.7151  0.8046
 5568SOL    HW228167   0.760   0.656   7.636  0.0734  0.0714 -1.4562
 5569SOL     OW28168   3.309   2.891   2.773 -0.5055 -0.1975 -0.1327
 5569SOL    HW128169   3.394   2.848   2.782 -0.4015 -0.4379 -2.2464
 5569SOL    HW228170   3.245   2.822   2.794 -2.0202  1.8490  2.0358
 5570SOL     OW28171   3.819   1.606   7.915  0.2743  0.6448 -0.1509
 5570SOL    HW128172   3.765   1.595   7.993  0.8020  0.7657  0.2335
 5570SOL    HW228173   3.796   1.695   7.890  3.1811  1.3304 -0.4093
 5571SOL     OW28174   1.785   2.311   4.814  0.5089 -0.0146 -0.3039
 5571SOL    HW128175   1.768   2.405   4.817  1.3668  0.1718 -1.5107
 5571SOL    HW228176   1.879   2.316   4.798  0.6908  1.4694  1.2341
 5572SOL     OW28177   1.568   2.879   5.137  0.4928  0.0491 -0.3789
 5572SOL    HW128178   1.569   2.800   5.191 -0.3648 -0.0396 -0.4942
 5572SOL    HW228179   1.574   2.941   5.209 -2.1837 -1.7137  1.3328
 5573SOL     OW28180   3.398   4.498  11.792  0.1505  0.8110  0.2777
 5573SOL    HW128181   3.489   4.499  11.763  0.8359  1.9143  2.4546
 5573SOL    HW228182   3.404   4.465  11.882  1.5781 -0.9339 -0.4606
 5574SOL     OW28183   4.637   1.311   5.513  0.5421  0.5623  0.3338
 5574SOL    HW128184   4.579   1.379   5.549  1.8399  2.0880 -0.4238
 5574SOL    HW228185   4.588   1.281   5.436  1.8753  0.7564 -0.5849
 5575SOL     OW28186   0.077   4.563   1.378  0.3479  0.1631  0.6113
 5575SOL    HW128187   4.722   4.594   1.425 -0.8214 -1.1471 -0.4948
 5575SOL    HW228188   0.103   4.647   1.341  1.0892  0.0930  0.9863
 5576SOL     OW28189   1.971   4.510  10.719 -0.0231 -0.3432 -0.3638
 5576SOL    HW128190   2.045   4.505  10.779  1.1567  2.1517 -1.6271
 5576SOL    HW228191   2.015   4.528  10.636 -0.4538 -0.3366 -0.5937
 5577SOL     OW28192   4.017   4.573   9.144  0.4968  0.0897  0.2382
 5577SOL    HW128193   4.041   4.591   9.235 -1.1024 -0.3763  0.7697
 5577SOL    HW228194   4.047   4.651   9.099 -1.1624 -0.4240 -1.7405
 5578SOL     OW28195   1.514   4.003   5.130 -0.0750  0.0066  0.3640
 5578SOL    HW128196   1.531   4.010   5.224 -0.4025  1.3255  0.3217
 5578SOL    HW228197   1.456   4.079   5.123 -0.6282 -0.5677 -1.1124
 5579SOL     OW28198   1.180   4.191  14.070 -0.4221 -0.5489 -0.0755
 5579SOL    HW128199   1.099   4.240  14.054 -0.3815  0.7156  3.5816
 5579SOL    HW228200   1.221   4.219  13.988  1.6832 -0.9427  0.8321
 5580SOL     OW28201   3.713   0.738   7.207  0.7578 -0.1433  0.4384
 5580SOL    HW128202   3.670   0.669   7.155 -0.1716  0.4576  0.4085
 5580SOL    HW228203   3.754   0.682   7.273 -0.9732 -1.0866  0.7338
 5581SOL     OW28204   3.172   4.044   5.960 -0.2960 -0.2257  0.0296
 5581SOL    HW128205   3.113   4.021   5.887  2.6911 -1.5047 -1.9688
 5581SOL    HW228206   3.150   3.971   6.018 -0.8404 -2.9649 -3.5934
 5582SOL     OW28207   1.729   1.101   7.935  0.6166  0.0573 -0.8180
 5582SOL    HW128208   1.725   1.023   7.879  0.3191  1.4401 -2.7319
 5582SOL    HW228209   1.821   1.083   7.954  0.5200  1.3936  0.9392
 5583SOL     OW28210   1.081   3.214  14.815  0.2085  0.2281  0.8143
 5583SOL    HW128211   1.025   3.264  14.756 -0.1682 -0.0245  0.9591
 5583SOL    HW228212   1.139   3.286  14.840  0.1101  0.2208  1.0613
 5584SOL     OW28213   1.861   4.676  17.197 -0.1446  0.1519  0.1250
 5584SOL    HW128214   1.901   4.675  17.110  0.7112  0.8898  0.5070
 5584SOL    HW228215   1.894   0.037  17.228 -1.5266 -0.1584  2.4276
 5585SOL     OW28216   2.974   1.779   7.654  0.4454  0.2629 -0.0234
 5585SOL    HW128217   2.949   1.830   7.731  0.2241  2.5455 -1.6121
 5585SOL    HW228218   3.044   1.832   7.617  1.6591  0.6669  2.8012
 5586SOL     OW28219   2.034   0.365  12.642  0.1407 -0.1731  0.4748
 5586SOL    HW128220   1.942   0.341  12.655 -0.1614  1.3826  1.3199
 5586SOL    HW228221   2.067   0.282  12.610 -1.1255 -0.5954  0.2490
 5587SOL     OW28222   2.858   3.409   6.914 -0.0836  0.0083  0.2416
 5587SOL    HW128223   2.841   3.362   6.832 -1.7033  0.3701  0.3657
 5587SOL    HW228224   2.915   3.478   6.881  1.9736 -0.7915  2.0825
 5588SOL     OW28225   3.747   3.301   2.518 -0.2649  0.1294 -0.4413
 5588SOL    HW128226   3.824   3.324   2.466  0.0926 -0.7649 -0.3003
 5588SOL    HW228227   3.689   3.373   2.492  1.1905  0.7428 -1.9919
 5589SOL     OW28228   1.130   3.921  14.085 -0.4096 -0.4057  0.6950
 5589SOL    HW128229   1.134   4.016  14.096 -0.2840 -0.0264 -2.6716
 5589SOL    HW228230   1.106   3.914  13.992 -2.3543 -0.3938  1.1994
 5590SOL     OW28231   3.070   1.685   1.264  0.5538  0.0350  0.4608
 5590SOL    HW128232   3.131   1.640   1.205 -0.6097 -0.4933 -0.3271
 5590SOL    HW228233   3.101   1.677   1.354  0.3898 -2.4317  0.2928
 5591SOL     OW28234   2.143   3.501   8.239  0.5422 -0.2322 -0.3752
 5591SOL    HW128235   2.080   3.567   8.209  1.4520  1.3629  1.2661
 5591SOL    HW228236   2.161   3.542   8.324 -1.0454  0.5267 -0.4014
 5592SOL     OW28237   0.921   1.318   2.101 -0.0633 -0.1616 -0.0618
 5592SOL    HW128238   0.828   1.336   2.119 -0.1686  0.9284 -1.6361
 5592SOL    HW228239   0.968   1.317   2.184  0.6436  1.7389 -0.4344
 5593SOL     OW28240   0.859   4.361  10.041  0.3385  0.3196 -0.0405
 5593SOL    HW128241   0.882   4.297   9.974 -1.2571  0.1628 -0.4346
 5593SOL    HW228242   0.791   4.308  10.082  1.4436 -0.4614  0.7851
 5594SOL     OW28243   1.177   1.754   1.642 -0.2044 -1.0665  0.4145
 5594SOL    HW128244   1.102   1.813   1.640  0.2566 -0.5233 -0.7959
 5594SOL    HW228245   1.247   1.817   1.659 -0.9562  0.4024 -1.9235
 5595SOL     OW28246   1.230   2.196   5.016 -0.5101  0.2828 -0.2517
 5595SOL    HW128247   1.217   2.277   5.064  0.7527 -0.4846  1.3672
 5595SOL    HW228248   1.158   2.197   4.953 -0.2768  1.9203 -0.4943
 5596SOL     OW28249   1.657   1.757  15.252 -0.2057  0.2894  0.0523
 5596SOL    HW128250   1.688   1.795  15.169 -1.9842 -0.5630 -0.9944
 5596SOL    HW228251   1.586   1.819  15.262  0.9030  2.0559 -2.9388
 5597SOL     OW28252   1.539   4.269   6.390 -0.3058 -0.2075  0.3670
 5597SOL    HW128253   1.606   4.315   6.339  1.2900 -2.0204  0.8016
 5597SOL    HW228254   1.534   4.191   6.334 -3.4471 -1.5311  2.4936
 5598SOL     OW28255   0.538   3.477   6.872  0.3458  0.5920  0.0322
 5598SOL    HW128256   0.566   3.567   6.889 -2.5337  1.3404  0.8152
 5598SOL    HW228257   0.623   3.433   6.875  0.4214  0.7772  0.5589
 5599SOL     OW28258   0.290   2.824  11.153 -0.5644  0.0944 -0.1797
 5599SOL    HW128259   0.362   2.767  11.178 -1.7046 -0.8947  0.8157
 5599SOL    HW228260   0.220   2.765  11.124  0.4780 -1.2600  0.0572
 5600SOL     OW28261   1.714   4.389   2.798  0.0316  0.0729 -0.2817
 5600SOL    HW128262   1.690   4.296   2.792  0.3247  0.0067 -0.4094
 5600SOL    HW228263   1.680   4.397   2.887  2.2610 -2.4589  0.7771
 5601SOL     OW28264   1.467   1.310   3.530 -0.3404  0.1623  0.2083
 5601SOL    HW128265   1.534   1.341   3.590  0.7385  1.5702 -1.7415
 5601SOL    HW228266   1.521   1.250   3.478  1.4941  1.0565  1.1092
 5602SOL     OW28267   3.938   2.583   4.632  0.2930  0.1305 -0.0038
 5602SOL    HW128268   3.915   2.491   4.639 -0.9313  0.5626  1.6787
 5602SOL    HW228269   3.903   2.620   4.714  1.1161 -3.4686  1.9476
 5603SOL     OW28270   2.641   3.917  15.968 -0.0033  0.3097 -0.0281
 5603SOL    HW128271   2.610   3.971  16.041 -1.3613  0.5002 -0.7441
 5603SOL    HW228272   2.651   3.981  15.898 -0.7872 -0.0401 -0.4487
 5604SOL     OW28273   2.769   0.247   8.681 -0.2508  0.5733 -1.0582
 5604SOL    HW128274   2.816   0.220   8.760 -1.7776 -1.7149 -0.9165
 5604SOL    HW228275   2.702   0.307   8.714 -0.5171 -0.8405  0.9638
 5605SOL     OW28276   1.499   2.244   5.120  0.1877 -0.0087 -0.2468
 5605SOL    HW128277   1.416   2.231   5.074 -1.1868 -0.2062  2.2720
 5605SOL    HW228278   1.507   2.339   5.122 -0.5143  0.0054  3.7696
 5606SOL     OW28279   2.264   2.199  10.369  0.2442 -0.2995  0.3094
 5606SOL    HW128280   2.220   2.233  10.447  1.4245  0.1083  0.7892
 5606SOL    HW228281   2.320   2.274  10.350 -1.0516  0.7558  0.6572
 5607SOL     OW28282   3.114   2.635   1.940  0.6239  0.8489 -0.3678
 5607SOL    HW128283   3.208   2.631   1.925  0.8987  0.7316  1.3141
 5607SOL    HW228284   3.087   2.609   1.852  2.5559 -0.1564 -0.6576
 5608SOL     OW28285   0.696   0.370   8.181 -0.1638  0.1022  0.6698
 5608SOL    HW128286   0.731   0.415   8.257 -2.8713  0.7290  1.5508
 5608SOL    HW228287   0.715   0.279   8.204  0.0490 -0.4294 -1.6131
 5609SOL     OW28288   2.949   0.307   5.534 -0.4089  0.1103  0.4393
 5609SOL    HW128289   3.017   0.355   5.582  0.4612  1.4165 -2.0477
 5609SOL    HW228290   2.987   0.326   5.448  1.9354 -0.1569  1.4271
 5610SOL     OW28291   4.531   3.257   7.385  0.2822 -0.0407  0.1388
 5610SOL    HW128292   4.516   3.189   7.451  0.7652 -0.6763 -0.4212
 5610SOL    HW228293   4.442   3.283   7.361  0.0321 -0.5934  0.4773
 5611SOL     OW28294   0.204   1.181  10.929 -0.2640 -0.2860  0.5843
 5611SOL    HW128295   0.108   1.182  10.920 -0.4770  1.7088  2.7813
 5611SOL    HW228296   0.213   1.266  10.973  1.5603  0.0638 -0.5050
 5612SOL     OW28297   2.164   4.689   6.918  0.9206 -0.0511  0.5325
 5612SOL    HW128298   2.151   4.666   6.826  1.4241 -0.3319  0.5335
 5612SOL    HW228299   2.229   4.622   6.940  2.1431  1.0195  0.2005
 5613SOL     OW28300   3.669   4.012   8.293  0.4389  0.2967 -0.2342
 5613SOL    HW128301   3.649   4.103   8.314  0.6072  0.1552  0.5408
 5613SOL    HW228302   3.763   4.011   8.313 -0.1139 -0.3204  2.4192
 5614SOL     OW28303   4.170   3.147  12.210  0.3366  0.0271  0.3583
 5614SOL    HW128304   4.089   3.102  12.184 -0.4445  0.7181  1.5725
 5614SOL    HW228305   4.165   3.152  12.306 -1.4083 -2.3573  0.3952
 5615SOL     OW28306   3.611   1.484   3.436 -0.0591 -0.4510  0.2715
 5615SOL    HW128307   3.529   1.460   3.479 -0.3825  0.5796  0.2202
 5615SOL    HW228308   3.671   1.513   3.504 -0.5842  1.8202 -0.2430
 5616SOL     OW28309   3.254   3.055  10.126 -0.1753  0.4893 -0.1517
 5616SOL    HW128310   3.173   3.018  10.090  0.4906 -0.2052 -0.9310
 5616SOL    HW228311   3.294   2.969  10.128 -0.9392  0.1856  1.7345
 5617SOL     OW28312   0.408   4.357   1.767 -0.2379 -0.5863 -0.1691
 5617SOL    HW128313   0.334   4.417   1.752 -0.5975 -1.3440 -1.4070
 5617SOL    HW228314   0.383   4.311   1.847  1.9836  0.5907  1.2087
 5618SOL     OW28315   3.865   1.024   3.984 -0.3601 -0.3886 -0.8363
 5618SOL    HW128316   3.934   1.081   3.950 -0.1485 -0.6784 -0.9020
 5618SOL    HW228317   3.913   0.958   4.033 -0.1657 -0.4128 -1.0579
 5619SOL     OW28318   1.526   0.244   5.400  0.1973 -0.7564  0.1255
 5619SOL    HW128319   1.598   0.237   5.463 -0.6425 -2.4114  0.8872
 5619SOL    HW228320   1.515   0.154   5.372 -1.8924  0.0188 -1.5631
 5620SOL     OW28321   1.077   2.535  12.568  0.0981  0.3909 -0.6622
 5620SOL    HW128322   0.991   2.495  12.581  0.7510 -0.8525 -0.0945
 5620SOL    HW228323   1.135   2.479  12.621  1.5971  1.7383 -0.8889
 5621SOL     OW28324   0.210   3.866   5.634 -0.3682  0.2914 -0.1876
 5621SOL    HW128325   0.164   3.794   5.592 -2.1167  2.1893 -1.5255
 5621SOL    HW228326   0.247   3.827   5.714 -3.7062 -1.3898  0.5616
 5622SOL     OW28327   3.692   1.223  12.039  0.2014 -0.0455 -0.2325
 5622SOL    HW128328   3.679   1.316  12.058 -1.9678 -0.3385 -0.3055
 5622SOL    HW228329   3.770   1.205  12.092 -0.5943  1.9237  1.5886
 5623SOL     OW28330   4.321   3.111   1.994 -0.0560  0.3039  0.1529
 5623SOL    HW128331   4.330   3.176   1.924  0.4668 -0.5197 -0.5345
 5623SOL    HW228332   4.246   3.058   1.967 -0.3341  0.7159  0.1149
 5624SOL     OW28333   0.472   3.196  10.594  0.1473 -0.1957  0.1028
 5624SOL    HW128334   0.490   3.265  10.659  1.2355 -0.1559 -0.2283
 5624SOL    HW228335   0.553   3.145  10.593  0.6668  0.5816  2.0535
 5625SOL     OW28336   4.350   2.679   2.440  0.1462  0.6622 -0.6229
 5625SOL    HW128337   4.287   2.707   2.374 -0.0123  0.2764 -0.6371
 5625SOL    HW228338   4.434   2.697   2.399  0.1954  1.9423  0.0539
 5626SOL     OW28339   3.931   1.622  12.891  0.0365 -0.4269 -0.3255
 5626SOL    HW128340   3.885   1.705  12.903 -1.2939 -1.1571 -0.4226
 5626SOL    HW228341   4.000   1.646  12.828  2.2683 -1.0424  1.8905
 5627SOL     OW28342   3.064   4.148   6.244 -0.0091  0.4281 -0.2642
 5627SOL    HW128343   3.141   4.187   6.285 -0.0912 -1.1045  1.3510
 5627SOL    HW228344   3.105   4.113   6.165 -1.4716 -0.0305 -0.8260
 5628SOL     OW28345   2.059   1.835   9.324  0.0806 -0.3767  0.6146
 5628SOL    HW128346   2.140   1.797   9.360 -0.8693 -2.7166  0.2363
 5628SOL    HW228347   2.015   1.848   9.408  0.8114  1.2562  0.7614
 5629SOL     OW28348   3.601   1.804   6.921  0.4084  0.0365 -0.0889
 5629SOL    HW128349   3.637   1.835   7.004  1.8152 -0.9001 -0.3354
 5629SOL    HW228350   3.510   1.791   6.948  0.2187  0.8100 -0.3588
 5630SOL     OW28351   2.034   1.750   4.628  0.1623  0.2023  0.5427
 5630SOL    HW128352   2.111   1.693   4.624  0.5676  0.8513 -1.0198
 5630SOL    HW228353   1.992   1.748   4.714 -0.6133 -0.7548  0.1328
 5631SOL     OW28354   1.921   1.561   6.531  0.3737  0.7793  0.1618
 5631SOL    HW128355   1.981   1.631   6.559  0.9934  1.6159 -3.2354
 5631SOL    HW228356   1.976   1.482   6.533  1.9334  1.8541  0.2163
 5632SOL     OW28357   2.104   1.241   8.351 -0.2542  0.0601  0.4843
 5632SOL    HW128358   2.042   1.290   8.405 -1.7843  1.8258 -2.8569
 5632SOL    HW228359   2.189   1.282   8.365 -0.8139  1.7059 -0.9529
 5633SOL     OW28360   0.474   3.330   4.375  0.1733  0.0356  0.4421
 5633SOL    HW128361   0.465   3.253   4.320 -0.8063  0.6347 -0.2415
 5633SOL    HW228362   0.405   3.320   4.441  0.3659 -1.6195  0.3942
 5634SOL     OW28363   1.491   3.234  17.351  0.7534 -0.3120 -0.2624
 5634SOL    HW128364   1.474   3.301  17.417 -1.5818 -1.5733  0.3930
 5634SOL    HW228365   1.556   3.273  17.292  0.0600  0.7876 -0.2950
 5635SOL     OW28366   0.673   1.098   2.880 -0.0816 -0.1480  0.1492
 5635SOL    HW128367   0.601   1.108   2.818 -0.2210  1.7205  0.6293
 5635SOL    HW228368   0.692   1.191   2.889  0.1686  0.1188 -3.1816
 5636SOL     OW28369   1.339   2.437  15.804 -0.1326 -0.0184  0.4344
 5636SOL    HW128370   1.431   2.417  15.783 -0.5777  0.7852 -2.3090
 5636SOL    HW228371   1.313   2.507  15.744  0.2758 -0.0896  0.1698
 5637SOL     OW28372   3.325   3.839   6.674  0.7360  0.0523 -0.4544
 5637SOL    HW128373   3.385   3.874   6.740 -2.0337  1.7820  1.1188
 5637SOL    HW228374   3.326   3.747   6.699  0.9434 -0.0812 -0.9507
 5638SOL     OW28375   3.958   1.896  11.396 -0.0101 -0.5014 -0.0921
 5638SOL    HW128376   3.949   1.885  11.302 -1.4408  0.0091 -0.0076
 5638SOL    HW228377   3.890   1.840  11.434  0.2398 -1.4884 -1.1003
 5639SOL     OW28378   4.234   0.277  13.808 -0.2494  0.3341  0.0149
 5639SOL    HW128379   4.328   0.295  13.813 -0.7276  2.6425  0.3939
 5639SOL    HW228380   4.239   0.192  13.852  0.0462  0.5908  0.4729
 5640SOL     OW28381   4.472   4.716  15.286 -0.3401  0.2898  0.4632
 5640SOL    HW128382   4.401   4.680  15.340 -1.1125 -0.3057 -0.9669
 5640SOL    HW228383   4.458   0.084  15.310  3.0885  1.0681 -0.5297
 5641SOL     OW28384   0.648   0.039  12.880  0.3861  0.1805  0.3779
 5641SOL    HW128385   0.606   0.120  12.906  0.9179  0.6671 -0.2807
 5641SOL    HW228386   0.577   4.699  12.871 -0.6252  1.4235 -0.4418
 5642SOL     OW28387   2.126   3.568  11.342 -0.4562  0.1783  0.0363
 5642SOL    HW128388   2.047   3.549  11.291  0.2455 -1.1190 -0.5704
 5642SOL    HW228389   2.185   3.496  11.318 -0.4754  0.1323  0.1282
 5643SOL     OW28390   3.732   1.756  17.158  0.3761 -0.5171 -0.4731
 5643SOL    HW128391   3.661   1.819  17.150  0.3589 -0.6615 -1.3962
 5643SOL    HW228392   3.707   1.719  17.243  1.4984 -0.3917 -0.0827
 5644SOL     OW28393   0.067   2.420  12.280 -0.2567  0.5184  0.2963
 5644SOL    HW128394   0.049   2.424  12.374  2.1419  0.3677  0.7536
 5644SOL    HW228395   4.713   2.372  12.249 -1.0619  2.2997 -0.5123
 5645SOL     OW28396   2.640   1.994   8.907  0.0859  0.1747  0.3620
 5645SOL    HW128397   2.713   1.994   8.845  0.1570  1.8472  0.4380
 5645SOL    HW228398   2.610   2.083   8.887 -0.4865  0.2390  1.4939
 5646SOL     OW28399   0.569   2.896   4.255  0.3437 -0.3413 -0.2408
 5646SOL    HW128400   0.610   2.928   4.336  0.4288  0.3709 -0.5663
 5646SOL    HW228401   0.480   2.870   4.278 -0.3819  0.0454 -2.5817
 5647SOL     OW28402   4.517   4.696   0.181 -0.0270  0.2226  0.2376
 5647SOL    HW128403   4.423   4.709   0.171  0.0924  0.0991 -1.0241
 5647SOL    HW228404   4.556   0.025   0.112 -0.0552 -0.4415 -0.2815
 5648SOL     OW28405   1.274   0.295   4.447  0.5007  0.4121  0.0312
 5648SOL    HW128406   1.233   0.305   4.361 -0.7916  1.0536  0.7263
 5648SOL    HW228407   1.334   0.370   4.450  0.7734  0.2326 -0.8903
 5649SOL     OW28408   3.925   3.630   2.908  0.4259  0.2339  0.4236
 5649SOL    HW128409   3.969   3.590   2.834  1.6910  0.5633  0.9931
 5649SOL    HW228410   3.964   3.718   2.906  0.4082  0.2325 -0.0169
 5650SOL     OW28411   3.405   1.889   8.163 -0.2306 -0.1343 -0.3289
 5650SOL    HW128412   3.337   1.878   8.097  0.9473 -1.8213 -1.2415
 5650SOL    HW228413   3.357   1.951   8.218  2.1443  1.2000  0.2366
 5651SOL     OW28414   0.253   0.672  10.609  0.2560  0.2548  0.1709
 5651SOL    HW128415   0.165   0.701  10.586  0.6654  1.0825 -0.3502
 5651SOL    HW228416   0.241   0.625  10.692  2.0156  2.7365  1.8345
 5652SOL     OW28417   4.216   4.441  13.260 -0.1323 -0.3860 -0.0466
 5652SOL    HW128418   4.250   4.355  13.283  0.1476 -0.8173 -2.1156
 5652SOL    HW228419   4.137   4.417  13.212 -0.6599 -2.1229  1.6764
 5653SOL     OW28420   0.575   1.783   8.590  0.5862 -0.6734  0.0191
 5653SOL    HW128421   0.614   1.818   8.671 -1.6512 -0.0510  0.8212
 5653SOL    HW228422   0.504   1.723   8.613  0.2719 -0.7960 -1.2880
 5654SOL     OW28423   1.912   3.542  11.170  0.0584  0.0415 -0.5313
 5654SOL    HW128424   1.845   3.590  11.220  0.2139  1.0625 -1.3142
 5654SOL    HW228425   1.882   3.453  11.190 -1.7944  0.0767 -3.3044
 5655SOL     OW28426   3.201   3.433   1.215 -0.0047  0.0829  0.0199
 5655SOL    HW128427   3.231   3.342   1.216  0.6650  0.2875 -1.1593
 5655SOL    HW228428   3.281   3.481   1.191  0.0151  0.2937  0.5247
 5656SOL     OW28429   4.653   1.598   5.345 -0.2861 -0.5688  0.1455
 5656SOL    HW128430   4.631   1.590   5.252 -0.7954 -1.4111  0.3394
 5656SOL    HW228431   0.020   1.628   5.333 -0.2097 -0.3810  1.1778
 5657SOL     OW28432   1.562   3.059  12.291 -0.7128  0.1337  0.8056
 5657SOL    HW128433   1.577   2.994  12.360  0.6361 -1.1714 -0.7248
 5657SOL    HW228434   1.627   3.034  12.225 -0.2540  1.0073  0.9410
 5658SOL     OW28435   3.342   3.564   7.335  0.2830  0.2239  0.0635
 5658SOL    HW128436   3.312   3.603   7.418 -1.0864  4.0195 -2.2412
 5658SOL    HW228437   3.433   3.596   7.335  0.5051 -0.4673 -3.0205
 5659SOL     OW28438   4.608   4.063  17.570 -0.5646  0.3350 -0.5642
 5659SOL    HW128439   4.613   4.157  17.588 -1.0952  0.4928 -1.2038
 5659SOL    HW228440   4.520   4.046  17.535 -0.8893 -1.0660  0.9687
 5660SOL     OW28441   0.627   2.320   9.491 -0.6939 -0.0575  0.4319
 5660SOL    HW128442   0.622   2.224   9.495  0.2915 -0.1204  0.0597
 5660SOL    HW228443   0.669   2.333   9.406 -1.1195 -2.3123 -0.1311
 5661SOL     OW28444   2.839   1.896   4.774  0.3181 -0.1649  0.0880
 5661SOL    HW128445   2.931   1.915   4.755  0.0394 -1.7431 -2.8912
 5661SOL    HW228446   2.836   1.951   4.852  0.4964 -0.9758  0.6663
 5662SOL     OW28447   0.197   1.621   3.155 -0.4594  0.2777  0.0734
 5662SOL    HW128448   0.250   1.696   3.182 -0.1588 -0.7411  2.3203
 5662SOL    HW228449   0.232   1.555   3.215  0.2280 -0.3452 -0.9971
 5663SOL     OW28450   0.201   4.226   4.109  0.0426  0.2068  1.0102
 5663SOL    HW128451   0.118   4.195   4.073  0.9908  2.4330 -3.0341
 5663SOL    HW228452   0.263   4.168   4.064  1.1318  2.7881 -0.7615
 5664SOL     OW28453   4.596   2.479   7.297  0.3096 -0.5312 -0.7033
 5664SOL    HW128454   4.587   2.574   7.287  0.0432 -0.5714 -0.8299
 5664SOL    HW228455   4.661   2.449   7.233 -0.0690 -3.0387  0.0893
 5665SOL     OW28456   3.863   2.379  10.319  0.3001  0.8863 -0.2544
 5665SOL    HW128457   3.781   2.366  10.365  1.4288  0.4453  1.6115
 5665SOL    HW228458   3.825   2.411  10.237 -1.8743 -0.3142  0.2855
 5666SOL     OW28459   1.535   2.631   5.939  0.1435 -0.6575  0.5229
 5666SOL    HW128460   1.502   2.695   5.876  3.3826 -0.8675 -1.4249
 5666SOL    HW228461   1.599   2.587   5.883  1.9700  1.1230  1.2294
 5667SOL     OW28462   0.158   1.714  12.060 -0.1499 -0.0893  0.1139
 5667SOL    HW128463   0.090   1.739  12.122  0.4839  0.9942  0.3733
 5667SOL    HW228464   0.226   1.766  12.103 -0.7091  2.5266 -2.1608
 5668SOL     OW28465   3.845   0.679   3.010  0.1815 -0.6259 -0.0734
 5668SOL    HW128466   3.908   0.682   3.082  1.6069 -0.0347 -1.3419
 5668SOL    HW228467   3.773   0.726   3.052  0.3275 -1.6344  1.3128
 5669SOL     OW28468   3.081   4.366   9.416 -0.3102 -0.0429  0.5125
 5669SOL    HW128469   3.048   4.302   9.479  0.3488 -0.6514  0.2448
 5669SOL    HW228470   3.004   4.378   9.360  1.4544  0.8548 -1.7553
 5670SOL     OW28471   0.252   0.966   2.223 -0.2919  0.1269 -0.0952
 5670SOL    HW128472   0.220   0.917   2.298  0.1669  0.9484  0.6342
 5670SOL    HW228473   0.206   0.923   2.151  2.8612 -4.3896  0.5873
 5671SOL     OW28474   2.804   0.365   6.699  0.2403 -0.4991  0.0546
 5671SOL    HW128475   2.739   0.410   6.753  0.0697  0.6917 -1.1324
 5671SOL    HW228476   2.819   0.281   6.743  1.1546  0.4294  1.5225
 5672SOL     OW28477   2.333   4.489   2.195 -0.5572 -0.2248 -0.4648
 5672SOL    HW128478   2.414   4.500   2.145  0.5031 -0.6383  1.1659
 5672SOL    HW228479   2.278   4.564   2.172 -1.6504 -0.6419  0.8272
 5673SOL     OW28480   2.837   3.505  13.627 -0.4498  0.0916 -0.3143
 5673SOL    HW128481   2.842   3.599  13.610  2.2375 -0.1688 -0.8575
 5673SOL    HW228482   2.872   3.469  13.545 -2.2159  0.9110 -1.4426
 5674SOL     OW28483   2.976   1.359  11.752  0.7799  0.1603 -0.6430
 5674SOL    HW128484   2.912   1.294  11.780  0.1468  1.1377  0.1858
 5674SOL    HW228485   3.056   1.313  11.779 -1.5818 -2.2768  2.1619
 5675SOL     OW28486   4.345   3.653   8.561 -0.5233  0.2171 -0.4881
 5675SOL    HW128487   4.328   3.667   8.468  0.8857 -1.7239 -1.0300
 5675SOL    HW228488   4.334   3.558   8.568  4.0319 -0.3305 -0.8827
 5676SOL     OW28489   0.373   0.746  17.332 -0.2038  0.2482  0.0045
 5676SOL    HW128490   0.416   0.796  17.402 -3.5732 -0.9513  2.9152
 5676SOL    HW228491   0.444   0.732  17.270 -0.0472  2.5017 -0.3309
 5677SOL     OW28492   2.902   1.978   1.729  0.3636 -0.1075 -0.0739
 5677SOL    HW128493   2.849   1.938   1.798  0.2590  0.2632  0.0613
 5677SOL    HW228494   2.951   1.902   1.697 -1.3034 -1.0046 -0.4510
 5678SOL     OW28495   2.333   4.139  10.991  0.9452  0.8570  0.0179
 5678SOL    HW128496   2.398   4.077  10.959  0.5508 -0.7083  2.2490
 5678SOL    HW228497   2.253   4.091  11.013  1.3678  0.3118  0.3390
 5679SOL     OW28498   2.333   2.369   6.140 -0.4936 -0.7281  0.1418
 5679SOL    HW128499   2.254   2.341   6.092 -1.4721  2.1890  0.0714
 5679SOL    HW228500   2.321   2.348   6.233 -1.2585  1.1986  0.4812
 5680SOL     OW28501   0.222   0.403   7.006 -0.5807  0.3988  0.1876
 5680SOL    HW128502   0.234   0.377   7.097 -0.2481 -0.2049 -0.0314
 5680SOL    HW228503   0.149   0.463   7.023 -0.9566 -0.1989  0.6681
 5681SOL     OW28504   3.074   0.147  11.428 -0.3214 -0.4511 -0.5238
 5681SOL    HW128505   3.085   0.095  11.508  2.3674 -2.2657 -2.0810
 5681SOL    HW228506   3.014   0.217  11.454  0.1190  0.0916 -0.9778
 5682SOL     OW28507   3.813   1.406   2.013  0.5727 -0.2017 -0.1379
 5682SOL    HW128508   3.899   1.370   1.995  0.6456 -0.0832 -0.0259
 5682SOL    HW228509   3.817   1.438   2.103 -0.0943  0.3153 -0.2902
 5683SOL     OW28510   2.264   1.598   4.578 -0.2658 -0.4896  0.7459
 5683SOL    HW128511   2.335   1.662   4.579 -0.4125 -0.3167  0.2088
 5683SOL    HW228512   2.289   1.539   4.506 -0.1346 -0.1643  0.5213
 5684SOL     OW28513   1.675   1.369   5.353 -0.1765 -0.5321 -0.1941
 5684SOL    HW128514   1.660   1.397   5.263 -3.5573 -0.9865  0.2532
 5684SOL    HW228515   1.662   1.275   5.348 -0.8637 -0.4781  0.6547
 5685SOL     OW28516   3.162   0.424   8.724 -0.2216 -0.4847 -0.4745
 5685SOL    HW128517   3.082   0.422   8.775 -0.4094  1.3366 -0.6826
 5685SOL    HW228518   3.159   0.333   8.694 -0.2457  0.0761 -2.1794
 5686SOL     OW28519   2.536   1.004  12.110 -0.1834  0.0520 -0.1600
 5686SOL    HW128520   2.533   1.086  12.159 -1.9312 -0.2373  0.1909
 5686SOL    HW228521   2.532   0.946  12.185  0.5720  0.4706  0.2003
 5687SOL     OW28522   2.460   2.085   3.640  0.4397 -0.0581 -0.0723
 5687SOL    HW128523   2.403   2.023   3.593  1.6043 -0.0318 -1.5066
 5687SOL    HW228524   2.543   2.075   3.594  0.1795 -2.0837 -0.1362
 5688SOL     OW28525   4.654   4.274  14.245 -0.2050  0.3538 -0.0793
 5688SOL    HW128526   4.566   4.311  14.256 -1.2662 -2.9169  2.4084
 5688SOL    HW228527   4.688   4.301  14.159 -0.5962 -2.3509 -1.0730
 5689SOL     OW28528   4.632   1.364   8.141 -0.0684 -0.9149  0.4378
 5689SOL    HW128529   4.644   1.422   8.215 -2.8275  0.9253 -0.5706
 5689SOL    HW228530   4.542   1.387   8.118 -0.3380 -4.4624 -2.1397
 5690SOL     OW28531   1.779   2.961   3.913 -0.2936  0.6662  0.2215
 5690SOL    HW128532   1.796   3.042   3.865 -1.8387  1.1475  0.4817
 5690SOL    HW228533   1.684   2.960   3.900 -0.4007  1.2150  0.9347
 5691SOL     OW28534   4.396   1.694   8.784  0.1172 -0.5582  0.0966
 5691SOL    HW128535   4.464   1.629   8.805  0.1706 -0.8956 -1.1294
 5691SOL    HW228536   4.449   1.763   8.744 -1.5367  0.0253 -1.0525
 5692SOL     OW28537   1.486   4.345  10.664  0.3023 -0.2590 -0.1948
 5692SOL    HW128538   1.556   4.410  10.656 -0.2364  0.3721  0.1802
 5692SOL    HW228539   1.531   4.266  10.636  0.5469  0.1675 -0.9967
 5693SOL     OW28540   2.982   3.667   0.983 -0.1782  0.4494  0.4164
 5693SOL    HW128541   2.937   3.622   1.055  0.6835 -0.6789  0.2535
 5693SOL    HW228542   3.031   3.722   1.044  0.8690 -1.6670  1.4930
 5694SOL     OW28543   2.827   4.546   6.433  0.6513  0.7676 -0.2986
 5694SOL    HW128544   2.799   4.466   6.478  2.4140 -0.4354 -1.3945
 5694SOL    HW228545   2.905   4.567   6.485  1.4321 -0.1899 -1.1019
 5695SOL     OW28546   3.790   3.728   4.153 -0.2336  0.5952 -0.3434
 5695SOL    HW128547   3.855   3.679   4.103 -0.3375  0.1381 -0.0239
 5695SOL    HW228548   3.848   3.763   4.221 -0.4073 -1.2534  0.7488
 5696SOL     OW28549   0.396   4.034   9.986 -0.3229 -0.0727 -0.1600
 5696SOL    HW128550   0.459   3.985  10.039 -0.6939 -0.1532  0.2070
 5696SOL    HW228551   0.329   3.966   9.994 -1.2804  0.8623 -0.2811
 5697SOL     OW28552   3.200   4.210   8.778  0.0057 -0.4420 -0.6938
 5697SOL    HW128553   3.133   4.247   8.836 -0.6186  0.5733 -2.0421
 5697SOL    HW228554   3.259   4.159   8.833  0.4046 -0.1036 -0.8087
 5698SOL     OW28555   2.545   1.072  16.697 -0.2269 -0.0960 -0.9050
 5698SOL    HW128556   2.594   1.056  16.777 -0.4728 -0.1845 -0.7708
 5698SOL    HW228557   2.459   1.077  16.739 -0.3878 -1.2555 -1.0926
 5699SOL     OW28558   1.763   2.091   0.430  0.3145 -0.0898 -0.5418
 5699SOL    HW128559   1.744   2.126   0.518 -0.2133  0.8725 -1.0336
 5699SOL    HW228560   1.679   2.060   0.395 -0.4501  1.0659  0.2430
 5700SOL     OW28561   1.816   0.444  15.914 -0.1115 -0.2620  0.4753
 5700SOL    HW128562   1.762   0.377  15.873 -1.5457  0.7581  0.6727
 5700SOL    HW228563   1.764   0.487  15.982  0.4160  0.9074  0.1427
 5701SOL     OW28564   3.365   1.213  16.049  0.4313 -0.8664 -0.1213
 5701SOL    HW128565   3.445   1.175  16.013  0.1639 -1.5300 -0.0306
 5701SOL    HW228566   3.309   1.166  15.986 -0.0071 -0.4692 -0.0308
 5702SOL     OW28567   3.199   4.587   6.196  0.4544  0.3446 -0.7706
 5702SOL    HW128568   3.289   4.568   6.169  1.2594  2.7903  0.2167
 5702SOL    HW228569   3.204   4.602   6.290  1.7548 -1.7060 -0.5032
 5703SOL     OW28570   2.596   0.714   6.621  0.0419 -0.2094 -0.2625
 5703SOL    HW128571   2.547   0.760   6.689 -0.5343 -0.4402 -0.5261
 5703SOL    HW228572   2.527   0.666   6.575  0.3433 -0.5943 -0.3094
 5704SOL     OW28573   4.021   3.683   9.112  0.4150  0.1518 -0.4021
 5704SOL    HW128574   4.002   3.600   9.068 -0.0280  0.5453 -0.9536
 5704SOL    HW228575   4.093   3.662   9.171  0.4732 -1.3737 -1.0362
 5705SOL     OW28576   1.595   1.402   9.392  0.8725 -0.0244  0.8014
 5705SOL    HW128577   1.662   1.452   9.344 -0.2964  1.9335  1.2283
 5705SOL    HW228578   1.536   1.367   9.325 -1.1930  0.2220  2.5200
 5706SOL     OW28579   1.746   2.001   7.550  0.6608  0.5127 -0.3009
 5706SOL    HW128580   1.765   2.002   7.456 -0.6707 -2.2406 -0.5833
 5706SOL    HW228581   1.834   1.989   7.585  0.5226 -0.0227 -0.1503
 5707SOL     OW28582   2.961   0.898   6.517 -0.5829  0.0010  0.2929
 5707SOL    HW128583   2.903   0.941   6.454  1.4783  1.6277 -0.4865
 5707SOL    HW228584   3.014   0.848   6.455 -0.6431  0.9599 -0.5277
 5708SOL     OW28585   0.992   2.304   4.122  0.1761 -0.3877  0.6313
 5708SOL    HW128586   0.994   2.291   4.027 -1.4745 -1.1015  0.6851
 5708SOL    HW228587   0.950   2.219   4.139 -0.3782 -0.4699 -1.1453
 5709SOL     OW28588   2.304   4.262  12.586 -0.2979  0.4316 -0.1012
 5709SOL    HW128589   2.384   4.210  12.580 -0.0412  0.7896  0.2371
 5709SOL    HW228590   2.235   4.197  12.598  2.1444 -2.0626  0.1139
 5710SOL     OW28591   2.638   0.185   4.330  0.5467  0.2236  0.4644
 5710SOL    HW128592   2.571   0.249   4.306 -1.1460 -1.2991  1.1553
 5710SOL    HW228593   2.687   0.241   4.390 -0.0378  1.3639 -0.1256
 5711SOL     OW28594   3.965   4.668   8.367  0.5050  0.3304 -0.0898
 5711SOL    HW128595   4.006   4.587   8.337 -0.2998 -0.3381  0.6402
 5711SOL    HW228596   4.045   4.715   8.391  1.4764 -0.7516 -1.2687
 5712SOL     OW28597   1.047   4.691  12.585 -0.2915 -0.7061 -0.3046
 5712SOL    HW128598   0.975   0.028  12.601  0.7570  0.4301  0.1299
 5712SOL    HW228599   1.010   4.630  12.521 -2.2496  0.3852 -0.1844
 5713SOL     OW28600   0.285   2.718  12.103  0.6758  0.1916 -0.0088
 5713SOL    HW128601   0.373   2.744  12.077 -0.1253  2.6578 -0.2756
 5713SOL    HW228602   0.246   2.700  12.017 -1.5948  2.0561  0.6144
 5714SOL     OW28603   4.104   2.442   3.421 -0.0564 -0.2119 -0.1551
 5714SOL    HW128604   4.165   2.375   3.452 -0.6940 -0.0057  1.5163
 5714SOL    HW228605   4.022   2.428   3.467 -0.8351 -0.9254 -1.7298
 5715SOL     OW28606   2.326   2.655  10.055  0.2062 -0.7504  0.0915
 5715SOL    HW128607   2.313   2.683   9.965  1.1855 -0.1655  0.1253
 5715SOL    HW228608   2.343   2.734  10.106 -0.0421  0.4834 -1.7457
 5716SOL     OW28609   2.264   3.894   6.465  0.4861  0.1613 -0.1688
 5716SOL    HW128610   2.291   3.966   6.408  1.1872 -0.8606 -1.1385
 5716SOL    HW228611   2.339   3.896   6.525 -1.3514 -0.6089  2.1483
 5717SOL     OW28612   4.431   3.850   8.730 -0.3305  0.1017 -0.0113
 5717SOL    HW128613   4.378   3.914   8.681 -1.4710 -2.1069 -1.6412
 5717SOL    HW228614   4.375   3.779   8.699 -1.6902  1.2267 -0.1698
 5718SOL     OW28615   0.189   3.318   2.118 -0.4140  0.5394 -0.2399
 5718SOL    HW128616   0.226   3.233   2.141  0.2531  0.8914  0.0160
 5718SOL    HW228617   0.196   3.318   2.023 -1.4567  1.3210 -0.3079
 5719SOL     OW28618   4.329   2.700   9.022 -0.4054 -0.5057 -0.4141
 5719SOL    HW128619   4.272   2.672   9.095  1.0589  2.3157  1.8386
 5719SOL    HW228620   4.312   2.637   8.952  1.0190 -0.9605 -0.3390
 5720SOL     OW28621   2.004   4.095  16.127 -0.3890  0.4406  0.1856
 5720SOL    HW128622   1.925   4.045  16.109  1.0322 -1.7205 -0.0908
 5720SOL    HW228623   1.975   4.168  16.072  1.1568  1.1346  0.3046
 5721SOL     OW28624   1.166   3.560   0.523 -0.1271  0.3344  0.0013
 5721SOL    HW128625   1.147   3.523   0.609 -1.5506  1.2601  0.0664
 5721SOL    HW228626   1.260   3.577   0.526 -0.6099  2.6876  1.3269
 5722SOL     OW28627   4.666   0.898   9.969 -0.3432 -0.6417 -0.2288
 5722SOL    HW128628   4.721   0.975   9.985 -0.9606 -0.2388 -0.0370
 5722SOL    HW228629   0.008   0.859   9.912  1.6727  0.9521  1.0009
 5723SOL     OW28630   0.168   1.072   7.808  0.3066  0.3824 -0.0931
 5723SOL    HW128631   0.092   1.123   7.837  0.2226  0.6632 -0.8146
 5723SOL    HW228632   0.173   1.010   7.881  0.5647  0.9827  0.3981
 5724SOL     OW28633   3.432   0.192  11.455  0.4391 -0.0440 -0.2529
 5724SOL    HW128634   3.463   0.122  11.399 -0.9768 -1.3364  0.5610
 5724SOL    HW228635   3.378   0.243  11.394  1.0291 -2.6020 -2.8894
 5725SOL     OW28636   1.613   2.949   4.636  0.0701 -0.0692 -0.1054
 5725SOL    HW128637   1.700   2.976   4.666 -0.0296  0.2073 -0.0692
 5725SOL    HW228638   1.562   3.014   4.685  0.5858  0.3396 -0.1135
 5726SOL     OW28639   1.536   1.509  17.145 -0.2490  0.1917 -0.5190
 5726SOL    HW128640   1.620   1.529  17.185  0.5946 -1.4901 -1.4358
 5726SOL    HW228641   1.475   1.551  17.206  1.0003  1.6311 -0.2533
 5727SOL     OW28642   2.646   3.092   4.705  0.3226  0.1741 -0.5227
 5727SOL    HW128643   2.572   3.095   4.766  1.1307  2.7516  0.2940
 5727SOL    HW228644   2.598   3.074   4.625  0.5586  1.6790 -0.9995
 5728SOL     OW28645   2.056   2.036   3.754 -0.2099 -0.0672  0.1437
 5728SOL    HW128646   2.044   1.945   3.781 -0.6487 -0.0361  0.0649
 5728SOL    HW228647   1.996   2.082   3.812  0.5906  1.0309  0.0840
 5729SOL     OW28648   0.578   3.791   9.326  0.3784  0.4060  0.0108
 5729SOL    HW128649   0.650   3.769   9.267 -1.4002 -0.8257 -1.7011
 5729SOL    HW228650   0.573   3.707   9.372  0.5886 -0.5322 -1.6971
 5730SOL     OW28651   1.281   0.293   3.162  0.1985  0.1907 -0.1969
 5730SOL    HW128652   1.222   0.224   3.132  1.1989 -1.0873  0.7974
 5730SOL    HW228653   1.271   0.278   3.256 -1.3538 -1.2915 -0.6129
 5731SOL     OW28654   1.096   1.667   5.270 -0.0001 -0.5617  0.2371
 5731SOL    HW128655   1.162   1.706   5.214  0.7148 -0.5898  1.0497
 5731SOL    HW228656   1.148   1.633   5.343 -1.3511 -1.9671  0.5461
 5732SOL     OW28657   3.603   0.213   3.470  0.2984 -0.2972  0.2368
 5732SOL    HW128658   3.552   0.276   3.521 -0.1789  0.3869 -1.0999
 5732SOL    HW228659   3.618   0.137   3.527 -1.6066 -0.6623  0.2391
 5733SOL     OW28660   2.785   0.851   4.161 -0.3472 -0.3843  0.5297
 5733SOL    HW128661   2.833   0.836   4.080 -1.2113  2.7788 -0.5895
 5733SOL    HW228662   2.827   0.794   4.225  0.5311 -0.1501  0.1685
 5734SOL     OW28663   2.782   0.593   5.342  0.4367  0.0907  0.2871
 5734SOL    HW128664   2.787   0.597   5.437 -1.7456  0.6025  0.3984
 5734SOL    HW228665   2.687   0.598   5.332  0.6441  1.6820 -0.9574
 5735SOL     OW28666   0.557   1.229   8.490 -0.0299 -0.0369  0.5500
 5735SOL    HW128667   0.564   1.137   8.515  1.1178 -0.7883 -2.5148
 5735SOL    HW228668   0.579   1.279   8.568 -2.0166  1.0156  0.4342
 5736SOL     OW28669   4.541   2.794   6.380 -0.3346  0.1109 -0.4508
 5736SOL    HW128670   4.560   2.887   6.366 -1.5525  0.3511 -0.5317
 5736SOL    HW228671   4.466   2.802   6.439  1.4986 -1.4334  2.0739
 5737SOL     OW28672   2.372   1.405   7.319  0.1991 -0.1088  0.2287
 5737SOL    HW128673   2.400   1.451   7.398 -1.4610  1.1447  0.0968
 5737SOL    HW228674   2.330   1.326   7.352 -0.0856 -0.2866 -0.5717
 5738SOL     OW28675   3.256   2.130   2.838 -0.1455  0.3212  0.6258
 5738SOL    HW128676   3.335   2.141   2.891  1.4960  0.9907 -1.9667
 5738SOL    HW228677   3.202   2.080   2.899 -2.2129 -0.0650 -1.5480
 5739SOL     OW28678   3.023   3.267   5.975  0.0080 -0.0360 -0.2871
 5739SOL    HW128679   3.033   3.299   5.886  0.3438  1.0062  0.1231
 5739SOL    HW228680   2.927   3.266   5.970  0.0021 -1.1979  0.0556
 5740SOL     OW28681   1.775   2.665  13.137 -0.7397  0.6841 -0.0443
 5740SOL    HW128682   1.683   2.691  13.136 -1.1752 -0.8258  0.8036
 5740SOL    HW228683   1.763   2.579  13.095 -1.9737  1.3461 -1.0646
 5741SOL     OW28684   3.997   0.940   7.210 -0.2133 -0.1820  0.4251
 5741SOL    HW128685   3.938   0.867   7.189  1.2031 -1.2414  0.1070
 5741SOL    HW228686   3.981   0.928   7.304 -1.3533 -0.3698  0.2167
 5742SOL     OW28687   1.205   0.640  13.888  0.6496 -0.0198 -0.2632
 5742SOL    HW128688   1.124   0.624  13.937  1.0162 -1.3216 -0.0749
 5742SOL    HW228689   1.239   0.717  13.933 -3.4113  1.9372 -0.5209
 5743SOL     OW28690   0.548   0.045  16.457  0.1435 -0.5086  0.3527
 5743SOL    HW128691   0.604   0.072  16.530 -0.7908  0.7692  0.5925
 5743SOL    HW228692   0.618   0.038  16.392 -2.4022  2.6963 -2.7613
 5744SOL     OW28693   0.683   0.927   5.850 -0.0083  0.0330  0.1747
 5744SOL    HW128694   0.640   0.846   5.822  0.5054 -0.7220  1.5437
 5744SOL    HW228695   0.745   0.894   5.915  0.3514  0.2486 -0.0622
 5745SOL     OW28696   4.151   4.567  16.282  1.0178 -0.2482  0.7639
 5745SOL    HW128697   4.205   4.566  16.361  0.2587 -1.6349  1.2537
 5745SOL    HW228698   4.184   4.650  16.247 -1.1563  0.3217  0.0490
 5746SOL     OW28699   1.244   3.614  11.619 -0.0986  0.0975  0.0612
 5746SOL    HW128700   1.319   3.667  11.593  1.8975 -1.5467  2.4709
 5746SOL    HW228701   1.247   3.545  11.553 -2.0994 -0.4081  0.5060
 5747SOL     OW28702   3.985   3.583   5.911 -0.8066  1.0295  0.4590
 5747SOL    HW128703   3.927   3.595   5.836 -1.9919 -0.7981  1.0601
 5747SOL    HW228704   3.936   3.615   5.987 -0.0601  0.9813  0.9621
 5748SOL     OW28705   2.749   2.332   2.956 -0.5544 -0.6810  0.2878
 5748SOL    HW128706   2.786   2.310   3.041  0.1215  1.5827  0.6058
 5748SOL    HW228707   2.659   2.360   2.971 -0.6188  0.3620 -1.9946
 5749SOL     OW28708   1.733   2.401  10.814 -0.5871  0.3055 -0.5993
 5749SOL    HW128709   1.709   2.315  10.848 -1.8446  1.1709  0.7194
 5749SOL    HW228710   1.676   2.404  10.736 -2.2963 -0.0443  0.6302
 5750SOL     OW28711   0.177   3.673   2.668 -0.0121 -0.0827 -0.0494
 5750SOL    HW128712   0.210   3.743   2.613  0.8521 -1.2847 -1.0644
 5750SOL    HW228713   0.232   3.678   2.746 -0.7806 -1.0282  0.5602
 5751SOL     OW28714   3.718   3.625  12.699  0.0699 -0.2807 -0.0015
 5751SOL    HW128715   3.812   3.637  12.712  0.0637 -2.4192  2.0048
 5751SOL    HW228716   3.715   3.619  12.603 -2.0775  0.7841 -0.0049
 5752SOL     OW28717   1.127   4.547   6.736  0.0281 -0.3824  0.0035
 5752SOL    HW128718   1.199   4.572   6.794  0.4709 -1.7167  0.0282
 5752SOL    HW228719   1.143   4.452   6.739  1.0484 -0.2155 -0.2498
 5753SOL     OW28720   2.870   3.868   7.079  0.2544  0.6195 -1.0885
 5753SOL    HW128721   2.806   3.848   7.011 -2.6060  2.8470  0.9172
 5753SOL    HW228722   2.863   3.794   7.139  0.0085  0.0131 -1.8563
 5754SOL     OW28723   2.520   3.186   3.615 -0.2578 -0.7084 -0.1722
 5754SOL    HW128724   2.554   3.275   3.619 -0.5823 -0.6660  2.0573
 5754SOL    HW228725   2.429   3.203   3.638  0.6151  1.1590  1.9774
 5755SOL     OW28726   2.003   1.607  17.141  0.3659 -0.3670 -0.5612
 5755SOL    HW128727   1.956   1.686  17.167  1.4596  0.4574 -1.1030
 5755SOL    HW228728   1.930   1.555  17.106 -1.9346  1.8191  1.0267
 5756SOL     OW28729   4.634   1.202   9.049 -0.2148 -0.0969 -0.1639
 5756SOL    HW128730   4.647   1.200   9.144  1.0007  0.0461 -0.3288
 5756SOL    HW228731   4.555   1.149   9.043  0.3762 -1.1967  1.7945
 5757SOL     OW28732   0.064   3.837  11.830 -0.4622 -0.6407 -0.1069
 5757SOL    HW128733   0.093   3.797  11.912 -0.9056 -0.9859 -0.1191
 5757SOL    HW228734   0.114   3.796  11.758 -1.0567 -2.1367  0.3207
 5758SOL     OW28735   3.004   3.382   4.775  0.1452 -0.8317 -0.4466
 5758SOL    HW128736   3.090   3.374   4.817  0.1328  0.5926 -0.1726
 5758SOL    HW228737   3.025   3.368   4.683 -0.7788 -1.5240 -0.5600
 5759SOL     OW28738   2.560   2.897   9.341  0.1608 -0.0553  0.0641
 5759SOL    HW128739   2.534   2.934   9.256 -1.7293  0.6215  0.9551
 5759SOL    HW228740   2.651   2.875   9.320 -0.0059 -1.8501  1.2604
 5760SOL     OW28741   0.764   0.595   5.866  0.3877  0.0855  0.6690
 5760SOL    HW128742   0.824   0.670   5.874 -0.2401  0.9182 -2.6462
 5760SOL    HW228743   0.685   0.620   5.914  0.8476  2.0648  0.4267
 5761SOL     OW28744   2.904   0.823   1.723  0.5267 -0.0707 -0.1923
 5761SOL    HW128745   2.815   0.837   1.755  0.6539 -1.7679  0.9041
 5761SOL    HW228746   2.932   0.761   1.790 -1.2284  0.8877  1.4152
 5762SOL     OW28747   0.735   1.528   3.416  0.7419 -0.0776  0.2657
 5762SOL    HW128748   0.816   1.479   3.404  0.7280 -0.0324 -0.0204
 5762SOL    HW228749   0.771   1.617   3.406  0.3287  0.1708  1.0274
 5763SOL     OW28750   3.169   2.983  16.740 -0.2325  0.0670  0.1687
 5763SOL    HW128751   3.119   3.059  16.712 -2.3284 -1.1859  0.5458
 5763SOL    HW228752   3.134   2.966  16.827 -0.4296  0.6490  0.2023
 5764SOL     OW28753   3.873   3.338   5.140  0.2824  0.0034  0.3359
 5764SOL    HW128754   3.957   3.379   5.119  1.2663 -2.4394 -0.4939
 5764SOL    HW228755   3.821   3.418   5.145 -0.0491 -0.2251  0.5237
 5765SOL     OW28756   3.953   4.437  10.471 -0.0008 -0.1001 -0.0249
 5765SOL    HW128757   4.023   4.435  10.405 -1.3338  3.2164 -1.5069
 5765SOL    HW228758   3.991   4.477  10.549  1.8165  0.8639 -1.3954
 5766SOL     OW28759   1.213   1.282   5.048 -0.0874  0.0770 -0.5866
 5766SOL    HW128760   1.297   1.237   5.051 -0.5435 -0.5397  3.0503
 5766SOL    HW228761   1.161   1.203   5.033 -0.0302  0.0817 -0.8211
 5767SOL     OW28762   1.995   3.847  11.994 -0.1967 -0.5604 -0.3842
 5767SOL    HW128763   2.025   3.797  11.918  1.1753 -1.1686  0.5665
 5767SOL    HW228764   1.905   3.812  11.994 -0.6003  0.4563 -1.9625
 5768SOL     OW28765   2.363   2.355   4.976  0.3166 -0.2270 -0.0265
 5768SOL    HW128766   2.447   2.312   4.959  0.7650  0.3472  0.7513
 5768SOL    HW228767   2.402   2.428   5.024  1.3268 -0.7033 -0.1203
 5769SOL     OW28768   0.443   3.837   6.261 -0.0465 -0.0787  0.5400
 5769SOL    HW128769   0.382   3.799   6.325 -1.0117 -1.8689 -1.4677
 5769SOL    HW228770   0.416   3.929   6.266 -0.9946 -0.3626  0.5549
 5770SOL     OW28771   2.592   3.701   6.380 -0.2600 -0.1424 -0.0334
 5770SOL    HW128772   2.668   3.757   6.395 -0.1300  0.0676 -1.5004
 5770SOL    HW228773   2.629   3.616   6.357  1.4643  1.6463 -3.8401
 5771SOL     OW28774   0.328   1.103  15.379  0.3593 -0.4346  0.1047
 5771SOL    HW128775   0.268   1.084  15.307 -0.6393  0.1620  0.7703
 5771SOL    HW228776   0.327   1.198  15.368 -1.9665 -0.7878 -2.6070
 5772SOL     OW28777   1.913   4.226   5.922  0.7110 -0.4846  0.3474
 5772SOL    HW128778   2.004   4.251   5.907  0.2558  0.4499 -0.8373
 5772SOL    HW228779   1.912   4.178   6.005 -1.0688 -1.0274  0.0077
 5773SOL     OW28780   3.734   1.900   7.164  0.6139 -0.1369 -0.1808
 5773SOL    HW128781   3.810   1.909   7.106 -0.2405 -1.7760 -1.5705
 5773SOL    HW228782   3.742   1.975   7.222  1.8066 -0.2142 -0.2523
 5774SOL     OW28783   0.977   4.334   9.689 -0.2956  0.1439  0.2963
 5774SOL    HW128784   0.902   4.383   9.724 -0.7136 -0.6062  0.4387
 5774SOL    HW228785   1.038   4.404   9.663  1.7297 -0.8937  2.2957
 5775SOL     OW28786   2.593   1.679  10.285  0.0962  0.3323 -0.1332
 5775SOL    HW128787   2.655   1.647  10.220 -1.0818  2.1329 -2.1463
 5775SOL    HW228788   2.549   1.744  10.231 -2.3261 -0.2316  1.1894
 5776SOL     OW28789   0.183   3.875   1.998 -0.2812 -0.0726 -0.1298
 5776SOL    HW128790   0.213   3.917   1.917 -0.7335  2.6160  1.0877
 5776SOL    HW228791   0.111   3.932   2.023 -1.2191 -1.1725 -0.3419
 5777SOL     OW28792   0.318   0.217  14.481 -0.3033  0.0455  0.0399
 5777SOL    HW128793   0.386   0.173  14.532  0.5155 -1.0233 -1.9819
 5777SOL    HW228794   0.362   0.238  14.399  0.3903 -4.6111 -0.7933
 5778SOL     OW28795   1.579   0.318   4.386  0.5599 -0.0488 -0.2609
 5778SOL    HW128796   1.528   0.395   4.363 -0.5268 -0.9315 -0.8245
 5778SOL    HW228797   1.613   0.341   4.472 -3.0845  4.6709 -0.1362
 5779SOL     OW28798   0.200   3.090   4.255 -0.2635 -0.2688 -0.3433
 5779SOL    HW128799   0.217   3.171   4.207 -1.8101  0.4492  0.3195
 5779SOL    HW228800   0.129   3.117   4.313 -2.7926 -0.2224 -3.4464
 5780SOL     OW28801   2.657   0.648  15.891  0.3639 -0.4285  0.1627
 5780SOL    HW128802   2.746   0.631  15.921  0.5306  1.7759  0.9165
 5780SOL    HW228803   2.671   0.738  15.862 -1.9312 -0.5051 -1.2043
 5781SOL     OW28804   4.369   2.649  16.046  0.0107  0.0808  0.0974
 5781SOL    HW128805   4.380   2.704  15.968  0.7569  0.1472  0.2543
 5781SOL    HW228806   4.326   2.710  16.106  1.2427  1.3513 -0.3092
 5782SOL     OW28807   3.624   4.689  17.340  0.1417 -0.0226 -0.2609
 5782SOL    HW128808   3.696   0.004  17.390  2.0927 -3.0852 -0.6800
 5782SOL    HW228809   3.663   4.671  17.254  0.1683 -1.3430  0.0218
 5783SOL     OW28810   2.162   4.042   2.612 -0.1454 -0.0410 -0.4794
 5783SOL    HW128811   2.148   4.035   2.518 -0.2945 -0.3299 -0.4359
 5783SOL    HW228812   2.129   4.131   2.628 -0.2981 -0.5069  1.7551
 5784SOL     OW28813   1.474   3.665   0.665  0.7406  0.0901  0.6143
 5784SOL    HW128814   1.479   3.692   0.573  0.9882 -1.7333  0.0784
 5784SOL    HW228815   1.554   3.701   0.702 -0.5496  1.1233  2.3739
 5785SOL     OW28816   4.149   3.346   2.541  0.0928  0.5809 -0.2711
 5785SOL    HW128817   4.232   3.374   2.501  1.0071 -3.1760 -0.9597
 5785SOL    HW228818   4.100   3.318   2.464 -0.2933 -1.5373  0.7554
 5786SOL     OW28819   2.018   3.873   5.858  0.2551 -0.3932  0.1915
 5786SOL    HW128820   1.941   3.822   5.884  0.3585 -0.7617 -0.2273
 5786SOL    HW228821   2.065   3.806   5.808 -0.3012  1.5689 -3.0073
 5787SOL     OW28822   2.766   3.209   3.392 -0.1611 -1.4621 -0.0013
 5787SOL    HW128823   2.679   3.187   3.424  0.6247 -1.2307  2.3323
 5787SOL    HW228824   2.754   3.303   3.382 -1.7020 -1.8639 -1.9138
 5788SOL     OW28825   0.450   1.091   9.976 -0.0137 -0.5263  0.4589
 5788SOL    HW128826   0.520   1.028   9.989 -0.8685 -1.7232 -0.6862
 5788SOL    HW228827   0.491   1.177   9.966  0.2580 -0.9796 -2.3956
 5789SOL     OW28828   2.884   2.764   3.821  0.4731  0.5873  0.3575
 5789SOL    HW128829   2.829   2.806   3.755  0.0578  0.9430  0.9301
 5789SOL    HW228830   2.822   2.747   3.892  0.7446 -1.2402  0.1448
 5790SOL     OW28831   1.887   0.295   5.499  0.1256  0.5026  0.1809
 5790SOL    HW128832   1.941   0.237   5.552  0.8532  2.0707  1.1528
 5790SOL    HW228833   1.945   0.317   5.426 -0.3240  1.7651  0.1943
 5791SOL     OW28834   4.241   1.138   5.083  0.4289  0.5489 -1.2672
 5791SOL    HW128835   4.245   1.061   5.140  2.9741  3.1163  1.9666
 5791SOL    HW228836   4.212   1.094   5.003  0.4241  0.2681 -1.1109
 5792SOL     OW28837   2.394   2.795   7.378  0.0767  0.8392 -0.2821
 5792SOL    HW128838   2.389   2.806   7.473 -1.9950 -0.1609 -0.2715
 5792SOL    HW228839   2.309   2.827   7.349  0.1847  1.1235 -0.2839
 5793SOL     OW28840   1.970   3.581  14.595  0.5181 -0.5852 -0.5784
 5793SOL    HW128841   2.054   3.625  14.612  1.9457 -3.1913 -0.8813
 5793SOL    HW228842   1.984   3.513  14.661 -0.1199 -0.6061 -0.4668
 5794SOL     OW28843   3.157   1.524   7.331 -0.1870 -0.1732  0.4517
 5794SOL    HW128844   3.115   1.447   7.293 -1.5683  2.6159 -3.6247
 5794SOL    HW228845   3.074   1.570   7.344  0.2418  0.2893  1.5958
 5795SOL     OW28846   4.611   1.912  12.743 -0.6296  0.0932  0.3823
 5795SOL    HW128847   4.617   1.886  12.652 -2.9726 -0.2532  0.3348
 5795SOL    HW228848   4.571   1.998  12.730 -0.7320  0.3368  2.2856
 5796SOL     OW28849   3.926   2.460  16.959 -0.5816 -0.4451  0.5441
 5796SOL    HW128850   3.967   2.448  16.873  0.2669 -1.5508  1.1099
 5796SOL    HW228851   3.897   2.551  16.947  0.8017  0.0104  0.6894
 5797SOL     OW28852   4.584   3.262   7.995  0.0377 -0.6048  0.1977
 5797SOL    HW128853   4.585   3.334   7.932 -1.3190 -1.5541 -0.8877
 5797SOL    HW228854   4.499   3.220   7.982 -0.4913  0.2666  0.8045
 5798SOL     OW28855   4.156   0.778   9.124  0.0046  0.2362  0.4741
 5798SOL    HW128856   4.069   0.820   9.122  0.4972  1.2113 -0.6061
 5798SOL    HW228857   4.183   0.796   9.214 -0.2283  0.4544  0.5001
 5799SOL     OW28858   3.967   4.521   6.164 -0.2730 -0.0177 -0.2013
 5799SOL    HW128859   3.918   4.553   6.088 -0.3934  2.3261  0.8358
 5799SOL    HW228860   3.928   4.434   6.176 -0.7915  0.4955  1.8675
 5800SOL     OW28861   2.240   1.057   5.986 -0.2441  0.2566 -0.7649
 5800SOL    HW128862   2.147   1.076   5.980  0.2695  2.7484 -0.9881
 5800SOL    HW228863   2.274   1.145   5.966  0.9344  0.1409  0.7365
 5801SOL     OW28864   1.049   1.920  11.184  0.1855  0.3996  0.0487
 5801SOL    HW128865   1.045   2.007  11.145  1.5335  0.5670  0.2724
 5801SOL    HW228866   0.959   1.887  11.179 -0.0851  1.2006 -0.3930
 5802SOL     OW28867   3.592   2.860   1.484  0.1770  0.3337  0.0971
 5802SOL    HW128868   3.571   2.829   1.396 -2.7255 -0.3150  1.0287
 5802SOL    HW228869   3.621   2.774   1.515  1.5555 -0.1639 -2.6378
 5803SOL     OW28870   2.702   2.144   5.648  0.4720 -0.1769 -1.1258
 5803SOL    HW128871   2.623   2.092   5.633  1.1180 -2.4389  3.1457
 5803SOL    HW228872   2.655   2.222   5.676  0.2468 -0.8647  0.4510
 5804SOL     OW28873   1.819   3.654   8.533 -0.3980  0.1197  0.8485
 5804SOL    HW128874   1.752   3.633   8.598 -0.2707 -1.4943  0.4509
 5804SOL    HW228875   1.818   3.750   8.537 -0.8030  0.1209  0.7676
 5805SOL     OW28876   3.331   1.071   3.401  0.0887 -0.4325  0.5854
 5805SOL    HW128877   3.348   1.052   3.493  0.6916 -0.7454  0.4048
 5805SOL    HW228878   3.384   1.001   3.364 -0.6169 -0.1083 -1.0519
 5806SOL     OW28879   4.264   0.581  12.346 -0.1598 -0.0649  0.3279
 5806SOL    HW128880   4.236   0.560  12.257 -0.5621 -0.1414  0.4724
 5806SOL    HW228881   4.194   0.641  12.372 -0.4241 -0.2475  0.0314
 5807SOL     OW28882   0.183   0.034   4.763 -0.7110 -0.2371 -0.3562
 5807SOL    HW128883   0.143   0.119   4.747  0.1013  0.2738  0.3705
 5807SOL    HW228884   0.162   4.716   4.679  0.1156 -2.0650  0.3336
 5808SOL     OW28885   4.109   2.093   6.607 -0.2722  0.4370 -0.2294
 5808SOL    HW128886   4.074   2.006   6.626 -0.0631  0.0784 -1.4671
 5808SOL    HW228887   4.051   2.144   6.662  1.5387  1.4760  0.7172
 5809SOL     OW28888   1.432   1.987   5.577 -0.3184  0.1890 -0.5300
 5809SOL    HW128889   1.411   1.895   5.591  1.8980  0.0143  1.7062
 5809SOL    HW228890   1.440   1.988   5.482  2.3647  0.0890 -0.2874
 5810SOL     OW28891   2.384   1.256  16.265 -0.2113 -0.8819 -0.1518
 5810SOL    HW128892   2.426   1.339  16.291 -0.5388 -0.4700 -0.9478
 5810SOL    HW228893   2.407   1.192  16.333  0.3962 -2.1508 -1.5510
 5811SOL     OW28894   1.114   0.699   5.872 -0.5082  0.2148  0.3060
 5811SOL    HW128895   1.198   0.739   5.848 -0.1310 -0.6223  0.2291
 5811SOL    HW228896   1.048   0.751   5.826 -2.1220 -0.0216  2.3282
 5812SOL     OW28897   1.683   2.167   1.549 -0.2745  0.1093  0.2397
 5812SOL    HW128898   1.681   2.103   1.478  0.2355  1.2104 -0.7859
 5812SOL    HW228899   1.591   2.167   1.575 -0.1983  1.2092  0.5186
 5813SOL     OW28900   4.604   1.251  10.060 -0.0462 -0.5052 -0.1206
 5813SOL    HW128901   4.674   1.263   9.995  1.4397 -0.3536  1.5136
 5813SOL    HW228902   4.565   1.335  10.084  1.1585  0.6468 -2.2129
 5814SOL     OW28903   4.346   1.361  13.909 -0.5190 -0.1434  0.3657
 5814SOL    HW128904   4.367   1.270  13.889 -1.5223 -0.6059  1.4852
 5814SOL    HW228905   4.281   1.345  13.977 -1.3729  0.2218 -0.3534
 5815SOL     OW28906   3.626   0.625   1.443  0.1196 -0.0683 -0.3614
 5815SOL    HW128907   3.611   0.699   1.383  0.8345 -3.2313 -4.4788
 5815SOL    HW228908   3.535   0.598   1.458  0.9211 -2.2466  0.5241
 5816SOL     OW28909   3.996   2.370   3.775 -0.7208 -0.3919 -0.0364
 5816SOL    HW128910   4.026   2.329   3.856 -0.5456  0.0053  0.0982
 5816SOL    HW228911   4.017   2.463   3.778 -1.4307 -0.2923  1.7523
 5817SOL     OW28912   2.072   2.197   1.941  0.1275 -0.5637 -0.0264
 5817SOL    HW128913   1.997   2.216   1.996 -2.1819 -0.9121 -3.0363
 5817SOL    HW228914   2.027   2.186   1.857 -2.4091 -1.3187  1.4528
 5818SOL     OW28915   0.506   2.546  12.215  0.5839 -0.1594  0.2764
 5818SOL    HW128916   0.434   2.506  12.165  0.0174  1.8907 -0.5924
 5818SOL    HW228917   0.457   2.580  12.290 -0.0592  0.8681 -0.5989
 5819SOL     OW28918   3.408   3.851   6.265 -0.2032  0.9925 -0.3142
 5819SOL    HW128919   3.372   3.799   6.194  1.6632 -2.0047  0.9345
 5819SOL    HW228920   3.335   3.864   6.325  0.5687  1.5064  0.5169
 5820SOL     OW28921   1.018   1.619   6.739 -0.1757 -0.0386  0.4219
 5820SOL    HW128922   1.092   1.613   6.678 -0.0338 -0.1663  0.6099
 5820SOL    HW228923   0.956   1.563   6.691  0.9922 -1.6392  0.7907
 5821SOL     OW28924   3.308   0.294  17.172 -0.2582  0.2166  0.2010
 5821SOL    HW128925   3.396   0.304  17.137 -0.7678 -1.5649 -1.5933
 5821SOL    HW228926   3.327   0.221  17.231 -0.0253 -0.1483 -0.3261
 5822SOL     OW28927   0.618   0.180   5.249  0.4368  0.7433  0.5780
 5822SOL    HW128928   0.578   0.265   5.268  1.2571  1.3845 -0.5247
 5822SOL    HW228929   0.697   0.209   5.203  0.0996  0.8737  0.0835
 5823SOL     OW28930   1.619   3.931   0.354 -0.0568 -0.0387  0.1291
 5823SOL    HW128931   1.602   4.020   0.322 -0.2730 -0.2577 -0.3654
 5823SOL    HW228932   1.582   3.938   0.442 -3.0388  1.3962 -1.2378
 5824SOL     OW28933   0.957   4.088   7.177  0.5097 -0.5207  0.6108
 5824SOL    HW128934   0.887   4.059   7.118  1.0604  0.7092 -0.6427
 5824SOL    HW228935   1.010   4.010   7.191  0.6960 -0.6026 -0.5225
 5825SOL     OW28936   1.547   0.810   8.556  0.0632  0.1014 -0.3055
 5825SOL    HW128937   1.607   0.795   8.629 -1.3467  0.6629  0.9863
 5825SOL    HW228938   1.476   0.855   8.603  0.2963  0.6578 -0.4954
 5826SOL     OW28939   3.613   1.076  15.982  0.0086  0.4955 -0.0262
 5826SOL    HW128940   3.600   0.986  15.951  1.9661  0.9037 -2.0540
 5826SOL    HW228941   3.697   1.060  16.026 -1.3774 -1.0806  2.0355
 5827SOL     OW28942   3.064   2.480   1.683 -0.0144 -0.6917 -0.5009
 5827SOL    HW128943   3.157   2.465   1.661 -0.0747 -1.3152 -0.3468
 5827SOL    HW228944   3.026   2.400   1.647 -0.8675 -0.9957  1.0693
 5828SOL     OW28945   0.872   3.647   6.769  0.5783 -0.6374 -0.1942
 5828SOL    HW128946   0.784   3.678   6.752  0.9144  0.6651  0.4086
 5828SOL    HW228947   0.891   3.704   6.844 -0.5789 -0.2687 -0.1837
 5829SOL     OW28948   3.416   3.339  11.453 -0.2740 -0.3490 -0.2574
 5829SOL    HW128949   3.454   3.251  11.444 -0.4837 -0.7677  2.8795
 5829SOL    HW228950   3.325   3.320  11.474 -0.5740  2.6902  1.0344
 5830SOL     OW28951   0.945   2.910  15.119 -0.2973  0.4873  0.0909
 5830SOL    HW128952   0.994   2.949  15.191  1.2865 -0.7958 -0.3085
 5830SOL    HW228953   1.010   2.907  15.049 -0.7103  3.9734 -0.4424
 5831SOL     OW28954   4.291   3.038  11.400 -0.1982 -0.0321  0.6330
 5831SOL    HW128955   4.377   3.074  11.423  0.1955 -0.2988 -0.4339
 5831SOL    HW228956   4.321   2.992  11.322  1.7902  0.8695  0.8559
 5832SOL     OW28957   1.848   1.509  10.144  0.1991  0.3649 -0.5139
 5832SOL    HW128958   1.895   1.440  10.099 -0.1768  0.7236 -1.4555
 5832SOL    HW228959   1.886   1.508  10.232  0.8454  0.6806 -0.7819
 5833SOL     OW28960   2.617   4.588  14.592 -0.2695  0.3110  0.1412
 5833SOL    HW128961   2.637   4.561  14.502  1.8612  1.1275  0.3634
 5833SOL    HW228962   2.705   4.605  14.625 -1.0547  0.7143  2.0114
 5834SOL     OW28963   1.632   2.819  10.386 -0.4367  0.3191  0.5123
 5834SOL    HW128964   1.711   2.765  10.378 -1.6623 -1.5368  0.8814
 5834SOL    HW228965   1.669   2.886  10.444  1.1831 -1.3299  1.3989
 5835SOL     OW28966   0.765   4.667   7.896  0.3505  0.2279 -0.0472
 5835SOL    HW128967   0.814   0.025   7.906 -0.8628  1.1299 -1.5394
 5835SOL    HW228968   0.703   4.689   7.827 -1.5397 -0.3912  1.4755
 5836SOL     OW28969   3.430   2.051   0.829 -0.3463  0.1418  0.2476
 5836SOL    HW128970   3.347   2.016   0.863  0.2979 -1.0122  0.6160
 5836SOL    HW228971   3.407   2.144   0.818 -0.7836  0.0951  0.7408
 5837SOL     OW28972   3.749   3.750   7.595 -0.5154  0.3398  0.1061
 5837SOL    HW128973   3.833   3.732   7.636  0.1698  1.9374 -0.6034
 5837SOL    HW228974   3.773   3.794   7.513 -1.5642 -0.6039 -0.7168
 5838SOL     OW28975   2.373   2.793  13.908  0.3612 -0.1438 -0.0520
 5838SOL    HW128976   2.460   2.832  13.905  0.5132 -0.5779 -1.3555
 5838SOL    HW228977   2.370   2.760  13.998 -0.9891  1.5405  0.5288
 5839SOL     OW28978   4.079   2.151  11.446  0.0525 -0.3483  0.0514
 5839SOL    HW128979   4.026   2.077  11.416  1.6238 -0.8043 -1.5474
 5839SOL    HW228980   4.056   2.150  11.540 -0.9963  1.0353 -0.1789
 5840SOL     OW28981   4.204   0.166   6.343  0.6096 -0.5155 -0.1414
 5840SOL    HW128982   4.175   0.204   6.426 -0.4791 -0.8999 -0.3428
 5840SOL    HW228983   4.144   0.200   6.277  1.6417  0.8098 -0.3792
 5841SOL     OW28984   1.708   1.515   1.656  0.1940 -0.1191 -0.0588
 5841SOL    HW128985   1.643   1.580   1.627  0.8781  1.7632  2.6219
 5841SOL    HW228986   1.714   1.465   1.575  0.6085 -0.9240  0.4697
 5842SOL     OW28987   2.142   0.472   6.038  0.2390  0.1820  0.2079
 5842SOL    HW128988   2.211   0.533   6.062 -1.9802  2.3011  1.1473
 5842SOL    HW228989   2.161   0.468   5.944 -0.5085 -0.2546  0.0712
 5843SOL     OW28990   2.891   3.489   5.816  0.1929  0.3604 -0.1781
 5843SOL    HW128991   2.819   3.543   5.785  0.9347  1.1933 -0.4482
 5843SOL    HW228992   2.883   3.412   5.759 -1.4269  0.5150 -0.1674
 5844SOL     OW28993   4.315   1.059   6.410 -0.4314  0.8445  0.0973
 5844SOL    HW128994   4.400   1.017   6.405 -0.0958  1.2396  2.6415
 5844SOL    HW228995   4.271   1.001   6.348  1.6405 -0.5084 -0.0752
 5845SOL     OW28996   1.530   3.410   6.431  0.3382  0.1427  0.1321
 5845SOL    HW128997   1.443   3.445   6.448  0.1963  0.2793 -0.8579
 5845SOL    HW228998   1.522   3.334   6.489  3.0494 -1.1414 -1.1801
 5846SOL     OW28999   0.124   1.721  13.981  0.0542 -0.1254 -0.0587
 5846SOL    HW129000   0.212   1.722  13.945 -0.2029 -2.0698 -0.7660
 5846SOL    HW229001   0.137   1.668  14.060  1.2585  1.4304  0.7933
 5847SOL     OW29002   3.656   2.113   3.462  0.2889 -0.4432 -0.1991
 5847SOL    HW129003   3.633   2.078   3.548 -0.5191 -2.1313 -1.1204
 5847SOL    HW229004   3.698   2.036   3.425 -0.1063 -1.2825  1.0973
 5848SOL     OW29005   3.241   0.641   5.464 -0.3926  0.7527  0.7370
 5848SOL    HW129006   3.262   0.557   5.423  1.3164  1.4654  0.1569
 5848SOL    HW229007   3.202   0.603   5.543  0.1262 -1.3108  0.0116
 5849SOL     OW29008   1.424   1.173   1.027 -0.3905  0.1474 -0.3352
 5849SOL    HW129009   1.517   1.164   1.044  0.1286  1.0751 -2.6496
 5849SOL    HW229010   1.428   1.229   0.950  0.8420 -0.8560 -0.9851
 5850SOL     OW29011   0.476   1.805   8.907 -0.3703  0.2701 -0.0387
 5850SOL    HW129012   0.389   1.808   8.869  0.2620 -2.0501 -1.6393
 5850SOL    HW229013   0.470   1.724   8.957 -1.6711 -0.7365 -1.8429
 5851SOL     OW29014   3.902   3.330   6.148 -0.3777  0.0581  0.0472
 5851SOL    HW129015   3.829   3.271   6.163 -0.5008  0.1439 -0.1987
 5851SOL    HW229016   3.880   3.386   6.073  2.2930 -0.8404 -1.4067
 5852SOL     OW29017   2.236   1.611  16.968  0.3497  0.1838 -0.0343
 5852SOL    HW129018   2.162   1.625  17.027 -1.1287 -2.6504 -1.2192
 5852SOL    HW229019   2.269   1.699  16.950  0.2029  0.6422  1.8775
 5853SOL     OW29020   1.551   4.293   3.817 -0.2890  0.0020  0.4306
 5853SOL    HW129021   1.646   4.283   3.811 -0.3919 -1.3973  1.0554
 5853SOL    HW229022   1.542   4.376   3.864 -0.8702  1.2323 -1.8666
 5854SOL     OW29023   0.398   0.399   8.239  0.1083 -0.1759  0.0008
 5854SOL    HW129024   0.417   0.466   8.305  0.6906 -0.5222  0.1885
 5854SOL    HW229025   0.405   0.321   8.294 -0.5251  0.9824  1.7170
 5855SOL     OW29026   4.522   4.640   6.232  0.2825 -0.2673 -0.0632
 5855SOL    HW129027   4.572   4.565   6.263  0.6913 -0.9158 -2.2477
 5855SOL    HW229028   4.437   4.601   6.212 -0.4075  1.8147 -1.2987
 5856SOL     OW29029   3.235   1.572   3.327  0.3424 -0.5400 -0.3399
 5856SOL    HW129030   3.191   1.554   3.410  0.9343  0.3150  0.1558
 5856SOL    HW229031   3.312   1.614   3.366 -0.3531  1.1444 -0.7986
 5857SOL     OW29032   0.781   0.675   9.519  0.1157  0.0182  0.9199
 5857SOL    HW129033   0.852   0.666   9.583  0.9973  0.5744  0.0214
 5857SOL    HW229034   0.709   0.633   9.565 -1.3233  1.0239 -0.4118
 5858SOL     OW29035   4.697   1.635   5.951  0.0389  0.2235 -0.1694
 5858SOL    HW129036   4.718   1.542   5.965 -0.6019  0.2222  0.7833
 5858SOL    HW229037   4.709   1.667   6.040 -0.3851 -1.8623  0.6291
 5859SOL     OW29038   2.371   4.365  13.961  0.8260 -0.2977 -0.0248
 5859SOL    HW129039   2.453   4.385  14.006  0.3941 -3.5536  2.1852
 5859SOL    HW229040   2.324   4.447  13.977  2.2330  0.0755  2.1520
 5860SOL     OW29041   0.881   1.120   2.481 -0.1259  0.1948 -0.4123
 5860SOL    HW129042   0.938   1.073   2.542 -0.3638  1.2591  0.6193
 5860SOL    HW229043   0.865   1.200   2.531 -2.9077 -1.8753  2.0252
 5861SOL     OW29044   4.158   1.763  13.653 -0.2292 -0.3808  0.2596
 5861SOL    HW129045   4.074   1.769  13.608 -0.4096  0.2639  0.6660
 5861SOL    HW229046   4.159   1.843  13.706  0.7577  0.9966 -1.8158
 5862SOL     OW29047   3.203   2.287  16.943  0.4835 -0.1099 -0.1523
 5862SOL    HW129048   3.112   2.318  16.949  0.2240 -1.0173  0.5176
 5862SOL    HW229049   3.208   2.232  16.865  1.1199 -0.3960  0.0885
 5863SOL     OW29050   3.943   0.382   7.925  0.5508 -0.5645 -0.0097
 5863SOL    HW129051   3.960   0.312   7.987  1.5857  0.1446  0.5090
 5863SOL    HW229052   3.989   0.342   7.851 -0.2983  0.5141 -1.1476
 5864SOL     OW29053   2.943   2.408   6.400  0.1187 -0.1571 -0.3861
 5864SOL    HW129054   2.909   2.366   6.479 -0.2431  1.5293  0.3497
 5864SOL    HW229055   2.930   2.347   6.327  0.1246 -1.6906  0.8909
 5865SOL     OW29056   2.596   4.327   8.407 -0.5331 -1.0005 -0.4636
 5865SOL    HW129057   2.559   4.294   8.489  0.0618 -1.5159 -0.4009
 5865SOL    HW229058   2.595   4.422   8.418  1.3204 -1.0750  0.3068
 5866SOL     OW29059   3.392   0.410  17.644 -0.0279  0.0546  0.2395
 5866SOL    HW129060   3.357   0.486  17.691  1.1635 -0.5218  2.0214
 5866SOL    HW229061   3.380   0.432  17.551 -2.5793 -1.3199  0.2225
 5867SOL     OW29062   4.682   2.434   2.698 -0.0614 -0.0352  0.3464
 5867SOL    HW129063   0.022   2.439   2.770 -2.0753  1.2200  2.0528
 5867SOL    HW229064   4.660   2.527   2.706  0.4488  0.1164  0.0095
 5868SOL     OW29065   3.120   1.012   4.652  0.0592 -0.1814 -0.5674
 5868SOL    HW129066   3.087   1.017   4.562 -0.8044 -0.7101 -0.2738
 5868SOL    HW229067   3.099   1.100   4.683 -2.1192  0.0482 -2.6783
 5869SOL     OW29068   2.623   4.468  14.029  0.3210  0.2504  0.9192
 5869SOL    HW129069   2.653   4.552  14.062 -0.3572  0.8381  0.0365
 5869SOL    HW229070   2.680   4.469  13.953 -2.0526 -0.1205 -0.8635
 5870SOL     OW29071   0.191   0.707   4.683 -0.4832  0.0206  0.1882
 5870SOL    HW129072   0.162   0.721   4.773 -1.2002  1.3435 -0.2366
 5870SOL    HW229073   0.115   0.671   4.637 -0.7620 -0.6562  1.1806
 5871SOL     OW29074   1.731   4.336   6.204 -0.2882  0.0511  0.1265
 5871SOL    HW129075   1.816   4.292   6.207 -0.0604  0.6226  2.0379
 5871SOL    HW229076   1.746   4.424   6.171  0.4734  0.7288  2.2331
 5872SOL     OW29077   4.153   1.923   0.805  0.2624 -0.1970  0.5676
 5872SOL    HW129078   4.167   1.934   0.899  1.6026 -0.3462  0.3914
 5872SOL    HW229079   4.127   1.831   0.803  1.8162 -0.6403  0.8450
 5873SOL     OW29080   2.385   4.077   6.303 -0.3406 -0.1115  0.3903
 5873SOL    HW129081   2.330   4.095   6.227  2.0426 -1.1755 -1.6249
 5873SOL    HW229082   2.447   4.023   6.253  1.6478  0.1270  2.6013
 5874SOL     OW29083   0.514   1.287   7.262  0.0629  0.5130  0.5214
 5874SOL    HW129084   0.500   1.359   7.323 -1.9451  0.4869  0.0848
 5874SOL    HW229085   0.522   1.204   7.308  0.2914  0.4475  0.3644
 5875SOL     OW29086   0.253   1.806   5.699  0.1209 -0.1630  0.8269
 5875SOL    HW129087   0.174   1.843   5.738  0.5062  0.2902  1.1752
 5875SOL    HW229088   0.319   1.822   5.767  0.9858 -1.8431  0.3896
 5876SOL     OW29089   4.162   2.763  15.854 -0.4830 -0.0821  0.0332
 5876SOL    HW129090   4.087   2.796  15.804  0.1386  0.0358 -0.8156
 5876SOL    HW229091   4.110   2.701  15.906  0.2027 -1.0345 -0.4138
 5877SOL     OW29092   0.503   0.707  13.905 -0.0683  0.0741  0.3161
 5877SOL    HW129093   0.416   0.689  13.869  0.8426 -0.7941 -1.4127
 5877SOL    HW229094   0.551   0.709  13.822 -1.6220 -1.4730 -0.6220
 5878SOL     OW29095   1.855   2.956   3.444  0.7038 -0.5007  0.2080
 5878SOL    HW129096   1.918   3.004   3.497  0.9021 -0.0073 -0.4747
 5878SOL    HW229097   1.790   2.927   3.508  0.1490  0.7446  0.2047
 5879SOL     OW29098   3.979   4.316   8.114 -0.0785  0.6153 -0.0030
 5879SOL    HW129099   4.005   4.224   8.106 -0.4235  0.6277 -1.2751
 5879SOL    HW229100   3.928   4.315   8.194  2.0715 -0.5179  1.3395
 5880SOL     OW29101   1.961   2.423   6.314  0.2375 -0.1577  0.1140
 5880SOL    HW129102   1.869   2.416   6.338  1.0929 -0.6516  3.3438
 5880SOL    HW229103   1.980   2.505   6.360 -0.3049  0.0660 -0.0639
 5881SOL     OW29104   1.995   0.586   8.347 -0.2026 -0.0264  0.0885
 5881SOL    HW129105   2.076   0.585   8.398  0.4970  3.4161 -0.9547
 5881SOL    HW229106   2.015   0.644   8.274  1.4662  1.7588  1.9700
 5882SOL     OW29107   1.418   0.918  17.599 -0.3312 -0.1977  0.2975
 5882SOL    HW129108   1.487   0.940  17.536 -0.9550  0.3332 -0.1880
 5882SOL    HW229109   1.430   0.990  17.661 -3.1994 -1.0835  1.8547
 5883SOL     OW29110   1.589   1.467   4.010  0.5729 -0.0434  0.3706
 5883SOL    HW129111   1.560   1.452   4.100 -1.8052  0.1987 -0.3630
 5883SOL    HW229112   1.607   1.374   3.994 -0.3352 -0.0003 -0.9129
 5884SOL     OW29113   1.975   4.568   2.982  0.4932  0.3300  0.8090
 5884SOL    HW129114   1.978   4.664   2.979 -1.6790  0.2952 -2.2817
 5884SOL    HW229115   2.053   4.553   3.035  1.4850 -1.8507 -1.2780
 5885SOL     OW29116   4.483   2.471   3.330 -0.5002  0.3374  0.4753
 5885SOL    HW129117   4.511   2.442   3.244  0.2532  0.5616  0.6469
 5885SOL    HW229118   4.454   2.560   3.310 -1.6952 -0.0119  0.6392
 5886SOL     OW29119   0.778   0.910   7.266 -0.1075 -0.6750  0.7760
 5886SOL    HW129120   0.704   0.862   7.228  0.4484 -1.3639  0.5797
 5886SOL    HW229121   0.740   0.936   7.350 -1.8953 -0.2614 -0.1506
 5887SOL     OW29122   1.408   0.804   3.066  0.1863 -0.1576 -0.4279
 5887SOL    HW129123   1.385   0.843   2.982 -1.9229  0.3583  0.3754
 5887SOL    HW229124   1.503   0.807   3.064  0.2891 -0.8506  2.7140
 5888SOL     OW29125   4.339   2.472   6.281 -0.4223 -0.3157  0.2001
 5888SOL    HW129126   4.281   2.464   6.357 -1.0703 -0.5608 -0.3216
 5888SOL    HW229127   4.278   2.473   6.207  0.4859 -0.6028 -0.5575
 5889SOL     OW29128   3.661   2.129   8.158 -0.5474  0.1835  0.5613
 5889SOL    HW129129   3.643   2.167   8.073  0.3778  0.4818  0.4977
 5889SOL    HW229130   3.579   2.080   8.166  0.8849 -2.1724  0.8750
 5890SOL     OW29131   0.067   2.018  16.640 -0.2173 -0.1366 -0.2590
 5890SOL    HW129132   4.714   1.971  16.606  1.1214 -0.3805 -2.8975
 5890SOL    HW229133   0.132   1.989  16.576  1.4073  2.5932  0.1789
 5891SOL     OW29134   1.447   1.063  15.730  0.5288  0.5094  0.2183
 5891SOL    HW129135   1.370   1.010  15.750  0.5947 -0.7273 -2.8958
 5891SOL    HW229136   1.466   1.053  15.637  1.3558  1.2558  0.3065
 5892SOL     OW29137   3.634   3.805   8.740 -0.0863  0.4880 -0.0623
 5892SOL    HW129138   3.585   3.726   8.719  0.3887 -0.5510  2.7922
 5892SOL    HW229139   3.667   3.791   8.829  1.6166 -0.7281 -0.8743
 5893SOL     OW29140   2.423   0.813   4.480 -0.2416 -0.0329  0.2813
 5893SOL    HW129141   2.503   0.763   4.463  0.8945  1.6006  0.7685
 5893SOL    HW229142   2.448   0.844   4.567 -0.2654 -0.0243  0.2848
 5894SOL     OW29143   4.252   3.526  11.664  0.0793 -0.4865  0.0698
 5894SOL    HW129144   4.220   3.523  11.754 -0.0369 -0.3301  0.0335
 5894SOL    HW229145   4.345   3.540  11.679  0.2626 -2.8597  1.0813
 5895SOL     OW29146   0.039   4.682   5.604 -0.5168 -0.2356  0.4662
 5895SOL    HW129147   4.715   4.723   5.676 -0.7364  0.0137  0.1857
 5895SOL    HW229148   0.117   4.652   5.649  0.0149 -0.2981 -0.5053
 5896SOL     OW29149   1.429   1.174   5.470 -0.2595 -0.2773  0.3715
 5896SOL    HW129150   1.389   1.088   5.484  0.2860 -1.1273 -3.3628
 5896SOL    HW229151   1.354   1.224   5.439 -0.2612  0.6122  1.7935
 5897SOL     OW29152   3.736   0.319   5.487  0.1128  0.2561  0.2628
 5897SOL    HW129153   3.799   0.387   5.463  0.0613 -0.0479 -0.7248
 5897SOL    HW229154   3.772   0.242   5.444  1.7601 -0.2134  2.4932
 5898SOL     OW29155   0.813   0.940  17.205  0.2133  0.3381 -0.3940
 5898SOL    HW129156   0.845   1.001  17.139 -0.4665  0.0620 -0.9762
 5898SOL    HW229157   0.894   0.895  17.230  0.0299  0.0595 -0.2959
 5899SOL     OW29158   2.411   3.184   6.707 -0.1417 -0.1269  1.1442
 5899SOL    HW129159   2.475   3.202   6.638  0.8535  0.2242  2.1676
 5899SOL    HW229160   2.419   3.267   6.754  0.5539  0.8419 -0.6796
 5900SOL     OW29161   2.266   2.686   1.425  0.3240  0.3700  0.3068
 5900SOL    HW129162   2.264   2.745   1.349 -1.5267 -0.4381 -0.2721
 5900SOL    HW229163   2.184   2.639   1.413 -0.0242  0.6430  1.6547
 5901SOL     OW29164   0.296   2.660   4.689 -0.0106 -0.3181  0.1036
 5901SOL    HW129165   0.320   2.751   4.675  1.0392 -0.8449 -1.4282
 5901SOL    HW229166   0.275   2.663   4.783  1.6860  0.0200  0.4676
 5902SOL     OW29167   0.084   0.307   2.157 -0.0337 -0.4225 -0.0667
 5902SOL    HW129168   0.102   0.302   2.251 -0.4142 -0.8496 -0.0170
 5902SOL    HW229169   0.076   0.402   2.150 -0.4027 -0.5283 -1.2276
 5903SOL     OW29170   4.434   4.547   3.838 -0.1535  0.3774  0.3537
 5903SOL    HW129171   4.464   4.507   3.756  1.1622 -0.8134  1.4089
 5903SOL    HW229172   4.517   4.585   3.867  0.6687  1.0713 -2.9101
 5904SOL     OW29173   1.337   0.936   7.151 -0.8202 -0.1722  0.1623
 5904SOL    HW129174   1.318   0.866   7.089  0.5774 -0.6537  0.2658
 5904SOL    HW229175   1.261   0.932   7.208  1.0527 -2.8507  2.4787
 5905SOL     OW29176   1.080   2.971  12.292  0.2215  0.0337 -0.5310
 5905SOL    HW129177   1.002   3.015  12.324 -0.0606  0.4024 -1.7087
 5905SOL    HW229178   1.144   3.041  12.302  0.4988 -0.6864  2.7093
 5906SOL     OW29179   4.628   1.786   3.952  0.1637 -0.2618 -0.5084
 5906SOL    HW129180   4.537   1.759   3.961 -0.0145 -0.2497 -2.2437
 5906SOL    HW229181   4.670   1.773   4.037  0.1095  1.0426 -0.2719
 5907SOL     OW29182   1.999   1.982   2.280  0.3975  0.2959 -0.3177
 5907SOL    HW129183   1.930   1.999   2.216  0.5100 -0.2846 -0.5972
 5907SOL    HW229184   1.972   2.047   2.344 -1.5406 -1.0428  0.2243
 5908SOL     OW29185   3.986   2.940   8.959 -0.4676 -0.3215  0.4752
 5908SOL    HW129186   3.981   2.854   9.001  0.2040 -0.6871 -0.1876
 5908SOL    HW229187   3.916   2.929   8.894  0.5439  2.0409 -0.9877
 5909SOL     OW29188   2.595   1.047   2.211  0.3979 -0.1296  0.2661
 5909SOL    HW129189   2.581   1.141   2.202 -1.9482 -0.4376  0.6816
 5909SOL    HW229190   2.504   1.016   2.209  0.0068  0.9714  1.1094
 5910SOL     OW29191   2.717   0.166   9.595 -0.7801 -0.5898 -0.1637
 5910SOL    HW129192   2.744   0.123   9.514  1.3197  3.2688 -1.4885
 5910SOL    HW229193   2.668   0.092   9.630 -0.6627 -1.1254 -1.1281
 5911SOL     OW29194   2.599   4.296   4.269  0.2048 -0.0696  0.0895
 5911SOL    HW129195   2.626   4.213   4.306 -0.4502 -0.8849 -1.2628
 5911SOL    HW229196   2.617   4.289   4.175  1.7885 -2.7432  0.6145
 5912SOL     OW29197   1.006   4.002  16.246 -0.3328  0.0122  0.5448
 5912SOL    HW129198   1.080   4.061  16.258  0.0764  0.0846 -2.3536
 5912SOL    HW229199   1.011   3.984  16.152 -1.1137 -1.6823  0.8243
 5913SOL     OW29200   4.163   3.395   5.786  0.1286 -0.4486  0.0566
 5913SOL    HW129201   4.126   3.459   5.848  0.4436  0.8838 -1.1218
 5913SOL    HW229202   4.138   3.317   5.836  0.2971  0.2841  1.2866
 5914SOL     OW29203   1.891   2.857   5.253 -0.4012 -0.4218 -0.1679
 5914SOL    HW129204   1.899   2.951   5.237 -1.0314  0.1931  3.0374
 5914SOL    HW229205   1.984   2.836   5.252 -0.6441 -1.5642  0.2128
 5915SOL     OW29206   1.362   0.080   9.468 -0.6724  0.0149 -0.2159
 5915SOL    HW129207   1.364   0.091   9.563  0.3679  0.3720 -0.2826
 5915SOL    HW229208   1.283   0.026   9.462  1.4462 -2.9908 -1.0707
 5916SOL     OW29209   3.499   0.089  12.876  0.2909 -0.6103  0.0776
 5916SOL    HW129210   3.502   0.184  12.864  2.2840 -0.4328  2.0021
 5916SOL    HW229211   3.494   0.089  12.972 -0.1134 -1.5911  0.0594
 5917SOL     OW29212   2.664   4.314   2.402 -0.6779  0.0073 -0.4141
 5917SOL    HW129213   2.681   4.387   2.343  1.3068 -0.1203  0.0254
 5917SOL    HW229214   2.576   4.335   2.435  0.0153  1.7150  0.3311
 5918SOL     OW29215   3.902   1.222   9.988 -0.4111 -0.0358  0.5753
 5918SOL    HW129216   3.888   1.264  10.073 -0.3230  0.9572  0.1003
 5918SOL    HW229217   3.930   1.133  10.009 -2.4037 -1.0276 -1.0394
 5919SOL     OW29218   0.412   2.959  13.474 -0.4551  0.0571  0.0253
 5919SOL    HW129219   0.353   2.980  13.546 -1.7936  0.2681 -1.1455
 5919SOL    HW229220   0.349   2.954  13.402  0.1502 -2.4406 -0.3321
 5920SOL     OW29221   0.754   4.071   0.789  0.5376  0.2026  0.0883
 5920SOL    HW129222   0.843   4.037   0.801  0.4821  0.3250  0.8353
 5920SOL    HW229223   0.711   4.043   0.870  0.9752  2.5610  1.1345
 5921SOL     OW29224   1.552   1.347  16.568 -0.2496 -0.3454 -0.3309
 5921SOL    HW129225   1.616   1.278  16.551 -0.8187 -0.3699 -2.4220
 5921SOL    HW229226   1.464   1.309  16.560 -1.7618  2.7058  1.7960
 5922SOL     OW29227   2.555   1.570   2.059 -0.4183 -0.0798  0.1435
 5922SOL    HW129228   2.593   1.658   2.056 -0.4336 -0.0844 -0.1383
 5922SOL    HW229229   2.481   1.575   1.998  0.5691  2.4566 -0.8431
 5923SOL     OW29230   3.043   2.786   1.658 -0.3487  0.1219 -0.0440
 5923SOL    HW129231   2.986   2.713   1.634 -1.0064  1.1897 -1.7073
 5923SOL    HW229232   3.110   2.768   1.592  0.3158 -1.5115  1.0652
 5924SOL     OW29233   0.001   1.014   6.856  0.3292 -0.2144 -0.0336
 5924SOL    HW129234   4.709   1.058   6.773 -0.3908  0.8503  0.6581
 5924SOL    HW229235   0.094   1.020   6.878  1.1693 -2.8951 -2.8403
 5925SOL     OW29236   1.313   3.077  17.462  0.3672 -0.1058  0.8385
 5925SOL    HW129237   1.367   2.999  17.468 -1.4360 -1.3352  1.0656
 5925SOL    HW229238   1.356   3.137  17.401  0.5674  1.6034  2.6391
 5926SOL     OW29239   4.557   1.136   7.359  0.2784 -0.0832 -0.3234
 5926SOL    HW129240   4.646   1.108   7.338  1.4860  1.7246  2.3481
 5926SOL    HW229241   4.498   1.064   7.336 -0.9587  0.3593  1.4458
 5927SOL     OW29242   4.288   4.057   6.676  0.0884 -0.4307 -0.4581
 5927SOL    HW129243   4.229   4.078   6.604  0.4832  1.7953 -0.1305
 5927SOL    HW229244   4.216   4.025   6.730  1.5944  1.2999  2.5835
 5928SOL     OW29245   4.252   0.773  12.665  0.1117 -0.2893  0.4463
 5928SOL    HW129246   4.235   0.697  12.720  1.9306 -0.6596  0.5149
 5928SOL    HW229247   4.317   0.747  12.601 -0.1215 -2.1269  0.9639
 5929SOL     OW29248   3.893   2.821   8.747  0.3206  0.0657  0.0921
 5929SOL    HW129249   3.963   2.800   8.685  0.3475 -0.6833  0.3769
 5929SOL    HW229250   3.819   2.789   8.696  2.1011 -1.7594 -1.3534
 5930SOL     OW29251   1.853   2.104  16.800 -0.3554 -0.5520 -0.0275
 5930SOL    HW129252   1.771   2.108  16.750 -1.1590 -2.0057  1.1922
 5930SOL    HW229253   1.868   2.199  16.798  0.9136 -0.7753 -2.1954
 5931SOL     OW29254   0.914   0.766  11.233 -0.0640  0.2492  0.1658
 5931SOL    HW129255   0.877   0.843  11.276 -0.6633  0.1164 -0.1146
 5931SOL    HW229256   0.902   0.801  11.144 -0.9879 -3.4772 -1.1749
 5932SOL     OW29257   4.407   3.935   3.292  0.3029  0.4332  0.2809
 5932SOL    HW129258   4.368   3.929   3.205  0.6284  0.9761  0.0955
 5932SOL    HW229259   4.491   3.897   3.265 -0.1211 -1.5719  1.7727
 5933SOL     OW29260   1.757   1.727  14.848 -0.5447  0.4799 -0.0142
 5933SOL    HW129261   1.759   1.645  14.799 -0.4601 -0.2719  1.2323
 5933SOL    HW229262   1.821   1.779  14.800  0.2474  0.3326  0.8911
 5934SOL     OW29263   4.337   0.617   3.733 -0.5059 -0.0716  0.5088
 5934SOL    HW129264   4.338   0.673   3.811 -0.7301 -0.5017  0.8230
 5934SOL    HW229265   4.404   0.667   3.686 -0.4437 -0.7151 -0.0999
 5935SOL     OW29266   4.467   4.675   7.934 -0.0619  0.0684 -0.7639
 5935SOL    HW129267   4.509   0.025   7.889 -0.2333  0.7387  0.1668
 5935SOL    HW229268   4.513   4.664   8.017  0.2751 -0.6078 -1.0415
 5936SOL     OW29269   1.480   1.033   5.942 -0.0343 -0.3020 -0.3029
 5936SOL    HW129270   1.459   1.121   5.910  0.0698 -0.9584 -2.1979
 5936SOL    HW229271   1.448   0.973   5.875  1.2319 -1.4956  0.1550
 5937SOL     OW29272   0.897   1.049   4.488 -0.6630  0.0466 -0.2507
 5937SOL    HW129273   0.842   1.051   4.410  1.1145  4.3113 -1.4096
 5937SOL    HW229274   0.832   1.000   4.538 -2.0538  1.9604 -0.1831
 5938SOL     OW29275   0.427   3.408  14.637 -0.0835  0.2004 -0.5787
 5938SOL    HW129276   0.505   3.430  14.586  0.2130 -0.8482 -0.5803
 5938SOL    HW229277   0.406   3.500  14.655  0.1187  0.1148  0.0944
 5939SOL     OW29278   2.128   2.994  16.669 -0.1677 -0.3440 -0.7483
 5939SOL    HW129279   2.163   2.951  16.747 -1.9615 -0.9700 -0.2941
 5939SOL    HW229280   2.191   3.065  16.654  2.1142 -2.0056  0.9807
 5940SOL     OW29281   4.321   3.795  14.212  0.1525 -0.2204  0.4902
 5940SOL    HW129282   4.374   3.870  14.184 -0.9628  0.2973 -0.2051
 5940SOL    HW229283   4.387   3.728  14.195 -0.6871  0.0418 -3.6787
 5941SOL     OW29284   0.468   1.101   3.649  0.3796 -0.4583 -0.4303
 5941SOL    HW129285   0.403   1.163   3.617  0.5240 -1.2434 -2.2057
 5941SOL    HW229286   0.426   1.027   3.693 -1.2012  0.1766 -0.8888
 5942SOL     OW29287   2.295   4.376   6.158  0.7219 -0.7242 -0.2653
 5942SOL    HW129288   2.358   4.325   6.209 -0.7663  0.1834  2.5101
 5942SOL    HW229289   2.257   4.444   6.213  3.6586  0.8450 -0.1917
 5943SOL     OW29290   1.246   1.800  17.667 -0.0362 -0.8043 -0.3228
 5943SOL    HW129291   1.273   1.717  17.628 -2.0266 -1.8049  0.4114
 5943SOL    HW229292   1.324   1.853  17.653  0.2751 -1.2749 -0.3627
 5944SOL     OW29293   3.189   3.676   2.648  0.1551  0.0464  0.0382
 5944SOL    HW129294   3.254   3.627   2.697 -0.4152  2.2852  2.9881
 5944SOL    HW229295   3.177   3.756   2.699 -2.4325  0.0650 -0.6203
 5945SOL     OW29296   0.534   0.465  12.532  0.1253  0.3962 -0.3787
 5945SOL    HW129297   0.484   0.395  12.491 -0.2482 -1.3380  3.0549
 5945SOL    HW229298   0.624   0.443  12.510  0.0155 -1.9515  1.5554
 5946SOL     OW29299   0.343   2.817  17.656 -0.2633  0.0154  0.1191
 5946SOL    HW129300   0.329   2.722  17.656  1.7795 -0.2904 -1.1633
 5946SOL    HW229301   0.430   2.836  17.690  0.2072  0.5180 -1.3651
 5947SOL     OW29302   2.181   3.666   5.747  0.0301 -0.5498  0.0358
 5947SOL    HW129303   2.120   3.599   5.777  0.9206 -1.1761  0.4743
 5947SOL    HW229304   2.250   3.646   5.811 -0.5502  1.0860  1.1805
 5948SOL     OW29305   1.781   0.083   2.915  0.0707 -0.0644 -0.1619
 5948SOL    HW129306   1.713   0.131   2.961  0.7024 -0.4341  1.1696
 5948SOL    HW229307   1.748   4.717   2.925 -4.8662  1.4491 -2.7013
 5949SOL     OW29308   2.015   1.735   7.499 -0.2715  0.2275 -0.4068
 5949SOL    HW129309   2.065   1.800   7.449  2.3537 -1.6075 -0.1465
 5949SOL    HW229310   2.072   1.658   7.505 -0.8465 -0.0077  1.9037
 5950SOL     OW29311   0.995   4.485   3.328 -0.4747 -0.2007  0.1031
 5950SOL    HW129312   1.088   4.495   3.351 -0.8037  2.7326  0.1488
 5950SOL    HW229313   0.993   4.441   3.243  0.3313 -2.4807  1.2777
 5951SOL     OW29314   4.499   0.803   3.299  0.2283  0.1847  0.5984
 5951SOL    HW129315   4.587   0.779   3.270  0.8254  3.2482 -0.1479
 5951SOL    HW229316   4.466   0.851   3.223  0.7556 -0.3431  0.0375
 5952SOL     OW29317   0.680   1.784   9.165 -0.1132  0.4484  0.2691
 5952SOL    HW129318   0.754   1.780   9.105  0.8553  2.2131  1.3486
 5952SOL    HW229319   0.637   1.866   9.139  1.0170  0.5866 -1.1301
 5953SOL     OW29320   0.520   1.087   9.547  0.4470 -0.6039 -0.1114
 5953SOL    HW129321   0.510   1.090   9.642 -3.1306 -1.8976 -0.4384
 5953SOL    HW229322   0.527   1.180   9.527 -1.9039 -0.3652  0.1391
 5954SOL     OW29323   3.317   3.374   5.856  0.4974 -0.2245  0.3362
 5954SOL    HW129324   3.382   3.397   5.789 -0.9128 -0.3696 -1.0913
 5954SOL    HW229325   3.303   3.453   5.909  0.0838  0.4593 -0.7870
 5955SOL     OW29326   1.510   4.634   6.359  0.4304 -0.4534  0.3282
 5955SOL    HW129327   1.471   4.578   6.426 -0.5562 -0.3663 -0.1731
 5955SOL    HW229328   1.567   4.685   6.416  0.5654 -0.3619  0.1101
 5956SOL     OW29329   2.431   0.149   3.734  0.0927 -0.5746 -0.6403
 5956SOL    HW129330   2.510   0.193   3.701  0.8535 -0.7914  0.9006
 5956SOL    HW229331   2.454   0.083   3.799  2.5463  2.0368  1.1514
 5957SOL     OW29332   1.621   1.111  16.833 -0.6769  0.0164 -0.0194
 5957SOL    HW129333   1.546   1.066  16.793  1.0760 -1.0241 -2.1450
 5957SOL    HW229334   1.574   1.186  16.869  3.2793  2.3292  0.3041
 5958SOL     OW29335   0.433   4.259  16.284  0.1370 -0.1860  0.0032
 5958SOL    HW129336   0.484   4.338  16.268 -0.1403  0.1364  0.7123
 5958SOL    HW229337   0.412   4.247  16.376 -0.6190 -1.6725 -0.3609
 5959SOL     OW29338   4.167   3.665   1.527 -0.1443 -0.0322  0.3665
 5959SOL    HW129339   4.131   3.696   1.444  0.1421  2.3339  1.1271
 5959SOL    HW229340   4.211   3.585   1.498 -1.0762 -0.5412  0.3597
 5960SOL     OW29341   3.627   1.781  16.032  0.0774 -0.4111 -0.4969
 5960SOL    HW129342   3.668   1.701  16.001 -2.0087 -0.6522 -2.6158
 5960SOL    HW229343   3.680   1.849  15.989 -1.0617  1.2383  0.6750
 5961SOL     OW29344   0.266   0.713   8.860 -0.1326  0.5571  0.0411
 5961SOL    HW129345   0.208   0.655   8.811 -1.2630  1.1228  0.6962
 5961SOL    HW229346   0.209   0.781   8.896 -3.7013 -2.4308  0.0135
 5962SOL     OW29347   2.547   1.537   4.504  0.0957  0.0716  0.9083
 5962SOL    HW129348   2.619   1.502   4.453 -0.4468  1.3856 -0.7694
 5962SOL    HW229349   2.560   1.484   4.582  1.8229 -0.2747  0.3758
 5963SOL     OW29350   0.017   2.258   3.889  0.0879  0.5670  0.3993
 5963SOL    HW129351   0.033   2.318   3.962  0.1122 -0.6310  1.3749
 5963SOL    HW229352   4.658   2.216   3.913  0.1911  0.6432  0.8835
 5964SOL     OW29353   2.745   4.505   5.958 -0.2933  0.2703 -0.5171
 5964SOL    HW129354   2.726   4.523   6.051 -0.4113 -0.3667 -0.4206
 5964SOL    HW229355   2.819   4.445   5.961 -0.6551 -0.0559  1.8314
 5965SOL     OW29356   2.840   1.856   1.434 -0.2766  0.6159 -0.0181
 5965SOL    HW129357   2.929   1.855   1.470 -0.4789 -1.0590  0.4257
 5965SOL    HW229358   2.833   1.950   1.419  1.2439  0.6593 -0.4456
 5966SOL     OW29359   2.476   3.210   7.549  0.1671  0.1961  0.0963
 5966SOL    HW129360   2.443   3.159   7.623 -0.7304  2.4197  1.2015
 5966SOL    HW229361   2.523   3.139   7.504  1.7859  0.2080  1.7583
 5967SOL     OW29362   0.866   3.713   8.896  0.4290 -0.0893  0.1775
 5967SOL    HW129363   0.908   3.747   8.817  1.1261  1.3942  1.2038
 5967SOL    HW229364   0.844   3.624   8.865  1.7053  0.1499 -1.4228
 5968SOL     OW29365   1.132   2.398  12.856 -0.6079  0.4814 -0.1436
 5968SOL    HW129366   1.185   2.473  12.880 -0.3675  0.8850 -1.9268
 5968SOL    HW229367   1.188   2.325  12.884 -0.5165 -0.0691 -1.7502
 5969SOL     OW29368   1.278   2.179  12.892  0.0165  0.2397 -0.6311
 5969SOL    HW129369   1.287   2.095  12.847  1.7684  0.8461 -1.4297
 5969SOL    HW229370   1.278   2.152  12.984 -1.2636  2.1423 -0.0673
 5970SOL     OW29371   1.003   2.352   6.272 -0.2928  0.4425  0.4456
 5970SOL    HW129372   0.916   2.313   6.276 -1.0845  2.5797  3.7015
 5970SOL    HW229373   1.028   2.353   6.179 -0.6109  0.7305  0.3641
 5971SOL     OW29374   1.636   2.683   8.251 -0.2887 -0.1625 -0.1122
 5971SOL    HW129375   1.660   2.761   8.200  0.2353  1.3700  2.4569
 5971SOL    HW229376   1.597   2.630   8.182 -0.6610  0.4974 -0.4102
 5972SOL     OW29377   0.387   4.191   7.111  0.1334 -0.4883 -0.2379
 5972SOL    HW129378   0.338   4.265   7.074  0.5625 -0.0605  0.0465
 5972SOL    HW229379   0.392   4.220   7.202  0.6856 -1.8013  0.1487
 5973SOL     OW29380   0.809   3.183  15.064 -0.3176  0.0834  0.4194
 5973SOL    HW129381   0.825   3.108  15.120  0.4873 -0.7678 -0.9357
 5973SOL    HW229382   0.873   3.248  15.092 -1.8023 -0.2399  4.4964
 5974SOL     OW29383   2.967   4.054   2.802  0.0368 -0.2653  0.1731
 5974SOL    HW129384   3.028   3.983   2.822 -2.1248 -2.5406 -1.3333
 5974SOL    HW229385   2.888   4.029   2.850 -0.3134 -1.1471 -0.8694
 5975SOL     OW29386   1.777   4.394   4.773 -0.7791 -0.0515  0.2061
 5975SOL    HW129387   1.711   4.460   4.753 -1.0034  0.5694  3.0917
 5975SOL    HW229388   1.716   4.321   4.763 -2.1797  1.4491 -2.4149
 5976SOL     OW29389   1.759   1.166   5.055 -0.4875 -0.4428  0.4679
 5976SOL    HW129390   1.696   1.161   5.126 -1.8835 -1.7773 -0.8716
 5976SOL    HW229391   1.779   1.075   5.034 -3.7217 -0.5024 -2.2246
 5977SOL     OW29392   2.366   4.066  10.683 -0.4271  0.2280  0.2758
 5977SOL    HW129393   2.381   4.158  10.659  0.5535  0.1068  0.4362
 5977SOL    HW229394   2.444   4.038  10.730 -0.9270  1.1872  1.6984
 5978SOL     OW29395   2.973   1.468   3.043  0.7181 -0.2884  0.1505
 5978SOL    HW129396   3.036   1.527   3.084  1.2042 -0.0761 -0.9024
 5978SOL    HW229397   3.031   1.405   2.999 -1.3610 -1.2137 -1.2665
 5979SOL     OW29398   3.545   2.786  12.774 -0.3399  0.1465 -0.3176
 5979SOL    HW129399   3.553   2.738  12.692 -1.0481 -0.5578  0.0287
 5979SOL    HW229400   3.633   2.782  12.811 -1.0195 -0.6472  1.1996
 5980SOL     OW29401   4.314   0.131  16.504 -0.0812 -0.4670 -0.0805
 5980SOL    HW129402   4.307   0.088  16.418  0.5084 -0.7887  0.0401
 5980SOL    HW229403   4.331   0.217  16.464 -1.5626  0.3305  1.0179
 5981SOL     OW29404   0.689   0.390  16.720  0.4142  0.1639  0.1317
 5981SOL    HW129405   0.720   0.478  16.697  1.0781 -0.2612 -0.6015
 5981SOL    HW229406   0.726   0.373  16.806  1.1583  0.5548 -0.1054
 5982SOL     OW29407   0.806   1.323   8.044 -0.2352 -0.0152 -0.3893
 5982SOL    HW129408   0.839   1.339   8.132  0.2382 -0.9956 -0.3909
 5982SOL    HW229409   0.761   1.402   8.015  1.7703  1.5644  0.8200
 5983SOL     OW29410   3.850   1.216   6.239  0.1325 -0.6417 -0.0345
 5983SOL    HW129411   3.848   1.242   6.331  1.2141  0.4690 -0.3176
 5983SOL    HW229412   3.787   1.145   6.249  1.2742 -1.9164 -1.8771
 5984SOL     OW29413   4.592   2.181   9.011  0.3050 -0.1809 -0.1323
 5984SOL    HW129414   4.531   2.176   9.084 -0.4564 -0.1045 -0.7590
 5984SOL    HW229415   4.602   2.274   8.991 -0.7379 -0.5481 -2.3426
 5985SOL     OW29416   3.235   2.186   9.400 -0.0631 -0.5536  0.3079
 5985SOL    HW129417   3.241   2.131   9.322  2.1111 -0.0633  0.1138
 5985SOL    HW229418   3.323   2.221   9.387  0.7131 -2.9748 -0.7645
 5986SOL     OW29419   0.020   0.762   3.221  0.5326 -0.0094 -0.5932
 5986SOL    HW129420   0.069   0.843   3.205 -1.6055  1.1358 -1.3448
 5986SOL    HW229421   0.041   0.708   3.145 -1.2836 -0.6061 -0.6716
 5987SOL     OW29422   1.482   0.848  13.671  0.2421 -0.6939 -0.7885
 5987SOL    HW129423   1.515   0.765  13.705 -0.3891 -0.4440  0.4315
 5987SOL    HW229424   1.529   0.848  13.588 -1.5602  0.7576 -1.7986
 5988SOL     OW29425   4.295   4.614  13.726  0.2482 -0.1963 -0.0319
 5988SOL    HW129426   4.260   4.642  13.641  1.7466 -1.1755 -0.9641
 5988SOL    HW229427   4.296   4.519  13.712  0.3570 -0.1094 -0.6011
 5989SOL     OW29428   3.881   1.855   6.645 -0.8350 -0.4272  0.4905
 5989SOL    HW129429   3.807   1.794   6.639  0.2823 -1.8338  0.9116
 5989SOL    HW229430   3.839   1.934   6.679  0.1698 -0.3887  1.6277
 5990SOL     OW29431   3.351   1.816   3.940  0.0559  0.5167 -0.1977
 5990SOL    HW129432   3.394   1.762   4.006  2.1253  0.1936 -1.8040
 5990SOL    HW229433   3.306   1.752   3.885 -0.8755  0.5255  0.5557
 5991SOL     OW29434   1.241   0.607  14.227  0.1975  0.3006 -0.4094
 5991SOL    HW129435   1.333   0.604  14.200  0.4928  1.5116  0.4906
 5991SOL    HW229436   1.208   0.527  14.185  0.2183  0.2824 -0.3911
 5992SOL     OW29437   0.128   0.184  11.502  0.0937 -0.4025  0.2590
 5992SOL    HW129438   0.222   0.195  11.517  0.1976 -0.8931 -0.0485
 5992SOL    HW229439   0.124   0.092  11.477 -0.4641  0.0996 -1.4605
 5993SOL     OW29440   4.537   2.442   8.912  0.0755  0.7159  0.2760
 5993SOL    HW129441   4.465   2.439   8.974 -0.2055 -0.5798 -0.1133
 5993SOL    HW229442   4.493   2.485   8.838  1.8108  2.1153  0.0450
 5994SOL     OW29443   2.488   2.124   6.129  0.1464  0.0704 -0.0681
 5994SOL    HW129444   2.424   2.063   6.167  0.3397 -0.7813 -1.1204
 5994SOL    HW229445   2.453   2.210   6.152 -0.6680 -0.2884  0.0470
 5995SOL     OW29446   0.921   4.307   6.791  0.1533 -0.2650  0.7289
 5995SOL    HW129447   0.896   4.214   6.787  0.8303 -0.4284  0.3017
 5995SOL    HW229448   0.912   4.319   6.696  0.7437 -1.6624  0.4989
 5996SOL     OW29449   0.435   1.221   2.740  0.5564  0.1587  0.0266
 5996SOL    HW129450   0.392   1.272   2.809  0.0706  0.2715 -0.3550
 5996SOL    HW229451   0.365   1.159   2.716  2.4639 -0.7306 -3.1323
 5997SOL     OW29452   4.526   1.365   2.884  0.8450  0.1527  0.2763
 5997SOL    HW129453   4.558   1.321   2.805 -1.5414 -2.4131  0.7387
 5997SOL    HW229454   4.438   1.388   2.854  2.0354  1.6773 -2.0391
 5998SOL     OW29455   2.402   0.485  11.006  0.0511  0.0842  0.3085
 5998SOL    HW129456   2.479   0.514  10.958 -0.5839  2.6786  0.8722
 5998SOL    HW229457   2.342   0.462  10.934 -2.0014  1.9010  1.4311
 5999SOL     OW29458   0.563   3.697  11.718 -0.6747 -0.2009  0.5103
 5999SOL    HW129459   0.613   3.774  11.690 -1.0835 -0.4201 -0.8185
 5999SOL    HW229460   0.504   3.667  11.649  0.4340 -1.2652  0.0260
 6000SOL     OW29461   4.610   4.033   5.141 -0.4578  0.3200  0.1232
 6000SOL    HW129462   4.627   4.023   5.047 -0.0144  0.3036  0.2017
 6000SOL    HW229463   4.530   3.983   5.151  0.8571 -1.6637  0.7643
 6001SOL     OW29464   4.096   3.849  13.265 -0.0795 -0.3241  0.1633
 6001SOL    HW129465   4.190   3.868  13.269 -0.4258  1.5181 -0.5618
 6001SOL    HW229466   4.074   3.841  13.172 -1.8505 -1.2066  0.6586
 6002SOL     OW29467   2.269   3.440   3.015 -0.1075 -0.8092 -0.0454
 6002SOL    HW129468   2.348   3.494   3.006  1.5297 -3.5757 -2.2180
 6002SOL    HW229469   2.208   3.482   2.955  2.1290  3.1240  0.4394
 6003SOL     OW29470   1.656   0.389   7.668 -0.3828 -0.1740  0.1001
 6003SOL    HW129471   1.613   0.311   7.703 -1.5947 -0.1806 -1.3981
 6003SOL    HW229472   1.602   0.410   7.591 -0.0329  2.9848  0.7345
 6004SOL     OW29473   4.110   3.884   8.606  0.3235  0.1711  0.5482
 6004SOL    HW129474   4.176   3.816   8.602 -2.3662 -2.4480  0.4031
 6004SOL    HW229475   4.120   3.913   8.697  2.4889  0.6396  0.1610
 6005SOL     OW29476   2.600   0.163  17.227  0.0639  0.1156  0.0946
 6005SOL    HW129477   2.535   0.233  17.226  1.4083  1.3824  1.2026
 6005SOL    HW229478   2.560   0.107  17.292 -3.0786  0.6058 -1.4140
 6006SOL     OW29479   1.154   0.952   3.982 -0.4123 -0.1844 -0.1607
 6006SOL    HW129480   1.095   0.932   3.910  1.1173 -0.2216 -1.4142
 6006SOL    HW229481   1.172   0.865   4.016 -0.3118 -0.2429 -0.3655
 6007SOL     OW29482   3.288   4.288  11.308  0.4662 -0.6126 -0.9136
 6007SOL    HW129483   3.239   4.346  11.367 -1.7796 -0.4224 -2.9688
 6007SOL    HW229484   3.297   4.216  11.370  0.8805  0.4869  0.2969
 6008SOL     OW29485   0.092   2.231   3.407  0.5833  0.0345  0.5731
 6008SOL    HW129486   0.065   2.227   3.499 -0.1929  2.0299  0.4564
 6008SOL    HW229487   0.173   2.181   3.403  0.2065 -0.6941  1.9532
 6009SOL     OW29488   1.432   3.825   6.970  0.1848  0.5264 -0.0433
 6009SOL    HW129489   1.374   3.801   7.042 -0.4618 -0.2812 -0.8376
 6009SOL    HW229490   1.462   3.912   6.996 -3.3141  1.6148  0.3366
 6010SOL     OW29491   0.380   4.105   6.239 -0.4932 -0.0385 -0.5032
 6010SOL    HW129492   0.404   4.193   6.268 -0.2743  0.3646 -1.9255
 6010SOL    HW229493   0.418   4.098   6.152  1.3200 -0.8759  0.3800
 6011SOL     OW29494   3.949   1.134  17.471 -0.1979  0.0457  0.8175
 6011SOL    HW129495   3.952   1.190  17.393 -1.4805 -2.1157 -0.7689
 6011SOL    HW229496   4.043   1.127  17.488 -0.1248 -2.9966 -0.7667
 6012SOL     OW29497   4.224   4.202   7.790 -0.6850 -0.0866  0.0868
 6012SOL    HW129498   4.205   4.296   7.801  0.7406  0.3461 -1.1801
 6012SOL    HW229499   4.298   4.206   7.850 -1.3238 -0.3849  0.8959
 6013SOL     OW29500   4.070   2.633  14.040 -0.0437  0.0940  0.2974
 6013SOL    HW129501   3.992   2.638  14.095  0.0765  0.9713  0.3934
 6013SOL    HW229502   4.044   2.692  13.969  1.2473 -0.7747 -0.9098
 6014SOL     OW29503   3.638   4.511  12.992  0.2579 -0.0920 -0.4869
 6014SOL    HW129504   3.576   4.477  12.927 -2.5484  1.0580  1.5862
 6014SOL    HW229505   3.598   4.475  13.071  0.2362 -0.0541 -0.4806
 6015SOL     OW29506   4.376   4.168  13.014 -0.3279  0.0405 -0.2532
 6015SOL    HW129507   4.290   4.126  13.008  0.2587 -1.2102  0.1301
 6015SOL    HW229508   4.433   4.098  12.981  0.2919  0.4351  0.0069
 6016SOL     OW29509   1.963   2.379   2.155  0.0758 -0.5284 -0.0689
 6016SOL    HW129510   1.968   2.437   2.079  1.2649  1.9499  1.8929
 6016SOL    HW229511   1.969   2.441   2.228 -1.7743  0.0531 -0.4156
 6017SOL     OW29512   0.064   2.663   4.247 -0.3444 -0.1568  0.0087
 6017SOL    HW129513   0.049   2.664   4.341  0.8071  1.7947  0.1694
 6017SOL    HW229514   0.152   2.625   4.245 -0.3359 -0.0992 -0.8051
 6018SOL     OW29515   1.114   2.012   6.357 -1.0188  0.2437 -0.0231
 6018SOL    HW129516   1.129   2.021   6.263  0.8239 -2.2185  0.0373
 6018SOL    HW229517   1.176   1.939   6.366 -1.3615 -0.1050 -0.5179
 6019SOL     OW29518   2.280   1.801   8.390  0.5391  0.0084  0.2895
 6019SOL    HW129519   2.268   1.883   8.438 -0.5847 -0.3320  0.5974
 6019SOL    HW229520   2.327   1.826   8.311 -0.1695  4.0515  1.1285
 6020SOL     OW29521   1.760   0.201   3.303  0.2728 -0.1202 -0.5294
 6020SOL    HW129522   1.819   0.126   3.309 -0.2428 -0.2821  2.3938
 6020SOL    HW229523   1.798   0.254   3.374 -2.4435 -0.5535  1.2519
 6021SOL     OW29524   0.116   2.896   7.537 -0.3967 -0.1187  0.3797
 6021SOL    HW129525   0.147   2.985   7.554  0.4950 -0.1030 -1.3501
 6021SOL    HW229526   0.175   2.841   7.590  0.5256  2.4807  2.0528
 6022SOL     OW29527   3.260   1.886  14.099 -0.2495 -0.6722 -0.3460
 6022SOL    HW129528   3.219   1.879  14.012 -2.7465  2.1391  0.6334
 6022SOL    HW229529   3.180   1.894  14.150  1.4509  1.2051  1.9807
 6023SOL     OW29530   0.306   1.228   1.296 -0.4846  0.3424  0.4414
 6023SOL    HW129531   0.229   1.284   1.284  1.7838  3.3688 -0.0802
 6023SOL    HW229532   0.378   1.291   1.305  0.2810 -0.3220 -1.1404
 6024SOL     OW29533   4.487   4.057   4.038  0.0787 -0.5716 -0.4439
 6024SOL    HW129534   4.459   4.112   3.965  1.0464  0.0802 -0.3341
 6024SOL    HW229535   4.408   4.008   4.061  1.2758 -2.3412 -0.0576
 6025SOL     OW29536   1.859   3.613   2.718  0.4657 -0.3472  0.2928
 6025SOL    HW129537   1.901   3.543   2.669 -2.9593 -1.3917 -1.0940
 6025SOL    HW229538   1.831   3.667   2.644  0.3606  0.1410  0.6842
 6026SOL     OW29539   0.363   0.227   1.786 -0.4277  0.1325 -0.6265
 6026SOL    HW129540   0.393   0.293   1.724  0.5940 -0.9949 -1.3168
 6026SOL    HW229541   0.375   0.141   1.748 -3.5527 -0.4165 -0.4033
 6027SOL     OW29542   3.005   0.166   8.391 -0.6889 -0.2235  0.2785
 6027SOL    HW129543   2.977   0.093   8.336  1.3055  0.3418 -1.4890
 6027SOL    HW229544   3.035   0.221   8.318  1.2587  1.1961  2.1523
 6028SOL     OW29545   2.306   3.299  11.689  0.0978  0.2089  0.0785
 6028SOL    HW129546   2.351   3.383  11.687 -0.1216  0.3661  2.0837
 6028SOL    HW229547   2.361   3.239  11.739 -0.4158  0.4140  0.8784
 6029SOL     OW29548   1.657   3.642  15.282 -0.2275 -0.2577 -0.1316
 6029SOL    HW129549   1.618   3.560  15.313  0.0132  0.3249  1.6762
 6029SOL    HW229550   1.579   3.695  15.300  0.7811  0.9435  0.6317
 6030SOL     OW29551   1.421   4.449   7.805 -0.6169  0.1661 -0.2787
 6030SOL    HW129552   1.423   4.545   7.799 -1.7968  0.1054 -1.6296
 6030SOL    HW229553   1.327   4.437   7.798 -0.6091 -0.9431  1.4912
 6031SOL     OW29554   0.965   3.403  14.334  0.0048 -0.1265  0.3167
 6031SOL    HW129555   0.931   3.453  14.260 -0.8790 -0.6709  0.3575
 6031SOL    HW229556   0.927   3.316  14.322  0.7282 -0.2835 -0.8270
 6032SOL     OW29557   0.393   4.020   4.132  0.9159  0.2741  0.3611
 6032SOL    HW129558   0.430   3.974   4.057 -0.9754 -0.6597  0.0051
 6032SOL    HW229559   0.447   3.991   4.206 -2.0140 -2.2578  1.4539
 6033SOL     OW29560   4.142   3.230   2.800  0.3527  0.1557  0.3087
 6033SOL    HW129561   4.136   3.259   2.709  2.1512 -0.4110  0.0011
 6033SOL    HW229562   4.048   3.231   2.818  0.5578 -0.9193  1.4407
 6034SOL     OW29563   0.902   2.024   3.744 -0.2462 -0.2959 -0.1368
 6034SOL    HW129564   0.900   1.958   3.675 -0.1012 -1.1385  0.6518
 6034SOL    HW229565   0.948   1.980   3.816 -3.2002 -2.3289  0.4957
 6035SOL     OW29566   2.225   2.368   0.950 -0.3174 -0.2391 -0.0110
 6035SOL    HW129567   2.194   2.447   0.994 -1.0342 -1.5570  1.8762
 6035SOL    HW229568   2.312   2.368   0.992 -0.1714  4.3493 -0.4020
 6036SOL     OW29569   3.121   3.898   6.935  0.1300  0.3458 -0.2141
 6036SOL    HW129570   3.029   3.893   6.958 -0.2873  2.0289 -1.4869
 6036SOL    HW229571   3.144   3.809   6.963  0.4821  1.3305  2.6286
 6037SOL     OW29572   2.246   1.456   1.856  0.5921  0.2921 -0.1611
 6037SOL    HW129573   2.191   1.467   1.778  3.3008 -1.2742 -2.2866
 6037SOL    HW229574   2.331   1.431   1.820 -0.8847 -1.7682 -2.2840
 6038SOL     OW29575   2.301   2.250   8.948  0.4144 -0.0899  0.0480
 6038SOL    HW129576   2.230   2.218   9.004 -1.0775  2.6011 -0.3253
 6038SOL    HW229577   2.358   2.174   8.963 -1.2402 -1.2345  0.5048
 6039SOL     OW29578   4.409   3.537  13.667  0.1348  0.8287  0.2360
 6039SOL    HW129579   4.467   3.561  13.740  0.7448  1.2203 -0.3785
 6039SOL    HW229580   4.441   3.582  13.589  1.1735 -0.0909  0.1446
 6040SOL     OW29581   4.059   3.267   4.513 -0.6287 -0.2464 -0.4227
 6040SOL    HW129582   4.019   3.283   4.427 -2.0094  0.7129  0.4078
 6040SOL    HW229583   3.981   3.240   4.562 -1.2740  1.6085 -0.4325
 6041SOL     OW29584   4.693   4.112   3.270  0.0220  0.2640  0.3347
 6041SOL    HW129585   4.650   4.037   3.228  0.7218  0.3775 -0.5948
 6041SOL    HW229586   4.623   4.144   3.327 -1.3283  1.6682 -2.0685
 6042SOL     OW29587   4.457   1.832   8.547  0.1127  0.4468  0.4296
 6042SOL    HW129588   4.502   1.831   8.463  0.7502 -0.0920  0.7747
 6042SOL    HW229589   4.411   1.915   8.534  1.0570  1.0715  1.0688
 6043SOL     OW29590   0.794   0.684   6.760  0.1727 -0.1773 -0.3798
 6043SOL    HW129591   0.703   0.666   6.782  0.5291 -1.0542  0.3666
 6043SOL    HW229592   0.835   0.669   6.845 -0.6538  0.5607  0.1483
 6044SOL     OW29593   4.600   2.285  12.139  0.6568 -0.3818 -0.3147
 6044SOL    HW129594   4.514   2.289  12.181  0.0665 -0.5235 -1.5121
 6044SOL    HW229595   4.574   2.328  12.057  0.5632  0.0657 -0.0514
 6045SOL     OW29596   0.712   4.204   4.068 -0.6564 -0.2301  0.8026
 6045SOL    HW129597   0.671   4.290   4.060 -3.2066 -1.6556 -1.6551
 6045SOL    HW229598   0.637   4.149   4.092  0.8867 -2.2510  0.9850
 6046SOL     OW29599   4.648   1.163  10.866  0.5104  0.6243 -0.1950
 6046SOL    HW129600   4.577   1.219  10.833  0.4895  0.4193 -0.4949
 6046SOL    HW229601   4.597   1.092  10.904 -2.6305  3.2154  0.5043
 6047SOL     OW29602   3.451   0.242   6.061  0.3755 -0.0899  0.3425
 6047SOL    HW129603   3.481   0.152   6.046 -2.1312 -0.6895 -1.1233
 6047SOL    HW229604   3.360   0.236   6.033  0.4003  1.0435  0.0032
 6048SOL     OW29605   4.618   1.069  17.182  0.4328  0.0707 -0.5694
 6048SOL    HW129606   4.589   0.985  17.147 -0.8375  2.0277 -4.2271
 6048SOL    HW229607   4.683   1.037  17.245 -1.1135  1.1902  1.5682
 6049SOL     OW29608   3.699   2.080   2.624  0.3790  0.1820 -0.0724
 6049SOL    HW129609   3.744   2.147   2.674 -0.4643  0.0172  0.9224
 6049SOL    HW229610   3.647   2.139   2.570 -0.2626 -2.7913 -2.6715
 6050SOL     OW29611   0.114   1.333   5.063 -0.3055  0.8291 -0.0196
 6050SOL    HW129612   0.068   1.276   5.124 -1.6936 -1.6597 -3.4471
 6050SOL    HW229613   0.067   1.416   5.072 -2.2564 -0.3287  0.4093
 6051SOL     OW29614   4.282   1.749   8.034 -0.2159 -0.0483  0.1541
 6051SOL    HW129615   4.276   1.797   8.117  0.1076 -0.8852  0.6619
 6051SOL    HW229616   4.241   1.670   8.068 -0.3685  0.2453  0.6539
 6052SOL     OW29617   4.237   4.658  12.647  0.7073  0.2791 -0.2390
 6052SOL    HW129618   4.324   4.673  12.684  0.3218 -0.6854  1.0374
 6052SOL    HW229619   4.248   4.654  12.552  0.3495 -1.3271 -0.2165
 6053SOL     OW29620   4.474   0.117   2.917 -0.4446  1.0251  0.1684
 6053SOL    HW129621   4.468   0.201   2.872  0.3638  0.8961 -0.1686
 6053SOL    HW229622   4.422   0.054   2.868 -1.3318 -0.3473  2.8777
 6054SOL     OW29623   4.293   1.950   8.288 -0.2848  0.9429 -0.1825
 6054SOL    HW129624   4.218   1.996   8.250 -0.0057  1.6889  0.1627
 6054SOL    HW229625   4.284   1.959   8.383 -0.3569 -1.5301  0.0433
 6055SOL     OW29626   3.274   2.537   4.470  0.0434 -0.6614  0.3578
 6055SOL    HW129627   3.304   2.456   4.511  0.9367  0.6314  2.2512
 6055SOL    HW229628   3.232   2.496   4.394  0.8213 -1.4061  0.3354
 6056SOL     OW29629   1.687   1.135   1.110 -0.2665  0.3221  0.1600
 6056SOL    HW129630   1.680   1.219   1.065 -0.6291  0.1318 -0.1382
 6056SOL    HW229631   1.776   1.129   1.146  0.2308  0.0089 -1.1447
 6057SOL     OW29632   1.463   2.247   5.399 -0.9627  0.3481 -1.1102
 6057SOL    HW129633   1.506   2.191   5.334 -0.5957  0.9768 -1.4196
 6057SOL    HW229634   1.395   2.290   5.346  0.4713  1.9681 -1.6446
 6058SOL     OW29635   2.658   1.171  13.279 -0.0211 -0.1446  0.4402
 6058SOL    HW129636   2.685   1.080  13.289 -1.0077 -0.5861 -0.8762
 6058SOL    HW229637   2.687   1.201  13.365  0.5289  2.6451 -0.7018
 6059SOL     OW29638   4.052   2.013   8.900  0.1257  0.0982 -0.1471
 6059SOL    HW129639   4.045   1.919   8.887  2.1127  0.2859 -2.5150
 6059SOL    HW229640   3.962   2.044   8.910 -0.2000  0.1391 -3.3575
 6060SOL     OW29641   1.734   2.609   2.283 -0.1580 -0.1110  0.9075
 6060SOL    HW129642   1.828   2.621   2.296  0.0104 -0.6064  0.1194
 6060SOL    HW229643   1.716   2.536   2.342 -2.3386 -0.7574 -0.5853
 6061SOL     OW29644   0.999   3.206  16.812  0.7487  0.1356  0.3393
 6061SOL    HW129645   0.967   3.125  16.772 -2.3105 -0.0605  3.1806
 6061SOL    HW229646   0.960   3.214  16.898  0.2174 -3.0543  0.4019
 6062SOL     OW29647   0.607   2.823   5.218 -0.0498  0.6064 -0.2789
 6062SOL    HW129648   0.686   2.870   5.245  1.7338 -1.7583 -1.3311
 6062SOL    HW229649   0.661   2.761   5.170  0.8907  1.2271 -0.0144
 6063SOL     OW29650   1.087   0.683   3.374 -0.1172 -0.3408 -0.6034
 6063SOL    HW129651   0.994   0.702   3.364  0.0855  1.1801  0.4455
 6063SOL    HW229652   1.091   0.607   3.432  2.0019  1.6267  1.7926
 6064SOL     OW29653   0.872   2.031   8.586 -0.4238  0.3463  0.5388
 6064SOL    HW129654   0.799   2.055   8.529  0.7979  0.6286 -0.9101
 6064SOL    HW229655   0.833   2.018   8.673 -0.9778 -0.0776  0.2341
 6065SOL     OW29656   4.165   3.686   4.884  0.4876  0.1117  0.2314
 6065SOL    HW129657   4.184   3.604   4.837  0.3328  0.4709 -0.4561
 6065SOL    HW229658   4.132   3.744   4.816  0.5872  0.1927  0.2528
 6066SOL     OW29659   0.251   4.243   9.436 -0.5479  0.1539  0.3941
 6066SOL    HW129660   0.225   4.180   9.503 -0.4537  0.2390  0.5105
 6066SOL    HW229661   0.283   4.322   9.481 -0.2140  0.4961 -0.4283
 6067SOL     OW29662   3.555   0.769   1.889 -0.0763 -0.3967 -0.2470
 6067SOL    HW129663   3.532   0.702   1.824 -2.2546  0.0450  0.0837
 6067SOL    HW229664   3.486   0.744   1.951  0.3033 -0.9225 -0.0305
 6068SOL     OW29665   3.186   1.679   7.105  0.0562 -0.0689  0.4774
 6068SOL    HW129666   3.259   1.634   7.147  0.5234  0.5281  0.3150
 6068SOL    HW229667   3.143   1.741   7.165  1.6432  0.4869  1.0598
 6069SOL     OW29668   0.994   0.435  14.668 -0.2951  0.9128 -0.4343
 6069SOL    HW129669   0.959   0.380  14.738 -0.8823  1.9662  0.1021
 6069SOL    HW229670   1.007   0.515  14.719 -2.0012  1.8637 -1.4922
 6070SOL     OW29671   2.690   1.875  16.244  0.0765  0.0747 -0.1901
 6070SOL    HW129672   2.678   1.917  16.330  0.8683  0.5405 -0.3059
 6070SOL    HW229673   2.599   1.872  16.215 -0.5271 -2.0340  1.9026
 6071SOL     OW29674   1.905   3.446   9.105 -0.2950  0.1439  0.0166
 6071SOL    HW129675   1.876   3.366   9.061  0.9733  0.4633 -1.4040
 6071SOL    HW229676   1.919   3.423   9.197  1.7882  4.6333  0.8372
 6072SOL     OW29677   0.458   0.718   8.663 -0.2238  0.3478 -0.0037
 6072SOL    HW129678   0.385   0.712   8.725  0.2004 -3.8109  0.0823
 6072SOL    HW229679   0.530   0.732   8.724 -0.9841 -1.7565  1.3711
 6073SOL     OW29680   4.693   0.321   2.974 -0.7547 -0.4204  0.0415
 6073SOL    HW129681   4.658   0.254   2.916  1.5656 -1.3839 -0.2238
 6073SOL    HW229682   4.622   0.322   3.039 -0.5214 -1.1670  0.3144
 6074SOL     OW29683   1.345   4.662   4.843  0.4103 -0.3048 -0.1401
 6074SOL    HW129684   1.329   4.676   4.749  3.2714  2.0574 -0.3107
 6074SOL    HW229685   1.254   4.661   4.873 -0.1966 -0.4673 -1.9805
 6075SOL     OW29686   2.089   3.662   3.706 -0.0365 -0.0049  0.1212
 6075SOL    HW129687   2.027   3.680   3.636  0.2937 -2.8555 -0.8809
 6075SOL    HW229688   2.140   3.741   3.686 -0.8146  0.7398  1.0959
 6076SOL     OW29689   2.887   4.063   1.071  0.5372  0.0978 -1.0594
 6076SOL    HW129690   2.968   4.089   1.027  0.4941  0.6332 -0.8272
 6076SOL    HW229691   2.849   4.146   1.102 -1.3246 -1.1291 -0.1252
 6077SOL     OW29692   2.085   4.682   9.243  0.3392  0.2774 -0.5666
 6077SOL    HW129693   2.029   4.605   9.234  1.3764 -0.5154 -0.1852
 6077SOL    HW229694   2.064   4.700   9.335  1.4123 -0.2425 -0.2209
 6078SOL     OW29695   4.617   4.081   0.750 -0.2040 -0.3643 -0.4354
 6078SOL    HW129696   4.568   4.098   0.669  0.4049  0.1596 -0.6923
 6078SOL    HW229697   4.679   4.017   0.714  0.4063  0.3874 -0.7235
 6079SOL     OW29698   2.223   3.828  14.074 -0.7281 -0.2726 -0.2831
 6079SOL    HW129699   2.139   3.857  14.110  0.6578 -1.0568  3.6464
 6079SOL    HW229700   2.278   3.837  14.152 -2.1879  2.3201  0.4539
 6080SOL     OW29701   0.627   2.053   9.965  0.2540 -0.3957 -0.7404
 6080SOL    HW129702   0.677   1.975   9.989 -0.3094  0.0184  1.7862
 6080SOL    HW229703   0.642   2.065   9.872 -2.7816 -4.1625 -1.6849
 6081SOL     OW29704   3.159   3.835  15.877 -0.0065  0.0930  0.8163
 6081SOL    HW129705   3.092   3.823  15.944  0.1240  1.5993  1.2120
 6081SOL    HW229706   3.158   3.929  15.862  2.5250  0.1832  1.0929
 6082SOL     OW29707   0.689   2.867   9.000  0.9805 -0.3423 -0.1004
 6082SOL    HW129708   0.606   2.913   9.012  1.1521 -0.4320  1.4859
 6082SOL    HW229709   0.681   2.778   9.035  0.4037 -0.5321 -0.7078
 6083SOL     OW29710   2.639   0.759   3.563 -0.3272 -0.4618 -0.5874
 6083SOL    HW129711   2.675   0.697   3.626 -0.1183  1.0438  0.7642
 6083SOL    HW229712   2.632   0.829   3.627  0.1914  1.3240 -2.4772
 6084SOL     OW29713   2.265   2.920   5.035 -0.0757  0.0954 -0.0439
 6084SOL    HW129714   2.352   2.896   5.066 -0.7855  0.2027  1.9888
 6084SOL    HW229715   2.213   2.852   5.078  1.6505  0.1923  2.2203
 6085SOL     OW29716   3.080   2.513  10.695  0.6023 -0.0187  0.1963
 6085SOL    HW129717   3.148   2.457  10.732  2.1247  1.2065 -0.7482
 6085SOL    HW229718   3.125   2.567  10.630  0.0718 -0.6109 -0.6666
 6086SOL     OW29719   3.033   1.411  15.165 -0.5296  0.0780 -0.0509
 6086SOL    HW129720   3.108   1.358  15.193 -0.8055  0.0951  0.7215
 6086SOL    HW229721   3.047   1.498  15.203  0.9335  0.5173 -1.6126
 6087SOL     OW29722   4.188   2.242  15.692 -0.0656  0.6307  0.1618
 6087SOL    HW129723   4.248   2.167  15.686 -1.1041 -0.1941  0.0758
 6087SOL    HW229724   4.131   2.232  15.616 -0.2043 -1.0603  0.4934
 6088SOL     OW29725   4.507   0.658  12.562 -0.0523  0.3116  0.5957
 6088SOL    HW129726   4.589   0.664  12.610  0.0307  0.1935  0.4692
 6088SOL    HW229727   4.466   0.592  12.617 -0.7289  1.3570  1.3579
 6089SOL     OW29728   3.210   0.135   7.204 -0.0956  0.3003  0.2252
 6089SOL    HW129729   3.168   0.124   7.290  1.1743  2.8094  1.1649
 6089SOL    HW229730   3.184   0.225   7.182 -2.7713 -0.0442  1.8935
 6090SOL     OW29731   2.878   4.410   8.532  0.3965  0.1190 -0.4726
 6090SOL    HW129732   2.943   4.453   8.477 -1.1575  2.9019 -0.1458
 6090SOL    HW229733   2.829   4.490   8.552  0.4911 -0.2871  1.4212
 6091SOL     OW29734   3.940   1.239  13.595 -0.2053  0.4427 -0.4444
 6091SOL    HW129735   3.870   1.284  13.548 -1.7431 -2.2043 -0.6352
 6091SOL    HW229736   3.919   1.146  13.597  0.0554  0.4026  0.6621
 6092SOL     OW29737   1.356   1.612   3.268  0.1764 -0.0788 -0.0766
 6092SOL    HW129738   1.332   1.564   3.189  1.3703 -1.3071  0.2924
 6092SOL    HW229739   1.431   1.561   3.297  0.0469  0.5425  1.3679
 6093SOL     OW29740   4.445   1.754   3.376 -0.3224  0.2363 -0.3126
 6093SOL    HW129741   4.535   1.762   3.344 -0.3628 -0.4382 -0.5998
 6093SOL    HW229742   4.402   1.706   3.305 -1.5112  4.0270 -2.1573
 6094SOL     OW29743   3.954   1.082  11.735 -0.0730 -0.1855 -0.4863
 6094SOL    HW129744   3.979   1.025  11.808 -1.9068  1.1292  1.1610
 6094SOL    HW229745   3.906   1.013  11.689 -0.3721  0.2059 -0.7609
 6095SOL     OW29746   3.684   2.884   3.712  0.0495  0.3281  0.2576
 6095SOL    HW129747   3.741   2.884   3.789  1.9316 -1.4887 -1.1471
 6095SOL    HW229748   3.600   2.919   3.740 -0.2894 -0.9753  0.8649
 6096SOL     OW29749   1.543   0.741   4.272  1.2676  0.7313 -0.1301
 6096SOL    HW129750   1.516   0.812   4.213 -1.2979  0.5978  0.9034
 6096SOL    HW229751   1.631   0.714   4.247 -0.1155 -3.0381 -0.8119
 6097SOL     OW29752   0.120   3.233   8.984 -0.3308  0.0779 -0.0466
 6097SOL    HW129753   0.078   3.297   9.041 -2.2079  0.8559 -2.3202
 6097SOL    HW229754   0.043   3.191   8.944  1.1263 -0.8742 -1.8198
 6098SOL     OW29755   2.010   1.287   6.979 -0.2312  0.8496  0.2688
 6098SOL    HW129756   1.947   1.275   7.050  0.7057 -2.5626  0.5243
 6098SOL    HW229757   1.989   1.221   6.913  3.5262 -0.9217  0.9084
 6099SOL     OW29758   0.020   0.593   3.445  0.1604  0.2648 -0.1952
 6099SOL    HW129759   0.022   0.639   3.361 -1.4402  1.2198  0.2899
 6099SOL    HW229760   0.050   0.504   3.426  1.4353  0.6427  0.0773
 6100SOL     OW29761   1.698   2.814   4.892 -0.1281 -0.3429 -0.7503
 6100SOL    HW129762   1.763   2.884   4.901 -1.2099  0.4903  0.4247
 6100SOL    HW229763   1.648   2.837   4.970  0.0619 -0.9462 -0.4564
 6101SOL     OW29764   0.890   3.871  16.763 -0.2024  0.4974 -0.4135
 6101SOL    HW129765   0.825   3.811  16.727  0.8254  0.2030 -1.7766
 6101SOL    HW229766   0.927   3.914  16.686  0.2696  1.2171  0.2184
 6102SOL     OW29767   2.648   2.313  17.533 -0.3182 -0.4492 -0.5832
 6102SOL    HW129768   2.730   2.356  17.559 -1.1663 -0.4444  2.0842
 6102SOL    HW229769   2.663   2.304  17.439  3.1847 -1.1907  0.0411
 6103SOL     OW29770   4.073   0.255  10.919  0.1018 -0.1169 -0.9663
 6103SOL    HW129771   4.133   0.216  10.982 -2.1545  0.2723  1.4557
 6103SOL    HW229772   4.030   0.175  10.887 -0.2381  0.1261 -1.1272
 6104SOL     OW29773   0.279   1.214   9.086  0.2021 -0.1969  0.6501
 6104SOL    HW129774   0.236   1.199   9.002  0.8367 -0.8235  0.4380
 6104SOL    HW229775   0.366   1.178   9.067  1.0852  1.1422  2.0851
 6105SOL     OW29776   4.385   1.577  16.997 -0.0344  0.2999 -0.2876
 6105SOL    HW129777   4.446   1.651  16.998 -0.9796  1.0657  1.8753
 6105SOL    HW229778   4.301   1.620  16.979 -1.4393 -2.0097  0.6666
 6106SOL     OW29779   4.183   3.018   2.345  0.1716  0.5605 -0.4671
 6106SOL    HW129780   4.143   2.951   2.400  2.5080 -0.0495  0.4801
 6106SOL    HW229781   4.236   3.060   2.412  1.4789  1.7722 -2.2369
 6107SOL     OW29782   1.368   0.195  16.655  0.0428  0.4159  0.5132
 6107SOL    HW129783   1.430   0.268  16.657  0.7219 -0.1120 -1.4050
 6107SOL    HW229784   1.316   0.218  16.577  0.9285 -1.0418 -0.4945
 6108SOL     OW29785   0.409   0.990   3.047  0.1484  0.0618 -0.0162
 6108SOL    HW129786   0.412   0.908   3.097  3.1749  1.4154  2.0069
 6108SOL    HW229787   0.500   1.018   3.050 -0.9089  3.3532  1.6790
 6109SOL     OW29788   1.288   0.220   8.717  0.3818 -0.1253 -0.2812
 6109SOL    HW129789   1.272   0.198   8.809 -0.8059 -1.3716 -0.7852
 6109SOL    HW229790   1.368   0.270   8.730  0.6595 -1.4247  3.1079
 6110SOL     OW29791   0.942   1.450  13.043 -0.3683 -0.1391  0.6313
 6110SOL    HW129792   0.876   1.402  13.093 -0.6915 -1.8329 -1.4498
 6110SOL    HW229793   1.011   1.386  13.056  0.0143  0.3245  0.8934
 6111SOL     OW29794   0.687   3.807   0.170 -0.2764  0.4566  0.3306
 6111SOL    HW129795   0.776   3.826   0.139 -0.3289 -1.0021 -0.7240
 6111SOL    HW229796   0.637   3.853   0.102  0.0745 -1.8312 -1.4945
 6112SOL     OW29797   2.116   1.907   7.328 -0.0015  0.4068  0.1814
 6112SOL    HW129798   2.162   1.851   7.264 -0.8091 -0.7553  0.6246
 6112SOL    HW229799   2.194   1.940   7.372  1.0637  1.0702 -2.1881
 6113SOL     OW29800   0.841   0.110   9.547 -0.2565 -0.3014  0.0431
 6113SOL    HW129801   0.780   0.036   9.543 -0.1584 -0.5830  3.8716
 6113SOL    HW229802   0.830   0.128   9.641  0.9930  1.6273 -0.1870
 6114SOL     OW29803   3.830   1.667   5.506  0.0280  0.7394  0.4983
 6114SOL    HW129804   3.908   1.632   5.463 -0.3196  1.7491 -0.9446
 6114SOL    HW229805   3.868   1.713   5.581 -1.7526  1.6999  0.8094
 6115SOL     OW29806   2.061   4.614   3.851 -0.3146  0.3061  0.1663
 6115SOL    HW129807   2.023   4.526   3.851 -2.5586  1.2747 -2.0542
 6115SOL    HW229808   2.110   4.620   3.933  0.0636  0.9755 -0.1142
 6116SOL     OW29809   0.556   2.624   9.067  0.1582 -0.3282  0.1249
 6116SOL    HW129810   0.461   2.629   9.081  0.0592 -3.3855  0.3712
 6116SOL    HW229811   0.560   2.534   9.036 -1.6703  0.3593 -2.1172
 6117SOL     OW29812   0.822   1.775   2.371 -0.4792 -0.2391  0.5886
 6117SOL    HW129813   0.788   1.716   2.439 -0.7847  0.1814  0.8066
 6117SOL    HW229814   0.740   1.800   2.327  0.3706 -0.8553 -1.3147
 6118SOL     OW29815   0.298   0.187   6.371 -0.2345 -0.4137  0.4810
 6118SOL    HW129816   0.275   0.280   6.374  1.3988 -0.0171  0.3198
 6118SOL    HW229817   0.320   0.171   6.463  0.2298  1.8080  0.7547
 6119SOL     OW29818   0.394   3.244  11.221  0.3820 -0.5213 -0.1625
 6119SOL    HW129819   0.328   3.179  11.242 -0.5906  0.7707  0.7989
 6119SOL    HW229820   0.414   3.224  11.129  0.4076  0.6101 -0.4051
 6120SOL     OW29821   1.114   0.616  13.219  0.1283  0.1025  0.0595
 6120SOL    HW129822   1.061   0.547  13.257  0.7956  0.8396  2.3484
 6120SOL    HW229823   1.081   0.613  13.129  0.7085  0.1632 -0.1608
 6121SOL     OW29824   0.802   2.533   8.889 -0.5698 -0.1539  0.0986
 6121SOL    HW129825   0.746   2.538   8.811  0.4152 -0.9571 -0.6535
 6121SOL    HW229826   0.744   2.586   8.944  1.2484 -1.0306  2.8297
 6122SOL     OW29827   0.924   1.485  14.476  0.4391 -0.3128 -0.2561
 6122SOL    HW129828   0.965   1.502  14.391 -0.9133  0.2235 -0.7951
 6122SOL    HW229829   0.873   1.407  14.455  0.3742 -0.1491 -0.6987
 6123SOL     OW29830   1.428   1.090  13.819 -0.2974 -0.1436  0.4064
 6123SOL    HW129831   1.369   1.042  13.877 -1.2925  2.1486  1.2905
 6123SOL    HW229832   1.477   1.013  13.789  1.8683  0.8259  1.4472
 6124SOL     OW29833   2.306   0.851  16.816 -0.3817  0.0460  0.3109
 6124SOL    HW129834   2.288   0.827  16.725  0.9555  1.7957 -0.4180
 6124SOL    HW229835   2.286   0.943  16.798  1.0103 -0.2030 -2.5408
 6125SOL     OW29836   3.810   4.675   7.818 -0.0460 -0.1213 -0.3054
 6125SOL    HW129837   3.847   4.644   7.901 -1.0297  2.1230  0.9694
 6125SOL    HW229838   3.888   4.694   7.767  0.8482  1.8617  1.8111
 6126SOL     OW29839   2.055   0.732   7.584  0.8409 -0.4220 -0.0869
 6126SOL    HW129840   1.986   0.673   7.615  1.5194 -0.9165  0.4962
 6126SOL    HW229841   2.060   0.716   7.490  0.9435 -1.0242  0.0163
 6127SOL     OW29842   1.242   1.178  13.461  0.8928 -0.2347 -0.3351
 6127SOL    HW129843   1.322   1.196  13.510  0.8513 -0.8008 -0.0578
 6127SOL    HW229844   1.216   1.094  13.498 -1.8267  0.7033 -0.1069
 6128SOL     OW29845   1.251   1.529   5.453  0.0079  0.1920 -0.2465
 6128SOL    HW129846   1.214   1.441   5.441 -0.2803  0.2241  0.4633
 6128SOL    HW229847   1.342   1.510   5.476 -0.0665  1.5453  1.0997
 6129SOL     OW29848   0.623   0.824   7.958  0.4862 -0.1189  0.0403
 6129SOL    HW129849   0.617   0.731   7.978 -1.3379  0.3720  1.7607
 6129SOL    HW229850   0.571   0.868   8.024  1.2917  1.8703 -0.6528
 6130SOL     OW29851   1.966   4.479  13.064 -0.2497  0.4838 -0.0122
 6130SOL    HW129852   1.999   4.556  13.111  0.8858  0.2073 -0.3603
 6130SOL    HW229853   2.052   4.438  13.052 -0.3106  0.8402 -1.5971
 6131SOL     OW29854   1.109   0.409   8.293  0.6730  0.2330  0.0296
 6131SOL    HW129855   1.180   0.347   8.276  0.5582  0.1483 -0.1381
 6131SOL    HW229856   1.124   0.472   8.223 -0.5206  0.5381  0.0496
 6132SOL     OW29857   4.518   0.789   4.820 -0.4344  0.3814 -0.0604
 6132SOL    HW129858   4.538   0.858   4.883  0.9294  0.4897 -0.6089
 6132SOL    HW229859   4.544   0.840   4.743 -2.9788  2.8655  0.7064
 6133SOL     OW29860   2.880   1.578   3.766 -0.3192 -0.1967 -0.0671
 6133SOL    HW129861   2.828   1.541   3.695 -0.2404 -0.4284 -0.0028
 6133SOL    HW229862   2.864   1.672   3.770 -1.7358 -0.4403 -0.0431
 6134SOL     OW29863   1.392   3.913   7.855 -0.5458  0.4612  0.2653
 6134SOL    HW129864   1.349   3.985   7.811 -0.0878 -0.1430 -1.1734
 6134SOL    HW229865   1.352   3.835   7.816 -0.6410  0.6481 -0.0060
 6135SOL     OW29866   0.599   3.916   0.616  0.1720 -0.0724  0.3252
 6135SOL    HW129867   0.557   3.852   0.674  1.5481 -1.3758 -0.1464
 6135SOL    HW229868   0.646   3.968   0.681  1.3113 -1.8149  0.8771
 6136SOL     OW29869   0.917   0.778   5.160 -0.1761 -0.9502  0.2315
 6136SOL    HW129870   0.970   0.734   5.093  3.0784  0.1409  2.1086
 6136SOL    HW229871   0.889   0.701   5.210 -0.5395 -0.7057  0.4063
 6137SOL     OW29872   4.594   4.700   2.304  0.4735  0.8092 -0.7396
 6137SOL    HW129873   4.666   0.012   2.356  0.6824  0.7136 -0.9671
 6137SOL    HW229874   4.596   0.029   2.224  0.9174  0.5317 -0.9122
 6138SOL     OW29875   2.857   0.028   5.283 -0.1022 -0.1042 -0.1383
 6138SOL    HW129876   2.908   0.029   5.364 -0.0471 -1.8847 -0.1498
 6138SOL    HW229877   2.927   0.026   5.217 -1.4736 -0.4731 -1.5920
 6139SOL     OW29878   2.745   1.399   1.338  0.2041  0.3474 -0.1198
 6139SOL    HW129879   2.778   1.401   1.248  1.5697 -0.5893  0.3687
 6139SOL    HW229880   2.771   1.314   1.373  0.0593  0.4424  0.2171
 6140SOL     OW29881   3.621   1.858   2.486  0.5511  0.0461 -0.0712
 6140SOL    HW129882   3.648   1.915   2.558 -0.9631  0.5327  0.1198
 6140SOL    HW229883   3.679   1.895   2.421 -0.0814  0.7063 -0.2494
 6141SOL     OW29884   1.735   4.100  17.567  0.2744 -0.0391  0.4585
 6141SOL    HW129885   1.805   4.110  17.503 -1.4191 -0.5834 -1.4798
 6141SOL    HW229886   1.717   4.008  17.585 -1.3285  0.2003  0.0876
 6142SOL     OW29887   0.461   0.730   9.454  0.0260 -0.0936  0.6500
 6142SOL    HW129888   0.387   0.783   9.425  1.6130  1.6925 -0.1204
 6142SOL    HW229889   0.537   0.788   9.448 -1.7778  2.1204 -0.8824
 6143SOL     OW29890   3.518   1.060   6.967  0.0642  0.2643  0.3794
 6143SOL    HW129891   3.472   1.008   7.033 -0.4987  0.4714  0.1472
 6143SOL    HW229892   3.462   1.032   6.895 -0.0904 -0.1564  0.6676
 6144SOL     OW29893   0.010   0.657  15.750 -0.7639 -0.2753  0.4055
 6144SOL    HW129894   4.641   0.677  15.763 -1.1020 -0.8448 -1.1152
 6144SOL    HW229895   0.053   0.729  15.796 -1.4327  2.9618 -4.0271
 6145SOL     OW29896   2.279   2.407  16.518  0.1611 -0.3605  0.0076
 6145SOL    HW129897   2.202   2.445  16.475 -0.8808  0.6684  2.8053
 6145SOL    HW229898   2.312   2.483  16.565 -0.4066  0.4947 -0.9879
 6146SOL     OW29899   2.958   2.473   8.214 -0.2229 -0.0131  0.4145
 6146SOL    HW129900   3.034   2.453   8.269 -0.5527  0.8286  1.1801
 6146SOL    HW229901   2.974   2.563   8.183  0.4565  0.2221  1.4330
 6147SOL     OW29902   3.306   1.386  10.991 -0.1291  0.2586  0.0224
 6147SOL    HW129903   3.255   1.406  10.912 -1.5392  0.6852  1.0491
 6147SOL    HW229904   3.380   1.355  10.938 -0.0060 -1.0932  0.9866
 6148SOL     OW29905   0.525   2.526   2.614  0.4236 -0.1859  0.2388
 6148SOL    HW129906   0.568   2.443   2.634 -2.2213 -1.1193  2.1600
 6148SOL    HW229907   0.577   2.561   2.542 -1.5604  1.1900 -0.5443
 6149SOL     OW29908   1.164   4.359   7.469  0.2415  0.7075 -0.6999
 6149SOL    HW129909   1.175   4.359   7.564  1.8607 -0.9985 -0.8737
 6149SOL    HW229910   1.253   4.328   7.453  0.4525 -0.1505  2.1523
 6150SOL     OW29911   1.915   4.485   9.142  0.3578  0.4684 -0.0004
 6150SOL    HW129912   1.826   4.517   9.150  0.1498  0.4152 -2.1859
 6150SOL    HW229913   1.932   4.504   9.050 -2.5059  0.0753 -0.6157
 6151SOL     OW29914   2.521   2.785   8.841  0.4561  0.4987  0.5396
 6151SOL    HW129915   2.444   2.835   8.816 -0.3667 -0.7159  0.6225
 6151SOL    HW229916   2.540   2.744   8.757 -1.9642  0.6707 -0.0961
 6152SOL     OW29917   3.066   1.221   7.805 -0.2711 -0.0987 -0.1923
 6152SOL    HW129918   3.096   1.297   7.754  1.9971 -1.7738 -1.3622
 6152SOL    HW229919   2.978   1.239   7.837  0.4512  0.2888  1.5735
 6153SOL     OW29920   0.419   0.960   4.333  0.7276 -0.3928  0.0692
 6153SOL    HW129921   0.324   0.944   4.336  0.5715  0.3706 -0.9227
 6153SOL    HW229922   0.437   1.009   4.413 -0.5240 -1.4921  1.0347
 6154SOL     OW29923   1.276   1.405   6.122  0.4803  0.1914 -0.2195
 6154SOL    HW129924   1.322   1.341   6.068 -0.4877 -0.5322 -0.1729
 6154SOL    HW229925   1.250   1.475   6.063  0.9836  0.8848  0.3715
 6155SOL     OW29926   3.539   2.477  13.060  0.3562  0.1515  0.7123
 6155SOL    HW129927   3.487   2.441  12.988  0.2245 -1.8273  1.7995
 6155SOL    HW229928   3.516   2.413  13.127 -0.4643 -1.6689 -1.3253
 6156SOL     OW29929   1.318   1.664   7.252  0.0880  0.5017 -1.0912
 6156SOL    HW129930   1.398   1.646   7.203 -0.9014  1.9750 -3.2563
 6156SOL    HW229931   1.359   1.670   7.338  1.7460 -2.0984 -1.6798
 6157SOL     OW29932   4.526   2.062   6.811  0.3984  0.7154  0.0275
 6157SOL    HW129933   4.551   1.970   6.813 -0.0371  0.5422 -2.7742
 6157SOL    HW229934   4.597   2.115   6.845 -0.3096  2.2551 -0.8827
 6158SOL     OW29935   0.538   0.750   4.218  0.0520  0.0787  0.0900
 6158SOL    HW129936   0.496   0.824   4.262  0.3961  0.5533 -0.3812
 6158SOL    HW229937   0.483   0.739   4.140  0.3338  1.9464 -0.3665
 6159SOL     OW29938   2.524   4.249  17.504  0.0581 -0.1629 -0.1105
 6159SOL    HW129939   2.608   4.281  17.539 -0.7220 -0.2668  1.8582
 6159SOL    HW229940   2.561   4.172  17.461 -0.8551 -0.8084  0.2634
 6160SOL     OW29941   4.719   3.367   6.438  0.0666  0.0759  0.2451
 6160SOL    HW129942   4.669   3.448   6.432 -0.2178 -0.0908  0.3754
 6160SOL    HW229943   0.081   3.404   6.415 -0.4720  1.7585  0.9753
 6161SOL     OW29944   4.013   3.694  12.792  0.4003 -0.3999 -0.2904
 6161SOL    HW129945   4.072   3.669  12.864 -0.5419  1.0120  0.9667
 6161SOL    HW229946   4.068   3.677  12.716  1.4491  2.8220 -0.2740
 6162SOL     OW29947   1.104   0.926   3.126  0.3766  0.1761  0.7199
 6162SOL    HW129948   1.045   0.974   3.184 -1.0835  0.4063 -0.9628
 6162SOL    HW229949   1.072   0.952   3.040  1.2267 -0.0552  0.3352
 6163SOL     OW29950   3.548   4.298   8.586 -0.6016  0.1790 -0.3232
 6163SOL    HW129951   3.557   4.207   8.611 -0.8390  0.4363  0.6984
 6163SOL    HW229952   3.505   4.293   8.500 -0.5956 -2.3384 -0.1650
 6164SOL     OW29953   0.364   0.468   5.206  0.5998  0.3125  0.0958
 6164SOL    HW129954   0.323   0.484   5.290 -0.1553  0.0780 -0.2295
 6164SOL    HW229955   0.311   0.390   5.189 -1.4432  1.3375  1.9032
 6165SOL     OW29956   0.304   2.398  12.092  0.4372 -0.2696 -0.1905
 6165SOL    HW129957   0.252   2.441  12.024 -1.1565 -0.3830  0.9616
 6165SOL    HW229958   0.233   2.400  12.157  1.3689  1.8768  0.7617
 6166SOL     OW29959   0.888   1.603   6.200  0.3078  0.4959 -0.0903
 6166SOL    HW129960   0.795   1.624   6.198 -0.5586 -3.0220  2.6673
 6166SOL    HW229961   0.919   1.645   6.119 -0.2965  0.5073 -0.3124
 6167SOL     OW29962   2.356   2.455   4.281  0.0688 -0.2664  0.0843
 6167SOL    HW129963   2.298   2.497   4.346  0.2451 -0.2429  0.2255
 6167SOL    HW229964   2.369   2.366   4.313 -3.4413 -1.0307 -0.6066
 6168SOL     OW29965   4.376   3.957   6.011  0.2705 -0.1735 -0.2708
 6168SOL    HW129966   4.339   3.926   6.093 -0.7311  2.4011  0.2663
 6168SOL    HW229967   4.297   3.971   5.958 -0.4715  1.0872  1.1373
 6169SOL     OW29968   0.809   2.426   7.703  0.0841  0.3689  0.4793
 6169SOL    HW129969   0.759   2.472   7.770  0.3349  1.9010 -0.3768
 6169SOL    HW229970   0.809   2.487   7.629  2.1806 -0.9823 -0.6426
 6170SOL     OW29971   3.213   4.682   6.445  0.0096  0.1528 -1.1988
 6170SOL    HW129972   3.183   4.641   6.526 -0.3483  0.1916 -1.3109
 6170SOL    HW229973   3.289   0.010   6.471  0.5905 -1.2117 -0.2167
 6171SOL     OW29974   3.953   2.414   9.771  0.1823 -0.1826 -0.2218
 6171SOL    HW129975   3.924   2.485   9.829 -0.5826 -0.8702  0.2491
 6171SOL    HW229976   3.910   2.343   9.819 -2.0507  0.1909 -1.6375
 6172SOL     OW29977   1.037   3.416   7.659 -0.0221 -0.2305  0.4438
 6172SOL    HW129978   1.111   3.400   7.718  1.7148 -0.3284 -1.7716
 6172SOL    HW229979   1.072   3.454   7.579  1.1135 -1.8773  0.1483
 6173SOL     OW29980   1.420   2.664   5.327 -0.2675  0.2166 -0.1699
 6173SOL    HW129981   1.491   2.657   5.391  0.1772 -0.1413 -0.7044
 6173SOL    HW229982   1.380   2.749   5.348 -0.4924  0.4114 -1.4105
 6174SOL     OW29983   2.657   3.028   5.725 -0.1130  0.1659 -0.3998
 6174SOL    HW129984   2.568   3.002   5.750 -0.1056 -2.2682 -2.9904
 6174SOL    HW229985   2.704   2.945   5.719  1.1151  0.8183  0.2033
 6175SOL     OW29986   1.493   0.557  12.069 -0.8541  0.2949 -0.6997
 6175SOL    HW129987   1.541   0.619  12.015  0.9139 -1.4110 -1.0699
 6175SOL    HW229988   1.418   0.602  12.107 -0.5087 -1.3332  1.8862
 6176SOL     OW29989   0.526   2.382   4.711  0.6298  0.4366 -0.2245
 6176SOL    HW129990   0.491   2.439   4.643  0.5863 -0.2228 -0.7576
 6176SOL    HW229991   0.453   2.323   4.733  1.6067 -0.9104 -0.5628
 6177SOL     OW29992   2.956   0.477   8.474  0.0693  0.0863 -0.6205
 6177SOL    HW129993   2.988   0.545   8.533  0.0275 -2.1990  2.0303
 6177SOL    HW229994   3.007   0.409   8.517 -2.0827 -1.1108  0.0534
 6178SOL     OW29995   2.898   1.593  13.096 -0.7420 -0.0124 -0.7695
 6178SOL    HW129996   2.932   1.503  13.103 -1.8824 -0.3260  0.7202
 6178SOL    HW229997   2.843   1.577  13.173 -1.0053  4.5376 -0.0130
 6179SOL     OW29998   3.671   0.407   2.976  0.3316  0.1020  0.0922
 6179SOL    HW129999   3.649   0.365   3.059  2.5701 -1.4750 -0.1086
 6179SOL    HW230000   3.763   0.429   2.992  0.1784 -0.5700  1.9030
 6180SOL     OW30001   3.480   4.635   9.121 -0.1817  0.1140 -0.1641
 6180SOL    HW130002   3.571   4.630   9.150 -0.0241 -0.9748 -0.8418
 6180SOL    HW230003   3.464   0.002   9.149  0.9482 -0.4092  2.1789
 6181SOL     OW30004   1.648   2.853   3.589  0.2943 -0.6284 -0.1764
 6181SOL    HW130005   1.604   2.849   3.673 -0.1153 -0.5434 -0.3872
 6181SOL    HW230006   1.602   2.931   3.559  1.1330 -0.1443 -0.2161
 6182SOL     OW30007   4.570   1.904   6.328  0.0406  0.3925 -1.0406
 6182SOL    HW130008   4.512   1.906   6.404  0.1285  0.0521 -0.9630
 6182SOL    HW230009   4.560   1.992   6.293  1.4780  1.3354  0.9344
 6183SOL     OW30010   0.858   2.885   4.818  0.2913 -0.2372  0.1841
 6183SOL    HW130011   0.925   2.852   4.878 -1.4120 -2.2120  0.9762
 6183SOL    HW230012   0.820   2.802   4.789 -2.1584  0.6118  0.9562
 6184SOL     OW30013   1.473   3.815   4.657  0.1678  0.8606 -0.4029
 6184SOL    HW130014   1.439   3.730   4.686 -1.1445  1.9208  1.2312
 6184SOL    HW230015   1.486   3.848   4.746 -0.8835 -2.6286  1.0633
 6185SOL     OW30016   4.647   3.739   8.876 -0.2090  0.1536 -0.1560
 6185SOL    HW130017   4.702   3.661   8.879 -1.7732 -0.8282  3.1517
 6185SOL    HW230018   4.662   3.773   8.788  3.1096  3.3654  1.6488
 6186SOL     OW30019   0.333   4.278   8.874  1.0309 -0.6427  0.5190
 6186SOL    HW130020   0.295   4.273   8.961 -0.6130  0.5761 -0.1337
 6186SOL    HW230021   0.376   4.193   8.861  0.8375 -0.9958  2.1961
 6187SOL     OW30022   1.682   3.151   2.855 -0.9057  0.0471  0.1960
 6187SOL    HW130023   1.766   3.143   2.810 -1.0976  0.5204 -0.2505
 6187SOL    HW230024   1.679   3.065   2.896  2.0109 -0.3471 -0.3851
 6188SOL     OW30025   1.352   4.499   2.519  0.0404  0.4070 -0.4438
 6188SOL    HW130026   1.410   4.560   2.565  1.4948 -1.5731  0.3356
 6188SOL    HW230027   1.289   4.561   2.483 -0.4582 -0.0780 -0.4098
 6189SOL     OW30028   0.108   3.662   5.468  0.0470  0.6786 -0.4136
 6189SOL    HW130029   0.035   3.632   5.522  0.9969  0.2509  0.6312
 6189SOL    HW230030   0.068   3.651   5.382 -1.9853  0.3414  0.5657
 6190SOL     OW30031   2.009   3.108   6.299 -0.0487 -0.8406  0.3682
 6190SOL    HW130032   1.953   3.115   6.222 -0.6813  1.9678  1.0932
 6190SOL    HW230033   2.005   3.196   6.336  0.1071 -0.1742 -1.2399
 6191SOL     OW30034   1.053   2.079   5.320 -0.0999 -0.0469 -0.4679
 6191SOL    HW130035   1.048   2.149   5.255 -0.0342  1.2954  0.9874
 6191SOL    HW230036   1.142   2.044   5.320 -0.8967 -2.0773 -0.8516
 6192SOL     OW30037   2.414   1.556   6.733 -0.0734  0.0620 -0.0127
 6192SOL    HW130038   2.324   1.531   6.755  0.3229 -1.8015 -0.5386
 6192SOL    HW230039   2.395   1.615   6.660  1.0425  2.1870  1.4258
 6193SOL     OW30040   3.560   0.970   4.865 -0.4235 -0.2295 -0.4050
 6193SOL    HW130041   3.506   0.967   4.786  1.3974 -0.1301 -1.6227
 6193SOL    HW230042   3.497   1.017   4.920 -0.5405 -1.4793  0.5473
 6194SOL     OW30043   1.430   2.019   1.958 -0.4872 -0.6458  0.5931
 6194SOL    HW130044   1.383   2.002   2.040  0.7240  3.6983  2.2204
 6194SOL    HW230045   1.461   2.107   1.980  1.6071 -0.7638 -1.8620
 6195SOL     OW30046   0.087   2.407  12.572  0.2542 -0.4663  0.0598
 6195SOL    HW130047   0.167   2.369  12.609  0.4031 -0.4734 -0.2721
 6195SOL    HW230048   0.084   2.487  12.624 -2.2950 -0.2784 -0.3697
 6196SOL     OW30049   3.590   1.603   3.202  0.0416  0.1786  0.5504
 6196SOL    HW130050   3.591   1.569   3.292 -0.3312 -1.4530 -0.0632
 6196SOL    HW230051   3.660   1.668   3.202  0.1619  0.0359 -3.4931
 6197SOL     OW30052   4.690   4.369   1.849 -0.4249  0.1265 -0.4343
 6197SOL    HW130053   0.059   4.391   1.847 -0.4105  0.1724  0.6758
 6197SOL    HW230054   4.671   4.298   1.787 -0.3120 -0.2059 -0.0860
 6198SOL     OW30055   3.262   4.117   8.224  0.3523 -0.2989 -0.3723
 6198SOL    HW130056   3.253   4.080   8.312  1.8085  1.6325  0.5899
 6198SOL    HW230057   3.190   4.077   8.175  0.5182  1.7846 -2.3178
 6199SOL     OW30058   4.652   2.574  10.359 -0.0587  0.2157  0.4264
 6199SOL    HW130059   4.656   2.603  10.451 -3.3629 -3.1550  1.6339
 6199SOL    HW230060   4.557   2.562  10.351  0.3006 -2.0162 -0.2855
 6200SOL     OW30061   3.783   3.411  15.980  0.3060 -0.1358  0.2500
 6200SOL    HW130062   3.727   3.460  16.040 -1.6505  1.9042 -3.3015
 6200SOL    HW230063   3.728   3.335  15.964 -2.3897  1.3158  2.6634
 6201SOL     OW30064   2.812   3.563   8.602  0.4858 -0.1169  0.1420
 6201SOL    HW130065   2.847   3.513   8.676  2.7126 -0.9044 -1.4358
 6201SOL    HW230066   2.855   3.506   8.538  1.1215  0.9215 -0.3600
 6202SOL     OW30067   0.410   1.013   1.847 -0.0200  0.1851 -0.0802
 6202SOL    HW130068   0.460   0.951   1.902 -0.2732  0.5974  0.6138
 6202SOL    HW230069   0.445   1.098   1.872  1.0619  0.0654 -1.1820
 6203SOL     OW30070   2.274   0.925   4.942  0.2072 -0.1005  0.0326
 6203SOL    HW130071   2.289   0.998   5.003  0.0502 -1.3927  1.6200
 6203SOL    HW230072   2.199   0.889   4.989  1.2370 -0.6871  1.2467
 6204SOL     OW30073   3.775   2.950   5.900 -0.1752  0.1997  0.1484
 6204SOL    HW130074   3.833   2.961   5.824 -0.2999 -2.3586 -0.3304
 6204SOL    HW230075   3.737   2.863   5.887 -0.8978  0.7637 -1.4700
 6205SOL     OW30076   2.890   1.845  13.018 -0.6378 -0.4406  0.1926
 6205SOL    HW130077   2.982   1.835  12.993 -0.2950 -1.5554  1.9048
 6205SOL    HW230078   2.868   1.755  13.041  0.7272 -0.9190 -0.3595
 6206SOL     OW30079   1.442   0.361  13.344 -0.2618 -0.2865 -0.3910
 6206SOL    HW130080   1.525   0.389  13.383  1.1867 -1.5408 -2.5336
 6206SOL    HW230081   1.380   0.429  13.368  1.4541  1.2214 -0.2951
 6207SOL     OW30082   3.092   3.050   2.822  0.2662  0.3808  0.1395
 6207SOL    HW130083   3.179   3.021   2.794  1.0886  3.5387 -0.6829
 6207SOL    HW230084   3.049   2.966   2.838 -0.8593  0.6876 -1.2542
 6208SOL     OW30085   1.562   0.578  13.788  0.2089 -0.2641  0.0960
 6208SOL    HW130086   1.499   0.515  13.822  1.3108 -0.0162  2.5969
 6208SOL    HW230087   1.641   0.544  13.830  0.3629  0.3900  0.3377
 6209SOL     OW30088   3.031   0.225   3.761  0.2666  0.2075 -0.4185
 6209SOL    HW130089   3.085   0.275   3.699  1.5837 -0.6670  0.0436
 6209SOL    HW230090   2.939   0.249   3.748  0.1376 -0.3402 -0.5096
 6210SOL     OW30091   0.978   0.510   2.977  0.0944 -0.0091 -0.0506
 6210SOL    HW130092   0.988   0.439   2.914  0.3607  1.2429 -1.4322
 6210SOL    HW230093   0.913   0.484   3.042  0.8815 -0.8035  0.4275
 6211SOL     OW30094   2.912   1.519  16.735  0.1627  0.0670 -0.3986
 6211SOL    HW130095   2.825   1.496  16.702 -0.4633  0.8178  0.7090
 6211SOL    HW230096   2.900   1.613  16.749 -1.4004 -0.3321  1.0358
 6212SOL     OW30097   0.902   0.371  10.668  0.2443  0.4418 -0.2236
 6212SOL    HW130098   0.853   0.428  10.728  0.9485 -0.0120  0.7952
 6212SOL    HW230099   0.880   0.399  10.579 -1.9030  1.1221  0.5297
 6213SOL     OW30100   0.144   1.137  17.485 -0.0466 -0.9106  0.3357
 6213SOL    HW130101   0.168   1.071  17.420 -2.1918 -1.5662  0.1992
 6213SOL    HW230102   0.088   1.090  17.547 -1.6556  1.0324  0.3611
 6214SOL     OW30103   3.873   3.923   2.339  0.1742  1.1637 -0.4624
 6214SOL    HW130104   3.960   3.887   2.326 -0.8579 -1.5352  0.2241
 6214SOL    HW230105   3.866   3.992   2.273 -0.7655 -0.1221 -1.7118
 6215SOL     OW30106   2.589   1.255  12.819  0.2893  0.1716 -0.3820
 6215SOL    HW130107   2.638   1.202  12.756 -0.8034 -1.4179  0.1010
 6215SOL    HW230108   2.645   1.232  12.894 -0.5251 -1.4563 -0.2733
 6216SOL     OW30109   0.197   4.578   4.551  0.5481  0.1905  0.2444
 6216SOL    HW130110   0.149   4.579   4.469 -1.5345  0.8133  1.4812
 6216SOL    HW230111   0.282   4.551   4.516  0.8997  1.8239 -0.1295
 6217SOL     OW30112   1.811   0.143   2.656  0.6190 -0.2797  0.1810
 6217SOL    HW130113   1.727   0.190   2.654  1.1640  0.7396  1.0820
 6217SOL    HW230114   1.803   0.108   2.745  0.9116  1.8804  1.0769
 6218SOL     OW30115   3.655   2.610   6.196 -0.0825  0.4804  0.0426
 6218SOL    HW130116   3.629   2.694   6.233 -1.5170 -0.5171  1.2858
 6218SOL    HW230117   3.669   2.620   6.101  2.6823 -0.8145  0.2971
 6219SOL     OW30118   0.423   2.585   0.087  0.6286 -0.0435 -0.3768
 6219SOL    HW130119   0.393   2.498   0.110  1.1933  0.1482  1.0679
 6219SOL    HW230120   0.516   2.576   0.108  0.1542  3.0139  3.0431
 6220SOL     OW30121   0.605   0.582  17.417 -0.7972 -0.0534 -0.1380
 6220SOL    HW130122   0.615   0.660  17.363 -3.5397 -0.3674 -1.0960
 6220SOL    HW230123   0.667   0.519  17.379 -3.0608 -2.0062 -0.5870
 6221SOL     OW30124   0.399   0.965  15.759  0.1707 -0.1872 -0.3071
 6221SOL    HW130125   0.313   0.958  15.718  0.5867  0.3401 -1.2595
 6221SOL    HW230126   0.404   0.877  15.797 -0.8624  1.2237  3.1467
 6222SOL     OW30127   2.387   0.875  13.108  0.1835  0.5212 -0.6241
 6222SOL    HW130128   2.390   0.962  13.066  0.0124  1.1693  0.7020
 6222SOL    HW230129   2.368   0.911  13.195  0.9589 -1.1146  0.2019
 6223SOL     OW30130   0.216   2.984   6.728 -0.1442 -0.4419  0.3453
 6223SOL    HW130131   0.156   2.916   6.758 -0.3346  1.4695  4.3543
 6223SOL    HW230132   0.179   3.000   6.642 -0.5192 -2.0891  0.1916
 6224SOL     OW30133   1.541   4.140   6.661 -0.4222  0.2169 -1.1570
 6224SOL    HW130134   1.461   4.174   6.701  1.3583 -0.0598  2.7036
 6224SOL    HW230135   1.504   4.111   6.578 -0.8647 -1.2792 -0.4429
 6225SOL     OW30136   1.074   1.800  11.844 -0.2895 -0.4788  0.1126
 6225SOL    HW130137   1.042   1.776  11.758  1.3896 -0.2703 -0.5668
 6225SOL    HW230138   1.050   1.727  11.902 -2.4849  1.7536  2.0730
 6226SOL     OW30139   1.939   1.090   2.902 -0.0649  0.0707  0.4237
 6226SOL    HW130140   2.023   1.116   2.940  0.9737  0.4618 -2.1512
 6226SOL    HW230141   1.904   1.173   2.869 -0.3152 -0.6722 -1.1677
 6227SOL     OW30142   1.708   2.954   8.944  0.2645 -0.2090  0.0832
 6227SOL    HW130143   1.661   2.920   8.868 -0.4579  1.4050 -0.1876
 6227SOL    HW230144   1.731   2.875   8.993  1.6953  0.5744  0.7040
 6228SOL     OW30145   3.945   0.058   3.700 -0.2301 -0.8881  0.1025
 6228SOL    HW130146   3.986   0.003   3.767  2.3092 -0.7360 -1.3188
 6228SOL    HW230147   4.020   0.066   3.640 -0.8164  2.4686 -0.2118
 6229SOL     OW30148   1.334   3.982   5.904 -0.2790  0.6758 -0.3394
 6229SOL    HW130149   1.239   3.982   5.894 -0.0819 -0.6111 -2.2810
 6229SOL    HW230150   1.362   3.930   5.829 -1.2670  0.3023 -0.4569
 6230SOL     OW30151   1.813   1.195   9.900  0.3689  0.0342  0.2024
 6230SOL    HW130152   1.748   1.228   9.838 -0.9665 -0.2923  1.4335
 6230SOL    HW230153   1.814   1.117   9.844 -0.6007 -1.7444  2.7070
 6231SOL     OW30154   1.903   3.222  14.685 -0.0620 -0.3876 -0.3183
 6231SOL    HW130155   1.884   3.269  14.766  0.0993 -2.0993  0.7038
 6231SOL    HW230156   1.874   3.133  14.703 -1.5598 -0.2230 -1.9155
 6232SOL     OW30157   0.614   1.109  17.314 -0.8198  0.0350 -0.8190
 6232SOL    HW130158   0.671   1.047  17.268 -1.6105 -1.1694 -0.1718
 6232SOL    HW230159   0.584   1.050  17.383  0.9576  1.1989  0.9301
 6233SOL     OW30160   4.070   2.970   7.693 -0.2596  0.3554  0.3974
 6233SOL    HW130161   4.013   3.044   7.673 -0.3097 -0.1637 -1.3785
 6233SOL    HW230162   4.119   2.959   7.611  2.9084 -0.3571  2.4098
 6234SOL     OW30163   3.237   0.220   2.261  0.0188 -0.1012 -0.1256
 6234SOL    HW130164   3.323   0.260   2.274 -1.1095  2.9398 -2.1973
 6234SOL    HW230165   3.185   0.251   2.336 -1.4923  0.6739 -1.5037
 6235SOL     OW30166   1.456   2.838   5.760  0.4653 -0.1196 -0.5263
 6235SOL    HW130167   1.482   2.927   5.737  1.8051 -0.7408 -1.3660
 6235SOL    HW230168   1.378   2.851   5.814  0.3551 -1.9428 -0.2317
 6236SOL     OW30169   2.654   2.572   5.614 -0.0701 -0.4989 -0.4418
 6236SOL    HW130170   2.605   2.566   5.532  2.1035 -2.1658 -1.6231
 6236SOL    HW230171   2.582   2.540   5.670 -1.2047  0.6345 -1.2585
 6237SOL     OW30172   4.459   2.426   7.879  0.2510 -0.3611 -0.6632
 6237SOL    HW130173   4.440   2.340   7.917  1.7584  0.5398  2.1739
 6237SOL    HW230174   4.555   2.435   7.879  0.1560  0.7026  3.1736
 6238SOL     OW30175   4.423   3.111  11.796 -0.1171  0.1244 -0.6813
 6238SOL    HW130176   4.354   3.045  11.791 -3.0725  3.1409  0.5320
 6238SOL    HW230177   4.491   3.055  11.832 -0.5358  0.7697  1.1197
 6239SOL     OW30178   2.560   3.849   9.447 -0.9315  0.4776 -0.6782
 6239SOL    HW130179   2.584   3.759   9.426  1.8418  1.4222 -1.5872
 6239SOL    HW230180   2.531   3.825   9.535  2.3614 -0.9291  0.0409
 6240SOL     OW30181   0.930   3.916   4.829 -0.0016 -0.4098  0.5635
 6240SOL    HW130182   0.873   3.987   4.800  1.2606  0.0821 -0.6897
 6240SOL    HW230183   0.878   3.885   4.904 -1.8436  0.5376 -0.3423
 6241SOL     OW30184   0.037   2.408   6.156 -0.1345  0.5546  0.9774
 6241SOL    HW130185   0.061   2.317   6.175 -0.3619  0.2854 -0.0171
 6241SOL    HW230186   4.709   2.440   6.230 -2.7719  0.8797 -1.0259
 6242SOL     OW30187   2.701   0.167   3.256  0.0909  0.1484  0.2590
 6242SOL    HW130188   2.693   0.251   3.211 -1.7334 -0.4796 -0.5967
 6242SOL    HW230189   2.724   0.103   3.188 -1.1359  0.9339 -0.8934
 6243SOL     OW30190   3.210   1.085   3.707 -0.0034  0.5969  0.4248
 6243SOL    HW130191   3.306   1.087   3.700 -0.0921  0.1962 -0.8926
 6243SOL    HW230192   3.199   1.019   3.776 -1.0006  1.0042  0.6458
 6244SOL     OW30193   0.648   1.485   9.222  0.0064 -0.2388  0.3171
 6244SOL    HW130194   0.632   1.562   9.278  1.3047  0.1658  0.1206
 6244SOL    HW230195   0.559   1.464   9.192  0.0975  0.8601 -0.7361
 6245SOL     OW30196   3.135   2.740   8.183 -0.3140 -0.1885  0.0215
 6245SOL    HW130197   3.083   2.818   8.203  1.9573  1.6973 -1.4040
 6245SOL    HW230198   3.219   2.779   8.163 -0.6832  0.9374  0.6826
 6246SOL     OW30199   3.509   1.106   7.508 -0.1590 -0.6217 -0.0790
 6246SOL    HW130200   3.494   1.115   7.602 -1.0929  1.1892 -0.3831
 6246SOL    HW230201   3.587   1.159   7.491 -0.5418  0.0557  0.2730
 6247SOL     OW30202   2.574   2.963   3.186 -0.3385  0.6498  0.2508
 6247SOL    HW130203   2.549   2.890   3.243  0.6675 -0.1767 -0.3676
 6247SOL    HW230204   2.665   2.979   3.211 -0.1304 -0.5797  0.2783
 6248SOL     OW30205   2.086   1.774  13.029  0.2137 -0.0089  0.5950
 6248SOL    HW130206   2.093   1.836  12.956  2.7747 -0.2309  0.6386
 6248SOL    HW230207   2.167   1.724  13.035  0.0727 -0.6072 -2.4247
 6249SOL     OW30208   3.995   2.362   6.731 -0.1647 -0.4240  0.1504
 6249SOL    HW130209   3.982   2.457   6.724  0.8488 -0.2749  0.3895
 6249SOL    HW230210   3.957   2.320   6.653  1.0002 -1.8627  0.3556
 6250SOL     OW30211   0.618   0.855  14.541 -0.0011  0.1575 -0.3244
 6250SOL    HW130212   0.658   0.882  14.458 -0.6395 -1.7897 -1.2814
 6250SOL    HW230213   0.661   0.908  14.608 -0.2828  0.1632 -0.1508
 6251SOL     OW30214   3.665   1.245   6.655 -0.5434  0.0693  0.4864
 6251SOL    HW130215   3.734   1.282   6.599 -0.2547  0.6697  1.2390
 6251SOL    HW230216   3.713   1.222   6.734 -0.2402 -0.9644 -0.0031
 6252SOL     OW30217   0.438   3.573   2.047  0.0678  0.6736 -0.6072
 6252SOL    HW130218   0.519   3.622   2.068  0.2894  0.7098 -1.5595
 6252SOL    HW230219   0.441   3.556   1.953  2.4118 -0.8494 -0.2439
 6253SOL     OW30220   3.788   2.975  12.883  0.0703 -1.0617  0.5117
 6253SOL    HW130221   3.879   2.964  12.853 -0.4710 -1.8886 -0.8502
 6253SOL    HW230222   3.782   3.070  12.884 -2.6393 -1.2397  1.5354
 6254SOL     OW30223   1.686   1.578   5.840 -0.4683 -0.0295 -0.3302
 6254SOL    HW130224   1.760   1.518   5.852 -1.2581 -1.3847 -2.2358
 6254SOL    HW230225   1.674   1.593   5.934 -0.6694 -1.6545 -0.0969
 6255SOL     OW30226   0.176   0.724   5.237  0.7626  0.3330  0.4295
 6255SOL    HW130227   0.248   0.724   5.301  0.2724  4.6706  1.0143
 6255SOL    HW230228   0.141   0.810   5.262 -2.3370 -0.5815 -0.9135
 6256SOL     OW30229   3.780   2.234   3.116  0.1867  0.3603 -0.2397
 6256SOL    HW130230   3.694   2.226   3.074 -0.0218 -2.5243  0.7229
 6256SOL    HW230231   3.749   2.287   3.190  1.6076  0.4794  0.2659
 6257SOL     OW30232   2.438   2.526   7.877  0.4047 -0.0603  0.7846
 6257SOL    HW130233   2.455   2.521   7.971 -0.1271 -2.3779  0.7685
 6257SOL    HW230234   2.342   2.522   7.876  0.5136 -2.3945 -0.5647
 6258SOL     OW30235   3.652   0.384   1.855  0.1612 -0.3672  0.0026
 6258SOL    HW130236   3.584   0.345   1.910  0.0317  1.2080  0.9857
 6258SOL    HW230237   3.629   0.351   1.768  0.7993 -0.6658 -0.0523
 6259SOL     OW30238   4.703   1.056  17.679  0.0542 -0.4789 -0.6407
 6259SOL    HW130239   4.627   1.096   0.025 -0.1899  0.1333 -1.6523
 6259SOL    HW230240   0.003   0.993   0.051  2.5415  0.1774 -0.9038
 6260SOL     OW30241   4.717   4.647  15.389 -0.5156 -0.5003  0.4193
 6260SOL    HW130242   4.699   4.613  15.476 -2.5757 -0.2414  0.0990
 6260SOL    HW230243   4.631   4.675  15.357 -0.1620 -0.5177 -0.5320
 6261SOL     OW30244   1.693   0.260  15.757  0.2588 -0.3219 -0.1377
 6261SOL    HW130245   1.732   0.176  15.778 -2.2015 -1.2791  0.7013
 6261SOL    HW230246   1.652   0.243  15.673 -2.0591 -1.9449  1.2994
 6262SOL     OW30247   2.181   1.419  14.855 -0.3792  0.7115  0.4320
 6262SOL    HW130248   2.151   1.328  14.854  1.2366  0.1788  0.6300
 6262SOL    HW230249   2.201   1.431  14.947  0.1930 -0.2549  0.4361
 6263SOL     OW30250   0.304   0.101  14.875  0.2056  0.4646 -0.9820
 6263SOL    HW130251   0.400   0.094  14.877  0.0416 -1.2436  0.9025
 6263SOL    HW230252   0.276   0.122  14.786 -2.9112 -1.9759 -0.5541
 6264SOL     OW30253   0.814   4.686  11.337  0.2898 -0.3835 -0.1125
 6264SOL    HW130254   0.906   4.659  11.330  1.4025  3.2963  0.6179
 6264SOL    HW230255   0.770   4.605  11.311 -0.9250  1.2371 -3.1377
 6265SOL     OW30256   2.034   3.794   5.374  0.3984  0.4739  0.3086
 6265SOL    HW130257   2.114   3.744   5.385 -1.3667 -2.4092 -0.0669
 6265SOL    HW230258   2.055   3.845   5.296  1.5561  0.7916  0.8201
 6266SOL     OW30259   4.148   3.916   5.871 -0.1729  0.4168  0.6864
 6266SOL    HW130260   4.078   3.946   5.929 -1.0146  2.1272 -1.2554
 6266SOL    HW230261   4.102   3.866   5.804 -0.9732  1.4839  0.4507
 6267SOL     OW30262   1.539   4.146  14.763  0.3542 -0.1322  0.1235
 6267SOL    HW130263   1.483   4.148  14.686  2.0699  0.9823 -1.1059
 6267SOL    HW230264   1.485   4.090  14.818 -1.2114 -0.2611 -1.5523
 6268SOL     OW30265   3.733   3.543  12.401  0.4398 -0.0901 -0.2699
 6268SOL    HW130266   3.675   3.472  12.425  0.6383  0.0645  0.6668
 6268SOL    HW230267   3.823   3.517  12.422  0.4556  0.9695  0.9796
 6269SOL     OW30268   2.391   2.621  16.680 -0.4505  0.1995 -0.4704
 6269SOL    HW130269   2.450   2.546  16.691  0.9047  1.1263 -1.4710
 6269SOL    HW230270   2.451   2.695  16.674 -0.1217 -0.0948 -0.8099
 6270SOL     OW30271   3.536   0.071   5.752  0.2054  0.4256 -0.4070
 6270SOL    HW130272   3.507   0.162   5.752 -1.1881 -0.0216 -0.7657
 6270SOL    HW230273   3.498   0.053   5.666 -0.1996  1.0329 -0.3520
 6271SOL     OW30274   0.685   4.599   9.500 -0.4324 -0.4332 -0.3179
 6271SOL    HW130275   0.639   4.643   9.429 -2.8793  0.5866  1.8962
 6271SOL    HW230276   0.711   4.527   9.444  3.6120 -0.5000  1.6248
 6272SOL     OW30277   3.243   1.013   9.214 -0.1037  0.1077 -0.0799
 6272SOL    HW130278   3.267   0.936   9.162  2.8781  1.0513 -0.0936
 6272SOL    HW230279   3.220   0.967   9.294  2.1628 -1.4603 -0.3254
 6273SOL     OW30280   4.083   0.428   4.630 -0.1139  0.2238 -0.1988
 6273SOL    HW130281   4.079   0.380   4.713  1.9559 -0.6927 -0.6203
 6273SOL    HW230282   4.154   0.490   4.650  0.3592 -0.7436  1.1820
 6274SOL     OW30283   1.050   3.103   9.350  0.1337  0.0983  0.0167
 6274SOL    HW130284   1.098   3.023   9.370 -0.5017 -0.0889  0.7869
 6274SOL    HW230285   1.120   3.158   9.313  0.4966  0.3644  1.1012
 6275SOL     OW30286   4.092   3.001   5.453 -0.8960  0.3551 -0.0106
 6275SOL    HW130287   4.041   3.073   5.417 -1.1429  0.0773 -0.2140
 6275SOL    HW230288   4.178   3.038   5.432 -1.8476  1.7086 -1.5525
 6276SOL     OW30289   4.360   1.698  13.477 -0.3993 -0.3451  0.5762
 6276SOL    HW130290   4.425   1.727  13.541 -1.2559  3.1102 -0.1060
 6276SOL    HW230291   4.276   1.717  13.520 -2.4758  0.3463 -3.7676
 6277SOL     OW30292   2.036   2.057  11.781  0.6894  0.3860  0.6429
 6277SOL    HW130293   2.078   2.018  11.858  1.1580  0.5509  0.4670
 6277SOL    HW230294   1.970   2.108  11.828  0.2634 -1.6508  2.2778
 6278SOL     OW30295   3.101   1.482   8.424 -0.3013  0.3390  0.1105
 6278SOL    HW130296   3.151   1.497   8.344 -2.6688  2.6797 -0.9175
 6278SOL    HW230297   3.081   1.392   8.400  0.9121 -0.4545  1.9954
 6279SOL     OW30298   0.776   1.735  11.736  0.0418  0.2926 -0.4354
 6279SOL    HW130299   0.803   1.749  11.645  1.6425 -3.3815 -0.5080
 6279SOL    HW230300   0.682   1.730  11.715  0.0469 -1.2237 -0.1341
 6280SOL     OW30301   1.365   1.920   1.712 -0.2222  0.1063  0.0150
 6280SOL    HW130302   1.380   2.009   1.680 -0.3343  0.1733  0.1491
 6280SOL    HW230303   1.370   1.939   1.806  0.1851  1.4324 -0.2717
 6281SOL     OW30304   0.497   4.055   2.257 -0.1967 -0.2793 -0.2503
 6281SOL    HW130305   0.584   4.092   2.238 -0.8648  0.3095 -2.1727
 6281SOL    HW230306   0.453   4.092   2.181 -1.0033 -0.1802  0.2663
 6282SOL     OW30307   2.728   4.497  14.369  0.1467  0.3757 -0.2939
 6282SOL    HW130308   2.776   4.414  14.358  0.7604  0.7503 -0.4169
 6282SOL    HW230309   2.768   4.539  14.293 -0.0939 -0.1292 -0.7065
 6283SOL     OW30310   2.801   3.044   2.297  0.4866  0.0697 -0.0196
 6283SOL    HW130311   2.761   3.087   2.372  0.0172  0.6915 -0.6280
 6283SOL    HW230312   2.745   3.081   2.229  0.1740 -1.3267 -0.5270
 6284SOL     OW30313   1.200   0.314  14.202 -0.1539  0.3166 -0.1720
 6284SOL    HW130314   1.162   0.349  14.283  1.6559 -0.3028  0.9629
 6284SOL    HW230315   1.149   0.233  14.196 -1.4197  1.1600 -0.6129
 6285SOL     OW30316   1.722   2.898  14.177  0.3576 -0.2464  0.2228
 6285SOL    HW130317   1.788   2.895  14.107 -0.3823 -0.8496 -0.4554
 6285SOL    HW230318   1.784   2.864  14.242 -1.2679 -2.4857  0.5990
 6286SOL     OW30319   4.085   1.263   0.043 -0.1687 -0.2444  0.4802
 6286SOL    HW130320   4.097   1.169   0.057  1.4477  0.0447  1.1218
 6286SOL    HW230321   4.097   1.275  17.645 -1.0287 -0.2641  0.3727
 6287SOL     OW30322   0.331   4.504  16.003  0.1352  0.3693 -0.0818
 6287SOL    HW130323   0.387   4.561  15.950  0.0312  0.5875  0.0432
 6287SOL    HW230324   0.375   4.507  16.088 -0.2010  0.8852  0.0671
 6288SOL     OW30325   4.558   0.378   8.983 -0.8542  0.2330  0.1758
 6288SOL    HW130326   4.545   0.422   8.899 -0.2353 -1.5810 -0.8711
 6288SOL    HW230327   4.601   0.302   8.944  0.3216  1.7967 -1.6470
 6289SOL     OW30328   0.105   0.649   0.259 -0.1646 -0.1766 -0.4975
 6289SOL    HW130329   0.181   0.634   0.314  1.1092 -2.2628 -2.8226
 6289SOL    HW230330   0.133   0.603   0.180  0.7166 -1.1985  0.4119
 6290SOL     OW30331   2.161   1.706   2.017  0.0342  0.0485 -0.3708
 6290SOL    HW130332   2.214   1.629   1.998  1.4465  1.0003 -0.2693
 6290SOL    HW230333   2.106   1.721   1.939  1.6511 -0.4500 -1.5935
 6291SOL     OW30334   4.572   3.701   1.804  0.3825  0.2372  0.2106
 6291SOL    HW130335   4.568   3.654   1.721  0.8399 -0.3356  0.5044
 6291SOL    HW230336   4.479   3.720   1.815 -0.0016 -1.9212  0.6406
 6292SOL     OW30337   4.076   2.984  10.166  0.1498  0.5791  0.0756
 6292SOL    HW130338   4.035   3.022  10.088 -0.5556 -0.0039  0.1567
 6292SOL    HW230339   4.166   3.010  10.151  0.4657 -1.1580 -0.9782
 6293SOL     OW30340   1.431   0.044   4.391 -0.3684 -0.6328  0.4200
 6293SOL    HW130341   1.361   0.003   4.442  0.9307 -2.4005  0.7990
 6293SOL    HW230342   1.406   0.136   4.402  3.2971  0.3754  0.2426
 6294SOL     OW30343   1.203   2.679   3.769  0.7436  0.1976  0.2944
 6294SOL    HW130344   1.108   2.671   3.763  0.8543 -0.4593 -0.6829
 6294SOL    HW230345   1.215   2.646   3.858 -2.0142  0.4812  0.7754
 6295SOL     OW30346   4.686   0.728   7.880 -0.2998 -0.4591 -0.1003
 6295SOL    HW130347   4.628   0.773   7.943 -0.4795  0.6823 -1.0753
 6295SOL    HW230348   0.029   0.796   7.890 -0.4674 -0.6658  2.4017
 6296SOL     OW30349   3.379   2.465  12.530  0.3847 -0.3492  0.2040
 6296SOL    HW130350   3.313   2.521  12.570  1.7090 -0.2709  2.3199
 6296SOL    HW230351   3.459   2.518  12.535 -1.4541  2.2686  2.0379
 6297SOL     OW30352   0.319   1.311   3.588  0.2209 -0.3677  0.0271
 6297SOL    HW130353   0.261   1.336   3.517  0.6726 -1.3699 -0.6975
 6297SOL    HW230354   0.372   1.391   3.594 -1.1846  0.5692 -0.1728
 6298SOL     OW30355   0.984   0.433   4.686 -0.0213 -0.0527 -0.1034
 6298SOL    HW130356   0.898   0.398   4.663  0.3874 -0.3786 -1.1400
 6298SOL    HW230357   0.988   0.463   4.777  2.6665 -1.0058  0.1009
 6299SOL     OW30358   2.650   3.396   2.505 -0.6692 -0.4304  0.2737
 6299SOL    HW130359   2.674   3.427   2.417 -1.2326 -0.6265  0.0465
 6299SOL    HW230360   2.700   3.315   2.508 -0.4895 -0.2408  1.9102
 6300SOL     OW30361   1.282   3.612   2.739  0.0028  0.2039  0.0252
 6300SOL    HW130362   1.207   3.557   2.715  1.8433 -1.9653 -0.7834
 6300SOL    HW230363   1.353   3.567   2.693 -1.1887 -0.2562 -1.3709
 6301SOL     OW30364   3.612   1.897   9.101 -0.1344 -0.5289 -0.4768
 6301SOL    HW130365   3.647   1.809   9.086 -0.5726 -0.3785 -2.4803
 6301SOL    HW230366   3.520   1.899   9.073  0.0389  1.3765 -0.9055
 6302SOL     OW30367   1.987   0.987  10.504  0.1476 -0.1148  0.1581
 6302SOL    HW130368   2.016   1.014  10.417  1.2835 -1.1927  0.2057
 6302SOL    HW230369   2.073   0.963  10.539 -0.4643 -2.4141  0.0850
 6303SOL     OW30370   2.932   3.289   6.384  0.6728 -0.4163  0.6585
 6303SOL    HW130371   3.016   3.263   6.345 -0.1991  0.4204 -1.8055
 6303SOL    HW230372   2.913   3.209   6.433 -0.9024 -0.4616 -0.0542
 6304SOL     OW30373   0.043   1.069   5.238  0.4803  0.0724 -0.2871
 6304SOL    HW130374   0.077   1.066   5.327  0.1213 -1.1594 -0.1813
 6304SOL    HW230375   4.671   1.063   5.247  0.4728  1.9200  0.7688
 6305SOL     OW30376   0.613   4.460   2.824 -0.1013  0.4463  0.6263
 6305SOL    HW130377   0.624   4.422   2.736  1.2994  1.6685  0.2704
 6305SOL    HW230378   0.587   4.382   2.873 -1.3935  0.2951 -0.3012
 6306SOL     OW30379   0.197   1.634   6.986 -0.0264 -0.1050  0.2629
 6306SOL    HW130380   0.202   1.569   7.056 -0.6665  0.0702  0.4694
 6306SOL    HW230381   0.237   1.580   6.917 -2.9287  0.0236 -1.5182
 6307SOL     OW30382   0.376   3.021   7.786  0.0117 -0.0819  0.1276
 6307SOL    HW130383   0.413   3.095   7.738  1.2698 -1.4947 -1.0607
 6307SOL    HW230384   0.287   3.048   7.762 -0.0966 -0.0948  0.5221
 6308SOL     OW30385   4.175   1.728  10.580 -0.0169  0.1877 -0.0851
 6308SOL    HW130386   4.118   1.653  10.566  2.7625 -2.0532  0.5806
 6308SOL    HW230387   4.167   1.756  10.489 -0.8363  0.4683  0.0741
 6309SOL     OW30388   1.338   0.015   7.699 -0.3488  0.2354  0.2052
 6309SOL    HW130389   1.409   0.060   7.746 -0.0503  0.6132 -0.6055
 6309SOL    HW230390   1.331   0.074   7.624  0.7978 -0.0353 -0.1054
 6310SOL     OW30391   2.114   2.943   9.723  0.1979 -0.3422 -0.6878
 6310SOL    HW130392   2.047   2.914   9.785  2.8310 -1.3199  1.6839
 6310SOL    HW230393   2.137   3.028   9.760  2.1159 -1.9489  1.8356
 6311SOL     OW30394   0.761   3.587   4.949 -0.2953  0.4870  0.0650
 6311SOL    HW130395   0.742   3.649   4.879 -1.1156 -3.5054 -3.2414
 6311SOL    HW230396   0.857   3.582   4.947 -0.2805  0.3139  1.0082
 6312SOL     OW30397   3.472   2.315  14.806  0.0301 -0.0721 -0.1505
 6312SOL    HW130398   3.510   2.318  14.893 -0.7463  1.1216  0.1395
 6312SOL    HW230399   3.413   2.389  14.817  0.0679  0.3715 -2.9268
 6313SOL     OW30400   3.782   2.313   5.287  0.4823  0.3666  0.2498
 6313SOL    HW130401   3.853   2.354   5.336 -1.1888  0.8425  2.2904
 6313SOL    HW230402   3.806   2.330   5.196 -1.4243 -1.0342 -0.5130
 6314SOL     OW30403   3.397   0.887  13.629 -0.4603 -0.1197  0.0102
 6314SOL    HW130404   3.329   0.905  13.694 -0.6104 -0.0074 -0.1783
 6314SOL    HW230405   3.392   0.792  13.641 -0.5206 -0.1974 -0.6420
 6315SOL     OW30406   3.026   3.451   2.918 -0.3659  0.4654  0.3452
 6315SOL    HW130407   2.950   3.450   2.977  0.5618  1.4349  1.5625
 6315SOL    HW230408   2.973   3.426   2.843  0.9693  2.3233 -1.2016
 6316SOL     OW30409   2.064   4.620   6.662 -0.1902 -0.4994  0.1946
 6316SOL    HW130410   1.974   4.654   6.665  0.1118  0.2652  0.5424
 6316SOL    HW230411   2.077   4.627   6.567 -0.4426  1.4853  0.2975
 6317SOL     OW30412   0.864   0.945  11.772  0.1505  0.0940  0.3639
 6317SOL    HW130413   0.797   0.878  11.782  3.3510 -3.4594 -2.1407
 6317SOL    HW230414   0.828   1.020  11.819  2.1133  1.2265  0.0618
 6318SOL     OW30415   4.532   4.717  14.693  0.0744  0.0903  0.2818
 6318SOL    HW130416   4.529   0.088  14.710  2.9152  0.2792 -0.1622
 6318SOL    HW230417   4.461   4.709  14.630  0.7018  3.3425 -0.8200
 6319SOL     OW30418   1.592   4.443   0.472 -0.3748  0.2587  0.3290
 6319SOL    HW130419   1.553   4.438   0.559  0.5247  3.0892  0.8843
 6319SOL    HW230420   1.513   4.427   0.421 -2.1351  0.4750  3.0030
 6320SOL     OW30421   0.487   4.019   9.111 -0.2403 -0.1312 -0.4168
 6320SOL    HW130422   0.452   3.935   9.138 -4.7375  2.0334  0.4584
 6320SOL    HW230423   0.434   4.031   9.032  2.1147 -0.3068 -2.0207
 6321SOL     OW30424   1.629   0.752   2.686  0.1884  0.1254 -0.3769
 6321SOL    HW130425   1.618   0.661   2.660  0.3925 -0.5027  1.7315
 6321SOL    HW230426   1.553   0.793   2.644 -0.6482 -1.0064  0.0357
 6322SOL     OW30427   1.948   0.494   4.321 -0.3816 -0.2349  0.1141
 6322SOL    HW130428   1.996   0.559   4.373  1.3694 -0.4798 -1.1981
 6322SOL    HW230429   1.948   0.420   4.382  2.0953  0.9866  1.6018
 6323SOL     OW30430   0.451   2.199   5.474 -0.3084 -0.2703  0.4051
 6323SOL    HW130431   0.370   2.192   5.524 -0.1267  0.6301  0.8385
 6323SOL    HW230432   0.403   2.176   5.395  0.8637 -0.1615 -0.3341
 6324SOL     OW30433   0.256   4.614   5.791  0.1246 -0.2295  0.1562
 6324SOL    HW130434   0.205   4.533   5.802 -0.4835  0.0055 -0.8766
 6324SOL    HW230435   0.327   4.589   5.850 -0.7329  0.7588  1.6064
 6325SOL     OW30436   0.764   2.873   7.650 -0.0816  0.2700  0.1356
 6325SOL    HW130437   0.838   2.834   7.697 -0.6333  0.0409  0.8138
 6325SOL    HW230438   0.793   2.964   7.649 -0.4689  0.3913  0.0949
 6326SOL     OW30439   0.705   4.639  12.151  0.0023 -0.3544 -0.4526
 6326SOL    HW130440   0.625   4.675  12.190  0.6439 -1.2849  1.7453
 6326SOL    HW230441   0.774   4.672  12.208 -2.8540  1.7187  1.8072
 6327SOL     OW30442   1.899   3.997   9.399 -0.4644  0.4293  0.0162
 6327SOL    HW130443   1.918   3.951   9.318  1.6302  0.7072  0.3585
 6327SOL    HW230444   1.850   3.931   9.448  1.4706 -1.3051 -0.4255
 6328SOL     OW30445   4.386   1.161   8.447  0.2967 -0.2616 -0.1487
 6328SOL    HW130446   4.344   1.120   8.522  0.4938  2.3445  1.3814
 6328SOL    HW230447   4.371   1.097   8.377  0.1164  1.1929 -1.4489
 6329SOL     OW30448   3.504   1.613   0.288 -0.1700 -0.1368  0.1496
 6329SOL    HW130449   3.560   1.563   0.230  0.1609  0.5087 -0.0868
 6329SOL    HW230450   3.560   1.662   0.349 -0.4998 -0.1187  0.4378
 6330SOL     OW30451   1.529   0.075   3.381  0.7749 -0.2501 -0.2398
 6330SOL    HW130452   1.602   0.134   3.365 -0.3298  0.1625 -3.6937
 6330SOL    HW230453   1.491   0.098   3.466 -0.1016  0.9410 -0.9591
 6331SOL     OW30454   4.539   0.402   2.664  0.0962  0.1172  0.3436
 6331SOL    HW130455   4.460   0.355   2.638 -0.6473  1.1991  0.6723
 6331SOL    HW230456   4.578   0.414   2.577  0.5338 -0.0164  0.5197
 6332SOL     OW30457   2.009   1.521   9.377 -0.0299 -0.3892  0.6589
 6332SOL    HW130458   1.951   1.487   9.445 -2.2854 -3.0016 -2.6019
 6332SOL    HW230459   1.955   1.597   9.355 -0.4717 -1.1337 -0.8266
 6333SOL     OW30460   3.356   3.096   7.866 -0.5288  0.0458  0.1690
 6333SOL    HW130461   3.370   3.085   7.960 -0.4996 -1.2703  0.0124
 6333SOL    HW230462   3.446   3.096   7.834 -1.3814 -1.5869 -2.2213
 6334SOL     OW30463   0.289   2.828  16.197  1.0289 -0.1582  0.7867
 6334SOL    HW130464   0.220   2.777  16.155  0.7490  1.2244 -0.4143
 6334SOL    HW230465   0.350   2.764  16.234  0.0389 -0.8574  1.2062
 6335SOL     OW30466   0.439   4.361   3.504  0.7191  0.3123  0.6053
 6335SOL    HW130467   0.398   4.434   3.456 -0.6638 -0.4583  0.6082
 6335SOL    HW230468   0.453   4.300   3.431  1.2597  1.2969 -0.1109
 6336SOL     OW30469   3.536   1.485   9.344  0.4532  0.0169 -0.1483
 6336SOL    HW130470   3.549   1.561   9.401  0.7376  0.1608 -0.4050
 6336SOL    HW230471   3.467   1.515   9.286 -0.4974 -0.1181  0.9073
 6337SOL     OW30472   2.834   1.393   7.270 -0.0874  0.0285  0.1969
 6337SOL    HW130473   2.763   1.342   7.232  0.6124 -1.7614  1.2837
 6337SOL    HW230474   2.787   1.445   7.335 -1.0426  0.7371 -1.0596
 6338SOL     OW30475   2.703   4.418  13.768 -0.3336  0.0271  0.7501
 6338SOL    HW130476   2.738   4.335  13.737 -0.7726 -0.1442  0.7049
 6338SOL    HW230477   2.608   4.404  13.771 -0.7034  2.4521  0.1644
 6339SOL     OW30478   1.539   1.298   3.110  0.2663 -0.0975 -0.0123
 6339SOL    HW130479   1.603   1.263   3.047 -1.5840  1.2885 -2.6612
 6339SOL    HW230480   1.575   1.386   3.119  0.4947 -0.2211  0.2729
 6340SOL     OW30481   0.981   1.827   9.927  0.0297  0.3197 -0.4211
 6340SOL    HW130482   1.035   1.753   9.898 -0.9364 -0.3756 -0.4723
 6340SOL    HW230483   1.044   1.875   9.980  0.7579 -0.6207 -0.4282
 6341SOL     OW30484   4.308   0.868   7.704  0.3675  0.3422 -0.3145
 6341SOL    HW130485   4.213   0.878   7.710  0.6345  1.2295  2.5303
 6341SOL    HW230486   4.345   0.953   7.728  0.0017 -0.1746  2.1098
 6342SOL     OW30487   1.173   4.219  16.347  0.0872 -0.0897 -0.0279
 6342SOL    HW130488   1.143   4.234  16.437  0.8940 -1.7134  0.4993
 6342SOL    HW230489   1.268   4.222  16.360  0.1552 -2.5204 -0.0258
 6343SOL     OW30490   0.700   4.720   7.009 -0.8386 -0.1805 -0.3999
 6343SOL    HW130491   0.767   4.671   6.961 -1.0401 -0.9457  0.0919
 6343SOL    HW230492   0.662   4.650   7.063  0.0998 -0.6445 -0.3261
 6344SOL     OW30493   2.803   2.499  12.095 -0.4163  0.2003  0.0820
 6344SOL    HW130494   2.875   2.540  12.048 -2.4289 -0.5342 -3.6528
 6344SOL    HW230495   2.833   2.488  12.185 -1.8133  1.0562  0.6528
 6345SOL     OW30496   3.212   2.023   5.264  0.1202  0.2756  0.1315
 6345SOL    HW130497   3.202   1.928   5.269 -0.0138  0.3680  1.6370
 6345SOL    HW230498   3.216   2.037   5.169  0.6278  0.2091  0.1429
 6346SOL     OW30499   4.477   2.296   4.263  0.5148  0.0227 -0.4758
 6346SOL    HW130500   4.479   2.209   4.224  0.1986 -0.1448 -0.1157
 6346SOL    HW230501   4.549   2.288   4.326  1.0436 -0.5044 -1.1472
 6347SOL     OW30502   0.855   2.931   5.181  0.7557 -0.2524 -0.5690
 6347SOL    HW130503   0.867   2.986   5.104  1.2716  1.8465  1.0101
 6347SOL    HW230504   0.927   2.872   5.160  0.7324 -0.3727 -0.3140
 6348SOL     OW30505   2.207   1.490   7.963  0.0437  0.2121  0.5246
 6348SOL    HW130506   2.181   1.516   8.051 -1.2320  0.4098  0.1008
 6348SOL    HW230507   2.239   1.402   7.983 -1.5901 -0.9126 -1.8278
 6349SOL     OW30508   2.737   3.964   2.986 -0.3233  0.4049  0.1992
 6349SOL    HW130509   2.712   4.047   2.946  1.5288  0.6878 -0.3853
 6349SOL    HW230510   2.713   3.962   3.078 -0.3300 -1.5171  0.1636
 6350SOL     OW30511   2.007   2.130  14.751  0.1244  0.2402  0.1219
 6350SOL    HW130512   2.015   2.224  14.740  0.3514  0.1390 -0.5510
 6350SOL    HW230513   2.099   2.102  14.758  0.0278  0.3708  2.1415
 6351SOL     OW30514   3.344   4.184   7.977 -0.3451 -0.0494  0.4692
 6351SOL    HW130515   3.435   4.158   7.988 -0.8121 -1.6934  0.4903
 6351SOL    HW230516   3.308   4.174   8.065  2.5659  0.9423  1.7541
 6352SOL     OW30517   2.477   3.985   9.220  0.3031 -0.5989  0.4413
 6352SOL    HW130518   2.408   3.942   9.170  1.7763 -2.3183 -0.1081
 6352SOL    HW230519   2.486   3.928   9.296 -1.2806  0.9448  1.7704
 6353SOL     OW30520   0.866   0.679  13.820 -0.4313 -0.5600  0.8086
 6353SOL    HW130521   0.799   0.744  13.844  1.1731  2.1393 -2.0216
 6353SOL    HW230522   0.859   0.691  13.725 -0.1380 -0.2605  0.8264
 6354SOL     OW30523   3.964   0.973   8.363 -0.1705  0.2267 -0.0313
 6354SOL    HW130524   3.886   0.929   8.331  0.8012  0.0790 -2.1841
 6354SOL    HW230525   4.015   0.899   8.395  1.7844  1.0857 -1.1825
 6355SOL     OW30526   2.134   2.291   7.122  0.5501 -0.0090 -0.9385
 6355SOL    HW130527   2.158   2.294   7.030 -2.3128  1.9950 -1.6316
 6355SOL    HW230528   2.046   2.255   7.111  0.6380 -0.4037 -0.3150
 6356SOL     OW30529   0.658   3.392  11.786 -0.1303  0.3444  0.4739
 6356SOL    HW130530   0.675   3.388  11.880  1.9146  1.9026  0.1688
 6356SOL    HW230531   0.639   3.484  11.768 -1.8118 -0.2977 -1.0529
 6357SOL     OW30532   2.785   1.465   4.385 -0.6708 -0.5479 -0.1160
 6357SOL    HW130533   2.834   1.393   4.426 -0.1083  0.0672  0.2767
 6357SOL    HW230534   2.797   1.449   4.291  0.4908  0.2388 -0.1005
 6358SOL     OW30535   0.636   4.093   7.171 -0.1049 -0.0759  0.0481
 6358SOL    HW130536   0.555   4.138   7.149 -0.3302 -0.6405 -0.2823
 6358SOL    HW230537   0.615   4.050   7.254 -1.2296  1.6109  0.6324
 6359SOL     OW30538   1.208   3.745   6.486 -0.0383 -0.5733  0.0990
 6359SOL    HW130539   1.164   3.771   6.405 -1.5645  0.7607  1.3477
 6359SOL    HW230540   1.240   3.830   6.514  1.4175 -0.6967 -1.2074
 6360SOL     OW30541   0.365   2.739  15.447  0.2965  0.1705  0.0532
 6360SOL    HW130542   0.452   2.758  15.482  0.7244  0.5900 -1.2642
 6360SOL    HW230543   0.321   2.795  15.511 -0.7596  0.3038 -0.7888
 6361SOL     OW30544   3.487   2.877   6.610  0.2601  0.6504  0.1373
 6361SOL    HW130545   3.402   2.920   6.601 -0.7480 -1.1480  1.1878
 6361SOL    HW230546   3.515   2.942   6.674 -0.8652  1.3442 -0.0762
 6362SOL     OW30547   0.071   4.364   4.709 -0.2815 -0.2360  0.4895
 6362SOL    HW130548   0.103   4.426   4.644  0.4780 -2.1677 -0.9895
 6362SOL    HW230549   0.019   4.315   4.645 -0.3714 -0.8214  1.0087
 6363SOL     OW30550   1.443   4.453   2.246 -0.2371  0.6558  0.0177
 6363SOL    HW130551   1.352   4.449   2.215 -0.0094  1.7640 -0.8033
 6363SOL    HW230552   1.431   4.476   2.339  0.6891 -0.9278  0.5145
 6364SOL     OW30553   2.031   0.822   0.764 -0.2806  0.7238  0.0607
 6364SOL    HW130554   1.977   0.819   0.685  1.2138  2.1357 -1.0413
 6364SOL    HW230555   2.110   0.871   0.739 -2.3675  3.2127 -1.6251
 6365SOL     OW30556   2.542   1.445  10.421 -0.3160 -0.8237  0.0546
 6365SOL    HW130557   2.578   1.529  10.394  0.8099 -1.5127 -0.6264
 6365SOL    HW230558   2.542   1.398  10.337  0.5885 -0.0522 -0.3811
 6366SOL     OW30559   4.044   2.412   2.126  0.3721 -0.1729  0.3666
 6366SOL    HW130560   4.038   2.399   2.221  2.2675 -1.4995  0.2995
 6366SOL    HW230561   4.126   2.460   2.115  0.0961  0.2067 -0.0160
 6367SOL     OW30562   4.290   0.065   2.717  0.1256 -0.3090 -0.0012
 6367SOL    HW130563   4.213   0.018   2.687  1.0555 -1.2193 -0.9533
 6367SOL    HW230564   4.300   0.125   2.643  1.4033 -0.3343  0.1348
 6368SOL     OW30565   0.488   0.762   7.570 -0.1675 -0.1061 -0.3485
 6368SOL    HW130566   0.568   0.796   7.608 -0.9084  1.2155  0.0171
 6368SOL    HW230567   0.467   0.695   7.635 -0.4688  0.3254  0.0013
 6369SOL     OW30568   0.447   4.475   3.750 -0.6464  0.2400 -0.3551
 6369SOL    HW130569   0.535   4.511   3.740  0.0506 -1.0814  1.1077
 6369SOL    HW230570   0.433   4.437   3.663  1.7621  1.9170 -1.4620
 6370SOL     OW30571   1.709   3.700  11.277  0.9668 -0.2206 -0.1442
 6370SOL    HW130572   1.617   3.682  11.297  1.2016 -0.2618  0.8706
 6370SOL    HW230573   1.698   3.746  11.194  1.1689  0.0475 -0.0190
 6371SOL     OW30574   0.176   1.173   1.591 -0.0446 -0.5805 -0.0336
 6371SOL    HW130575   0.200   1.234   1.521  0.1327 -2.2172 -1.4110
 6371SOL    HW230576   0.155   1.233   1.663 -2.7270 -0.5182 -0.8569
 6372SOL     OW30577   3.935   0.061  17.171 -0.0896  0.0361 -0.0804
 6372SOL    HW130578   3.996   0.067  17.097  0.3846 -0.5269  0.2657
 6372SOL    HW230579   3.898   4.701  17.144  0.4720 -0.6405  1.2260
 6373SOL     OW30580   1.391   2.287   8.353 -0.1342 -0.3790  0.0242
 6373SOL    HW130581   1.481   2.281   8.387  0.4745  0.9874 -1.4015
 6373SOL    HW230582   1.374   2.381   8.354  1.6849 -0.0670  0.9147
 6374SOL     OW30583   3.138   1.252   0.119 -0.0259 -0.1094  0.0777
 6374SOL    HW130584   3.051   1.271   0.153  0.1074 -0.2248  0.4803
 6374SOL    HW230585   3.203   1.301   0.170  0.7987 -1.1317  0.0046
 6375SOL     OW30586   0.476   3.176   1.328  0.4952 -0.0046  0.0230
 6375SOL    HW130587   0.396   3.178   1.381  0.2785  0.3754 -0.3140
 6375SOL    HW230588   0.446   3.142   1.243 -1.5204 -1.8615  1.4728
 6376SOL     OW30589   3.207   2.640   7.167  0.3277  0.0222 -0.7767
 6376SOL    HW130590   3.301   2.627   7.178  0.0800  0.9711  2.4961
 6376SOL    HW230591   3.169   2.563   7.210  2.4873  1.6714  4.0599
 6377SOL     OW30592   1.477   3.267  15.703  0.3370  0.8324 -0.0637
 6377SOL    HW130593   1.508   3.201  15.641 -0.8797  2.0104 -1.9035
 6377SOL    HW230594   1.404   3.301  15.652  0.1905  2.8909  1.5111
 6378SOL     OW30595   0.203   2.679  12.342  0.6704 -0.3244  0.0275
 6378SOL    HW130596   0.238   2.717  12.261 -1.4311  1.4776 -0.0297
 6378SOL    HW230597   0.134   2.620  12.314 -0.1990  1.6069 -2.0027
 6379SOL     OW30598   2.466   1.059  15.805 -0.5173  0.0240  0.0148
 6379SOL    HW130599   2.522   1.057  15.883  1.7928 -2.6369 -1.6729
 6379SOL    HW230600   2.432   1.148  15.808 -2.0304 -0.5916  0.7685
 6380SOL     OW30601   2.883   2.191   6.940  0.3692 -0.1205  0.9627
 6380SOL    HW130602   2.863   2.284   6.932  4.3819  0.7155  0.9696
 6380SOL    HW230603   2.842   2.164   7.022 -1.5343  0.4837  0.2085
 6381SOL     OW30604   1.803   4.066  13.128 -0.2097  0.5592  0.4621
 6381SOL    HW130605   1.769   4.085  13.040 -0.3353 -0.5149  0.2769
 6381SOL    HW230606   1.871   4.004  13.101 -3.0049 -1.6044 -1.6233
 6382SOL     OW30607   3.203   2.811   7.432  0.3871  0.5211 -0.7410
 6382SOL    HW130608   3.192   2.750   7.359 -3.1903 -1.0057  1.0944
 6382SOL    HW230609   3.116   2.850   7.432  0.5798  0.9603 -0.9320
 6383SOL     OW30610   1.715   0.288  17.512 -0.2341  0.1210 -0.2975
 6383SOL    HW130611   1.674   0.374  17.526 -0.1127  0.2411 -0.6589
 6383SOL    HW230612   1.791   0.303  17.455  0.0858  0.1815  0.1486
 6384SOL     OW30613   2.437   2.804   5.517  0.0073  0.0921  0.4734
 6384SOL    HW130614   2.383   2.883   5.526 -0.0733  0.1485 -0.5177
 6384SOL    HW230615   2.460   2.794   5.609  1.2641 -0.2620  0.1176
 6385SOL     OW30616   4.444   2.022   8.853 -0.3028 -0.5663 -0.0016
 6385SOL    HW130617   4.501   2.081   8.902 -0.9395  1.1108 -1.3045
 6385SOL    HW230618   4.368   2.078   8.868  0.1756  0.3815 -1.1146
 6386SOL     OW30619   1.526   3.106  15.472 -0.2544  0.2967  0.4031
 6386SOL    HW130620   1.484   3.065  15.397 -0.2261  3.0232 -1.1053
 6386SOL    HW230621   1.619   3.123  15.454 -0.2496 -1.4721 -1.1205
 6387SOL     OW30622   2.335   0.327   5.046 -0.2195 -0.1819 -0.6616
 6387SOL    HW130623   2.363   0.300   5.133  1.8359  1.0270 -0.9238
 6387SOL    HW230624   2.272   0.394   5.073 -0.0120 -0.1592 -0.2335
 6388SOL     OW30625   3.484   4.569   5.928 -0.0879  0.1646  0.4525
 6388SOL    HW130626   3.493   4.662   5.911  0.3569  0.0415  0.0135
 6388SOL    HW230627   3.411   4.556   5.868 -0.9933  1.3152  1.3057
 6389SOL     OW30628   1.561   4.649   2.114 -0.6712 -0.8455 -0.3317
 6389SOL    HW130629   1.508   4.578   2.149 -1.4799 -0.5434 -0.9376
 6389SOL    HW230630   1.491   4.704   2.080  1.5590  1.8894 -0.4862
 6390SOL     OW30631   2.984   2.221   1.645  0.1187  0.0875 -0.3603
 6390SOL    HW130632   2.972   2.135   1.686 -0.1634 -0.3506 -1.3885
 6390SOL    HW230633   2.924   2.204   1.573  1.3287 -4.1839 -0.3108
 6391SOL     OW30634   4.561   0.163   8.637  0.6341  0.2443  0.3284
 6391SOL    HW130635   4.588   0.145   8.727 -1.3694  0.9412  1.0682
 6391SOL    HW230636   4.540   0.075   8.604  1.6965  0.0023  0.3043
 6392SOL     OW30637   2.673   1.487  16.639  0.8935  0.0632  0.4663
 6392SOL    HW130638   2.595   1.499  16.693 -0.0257 -0.8870 -0.6557
 6392SOL    HW230639   2.671   1.563  16.580 -0.6050 -0.6791 -0.4275
 6393SOL     OW30640   0.014   1.733   4.989  0.6112  0.3612 -0.3555
 6393SOL    HW130641   0.093   1.705   5.035  1.0344  1.2159 -0.5674
 6393SOL    HW230642   4.700   1.797   5.049 -1.4776 -1.2455  0.0513
 6394SOL     OW30643   1.124   2.043   6.074 -0.5633 -0.4192 -0.7101
 6394SOL    HW130644   1.135   2.091   5.993  1.3813 -1.5000 -1.0843
 6394SOL    HW230645   1.032   2.067   6.083 -0.2228  0.8599 -0.7106
 6395SOL     OW30646   4.644   2.127   3.221 -0.4878 -0.2422 -0.5977
 6395SOL    HW130647   4.624   2.215   3.188  0.4088  0.2218  0.1211
 6395SOL    HW230648   4.710   2.149   3.285 -0.6359 -0.2067 -0.4575
 6396SOL     OW30649   3.582   3.086   3.090 -0.1436  0.2115 -0.0776
 6396SOL    HW130650   3.677   3.076   3.085 -0.4011 -1.1515 -2.3481
 6396SOL    HW230651   3.577   3.171   3.134 -0.1439  0.6684 -0.9682
 6397SOL     OW30652   2.110   4.202   9.460 -0.7376 -0.3670 -0.3124
 6397SOL    HW130653   2.080   4.226   9.373 -1.6540  2.9613  0.9432
 6397SOL    HW230654   2.100   4.107   9.456  0.6973 -0.5783  0.8599
 6398SOL     OW30655   1.961   4.492  12.426  0.1724  0.7270 -0.3551
 6398SOL    HW130656   2.054   4.516  12.425 -0.1154  1.8954  1.4897
 6398SOL    HW230657   1.946   4.468  12.335  0.2118 -2.2302  0.4208
 6399SOL     OW30658   4.366   2.665  14.975 -0.5444 -0.5410 -0.2144
 6399SOL    HW130659   4.342   2.590  14.920 -0.8478 -0.3721 -0.3187
 6399SOL    HW230660   4.361   2.738  14.913  0.2626 -0.1793  0.1610
 6400SOL     OW30661   2.335   1.074   7.133 -0.4222  0.1416  0.1753
 6400SOL    HW130662   2.381   1.002   7.089 -0.5956 -0.1015  0.3914
 6400SOL    HW230663   2.318   1.127   7.055 -0.9512 -1.4495 -0.7770
 6401SOL     OW30664   1.338   2.544   8.323  0.9669  0.4131 -0.3212
 6401SOL    HW130665   1.366   2.590   8.244  1.0758 -1.9134 -1.6417
 6401SOL    HW230666   1.244   2.559   8.319  0.5580 -2.8254 -2.8336
 6402SOL     OW30667   4.543   3.946   9.012  0.0927 -0.9346  0.1762
 6402SOL    HW130668   4.595   3.897   9.075  1.7380 -0.4884 -0.8427
 6402SOL    HW230669   4.554   3.889   8.936 -0.9372 -0.8872 -0.0172
 6403SOL     OW30670   2.718   4.515   4.899 -0.0068  0.2747  0.0319
 6403SOL    HW130671   2.714   4.487   4.808  2.0995 -2.0684  0.6676
 6403SOL    HW230672   2.775   4.450   4.940 -0.1918  0.7844  1.1160
 6404SOL     OW30673   4.484   3.624   3.022 -0.1154  0.4856 -0.0001
 6404SOL    HW130674   4.538   3.678   3.080  1.8029 -0.3308 -1.0113
 6404SOL    HW230675   4.473   3.687   2.951 -2.0903  0.6938  0.4990
 6405SOL     OW30676   3.258   3.749   5.148  0.3591 -0.7549 -0.0439
 6405SOL    HW130677   3.210   3.820   5.190  0.4130  0.0286 -1.3012
 6405SOL    HW230678   3.347   3.778   5.168  0.0466  0.1995 -0.0450
 6406SOL     OW30679   3.452   3.597   3.225  0.3824  0.2574 -0.2717
 6406SOL    HW130680   3.367   3.618   3.187 -0.2745 -1.9858 -0.0259
 6406SOL    HW230681   3.509   3.674   3.219  0.3220  0.3111 -0.1597
 6407SOL     OW30682   4.282   1.278  15.921  0.0305 -0.3733 -0.6576
 6407SOL    HW130683   4.198   1.281  15.875  0.2867  0.1638 -1.0863
 6407SOL    HW230684   4.277   1.218  15.996  0.5959  1.4473  0.8400
 6408SOL     OW30685   3.734   0.381   1.508  0.0898  0.4248  0.6489
 6408SOL    HW130686   3.699   0.467   1.485 -0.4450  0.8967  3.2497
 6408SOL    HW230687   3.657   0.347   1.554 -0.9929  2.2003  0.1862
 6409SOL     OW30688   3.927   1.649  17.016  0.6298  0.4861 -0.5246
 6409SOL    HW130689   3.859   1.641  16.949 -0.7329 -4.5084  1.4222
 6409SOL    HW230690   3.879   1.695  17.085 -0.2326 -1.1225 -0.0382
 6410SOL     OW30691   3.690   3.468   2.076 -0.0476 -0.2455  0.7022
 6410SOL    HW130692   3.766   3.506   2.032 -1.1367  2.6662  1.3449
 6410SOL    HW230693   3.717   3.482   2.167 -3.1329  0.9660  1.4494
 6411SOL     OW30694   2.454   3.199   5.155  1.0085  0.6125  0.0408
 6411SOL    HW130695   2.513   3.273   5.143  2.4188 -0.6761 -0.9678
 6411SOL    HW230696   2.526   3.138   5.169  1.0211 -0.0836 -3.0729
 6412SOL     OW30697   3.580   3.118  11.408  0.7026 -0.4013 -0.0782
 6412SOL    HW130698   3.548   3.099  11.320  0.7020  0.2360 -0.2119
 6412SOL    HW230699   3.637   3.042  11.425 -1.0504 -1.0876  2.8262
 6413SOL     OW30700   3.239   0.590   7.724 -0.0985 -0.0838  0.1471
 6413SOL    HW130701   3.159   0.640   7.741 -0.0488 -0.3855  1.2739
 6413SOL    HW230702   3.256   0.624   7.636  1.0990 -0.1863  0.3450
 6414SOL     OW30703   2.444   4.502   4.295  0.5837  0.1493 -0.1939
 6414SOL    HW130704   2.445   4.535   4.205  0.6070  1.2381  0.2020
 6414SOL    HW230705   2.510   4.434   4.281  0.3329  0.2215 -1.6495
 6415SOL     OW30706   0.387   2.958   8.093 -0.2966 -0.2920  0.4509
 6415SOL    HW130707   0.420   2.928   8.008  0.6449 -3.6325  2.0132
 6415SOL    HW230708   0.445   3.034   8.102  1.6009 -2.0826  3.1789
 6416SOL     OW30709   0.945   3.392  14.607 -0.7407  0.2251  0.3717
 6416SOL    HW130710   0.983   3.462  14.660  1.8959 -0.8709 -0.0346
 6416SOL    HW230711   0.983   3.413  14.521 -2.5794 -1.8488 -0.9496
 6417SOL     OW30712   4.073   0.012   7.691  0.2457  0.4593  0.3960
 6417SOL    HW130713   4.084   0.106   7.708 -0.5988 -0.1884  4.7054
 6417SOL    HW230714   4.121   4.696   7.764  1.3296 -2.5130 -1.9283
 6418SOL     OW30715   3.869   2.038  14.221 -0.2009 -1.0201 -0.0993
 6418SOL    HW130716   3.839   1.968  14.163 -1.4868 -0.7235  0.2200
 6418SOL    HW230717   3.810   2.039  14.297  0.1986  1.4637  0.1754
 6419SOL     OW30718   4.500   3.347   6.124 -0.3800 -0.3705 -0.6814
 6419SOL    HW130719   4.467   3.297   6.050 -2.1524  1.6252 -1.2288
 6419SOL    HW230720   4.537   3.271   6.170  2.5746 -0.3905 -3.0528
 6420SOL     OW30721   3.089   0.588   1.797 -0.1903 -0.0356  0.3678
 6420SOL    HW130722   3.118   0.521   1.735  0.3627 -0.0466  0.6331
 6420SOL    HW230723   3.152   0.586   1.870 -1.0138 -0.0143  1.0778
 6421SOL     OW30724   0.079   0.151  15.080 -0.1060  0.4526  0.5887
 6421SOL    HW130725   0.113   0.090  15.146 -1.0623 -1.7855 -0.9730
 6421SOL    HW230726   0.159   0.159  15.028  0.4416  1.8522  1.6581
 6422SOL     OW30727   1.430   1.628   6.726 -0.3991 -0.7066  0.3786
 6422SOL    HW130728   1.350   1.578   6.705  0.1336 -1.1107 -0.7138
 6422SOL    HW230729   1.408   1.664   6.812  0.0009 -0.8611  0.5445
 6423SOL     OW30730   3.238   4.614   9.442 -0.1389  0.1579  0.4302
 6423SOL    HW130731   3.190   4.532   9.435  0.8001 -0.4139  0.8151
 6423SOL    HW230732   3.324   4.580   9.467  0.3400  0.1121 -1.3218
 6424SOL     OW30733   2.300   3.394   3.260 -0.6261 -0.5428  0.2300
 6424SOL    HW130734   2.384   3.417   3.298 -0.1766 -0.2894 -0.9104
 6424SOL    HW230735   2.315   3.408   3.166 -0.9665  1.7420  0.5337
 6425SOL     OW30736   2.820   1.711   5.923 -0.3255 -0.4999  0.1203
 6425SOL    HW130737   2.839   1.705   6.017 -0.7597  1.7454  0.3447
 6425SOL    HW230738   2.888   1.771   5.894  0.7379 -0.5606  2.4912
 6426SOL     OW30739   4.499   3.697   5.225  0.1154 -0.4880 -0.3174
 6426SOL    HW130740   4.428   3.748   5.187  0.8020  0.4214 -0.3958
 6426SOL    HW230741   4.557   3.712   5.150  1.4784 -0.6216  0.7053
 6427SOL     OW30742   3.493   4.186   4.359  0.3139 -0.4270  0.6683
 6427SOL    HW130743   3.438   4.165   4.434  0.6302 -0.0082  1.0216
 6427SOL    HW230744   3.562   4.119   4.363  0.6104 -0.3422 -2.5437
 6428SOL     OW30745   3.786   4.706   5.709 -0.1116 -0.0839  0.0705
 6428SOL    HW130746   3.700   0.023   5.722 -0.6795 -1.3135  0.1715
 6428SOL    HW230747   3.837   0.051   5.752 -0.2445  0.6317 -0.9059
 6429SOL     OW30748   0.882   3.961   9.423 -0.8095 -0.1592 -0.0320
 6429SOL    HW130749   0.844   3.939   9.507  1.8363 -1.5694  0.7993
 6429SOL    HW230750   0.867   4.056   9.417 -0.6314 -0.2037 -1.1951
 6430SOL     OW30751   0.899   2.907   3.646  0.8663 -0.0573  0.4534
 6430SOL    HW130752   0.888   3.002   3.652 -1.3195 -0.2358 -0.9692
 6430SOL    HW230753   0.903   2.891   3.552 -0.2478  1.1218  0.2040
 6431SOL     OW30754   2.208   3.464  14.430 -0.3340 -0.3066  0.5310
 6431SOL    HW130755   2.219   3.548  14.475  0.8796 -1.2847  2.0700
 6431SOL    HW230756   2.297   3.432  14.442  1.0161  2.2354 -2.5880
 6432SOL     OW30757   0.021   1.851  14.929  0.4348 -0.4044 -0.0787
 6432SOL    HW130758   0.049   1.810  14.847  0.2439 -2.0826  0.7039
 6432SOL    HW230759   0.081   1.924  14.943 -2.4609  1.6091  1.8328
 6433SOL     OW30760   1.923   2.226   3.896  0.3293 -0.1785 -0.0467
 6433SOL    HW130761   1.950   2.313   3.865  0.1469 -0.8153 -2.0280
 6433SOL    HW230762   1.863   2.239   3.969  0.2761  1.3061 -0.3499
 6434SOL     OW30763   0.692   0.190   9.129  1.1663 -0.4503 -0.3420
 6434SOL    HW130764   0.654   0.274   9.156  1.8987 -0.7096  1.5198
 6434SOL    HW230765   0.673   0.192   9.035  0.7024 -3.7047 -0.3107
 6435SOL     OW30766   3.241   2.367  11.999  0.5691  0.5190 -0.4576
 6435SOL    HW130767   3.272   2.368  11.909  1.6423 -0.4515 -0.1051
 6435SOL    HW230768   3.146   2.361  11.993  0.8135 -2.8942 -1.1587
 6436SOL     OW30769   2.596   1.993   9.758  0.1569 -0.1167  0.4460
 6436SOL    HW130770   2.609   2.065   9.820 -2.3243 -1.1549  2.1755
 6436SOL    HW230771   2.518   2.023   9.712  0.0550  1.5382  1.6999
 6437SOL     OW30772   3.812   4.135   9.036 -0.1100  0.0776 -0.1791
 6437SOL    HW130773   3.884   4.084   9.075  0.6317  1.7235  0.6225
 6437SOL    HW230774   3.859   4.218   9.026  1.3434 -0.7943 -0.5962
 6438SOL     OW30775   2.463   2.489   8.985  0.1071 -0.4166  0.1451
 6438SOL    HW130776   2.374   2.454   8.993 -0.6012  1.1423 -0.7592
 6438SOL    HW230777   2.445   2.583   8.982 -1.3134 -0.6658  0.6155
 6439SOL     OW30778   1.721   2.119  11.435 -0.3156  0.4907 -0.1285
 6439SOL    HW130779   1.696   2.029  11.415 -1.3388  0.3338  1.8315
 6439SOL    HW230780   1.740   2.127  11.528  0.6498  1.3832 -0.3991
 6440SOL     OW30781   4.472   0.881   2.618  0.4792  0.4382 -0.6329
 6440SOL    HW130782   4.387   0.882   2.662  0.1160 -2.6710 -1.3315
 6440SOL    HW230783   4.463   0.818   2.547  1.9617 -0.2210 -0.2293
 6441SOL     OW30784   0.885   4.487   7.002 -0.6601  0.2400  0.4083
 6441SOL    HW130785   0.900   4.439   6.920  3.0846 -0.9868  1.8414
 6441SOL    HW230786   0.968   4.484   7.048 -0.4197 -1.2094 -0.1082
 6442SOL     OW30787   2.089   4.109  12.636  0.7822 -0.0813  1.4666
 6442SOL    HW130788   2.005   4.083  12.599 -0.2824  0.0639  3.8373
 6442SOL    HW230789   2.089   4.069  12.723  0.3676 -3.5760 -0.1372
 6443SOL     OW30790   4.706   1.025   3.431 -0.2636  0.4039  0.1396
 6443SOL    HW130791   4.693   1.099   3.373  1.4343 -0.4896 -1.3742
 6443SOL    HW230792   4.635   0.962   3.413 -0.8563  0.7625  1.1945
 6444SOL     OW30793   2.113   2.948   5.435  0.5335  0.0199  0.1183
 6444SOL    HW130794   2.086   3.021   5.380 -1.5857 -0.5902  0.3470
 6444SOL    HW230795   2.149   2.998   5.507 -0.3986 -0.2312  0.7504
 6445SOL     OW30796   4.458   1.420   1.829  0.5604 -0.5198  0.2063
 6445SOL    HW130797   4.371   1.389   1.806  0.2659  1.2633 -1.0634
 6445SOL    HW230798   4.440   1.501   1.877  1.0782 -0.3049  0.0340
 6446SOL     OW30799   0.555   2.497   2.217 -0.0214 -0.4569 -0.1363
 6446SOL    HW130800   0.521   2.554   2.148  0.5641 -0.9027 -0.7985
 6446SOL    HW230801   0.594   2.564   2.273 -2.0619  0.0110  0.6923
 6447SOL     OW30802   1.551   4.029   1.546  0.2848 -0.1467  0.0716
 6447SOL    HW130803   1.633   4.016   1.594 -1.3223  0.0728  2.8309
 6447SOL    HW230804   1.486   4.036   1.615 -0.8607 -0.7694 -0.9390
 6448SOL     OW30805   2.461   0.302   8.298 -0.0385  0.0991 -0.2823
 6448SOL    HW130806   2.515   0.273   8.371  1.4984 -0.0499 -1.4915
 6448SOL    HW230807   2.529   0.350   8.252 -0.9284  1.7886  0.1693
 6449SOL     OW30808   3.455   2.510   5.894 -0.7186 -0.5380 -0.4916
 6449SOL    HW130809   3.472   2.417   5.881  0.4469 -0.5171  0.8360
 6449SOL    HW230810   3.382   2.496   5.955 -0.5861 -2.0018 -0.6718
 6450SOL     OW30811   2.216   0.351   2.410 -0.3224 -0.1013  0.1458
 6450SOL    HW130812   2.243   0.366   2.319 -1.3003  1.5666  0.1335
 6450SOL    HW230813   2.205   0.440   2.444  0.7406 -0.5334  1.6280
 6451SOL     OW30814   2.962   2.478   5.359  0.0524  0.2235  0.2294
 6451SOL    HW130815   3.047   2.463   5.317 -0.0474  2.5876 -0.8331
 6451SOL    HW230816   2.943   2.391   5.394  1.0696 -0.8510 -1.8598
 6452SOL     OW30817   1.837   1.249   7.186  0.0439 -0.6862  0.4334
 6452SOL    HW130818   1.744   1.273   7.189 -0.2111 -1.6181  0.1768
 6452SOL    HW230819   1.828   1.161   7.222 -3.4258 -0.4175  0.2677
 6453SOL     OW30820   0.900   0.001  13.847 -0.7834  0.1592  1.0717
 6453SOL    HW130821   0.920   4.683  13.763 -0.5194  0.7601  0.8282
 6453SOL    HW230822   0.875   4.653  13.904 -0.8691 -0.1017  0.7044
 6454SOL     OW30823   2.410   1.896  16.258 -0.0520  0.0997 -0.4522
 6454SOL    HW130824   2.351   1.820  16.258 -0.1626  0.1914  2.1331
 6454SOL    HW230825   2.364   1.944  16.188  0.5728  2.5793  0.8159
 6455SOL     OW30826   3.902   0.648   6.429  0.3865  0.1263 -0.2703
 6455SOL    HW130827   3.969   0.581   6.438  0.3643  0.1769  0.2324
 6455SOL    HW230828   3.823   0.615   6.471  0.2851 -3.8119 -3.6034
 6456SOL     OW30829   4.611   0.744   6.463 -0.0803 -0.1065 -0.5701
 6456SOL    HW130830   4.598   0.725   6.370  0.9936 -0.2143 -0.7023
 6456SOL    HW230831   4.603   0.839   6.463  0.6300 -0.0320  1.5913
 6457SOL     OW30832   3.635   3.512   2.954  0.4711 -0.4697  0.3886
 6457SOL    HW130833   3.723   3.545   2.935 -0.2799 -0.5941 -3.1928
 6457SOL    HW230834   3.598   3.492   2.868  0.9739 -1.0127  0.2970
 6458SOL     OW30835   1.362   2.483   4.412  0.0395 -0.1499 -0.1312
 6458SOL    HW130836   1.348   2.577   4.397  0.9357  0.0005 -0.0055
 6458SOL    HW230837   1.447   2.468   4.453 -0.2137 -0.3880  0.3083
 6459SOL     OW30838   1.617   1.109   8.571 -0.3798 -0.1655  0.4913
 6459SOL    HW130839   1.565   1.030   8.583  0.4657 -0.8546 -0.3760
 6459SOL    HW230840   1.581   1.175   8.630 -3.5088 -2.0693  0.6949
 6460SOL     OW30841   2.498   1.781   2.709 -0.1224  0.2603 -0.0159
 6460SOL    HW130842   2.554   1.857   2.697  0.5052 -0.0475  0.9694
 6460SOL    HW230843   2.485   1.776   2.803 -0.7537 -0.4886 -0.1372
 6461SOL     OW30844   1.301   2.603  13.309  0.0505  0.8393 -0.2550
 6461SOL    HW130845   1.314   2.695  13.329  1.5640  0.2915  1.2829
 6461SOL    HW230846   1.293   2.565  13.397 -0.8435 -0.4656 -0.8874
 6462SOL     OW30847   1.340   0.505   9.061 -0.2127 -0.6227 -0.5288
 6462SOL    HW130848   1.371   0.557   9.135  0.0988 -2.9182  0.9456
 6462SOL    HW230849   1.401   0.512   8.987  1.9156  0.6206  1.3470
 6463SOL     OW30850   3.207   3.757   9.169 -0.0575 -0.0437 -0.1766
 6463SOL    HW130851   3.133   3.699   9.152  0.1843 -0.5155  0.3985
 6463SOL    HW230852   3.164   3.829   9.215  0.2291 -1.4944  2.3350
 6464SOL     OW30853   1.679   3.978   3.215  0.0283 -0.0931 -0.2415
 6464SOL    HW130854   1.637   3.940   3.292  0.0608  1.4344  0.5185
 6464SOL    HW230855   1.674   4.070   3.238 -0.3650 -0.5430  1.4299
 6465SOL     OW30856   1.920   2.263   8.880 -0.1901 -0.2354  0.8729
 6465SOL    HW130857   1.928   2.168   8.881 -0.8319 -0.2864 -0.7918
 6465SOL    HW230858   1.831   2.259   8.847  0.0136  0.8343  0.2126
 6466SOL     OW30859   4.570   1.787   6.790 -0.0977 -0.3448  0.1021
 6466SOL    HW130860   4.643   1.744   6.745  0.7410 -0.0800  1.1955
 6466SOL    HW230861   4.527   1.727   6.850  3.8452 -0.8336  2.4885
 6467SOL     OW30862   2.431   3.560  16.522  0.2287  0.4142  0.1829
 6467SOL    HW130863   2.411   3.529  16.434  2.9697  0.2795 -0.3832
 6467SOL    HW230864   2.494   3.492  16.546 -1.9580 -1.2983  1.1379
 6468SOL     OW30865   3.064   2.626   4.787 -0.1964  0.0438 -0.1382
 6468SOL    HW130866   3.151   2.666   4.782 -0.8492  1.5217  0.4101
 6468SOL    HW230867   3.067   2.581   4.872  1.1509  1.6732  0.6872
 6469SOL     OW30868   4.494   0.240   0.977 -0.2009  0.2546  0.1421
 6469SOL    HW130869   4.421   0.300   0.991 -0.0416  0.7359 -1.0704
 6469SOL    HW230870   4.490   0.180   1.052 -0.5372  0.0512 -0.0388
 6470SOL     OW30871   2.455   2.317   2.298  0.4017 -0.2280  0.7657
 6470SOL    HW130872   2.449   2.403   2.340  0.1458 -1.0815  2.4854
 6470SOL    HW230873   2.367   2.289   2.272  0.1984  2.1986 -1.1241
 6471SOL     OW30874   2.383   2.395   0.066 -0.0524  0.3491 -0.1087
 6471SOL    HW130875   2.405   2.349  17.681 -1.1535 -2.7837  1.3702
 6471SOL    HW230876   2.315   2.337   0.101  0.2453  1.0285  1.6031
 6472SOL     OW30877   4.564   3.774   4.586 -0.5228  0.1029 -0.4801
 6472SOL    HW130878   4.637   3.832   4.564 -0.7760 -0.0049 -1.6277
 6472SOL    HW230879   4.526   3.783   4.499  0.2098  0.7173 -0.7303
 6473SOL     OW30880   0.545   1.300   3.351  0.1706 -0.6237 -0.6398
 6473SOL    HW130881   0.623   1.276   3.301  0.6489  0.6827 -0.5055
 6473SOL    HW230882   0.567   1.387   3.384  1.4663 -1.0731 -0.2930
 6474SOL     OW30883   0.037   0.210  16.565 -0.1527  0.2308  0.1331
 6474SOL    HW130884   0.098   0.136  16.568 -0.2843  0.1741  1.6923
 6474SOL    HW230885   0.036   0.240  16.656  1.4874  1.4649 -0.2562
 6475SOL     OW30886   2.445   3.979   2.611 -0.1790 -0.4364 -0.4978
 6475SOL    HW130887   2.424   3.888   2.589 -0.9458 -0.7900  1.7131
 6475SOL    HW230888   2.362   4.027   2.614 -0.0808 -0.1897 -1.5315
 6476SOL     OW30889   1.850   1.651  14.234  0.5080 -0.0861 -0.0916
 6476SOL    HW130890   1.907   1.594  14.286  0.1129 -1.4826 -1.1875
 6476SOL    HW230891   1.823   1.588  14.168 -2.2578  2.0374 -0.9898
 6477SOL     OW30892   1.041   2.844   7.806 -0.9589  0.2204  0.0989
 6477SOL    HW130893   1.074   2.934   7.797 -3.0401  1.0489  0.6131
 6477SOL    HW230894   1.051   2.843   7.902  1.1992 -3.5232 -0.1786
 6478SOL     OW30895   0.338   0.692   8.099 -0.3332 -0.0390 -0.3542
 6478SOL    HW130896   0.359   0.713   8.190 -0.2762 -3.0015  0.3237
 6478SOL    HW230897   0.270   0.627   8.118  0.3340 -0.0894  1.9526
 6479SOL     OW30898   2.938   3.724   9.027  0.4769  0.2925  0.3193
 6479SOL    HW130899   2.864   3.750   9.081 -0.2386  0.4039 -0.7251
 6479SOL    HW230900   2.943   3.630   9.045  3.1542  0.2311 -0.6790
 6480SOL     OW30901   3.505   1.458   7.900  0.4756 -0.1621  0.0211
 6480SOL    HW130902   3.505   1.536   7.845 -0.6866 -1.3322 -1.6457
 6480SOL    HW230903   3.535   1.500   7.980 -0.0744  1.1874 -0.4721
 6481SOL     OW30904   2.214   3.614   4.337 -0.0626  0.3548 -0.0451
 6481SOL    HW130905   2.128   3.587   4.306 -0.1204 -0.7376  1.0423
 6481SOL    HW230906   2.208   3.709   4.344  1.7890  0.5680 -1.4400
 6482SOL     OW30907   1.520   2.971   7.351  0.7674 -0.4579  0.6433
 6482SOL    HW130908   1.499   3.054   7.393 -1.0146 -1.2475  1.2664
 6482SOL    HW230909   1.608   2.944   7.380  2.6935  0.7981 -3.9760
 6483SOL     OW30910   3.038   1.337   9.904 -0.3699 -0.4387 -0.3022
 6483SOL    HW130911   2.988   1.411   9.870 -0.1515  0.6202  1.6759
 6483SOL    HW230912   3.125   1.351   9.865  0.3155  1.2922  1.8725
 6484SOL     OW30913   2.236   1.091   2.567  0.2101 -0.1161 -0.0759
 6484SOL    HW130914   2.196   1.174   2.542  0.1045 -0.9407 -2.7115
 6484SOL    HW230915   2.237   1.107   2.661 -0.8165  0.1083 -0.1023
 6485SOL     OW30916   2.046   4.691   7.860 -0.0475  0.3664 -0.3086
 6485SOL    HW130917   2.095   4.720   7.783  2.2809  0.1521  1.0917
 6485SOL    HW230918   2.118   4.683   7.922 -2.0430  0.4541  2.0178
 6486SOL     OW30919   3.112   1.785   2.616  0.1120  0.2779 -0.0363
 6486SOL    HW130920   3.196   1.748   2.589  0.1453  1.1284 -1.0936
 6486SOL    HW230921   3.113   1.876   2.585 -1.9035  0.6539  1.0050
 6487SOL     OW30922   1.443   0.594   5.674 -0.5809 -0.2789 -0.1117
 6487SOL    HW130923   1.373   0.541   5.636 -0.9078  1.2020 -1.5551
 6487SOL    HW230924   1.497   0.526   5.713  1.6823  1.4212 -0.2673
 6488SOL     OW30925   2.929   2.348   9.494 -0.6105  0.3829  0.0182
 6488SOL    HW130926   2.880   2.372   9.572 -0.9820 -0.4848  0.0494
 6488SOL    HW230927   2.955   2.256   9.506 -2.7071  0.0204  1.6901
 6489SOL     OW30928   3.743   0.266   6.161 -0.5323 -0.2524  0.5966
 6489SOL    HW130929   3.742   0.349   6.208 -0.5420 -0.6188  1.2388
 6489SOL    HW230930   3.649   0.257   6.148 -0.9246  0.7384  2.8686
 6490SOL     OW30931   0.602   4.497   5.558  0.2564  0.1922  0.5489
 6490SOL    HW130932   0.606   4.590   5.581 -0.3830  0.3911 -0.1244
 6490SOL    HW230933   0.512   4.497   5.525  0.4586 -0.4482  0.0038
 6491SOL     OW30934   4.364   2.200   5.177 -0.7530 -0.0793 -0.0906
 6491SOL    HW130935   4.426   2.137   5.140 -1.3562 -0.6800 -0.0735
 6491SOL    HW230936   4.406   2.195   5.263  0.4083 -1.1394 -0.7197
 6492SOL     OW30937   1.388   0.308   6.566  0.1245  0.1888 -0.4667
 6492SOL    HW130938   1.397   0.392   6.611 -0.2995  0.9432 -1.7764
 6492SOL    HW230939   1.358   0.337   6.480  1.0556 -1.0178 -1.1959
 6493SOL     OW30940   2.783   0.791   9.531 -0.1191 -0.2841 -0.2167
 6493SOL    HW130941   2.725   0.720   9.558  0.3027 -1.1957 -1.6630
 6493SOL    HW230942   2.745   0.816   9.447  0.6915 -2.5233 -1.2504
 6494SOL     OW30943   0.978   1.613   2.620  0.4599 -0.0858  0.1444
 6494SOL    HW130944   1.036   1.685   2.594 -0.0739 -0.0670 -0.9636
 6494SOL    HW230945   1.043   1.545   2.640  1.7426  1.5837  1.6825
 6495SOL     OW30946   1.028   3.517   4.942  0.3563 -0.1132  0.0384
 6495SOL    HW130947   1.108   3.531   4.993  0.4599  3.4345 -1.1051
 6495SOL    HW230948   1.064   3.454   4.879 -0.2659 -0.0576 -0.3674
 6496SOL     OW30949   3.389   0.687   2.540  0.9004 -0.2604 -0.2773
 6496SOL    HW130950   3.364   0.752   2.605 -0.5652  0.9518 -2.0355
 6496SOL    HW230951   3.373   0.605   2.586 -1.0081  0.5532  0.5418
 6497SOL     OW30952   0.716   3.733   7.580 -0.1556  0.4448 -0.0200
 6497SOL    HW130953   0.674   3.670   7.638 -1.2423  0.3524 -0.9008
 6497SOL    HW230954   0.753   3.676   7.512 -0.0992 -0.0112  0.3964
 6498SOL     OW30955   4.465   1.285   6.238 -0.0027 -0.0976  0.1084
 6498SOL    HW130956   4.452   1.376   6.265  0.2323 -0.0236 -0.0330
 6498SOL    HW230957   4.446   1.240   6.320 -1.6577  0.6717  0.1510
 6499SOL     OW30958   2.789   4.530  11.373  0.2368 -0.1830  0.7902
 6499SOL    HW130959   2.870   4.524  11.422  0.5707  1.6542  0.4599
 6499SOL    HW230960   2.800   4.460  11.308  2.7708  1.1800 -0.2390
 6500SOL     OW30961   3.530   1.523   2.637 -0.2602 -0.4529  0.2552
 6500SOL    HW130962   3.586   1.513   2.714 -0.0998 -1.9152 -0.0563
 6500SOL    HW230963   3.548   1.435   2.605 -0.0128 -0.5623  0.6905
 6501SOL     OW30964   1.746   2.964   6.404 -0.7062 -0.4311 -0.7585
 6501SOL    HW130965   1.661   2.981   6.366 -0.7143 -0.3044 -0.6835
 6501SOL    HW230966   1.761   3.050   6.443  0.7941 -1.2505  0.5131
 6502SOL     OW30967   4.398   1.875  12.889 -0.1892  0.1724  0.4451
 6502SOL    HW130968   4.476   1.887  12.835 -1.2697  0.6920 -0.9835
 6502SOL    HW230969   4.350   1.957  12.875  1.1736  1.4716  3.3732
 6503SOL     OW30970   1.278   3.669   3.012  0.0668  0.2364  0.4431
 6503SOL    HW130971   1.184   3.654   3.003  0.3707 -1.6595  0.2746
 6503SOL    HW230972   1.287   3.639   2.921 -0.3914  0.0928  0.4447
 6504SOL     OW30973   2.527   3.244   7.961 -0.0546  0.5195  0.4493
 6504SOL    HW130974   2.548   3.329   7.999  0.5544  0.6411 -0.1441
 6504SOL    HW230975   2.432   3.252   7.963 -0.0471  0.8403 -0.4542
 6505SOL     OW30976   1.327   2.429  13.104 -0.3014  0.0026  0.1568
 6505SOL    HW130977   1.326   2.496  13.171 -1.0570 -1.6896  1.8360
 6505SOL    HW230978   1.249   2.375  13.117  0.0546 -0.9021 -1.4286
 6506SOL     OW30979   0.225   0.761   5.589  0.0447  0.5742 -0.0375
 6506SOL    HW130980   0.165   0.688   5.601 -1.9556  2.3675  0.9490
 6506SOL    HW230981   0.273   0.771   5.671 -0.0922  0.1461  0.0936
 6507SOL     OW30982   1.067   2.901   2.614  0.5480 -0.5869 -0.2290
 6507SOL    HW130983   0.984   2.853   2.612  0.2204 -0.0525  0.5549
 6507SOL    HW230984   1.090   2.896   2.522  0.3491 -0.0421 -0.3046
 6508SOL     OW30985   1.113   0.391   6.440  0.0412 -0.2351  0.4257
 6508SOL    HW130986   1.069   0.352   6.516 -1.0835  2.5753  1.2096
 6508SOL    HW230987   1.035   0.392   6.385  0.9384  0.5551 -0.8345
 6509SOL     OW30988   2.825   4.207   3.553 -0.0629  0.4362  0.3845
 6509SOL    HW130989   2.780   4.263   3.489 -0.1661  0.8724  0.8385
 6509SOL    HW230990   2.795   4.247   3.635 -1.0283  0.7777 -0.1380
 6510SOL     OW30991   0.654   4.517  13.732  0.5546  0.0022 -0.3809
 6510SOL    HW130992   0.598   4.555  13.801 -0.1335 -0.6974 -0.5508
 6510SOL    HW230993   0.728   4.506  13.791  0.6238 -1.2807 -0.7224
 6511SOL     OW30994   2.019   2.231   5.562  0.0285  0.2273  0.7264
 6511SOL    HW130995   1.980   2.318   5.569 -0.8872 -0.1460  0.3313
 6511SOL    HW230996   2.004   2.200   5.651 -0.7386  1.4095  1.0074
 6512SOL     OW30997   1.389   0.734   7.648 -0.0570 -0.7678  0.0062
 6512SOL    HW130998   1.374   0.648   7.610 -2.9865 -0.5391  0.6392
 6512SOL    HW230999   1.472   0.750   7.603 -0.3392 -0.4353 -0.3890
 6513SOL     OW31000   1.527   2.401  15.553 -0.8586 -0.4205  0.3093
 6513SOL    HW131001   1.543   2.310  15.577  0.7008 -0.4724 -0.9910
 6513SOL    HW231002   1.618   2.429  15.548 -0.3287 -2.6403 -2.2017
 6514SOL     OW31003   3.170   0.232   3.447 -0.8049 -0.2835 -0.0479
 6514SOL    HW131004   3.228   0.156   3.445 -0.9987 -0.4856  1.6252
 6514SOL    HW231005   3.146   0.239   3.355 -0.9728  0.8405  0.0767
 6515SOL     OW31006   1.422   0.022   8.107 -0.0663  0.0762 -0.0128
 6515SOL    HW131007   1.478   4.717   8.179 -0.1830  0.3620  0.1881
 6515SOL    HW231008   1.349   4.686   8.127 -1.4934  1.5287 -0.8881
 6516SOL     OW31009   0.985   3.039  15.559  0.0040 -1.1481  0.2894
 6516SOL    HW131010   0.900   3.007  15.527 -0.3657  2.0307 -1.9638
 6516SOL    HW231011   1.046   3.026  15.487  0.2434  1.6005 -0.0250
 6517SOL     OW31012   2.595   3.449   4.358 -0.1362  0.4291  0.1025
 6517SOL    HW131013   2.541   3.450   4.437 -0.5360  1.7943 -0.1974
 6517SOL    HW231014   2.665   3.505   4.391 -0.2237  0.5099  0.1487
 6518SOL     OW31015   1.056   1.122   8.440 -0.3407  0.0196 -0.2475
 6518SOL    HW131016   1.073   1.181   8.366 -0.6022 -0.3961 -0.6372
 6518SOL    HW231017   0.970   1.148   8.473 -0.8276 -2.4240  0.3919
 6519SOL     OW31018   1.820   2.270  13.695 -0.5507 -0.1547  0.6891
 6519SOL    HW131019   1.762   2.335  13.735 -0.2335 -1.3354  3.0830
 6519SOL    HW231020   1.832   2.197  13.755 -1.7216  0.2637  1.4429
 6520SOL     OW31021   2.434   2.708   6.813 -0.7098  0.2989  0.0065
 6520SOL    HW131022   2.485   2.652   6.756 -0.7048  0.2171  0.0911
 6520SOL    HW231023   2.345   2.673   6.818 -0.6338  0.6265  3.8615
 6521SOL     OW31024   2.960   1.832   3.430 -0.2080 -0.5456 -0.2601
 6521SOL    HW131025   2.866   1.849   3.429 -0.2067 -0.5843 -1.1316
 6521SOL    HW231026   2.992   1.916   3.462 -0.2045 -1.0906  1.1843
 6522SOL     OW31027   2.537   0.630  16.778 -0.0389  0.0455  0.2067
 6522SOL    HW131028   2.525   0.636  16.872  3.2519  4.0785  0.3726
 6522SOL    HW231029   2.478   0.693  16.736 -0.9321 -1.2422 -0.4739
 6523SOL     OW31030   1.393   0.185  12.317 -0.5125 -0.2497 -0.2841
 6523SOL    HW131031   1.474   0.166  12.364 -2.5102 -2.9807  2.0406
 6523SOL    HW231032   1.354   0.101  12.340  0.0904 -0.9747 -1.8968
 6524SOL     OW31033   2.433   4.193   0.933 -0.1005 -0.1387 -0.4254
 6524SOL    HW131034   2.510   4.245   0.911  0.2170 -0.1596  0.6101
 6524SOL    HW231035   2.389   4.265   0.978 -2.7053 -1.9282 -0.1264
 6525SOL     OW31036   0.629   0.033  13.224  0.0096 -0.6375 -0.2099
 6525SOL    HW131037   0.663   4.667  13.224  1.1826 -0.1924 -2.1587
 6525SOL    HW231038   0.576   0.035  13.144 -0.6105  1.0539  0.2417
 6526SOL     OW31039   3.918   1.358   4.122 -0.3369  0.0327 -0.3829
 6526SOL    HW131040   3.895   1.339   4.031  1.0390 -1.2131 -0.4778
 6526SOL    HW231041   3.998   1.305   4.126  0.1988  0.9422  0.9608
 6527SOL     OW31042   2.176   4.649  11.357 -0.5541  0.3824  0.3711
 6527SOL    HW131043   2.115   4.583  11.324  0.3180 -0.7984  1.0989
 6527SOL    HW231044   2.148   4.646  11.449 -0.1290  0.8310  0.5210
 6528SOL     OW31045   0.187   4.364   6.890 -0.2870  0.4894  0.0583
 6528SOL    HW131046   0.275   4.392   6.917 -0.7297  1.5895  0.3400
 6528SOL    HW231047   0.132   4.442   6.902 -2.9060 -1.2528 -0.7202
 6529SOL     OW31048   3.072   4.492   8.364  0.1990 -0.1414 -0.2939
 6529SOL    HW131049   3.079   4.419   8.302  1.4510 -1.6278  1.5888
 6529SOL    HW231050   3.145   4.540   8.325  0.2349 -2.3013 -2.9873
 6530SOL     OW31051   2.011   1.827  11.632  0.2087  0.0121  0.2021
 6530SOL    HW131052   1.990   1.909  11.677 -1.0917  0.7026 -1.6850
 6530SOL    HW231053   1.969   1.760  11.686 -0.5787  0.0409 -0.3706
 6531SOL     OW31054   0.185   3.331  16.633  0.2503 -0.0641 -0.4895
 6531SOL    HW131055   0.197   3.294  16.545  1.7322 -0.0320 -0.2905
 6531SOL    HW231056   0.257   3.303  16.689 -0.0786  0.9326  0.4204
 6532SOL     OW31057   4.473   3.354   2.289  0.0029 -0.3679  0.4452
 6532SOL    HW131058   4.383   3.328   2.269  0.3721  1.4610 -3.5312
 6532SOL    HW231059   4.452   3.407   2.366 -2.8773  0.3240 -0.8221
 6533SOL     OW31060   3.156   3.161   6.214 -0.4709  0.5228 -0.1904
 6533SOL    HW131061   3.224   3.128   6.156 -3.9685 -3.1267 -2.1621
 6533SOL    HW231062   3.124   3.216   6.143  1.3452 -0.3226 -1.6505
 6534SOL     OW31063   3.113   2.311  12.570 -0.3706 -0.2436 -0.2128
 6534SOL    HW131064   3.184   2.372  12.590 -1.6891  2.4786 -3.6238
 6534SOL    HW231065   3.141   2.284  12.482  2.8433  1.0945  0.4011
 6535SOL     OW31066   2.635   2.005   3.274  0.1749  0.4866 -0.1452
 6535SOL    HW131067   2.579   1.927   3.270 -3.1694  2.9191 -0.0979
 6535SOL    HW231068   2.668   1.999   3.184 -1.5520 -1.1470 -0.6563
 6536SOL     OW31069   0.993   0.661   9.696  0.1070  0.0694  0.5103
 6536SOL    HW131070   1.081   0.644   9.728 -1.0404 -1.1446  3.0651
 6536SOL    HW231071   0.949   0.611   9.765  1.0976  1.3282  2.0452
 6537SOL     OW31072   2.444   1.609  11.391 -0.0951  0.3859 -0.2947
 6537SOL    HW131073   2.442   1.555  11.311  1.7896 -1.2655  0.7656
 6537SOL    HW231074   2.355   1.644  11.388 -0.1405  0.1547 -1.9030
 6538SOL     OW31075   4.428   2.260   6.586  0.1054 -0.3821 -0.2090
 6538SOL    HW131076   4.419   2.191   6.652 -1.3574  0.7776  0.8231
 6538SOL    HW231077   4.382   2.217   6.514 -1.2703 -0.1277  0.5104
 6539SOL     OW31078   2.738   3.213   9.559  0.4512  0.4766  0.2940
 6539SOL    HW131079   2.794   3.143   9.591 -0.5617 -0.9759 -1.1359
 6539SOL    HW231080   2.743   3.195   9.465  0.2258 -1.7923  0.7329
 6540SOL     OW31081   2.095   2.551   6.037  0.2458  0.0825  0.1922
 6540SOL    HW131082   2.105   2.632   6.087 -0.6912 -0.4829  1.3071
 6540SOL    HW231083   2.143   2.570   5.957 -0.9833 -0.8922 -0.7766
 6541SOL     OW31084   0.207   4.515   7.540 -0.0049  0.2650 -0.1901
 6541SOL    HW131085   0.117   4.548   7.541 -0.4440 -0.9414 -0.3793
 6541SOL    HW231086   0.241   4.520   7.629 -0.1204  0.3468 -0.1494
 6542SOL     OW31087   3.072   0.489   6.593 -0.1592  0.0874 -0.2114
 6542SOL    HW131088   3.029   0.509   6.510 -0.8821 -2.2439 -0.3946
 6542SOL    HW231089   3.003   0.445   6.643  0.2138  0.3539  0.5295
 6543SOL     OW31090   2.511   4.072  10.295  0.6337  0.4274 -0.1643
 6543SOL    HW131091   2.575   4.014  10.334 -1.4342 -2.9668 -1.7888
 6543SOL    HW231092   2.576   4.124  10.248  1.6056 -1.5296 -0.9776
 6544SOL     OW31093   0.925   0.214  16.655 -0.2568  1.0553 -0.1717
 6544SOL    HW131094   0.974   0.153  16.710  3.8181  1.1868 -3.6426
 6544SOL    HW231095   0.835   0.193  16.679  0.2241  0.3655  1.0117
 6545SOL     OW31096   2.709   4.222   7.876 -0.2348 -0.1592 -0.6468
 6545SOL    HW131097   2.746   4.210   7.789  0.8761  2.5276 -0.5557
 6545SOL    HW231098   2.682   4.311   7.853 -0.6217  0.1326  0.9470
 6546SOL     OW31099   4.578   0.804   7.429 -0.0865 -0.1374  0.3991
 6546SOL    HW131100   4.591   0.860   7.506  0.2585  1.3121 -0.7256
 6546SOL    HW231101   4.487   0.801   7.402 -0.2578 -1.0593  1.0590
 6547SOL     OW31102   0.051   0.377  11.258 -0.5054 -0.7888 -0.2082
 6547SOL    HW131103   0.081   0.331  11.337  0.0203  0.6267  0.4143
 6547SOL    HW231104   0.040   0.312  11.188  2.2103 -1.4159 -0.0618
 6548SOL     OW31105   3.029   2.182   5.404 -0.5556 -0.2162 -0.1433
 6548SOL    HW131106   3.078   2.109   5.367  0.2239 -1.0611  2.5331
 6548SOL    HW231107   3.105   2.234   5.431  0.7731 -1.3309 -1.7223
 6549SOL     OW31108   2.994   0.265   6.282 -0.0462  0.2273  0.6565
 6549SOL    HW131109   2.902   0.289   6.284 -0.6884 -2.1116 -0.5795
 6549SOL    HW231110   2.983   0.205   6.207 -0.4244 -1.0440  1.7254
 6550SOL     OW31111   4.239   3.916  12.354  0.1103  0.3900 -0.4990
 6550SOL    HW131112   4.251   3.957  12.440  2.8795 -0.7873 -0.3383
 6550SOL    HW231113   4.154   3.957  12.336  0.2311  1.2006  0.7163
 6551SOL     OW31114   4.113   0.276   7.689 -0.9048  0.6388 -0.5674
 6551SOL    HW131115   4.138   0.268   7.597 -0.5683  1.6846 -0.5738
 6551SOL    HW231116   4.187   0.329   7.720  0.4211 -0.2703 -2.1573
 6552SOL     OW31117   0.888   2.673   2.753  0.3016 -0.2800  0.3450
 6552SOL    HW131118   0.944   2.720   2.814  0.1363  0.1471  0.1699
 6552SOL    HW231119   0.803   2.704   2.785  0.2071 -0.2302  0.0425
 6553SOL     OW31120   1.045   2.574   8.333  0.1260  0.0508  0.3094
 6553SOL    HW131121   1.010   2.630   8.403 -1.9764 -0.4248 -0.3483
 6553SOL    HW231122   1.052   2.486   8.370 -1.4958  0.0046  0.5189
 6554SOL     OW31123   4.652   2.096   0.537 -0.0249 -0.3563 -0.6957
 6554SOL    HW131124   0.008   2.047   0.516  0.0826 -0.4823  0.0190
 6554SOL    HW231125   4.584   2.030   0.521 -0.0730 -0.5664  0.3522
 6555SOL     OW31126   2.937   4.053   3.805 -0.5063  0.1216  0.8994
 6555SOL    HW131127   2.891   4.045   3.889  2.1438 -2.0528  2.1539
 6555SOL    HW231128   2.913   3.973   3.760  0.9901  0.4244 -0.4526
 6556SOL     OW31129   2.724   2.021   3.528  0.6131  0.1744 -0.3413
 6556SOL    HW131130   2.722   2.035   3.434  2.3878  0.4233 -0.3497
 6556SOL    HW231131   2.777   2.094   3.560 -0.9494  1.4647 -0.7478
 6557SOL     OW31132   1.158   3.444   4.581 -0.2092  0.0475  0.2059
 6557SOL    HW131133   1.158   3.363   4.632 -2.4115  0.3869  0.7286
 6557SOL    HW231134   1.068   3.476   4.574 -0.8229 -2.1157 -1.6784
 6558SOL     OW31135   3.232   3.160   4.814  0.2041 -0.7409  0.2703
 6558SOL    HW131136   3.302   3.212   4.774 -2.2834  1.3661 -1.3706
 6558SOL    HW231137   3.215   3.103   4.739 -1.7204 -2.5676  2.0939
 6559SOL     OW31138   3.289   0.536   0.437  0.2949  0.1609 -0.0960
 6559SOL    HW131139   3.341   0.498   0.366  0.9015 -0.7111  0.8042
 6559SOL    HW231140   3.247   0.457   0.474 -0.9005  0.1873 -1.4090
 6560SOL     OW31141   2.459   0.313   6.397  0.7842  0.1964  0.0234
 6560SOL    HW131142   2.387   0.374   6.379  0.7796  0.6243  1.5003
 6560SOL    HW231143   2.419   0.242   6.449  0.3387  0.9904  0.7592
 6561SOL     OW31144   1.704   0.840  16.651  0.4210  0.2482  0.3278
 6561SOL    HW131145   1.754   0.820  16.731 -0.2418 -1.3437  0.3420
 6561SOL    HW231146   1.620   0.857  16.694 -1.0600 -2.0454 -1.6881
 6562SOL     OW31147   1.636   1.398   1.042 -0.0562 -0.8195  0.2007
 6562SOL    HW131148   1.635   1.465   0.973 -0.3309  1.6228  2.5826
 6562SOL    HW231149   1.724   1.394   1.077  0.3764 -1.4672 -0.9444
 6563SOL     OW31150   2.022   2.384   0.773 -0.2248  0.2338  0.0034
 6563SOL    HW131151   1.952   2.354   0.831  0.2340 -0.7913  0.0369
 6563SOL    HW231152   2.095   2.403   0.832 -0.9087  0.8971  0.6252
 6564SOL     OW31153   3.225   3.848  11.551 -0.0924 -0.1637  0.0293
 6564SOL    HW131154   3.316   3.820  11.544  0.5161  2.5214 -2.5225
 6564SOL    HW231155   3.219   3.852  11.646  1.5233  0.8709  0.0944
 6565SOL     OW31156   0.692   3.759   4.736  0.6360  0.2501 -0.5109
 6565SOL    HW131157   0.611   3.798   4.769  2.3243  3.3288 -0.0159
 6565SOL    HW231158   0.711   3.823   4.667  0.2121  0.5405 -0.3589
 6566SOL     OW31159   3.591   1.308   2.485  0.7085  0.3628  0.5474
 6566SOL    HW131160   3.639   1.269   2.412  0.5674  1.2920 -0.0377
 6566SOL    HW231161   3.580   1.229   2.538  1.4595  0.2725  0.5644
 6567SOL     OW31162   3.985   3.878   1.770  0.5961  0.1414 -0.1069
 6567SOL    HW131163   4.033   3.944   1.720 -2.4695  1.9850 -0.6214
 6567SOL    HW231164   3.988   3.927   1.851  1.9114 -1.9447  1.1021
 6568SOL     OW31165   2.556   4.251   6.778 -0.2358 -0.1350  0.4818
 6568SOL    HW131166   2.513   4.288   6.700 -0.6824  0.7751  1.1633
 6568SOL    HW231167   2.498   4.174   6.777 -0.1070 -0.2364  1.2859
 6569SOL     OW31168   2.179   1.904   4.459 -0.4200 -0.0859  0.3974
 6569SOL    HW131169   2.258   1.856   4.481 -1.9172 -3.2176 -1.0023
 6569SOL    HW231170   2.109   1.868   4.514 -1.2874 -1.6616 -1.7498
 6570SOL     OW31171   0.901   2.929   5.965  0.0899  0.1439 -0.3465
 6570SOL    HW131172   0.902   2.833   5.967 -1.4300  0.1157 -1.8991
 6570SOL    HW231173   0.843   2.956   6.036  1.8600  0.0157  1.1553
 6571SOL     OW31174   2.390   1.158  12.997 -0.7075 -0.2521  0.7408
 6571SOL    HW131175   2.485   1.154  13.007 -1.0640 -1.8462  3.5429
 6571SOL    HW231176   2.378   1.191  12.908 -1.4063  0.5310  1.1262
 6572SOL     OW31177   0.069   0.191  14.648  0.6071 -0.3665 -0.3388
 6572SOL    HW131178   0.135   0.153  14.590 -0.9103 -0.5368 -1.9778
 6572SOL    HW231179   0.091   0.280  14.621 -0.9888 -0.1772 -0.9928
 6573SOL     OW31180   2.867   0.824   2.631 -0.4895  0.5134 -0.4300
 6573SOL    HW131181   2.803   0.835   2.561 -1.0244  0.6054  0.0806
 6573SOL    HW231182   2.920   0.756   2.588  3.2904  3.2965 -0.1755
 6574SOL     OW31183   2.764   2.884  13.334  0.0312  0.4065  0.4323
 6574SOL    HW131184   2.802   2.825  13.399 -0.6424  1.1368  1.4821
 6574SOL    HW231185   2.687   2.921  13.377 -1.0864 -1.5963  0.1926
 6575SOL     OW31186   4.252   4.531   5.163 -0.5276  0.1946 -0.4456
 6575SOL    HW131187   4.227   4.486   5.083 -2.1911  0.6412 -0.1852
 6575SOL    HW231188   4.288   4.465   5.223 -1.2555  1.6684  1.6187
 6576SOL     OW31189   1.422   0.628  11.238 -0.1087  0.4168  0.0559
 6576SOL    HW131190   1.410   0.565  11.167 -0.2503  1.2726 -0.6840
 6576SOL    HW231191   1.349   0.687  11.219  0.7061  1.3405 -0.2351
 6577SOL     OW31192   3.486   3.516  11.957 -0.4159 -0.3565 -0.6714
 6577SOL    HW131193   3.396   3.490  11.940 -0.7650 -0.3742  1.1822
 6577SOL    HW231194   3.533   3.505  11.874  0.5349 -1.5501  0.0190
 6578SOL     OW31195   2.646   1.357  15.539 -0.5369 -0.1758  0.2933
 6578SOL    HW131196   2.689   1.411  15.473 -0.8071  1.2666  1.2759
 6578SOL    HW231197   2.557   1.370  15.508 -0.0112  1.1433 -0.6732
 6579SOL     OW31198   2.811   1.666   8.357 -0.6297 -0.6696 -0.2099
 6579SOL    HW131199   2.831   1.589   8.411 -0.3988 -1.2357 -1.1147
 6579SOL    HW231200   2.871   1.657   8.283 -0.3878 -0.3794 -0.0510
 6580SOL     OW31201   1.531   1.418   1.388  0.4660  0.8427  0.1304
 6580SOL    HW131202   1.486   1.334   1.391 -0.2331  1.3500  3.0506
 6580SOL    HW231203   1.620   1.384   1.388  0.0437 -0.2702  0.0513
 6581SOL     OW31204   3.276   1.413   6.589 -0.1816 -0.1823 -0.2066
 6581SOL    HW131205   3.346   1.416   6.654  0.1067  1.3314 -0.5778
 6581SOL    HW231206   3.291   1.329   6.545 -1.4740 -1.7406  2.3557
 6582SOL     OW31207   2.370   4.499  12.461  0.3936  1.1429  0.0999
 6582SOL    HW131208   2.399   4.450  12.384  0.9855  0.8742  0.5012
 6582SOL    HW231209   2.355   4.426  12.520 -1.1560  1.0328 -0.4126
 6583SOL     OW31210   3.298   3.778   3.762  0.1015 -0.6220  0.3272
 6583SOL    HW131211   3.253   3.760   3.844  1.0318 -1.2698  0.6921
 6583SOL    HW231212   3.236   3.756   3.692  0.2823 -0.3747  0.0875
 6584SOL     OW31213   4.501   0.969   6.072 -0.1128  0.1658 -0.1582
 6584SOL    HW131214   4.511   1.046   6.017 -0.2039 -1.1571 -2.0329
 6584SOL    HW231215   4.407   0.953   6.067 -0.1063  0.4757 -1.2715
 6585SOL     OW31216   3.281   2.284   4.110 -0.0095 -0.2285 -0.6184
 6585SOL    HW131217   3.317   2.202   4.076 -0.2507 -1.9409  3.2189
 6585SOL    HW231218   3.285   2.337   4.030 -0.2167 -0.3649 -0.7205
 6586SOL     OW31219   2.928   2.687   6.506 -0.3113 -0.4309 -0.0342
 6586SOL    HW131220   3.011   2.730   6.525 -0.7575  0.8396 -0.9643
 6586SOL    HW231221   2.960   2.605   6.471 -3.2180 -1.1350 -0.9981
 6587SOL     OW31222   2.154   3.838   4.073 -0.2413  0.1976  0.2559
 6587SOL    HW131223   2.095   3.801   4.007  1.1700 -1.4429 -0.0995
 6587SOL    HW231224   2.165   3.928   4.043 -0.4203 -0.1625 -0.9089
 6588SOL     OW31225   1.824   3.253   7.148 -0.2554  0.3379 -0.0100
 6588SOL    HW131226   1.906   3.297   7.125  0.1307 -0.3012  0.1555
 6588SOL    HW231227   1.797   3.301   7.227  1.4386  1.6584 -0.2135
 6589SOL     OW31228   3.910   2.585   2.559  0.5107 -0.1204 -0.5697
 6589SOL    HW131229   3.964   2.665   2.565 -2.2441  1.8477 -2.2881
 6589SOL    HW231230   3.831   2.617   2.603 -0.8614 -0.9374 -2.4568
 6590SOL     OW31231   2.755   0.285   3.780  0.1024 -0.1164  0.0871
 6590SOL    HW131232   2.717   0.286   3.693  0.7051  3.4075 -0.1213
 6590SOL    HW231233   2.713   0.360   3.821  0.9570  0.4905 -0.1503
 6591SOL     OW31234   4.047   2.987   4.263  0.2372 -0.1340  0.0365
 6591SOL    HW131235   4.094   3.056   4.310  2.4550 -0.5962 -1.4687
 6591SOL    HW231236   3.967   2.976   4.314  0.5357 -0.6958  0.3889
 6592SOL     OW31237   2.262   1.198   9.530  0.3872  0.7830 -0.0990
 6592SOL    HW131238   2.272   1.289   9.499  1.6006  0.7010  0.0366
 6592SOL    HW231239   2.340   1.197   9.586  0.1222 -0.8616  0.2363
 6593SOL     OW31240   4.625   4.289   6.759  0.3753 -0.8279  0.2644
 6593SOL    HW131241   4.606   4.195   6.752  1.2717 -0.9429 -0.6017
 6593SOL    HW231242   4.717   4.295   6.783  0.2706 -1.4561  0.8067
 6594SOL     OW31243   3.187   1.567   6.134 -0.1821  0.1026  0.3477
 6594SOL    HW131244   3.171   1.661   6.131  0.3638  0.1230 -1.4436
 6594SOL    HW231245   3.230   1.572   6.220  1.8926 -1.3899 -0.6202
 6595SOL     OW31246   0.691   4.341   7.520  0.2198  0.0862 -0.3825
 6595SOL    HW131247   0.779   4.306   7.503  1.1050  1.8050  0.7625
 6595SOL    HW231248   0.696   4.354   7.614 -3.0486  1.6438 -0.4299
 6596SOL     OW31249   3.480   3.839   8.310 -0.2355 -0.4944  0.0751
 6596SOL    HW131250   3.553   3.896   8.287  0.4537 -0.8284  1.4620
 6596SOL    HW231251   3.425   3.911   8.340  0.5075  0.6145 -1.2175
 6597SOL     OW31252   3.553   1.065   2.644 -0.3269  0.0845  0.2980
 6597SOL    HW131253   3.580   1.106   2.726  0.1706  1.0577 -0.3462
 6597SOL    HW231254   3.517   0.986   2.682  2.8461 -1.4274  0.1449
 6598SOL     OW31255   0.142   2.484   3.553  0.4323 -0.1078  0.3287
 6598SOL    HW131256   0.232   2.517   3.545  0.1150  1.1615  2.0148
 6598SOL    HW231257   0.143   2.421   3.481  2.3128  0.4832 -0.1828
 6599SOL     OW31258   1.356   2.914   7.605  0.4281  0.2833 -0.1030
 6599SOL    HW131259   1.264   2.940   7.616  0.4630  0.1073  0.5751
 6599SOL    HW231260   1.397   2.999   7.587  1.3622  0.0408  0.8854
 6600SOL     OW31261   0.533   2.251   3.170  0.6834  0.5986 -0.5378
 6600SOL    HW131262   0.497   2.315   3.109 -1.2596  0.6688  0.6574
 6600SOL    HW231263   0.520   2.290   3.257  2.2203 -0.6583  0.2534
 6601SOL     OW31264   2.827   3.341  13.060  0.8681  0.0539  0.4562
 6601SOL    HW131265   2.788   3.265  13.015  0.5814  0.4308  0.0575
 6601SOL    HW231266   2.789   3.335  13.147 -1.3249 -0.1606 -0.5022
 6602SOL     OW31267   0.735   3.256   3.766  0.2440 -0.2241 -0.2885
 6602SOL    HW131268   0.766   3.274   3.855  0.6062  2.8521 -1.0224
 6602SOL    HW231269   0.685   3.176   3.785  2.2885 -1.7266 -1.2637
 6603SOL     OW31270   0.816   1.943   4.377  0.3884 -0.1744 -0.1041
 6603SOL    HW131271   0.848   1.939   4.467  1.6339  0.7146 -0.5134
 6603SOL    HW231272   0.725   1.914   4.385  1.0571 -1.7614  1.9656
 6604SOL     OW31273   3.540   4.570   9.464  0.1170  0.4382 -0.2323
 6604SOL    HW131274   3.554   4.484   9.424 -1.5527 -0.3057  0.7945
 6604SOL    HW231275   3.630   4.596   9.482  0.9888 -2.4798 -0.3640
 6605SOL     OW31276   0.941   2.802  15.762  0.6019  0.0757  0.3602
 6605SOL    HW131277   0.973   2.832  15.677  0.0508  1.2471  0.5624
 6605SOL    HW231278   1.018   2.810  15.819 -0.1049  3.3193  0.8511
 6606SOL     OW31279   0.638   4.536   2.422  0.5902  0.3737 -0.1368
 6606SOL    HW131280   0.652   4.543   2.327  0.9082  1.0439 -0.0362
 6606SOL    HW231281   0.729   4.530   2.453  0.7089  1.5154 -0.2849
 6607SOL     OW31282   1.495   0.620   4.997  1.0015 -0.3113 -0.3639
 6607SOL    HW131283   1.527   0.627   5.087 -3.7051 -0.7147  1.3476
 6607SOL    HW231284   1.467   0.529   5.002 -1.0638  0.3094 -0.5301
 6608SOL     OW31285   3.926   4.264   8.635  0.1121 -0.0469  0.4685
 6608SOL    HW131286   3.899   4.350   8.667  1.0676  0.6108 -0.4904
 6608SOL    HW231287   3.862   4.210   8.682  0.0962  0.0556  0.5632
 6609SOL     OW31288   2.559   1.618   4.122  0.2540  0.5201  0.0605
 6609SOL    HW131289   2.581   1.710   4.108  0.5018  0.3694 -0.5516
 6609SOL    HW231290   2.490   1.608   4.188 -0.5915 -2.6910 -1.2999
 6610SOL     OW31291   3.357   4.419   3.342  0.3792  0.7007  0.7104
 6610SOL    HW131292   3.420   4.434   3.413  0.2402 -1.9635  1.4111
 6610SOL    HW231293   3.271   4.425   3.384  0.3298 -1.4854  0.9659
 6611SOL     OW31294   3.318   1.277   1.950 -0.4876  0.1958  0.6160
 6611SOL    HW131295   3.255   1.207   1.937  0.3314 -0.2337 -0.9406
 6611SOL    HW231296   3.302   1.307   2.040 -0.8883 -3.2249  1.6770
 6612SOL     OW31297   1.374   2.699   3.527 -0.4845  0.3332  0.0334
 6612SOL    HW131298   1.311   2.698   3.599  2.5836 -1.3981  2.7363
 6612SOL    HW231299   1.455   2.691   3.578 -1.0338  1.4762  1.0809
 6613SOL     OW31300   2.028   3.836  16.662  0.3457  0.1367 -0.0895
 6613SOL    HW131301   2.082   3.899  16.710  1.8954 -1.1355 -0.1675
 6613SOL    HW231302   2.081   3.757  16.657  2.4623  1.5343  0.6399
 6614SOL     OW31303   0.396   2.555  15.948  0.1070 -0.2151 -0.0895
 6614SOL    HW131304   0.305   2.582  15.954 -0.0556 -0.4923 -1.3611
 6614SOL    HW231305   0.405   2.521  16.037 -1.0995  1.0178  0.4925
 6615SOL     OW31306   3.519   1.511   1.639 -0.5317  0.4853 -0.1705
 6615SOL    HW131307   3.494   1.545   1.553  0.0723  1.1005 -0.1089
 6615SOL    HW231308   3.609   1.482   1.624 -0.7556  1.6678 -3.8865
 6616SOL     OW31309   3.484   2.446  17.001 -0.3489  0.2617  0.0555
 6616SOL    HW131310   3.440   2.523  17.039 -0.0116 -0.0305  1.0332
 6616SOL    HW231311   3.565   2.452  17.052 -0.8687 -0.9339  1.0359
 6617SOL     OW31312   2.402   0.133  13.791  0.3977 -0.1415  0.6510
 6617SOL    HW131313   2.410   0.223  13.762  0.3863 -0.6313 -0.8881
 6617SOL    HW231314   2.429   0.139  13.882 -0.7576  2.5844  0.8020
 6618SOL     OW31315   0.460   1.546   3.580  0.2644 -0.4142  0.3462
 6618SOL    HW131316   0.411   1.626   3.598  0.7687  0.2203 -1.0767
 6618SOL    HW231317   0.552   1.564   3.601  0.8385  0.4442 -2.8880
 6619SOL     OW31318   4.421   2.981   7.049  0.0640  0.0796  0.4252
 6619SOL    HW131319   4.493   3.044   7.043  1.8215 -1.9751  0.0340
 6619SOL    HW231320   4.412   2.958   6.957 -2.3610 -2.2932  1.2549
 6620SOL     OW31321   3.558   0.046   5.276 -0.0560  0.2311  0.2416
 6620SOL    HW131322   3.647   0.048   5.311  0.1241  2.3659 -0.3466
 6620SOL    HW231323   3.568   0.094   5.193 -0.5677  1.0830  0.6730
 6621SOL     OW31324   3.393   1.759   2.623  0.3403 -0.2713 -0.3905
 6621SOL    HW131325   3.474   1.795   2.588  2.9066 -2.8286  2.9206
 6621SOL    HW231326   3.420   1.676   2.663  1.6279  0.2013 -0.2706
 6622SOL     OW31327   2.162   1.398   2.569  0.2399 -0.0294  0.0535
 6622SOL    HW131328   2.245   1.395   2.616  0.1757 -0.8126  0.1081
 6622SOL    HW231329   2.120   1.465   2.622  0.7082  0.3577 -0.0605
 6623SOL     OW31330   4.134   4.535   5.868 -0.3072 -0.2337 -0.6560
 6623SOL    HW131331   4.058   4.486   5.836 -0.3385 -0.8729  0.3947
 6623SOL    HW231332   4.160   4.584   5.790  0.3080 -2.2148 -1.7118
 6624SOL     OW31333   4.532   4.182   0.974  0.3122  0.1600 -0.1295
 6624SOL    HW131334   4.512   4.275   0.963  3.5854  0.8521 -0.0786
 6624SOL    HW231335   4.547   4.158   0.883 -0.6242 -0.1112 -0.2145
 6625SOL     OW31336   3.809   0.116  17.500 -0.3870  0.1210  0.1743
 6625SOL    HW131337   3.894   0.099  17.458  0.0368 -0.0425  1.1085
 6625SOL    HW231338   3.829   0.186  17.562  0.7131  1.2818 -1.4857
 6626SOL     OW31339   1.072   3.605  11.289  0.0485 -0.1702  0.0815
 6626SOL    HW131340   1.139   3.538  11.281  0.3987  0.3573 -1.4353
 6626SOL    HW231341   1.127   3.678  11.262 -0.2428  0.0331  0.0288
 6627SOL     OW31342   4.151   3.784  17.674  0.1053  0.3467 -0.3387
 6627SOL    HW131343   4.222   3.818  17.621 -0.9616  1.2717 -1.1577
 6627SOL    HW231344   4.163   3.689  17.673 -0.8863  0.2027  1.2226
 6628SOL     OW31345   1.021   2.859   2.934  0.1367 -0.1246  0.0016
 6628SOL    HW131346   0.944   2.904   2.969 -1.1986 -1.9356 -0.5606
 6628SOL    HW231347   1.064   2.841   3.017  3.6762  1.8927 -1.4009
 6629SOL     OW31348   1.777   0.751  10.451  0.0017 -0.1423 -0.2253
 6629SOL    HW131349   1.840   0.685  10.481 -0.4373 -0.4955 -0.0816
 6629SOL    HW231350   1.829   0.808  10.395 -1.2999  2.9027  1.6813
 6630SOL     OW31351   2.607   4.573   8.549 -0.1126  0.2538 -0.7932
 6630SOL    HW131352   2.574   4.661   8.567  0.0543  0.7013 -2.6810
 6630SOL    HW231353   2.655   4.562   8.631  0.4352 -0.1250 -1.1646
 6631SOL     OW31354   1.499   4.707   5.311 -0.4450  0.1630  0.0691
 6631SOL    HW131355   1.406   4.711   5.290 -0.5341 -0.7532  0.2784
 6631SOL    HW231356   1.492   4.634   5.372  3.3233  1.3931  1.9774
 6632SOL     OW31357   1.179   1.295  15.295 -0.4465  0.4271  0.3461
 6632SOL    HW131358   1.139   1.382  15.288 -1.6675 -0.1527  0.0748
 6632SOL    HW231359   1.106   1.234  15.283  0.4926 -0.6831  0.2610
 6633SOL     OW31360   4.509   3.339   6.688  0.4833  0.2199  0.4392
 6633SOL    HW131361   4.563   3.378   6.620 -1.2968  0.4345 -0.8778
 6633SOL    HW231362   4.575   3.306   6.749 -0.1224  1.3802  1.7081
 6634SOL     OW31363   1.216   1.690   3.502  0.2048 -0.4954  0.4456
 6634SOL    HW131364   1.276   1.748   3.550 -1.5028  0.9562  0.8350
 6634SOL    HW231365   1.263   1.665   3.423  0.3683  2.6198 -0.4249
 6635SOL     OW31366   1.711   0.453   8.661 -0.3183  0.0875  0.1618
 6635SOL    HW131367   1.725   0.533   8.712  1.4872  0.5242 -1.0092
 6635SOL    HW231368   1.692   0.501   8.580  0.5101 -0.6485 -0.4609
 6636SOL     OW31369   2.152   4.485   6.362 -0.6146 -0.4117  0.5979
 6636SOL    HW131370   2.120   4.575   6.375 -1.4920 -0.8803  1.7029
 6636SOL    HW231371   2.083   4.432   6.402 -2.0989 -0.8106 -2.5103
 6637SOL     OW31372   1.073   0.739   1.018  0.1344 -0.4024 -0.0650
 6637SOL    HW131373   1.134   0.713   0.949  2.7391  0.2543  1.9476
 6637SOL    HW231374   1.053   0.831   0.998 -0.3083 -1.1219 -2.9358
 6638SOL     OW31375   4.714   2.658   8.933 -0.6206  0.3229 -0.4556
 6638SOL    HW131376   4.642   2.601   8.906  0.1766 -1.3183  0.9032
 6638SOL    HW231377   0.066   2.603   8.955 -0.0560  1.0810 -0.4709
 6639SOL     OW31378   3.515   2.278   2.072 -0.3421  0.1029 -0.3310
 6639SOL    HW131379   3.500   2.222   1.996  1.0171 -1.5461  0.6194
 6639SOL    HW231380   3.610   2.278   2.074 -0.3538  0.0520  0.6329
 6640SOL     OW31381   1.821   4.245   5.290  0.4806 -0.1734  0.0284
 6640SOL    HW131382   1.787   4.163   5.253 -0.4616 -0.3333  1.2270
 6640SOL    HW231383   1.783   4.308   5.228 -1.9728 -2.2543 -0.5918
 6641SOL     OW31384   0.003   0.679   5.979 -0.0654  0.2282  0.2347
 6641SOL    HW131385   0.078   0.693   6.038  0.2219  2.0636 -0.5713
 6641SOL    HW231386   4.709   0.765   5.940  0.0085  1.7508  3.4967
 6642SOL     OW31387   2.592   4.502  17.220 -0.2413  0.5087 -0.0763
 6642SOL    HW131388   2.610   4.432  17.157 -2.4905  0.4617 -0.6760
 6642SOL    HW231389   2.513   4.463  17.258  0.0081 -0.7093 -0.8048
 6643SOL     OW31390   4.001   2.102   0.265 -0.7330 -0.0399  0.6731
 6643SOL    HW131391   4.041   2.055   0.338 -0.4307 -1.4353 -0.3674
 6643SOL    HW231392   4.041   2.187   0.280  0.2642 -0.2982 -0.4803
 6644SOL     OW31393   0.680   2.406   9.240 -0.5110  0.3269  0.7163
 6644SOL    HW131394   0.716   2.334   9.189 -1.1815  0.1942  0.4334
 6644SOL    HW231395   0.750   2.471   9.234 -2.1257  1.8937 -1.5330
 6645SOL     OW31396   2.601   4.250   4.789  0.4129 -0.1543 -0.0951
 6645SOL    HW131397   2.587   4.251   4.694  2.3310  0.1110 -0.3627
 6645SOL    HW231398   2.512   4.226   4.818 -0.1988  0.6027 -1.3533
 6646SOL     OW31399   4.222   0.980  13.156 -0.2106  0.0448 -0.4124
 6646SOL    HW131400   4.169   0.951  13.082 -0.8856  0.0233  0.0835
 6646SOL    HW231401   4.262   0.897  13.180 -1.9035 -0.8917 -0.8433
 6647SOL     OW31402   1.490   2.931   9.842  0.1071  0.1126  0.5659
 6647SOL    HW131403   1.523   2.955   9.929  1.4185  0.7984 -0.1297
 6647SOL    HW231404   1.556   2.865   9.821 -0.8229 -0.5049 -0.3899
 6648SOL     OW31405   1.710   0.439   2.880  0.0500 -0.4144  0.3522
 6648SOL    HW131406   1.724   0.396   2.796 -1.3984 -1.0792  0.4456
 6648SOL    HW231407   1.639   0.388   2.920  0.3137 -1.1771 -0.1666
 6649SOL     OW31408   1.858   1.464   2.208 -0.5667  0.2228 -0.4322
 6649SOL    HW131409   1.812   1.389   2.170  1.1033 -0.2066 -1.5993
 6649SOL    HW231410   1.876   1.425   2.294 -0.9004  1.1078  0.0401
 6650SOL     OW31411   2.827   2.140   2.772 -0.2358  0.0545 -0.3792
 6650SOL    HW131412   2.807   2.206   2.838  0.8298  1.5410 -1.5603
 6650SOL    HW231413   2.906   2.173   2.731  0.6028  1.0951  2.0531
 6651SOL     OW31414   0.795   1.390   5.942 -0.4191  0.7474 -0.1446
 6651SOL    HW131415   0.723   1.332   5.917  1.5533 -1.2057 -1.3553
 6651SOL    HW231416   0.776   1.445   5.865 -0.6507 -0.4562 -0.9385
 6652SOL     OW31417   0.266   4.331  14.926  0.8660 -0.0791 -0.1910
 6652SOL    HW131418   0.322   4.335  14.849  0.5659 -0.2824 -0.4209
 6652SOL    HW231419   0.261   4.239  14.952 -3.1455  0.2403  0.1826
 6653SOL     OW31420   3.370   2.570   1.349  0.3595  0.0269 -0.2495
 6653SOL    HW131421   3.412   2.551   1.265 -0.2259 -0.6832 -0.3858
 6653SOL    HW231422   3.448   2.569   1.404 -0.9559 -0.1198  1.5869
 6654SOL     OW31423   2.074   1.270   7.833  0.0918 -0.1119 -0.4831
 6654SOL    HW131424   2.064   1.206   7.762 -0.0884 -1.8918  1.1355
 6654SOL    HW231425   1.984   1.301   7.841  0.4923  1.5592 -2.3966
 6655SOL     OW31426   1.727   0.415  11.635  0.0028  0.2885 -0.5343
 6655SOL    HW131427   1.707   0.328  11.601  0.4091  0.0342 -0.0990
 6655SOL    HW231428   1.697   0.470  11.561 -0.5598 -0.4147 -0.8311
 6656SOL     OW31429   1.774   4.148   7.160 -0.2845  0.0871  0.3513
 6656SOL    HW131430   1.800   4.235   7.129 -1.8918  0.7014  0.7301
 6656SOL    HW231431   1.714   4.119   7.092  1.8950 -0.0446 -1.5051
 6657SOL     OW31432   2.355   0.636   6.079 -0.3891  0.4912  0.2128
 6657SOL    HW131433   2.372   0.707   6.017  0.9947  0.1116  0.1574
 6657SOL    HW231434   2.424   0.573   6.056  0.2820  1.6535 -0.9652
 6658SOL     OW31435   2.194   4.118   5.497 -0.1186  0.8156 -0.1016
 6658SOL    HW131436   2.259   4.065   5.452 -0.0421  1.7792 -1.1298
 6658SOL    HW231437   2.226   4.098   5.586 -0.4198  0.7150 -0.0153
 6659SOL     OW31438   4.548   1.636  17.516 -0.4715  0.1219  0.1114
 6659SOL    HW131439   4.615   1.670  17.576  2.4920 -2.6634 -1.6377
 6659SOL    HW231440   4.589   1.663  17.433 -0.0232 -0.1658  0.2393
 6660SOL     OW31441   3.375   1.466  15.038  0.1654  0.0334 -0.2412
 6660SOL    HW131442   3.293   1.454  14.989  0.4057  2.1617 -1.1827
 6660SOL    HW231443   3.354   1.414  15.115  0.8026  0.3600  0.1522
 6661SOL     OW31444   2.943   2.754   5.349 -0.3860  0.2430  0.0723
 6661SOL    HW131445   2.852   2.785   5.351 -1.2077 -2.1734  0.8286
 6661SOL    HW231446   2.936   2.659   5.365 -1.7487  0.5323  1.2468
 6662SOL     OW31447   1.337   1.096   3.810 -0.4686  0.2257 -0.3366
 6662SOL    HW131448   1.262   1.060   3.858  0.2475 -0.3565  0.3504
 6662SOL    HW231449   1.316   1.081   3.718 -2.2745  0.1060  0.1070
 6663SOL     OW31450   3.227   2.580  12.779 -0.5112 -0.4315  0.0217
 6663SOL    HW131451   3.205   2.660  12.826  2.0561 -0.9141  2.0318
 6663SOL    HW231452   3.140   2.541  12.777 -0.5264 -0.3959 -0.0294
 6664SOL     OW31453   2.654   3.109   2.547  0.2959 -0.0348 -0.1159
 6664SOL    HW131454   2.645   3.167   2.623 -1.6477 -1.2938  0.6306
 6664SOL    HW231455   2.674   3.033   2.602  1.5745 -0.4356 -1.1433
 6665SOL     OW31456   2.511   1.029   2.901 -0.5845 -0.5792 -0.3675
 6665SOL    HW131457   2.562   1.087   2.845 -0.9830  2.7742  2.7143
 6665SOL    HW231458   2.581   0.979   2.943  0.0203 -1.9317 -3.0131
 6666SOL     OW31459   2.537   3.944  11.643  0.5638  0.5427 -0.7862
 6666SOL    HW131460   2.611   4.004  11.644  1.6369 -0.7774  1.0163
 6666SOL    HW231461   2.573   3.872  11.591  1.5430  0.2937  0.2116
 6667SOL     OW31462   2.485   2.244  11.252  0.0061  0.6528 -0.3670
 6667SOL    HW131463   2.574   2.267  11.278 -0.5770  1.0998  1.2046
 6667SOL    HW231464   2.499   2.206  11.165  0.6896  2.0310 -0.8491
 6668SOL     OW31465   0.820   0.957   6.694 -0.2699  0.0738 -0.8554
 6668SOL    HW131466   0.909   0.977   6.721 -1.1811  1.7678  0.8929
 6668SOL    HW231467   0.806   0.867   6.725  1.3493  0.1110  0.0081
 6669SOL     OW31468   2.671   2.931   1.827  0.1956 -0.2345 -0.4443
 6669SOL    HW131469   2.648   2.856   1.773 -2.8103 -0.0228  0.5622
 6669SOL    HW231470   2.739   2.893   1.884 -1.3536 -1.9571  0.2762
 6670SOL     OW31471   4.486   4.481  11.922 -0.6115 -0.0700  0.6436
 6670SOL    HW131472   4.464   4.566  11.959  0.4396  1.0296 -1.2597
 6670SOL    HW231473   4.509   4.492  11.830 -1.5732 -0.7819  0.3267
 6671SOL     OW31474   2.790   2.775   3.130 -0.1926  0.0035  0.3206
 6671SOL    HW131475   2.825   2.726   3.205  1.9205 -0.9280 -1.2676
 6671SOL    HW231476   2.814   2.866   3.148 -3.8955  0.6600  1.9401
 6672SOL     OW31477   1.656   2.844   7.102  0.0979 -0.4112  0.3062
 6672SOL    HW131478   1.702   2.917   7.059  1.0347 -1.0216  0.2708
 6672SOL    HW231479   1.575   2.889   7.123  1.0217 -0.1117  3.1193
 6673SOL     OW31480   1.502   4.100   0.848  0.1504  0.3602  0.0082
 6673SOL    HW131481   1.565   4.087   0.918 -0.3960  1.3350  0.6706
 6673SOL    HW231482   1.417   4.088   0.890 -1.2349  1.5667 -2.4523
 6674SOL     OW31483   2.418   1.032   1.982 -0.5224  0.0554 -0.2190
 6674SOL    HW131484   2.507   1.065   1.971 -1.3119  2.6247  0.8970
 6674SOL    HW231485   2.447   0.942   1.967 -0.2835  0.3070 -1.2646
 6675SOL     OW31486   4.446   1.717   2.898  0.0244  0.3234  0.3438
 6675SOL    HW131487   4.529   1.692   2.937 -0.0021 -0.9330 -0.4037
 6675SOL    HW231488   4.459   1.807   2.868 -0.7020  0.5737  0.7718
 6676SOL     OW31489   2.444   3.159   1.311 -0.4185 -0.3352  0.0611
 6676SOL    HW131490   2.495   3.084   1.341  1.8742  0.7424 -1.1641
 6676SOL    HW231491   2.388   3.169   1.388  0.5967  0.1468  0.7293
 6677SOL     OW31492   1.705   2.143   5.583 -0.0647  0.2417  0.2129
 6677SOL    HW131493   1.663   2.185   5.507 -0.7650 -0.8204  0.0090
 6677SOL    HW231494   1.665   2.056   5.582 -1.8252  1.0598 -1.3847
 6678SOL     OW31495   0.856   0.682   6.500  0.0307 -0.4559 -0.3036
 6678SOL    HW131496   0.781   0.624   6.486 -0.9059  1.2384 -2.1125
 6678SOL    HW231497   0.857   0.681   6.596 -0.6502  0.4039 -0.2828
 6679SOL     OW31498   0.898   3.005  11.697  0.0329  0.1370  0.0530
 6679SOL    HW131499   0.886   3.091  11.656 -1.0876  0.6422  1.3998
 6679SOL    HW231500   0.973   3.029  11.751 -0.8008  2.2232  0.3091
 6680SOL     OW31501   3.852   4.590   4.853  0.2969  0.3862  0.4672
 6680SOL    HW131502   3.925   4.599   4.793  1.3799 -0.7383  1.6230
 6680SOL    HW231503   3.812   4.513   4.813 -0.1572  0.3451  0.9868
 6681SOL     OW31504   0.731   4.423   9.717 -0.5914 -0.3314  0.5602
 6681SOL    HW131505   0.729   4.464   9.631 -1.2194  0.2439  0.8461
 6681SOL    HW231506   0.644   4.383   9.713 -2.0991  3.1961 -1.0430
 6682SOL     OW31507   0.499   0.899   5.549  0.2496 -0.2067  0.1962
 6682SOL    HW131508   0.463   0.985   5.566  0.2322  0.3273 -2.5168
 6682SOL    HW231509   0.477   0.847   5.626  0.5390 -0.4983  0.0875
 6683SOL     OW31510   2.447   3.105   4.884  0.3194  0.2360  0.2083
 6683SOL    HW131511   2.447   3.130   4.977 -1.1818 -0.1559  0.3079
 6683SOL    HW231512   2.369   3.050   4.880  1.2857 -0.9329 -2.1313
 6684SOL     OW31513   2.056   2.266  13.576  0.4820  0.0138  0.1156
 6684SOL    HW131514   2.039   2.324  13.502 -1.8106  1.0939  1.5216
 6684SOL    HW231515   1.978   2.273  13.631 -0.4242 -4.3955 -0.5808
 6685SOL     OW31516   4.515   1.560   6.590  0.2369  0.2789 -0.0719
 6685SOL    HW131517   4.607   1.560   6.617  0.5276  2.4211 -1.0524
 6685SOL    HW231518   4.469   1.571   6.673  0.7054 -0.2798  0.2628
 6686SOL     OW31519   1.657   1.434   8.424 -0.1862 -0.2187 -0.0379
 6686SOL    HW131520   1.704   1.460   8.345 -1.1307  1.0926 -0.1687
 6686SOL    HW231521   1.584   1.394   8.378 -0.2740  1.0796 -1.0424
 6687SOL     OW31522   1.716   1.448   4.633 -0.0453  0.7613  0.2043
 6687SOL    HW131523   1.793   1.413   4.677  0.0934  1.0822  0.2113
 6687SOL    HW231524   1.699   1.516   4.698  0.9501  1.3952 -0.2069
 6688SOL     OW31525   2.232   3.778   1.355 -0.1468  0.5774 -0.4723
 6688SOL    HW131526   2.185   3.840   1.299  0.3845  0.9696 -0.4867
 6688SOL    HW231527   2.187   3.801   1.436  0.6907  0.1398  0.1244
 6689SOL     OW31528   3.557   1.332  14.540 -0.2865  0.1155  0.5058
 6689SOL    HW131529   3.519   1.253  14.579 -0.0599  0.6983  1.9049
 6689SOL    HW231530   3.559   1.382  14.621  0.2817  0.6372  0.1621
 6690SOL     OW31531   3.574   3.714   0.107 -0.1132  0.1577 -0.1412
 6690SOL    HW131532   3.534   3.785   0.157  0.6724  1.1749 -0.9371
 6690SOL    HW231533   3.515   3.643   0.131 -1.6472  1.0568 -1.2794
 6691SOL     OW31534   1.690   2.828   4.227 -0.2377 -0.1235 -0.2956
 6691SOL    HW131535   1.679   2.911   4.274 -1.6497  0.6752 -2.0552
 6691SOL    HW231536   1.598   2.811   4.211 -0.1046 -0.8256 -0.3281
 6692SOL     OW31537   1.843   3.562   4.966  0.2715  0.3227 -0.2467
 6692SOL    HW131538   1.821   3.555   4.873  0.6704  0.2799 -0.3393
 6692SOL    HW231539   1.918   3.504   4.979  1.5088  1.4811 -2.1248
 6693SOL     OW31540   3.607   1.032  10.833  0.7213 -0.1662  0.0309
 6693SOL    HW131541   3.564   1.088  10.769  2.5917  2.6712  1.2647
 6693SOL    HW231542   3.687   1.084  10.839  0.6726 -0.2434  1.3165
 6694SOL     OW31543   1.306   3.187  12.292 -0.4806  0.3899  0.0977
 6694SOL    HW131544   1.388   3.139  12.303 -0.6928  0.2759  1.1858
 6694SOL    HW231545   1.328   3.227  12.208 -1.5115 -0.9459 -0.8118
 6695SOL     OW31546   1.602   3.997   0.628  0.2754  0.4447  0.3237
 6695SOL    HW131547   1.552   4.024   0.706 -1.5171 -0.6505 -0.4419
 6695SOL    HW231548   1.637   4.078   0.591 -0.7652 -0.5803 -2.8353
 6696SOL     OW31549   1.134   0.937  16.088  0.2252 -0.2852 -0.2246
 6696SOL    HW131550   1.050   0.982  16.080  0.4604  0.0319 -0.9539
 6696SOL    HW231551   1.107   0.849  16.062 -2.3278  0.2409  0.6576
 6697SOL     OW31552   0.628   3.483   0.853  0.1296 -0.2589 -0.6905
 6697SOL    HW131553   0.587   3.569   0.869  2.8410  1.2244 -1.7795
 6697SOL    HW231554   0.676   3.494   0.771  1.3333  0.8791  0.1577
 6698SOL     OW31555   4.112   4.073   6.449  0.2002  0.1568 -0.0344
 6698SOL    HW131556   4.022   4.092   6.423  0.2989  0.8087  0.0832
 6698SOL    HW231557   4.101   3.979   6.459  0.8613  0.1926  1.0464
 6699SOL     OW31558   4.423   0.385   0.259 -0.3016  0.4446 -0.3697
 6699SOL    HW131559   4.459   0.448   0.321  2.1134 -0.8581 -0.4390
 6699SOL    HW231560   4.365   0.343   0.322 -1.3845  0.0167 -1.6639
 6700SOL     OW31561   1.359   4.061   1.716 -0.2224  0.0272 -0.1406
 6700SOL    HW131562   1.267   4.038   1.704 -0.5291  1.0832  0.1341
 6700SOL    HW231563   1.340   4.149   1.749  0.4530  0.0689  0.1237
 6701SOL     OW31564   3.500   4.022  17.560  0.3600  0.2001 -0.6310
 6701SOL    HW131565   3.528   3.970  17.485 -0.9743 -3.8921  1.6869
 6701SOL    HW231566   3.412   3.985  17.566  0.4809 -0.1189 -0.8457
 6702SOL     OW31567   2.589   3.892   8.939  0.1367 -0.3146  0.0925
 6702SOL    HW131568   2.500   3.895   8.974  0.7261 -1.5366  1.6735
 6702SOL    HW231569   2.600   3.800   8.915 -2.3155 -0.2042 -1.4222
 6703SOL     OW31570   1.291   3.250   0.928 -0.3296 -0.0087  0.2172
 6703SOL    HW131571   1.333   3.190   0.866 -2.1029  0.4941 -1.4807
 6703SOL    HW231572   1.229   3.190   0.968 -0.1971  1.3412  2.4094
 6704SOL     OW31573   2.458   0.876  12.356 -0.2828 -0.8599 -0.1519
 6704SOL    HW131574   2.459   0.950  12.417 -4.0770 -2.3270  1.7130
 6704SOL    HW231575   2.408   0.816  12.412 -2.5268  1.8024  0.7134
 6705SOL     OW31576   4.410   0.765   5.460 -0.3759  0.2466 -0.7581
 6705SOL    HW131577   4.379   0.817   5.386 -1.1268 -0.8083 -1.1794
 6705SOL    HW231578   4.500   0.748   5.431 -0.0990  0.5045 -0.0541
 6706SOL     OW31579   1.728   3.467   6.911 -0.8413 -0.0088 -0.1803
 6706SOL    HW131580   1.817   3.454   6.878  0.2474  0.2729  2.6338
 6706SOL    HW231581   1.706   3.552   6.873 -2.3180  0.5242  1.8608
 6707SOL     OW31582   3.047   2.022   9.261 -0.3206 -0.2166  0.1026
 6707SOL    HW131583   3.002   2.089   9.211  0.8447 -0.1902 -0.9060
 6707SOL    HW231584   3.014   2.036   9.350 -3.2877 -0.7219 -0.9279
 6708SOL     OW31585   4.581   3.589  14.512  0.4455  0.8973  0.5245
 6708SOL    HW131586   4.583   3.679  14.479  0.1330  0.8076  0.2531
 6708SOL    HW231587   4.670   3.566  14.487  0.2248 -0.7022  1.2382
 6709SOL     OW31588   3.515   3.795  15.131  0.6038 -0.0983 -0.3654
 6709SOL    HW131589   3.607   3.793  15.157 -0.2175  0.8095  2.6101
 6709SOL    HW231590   3.468   3.833  15.205  0.2457  0.2535 -0.7753
 6710SOL     OW31591   0.352   3.979  13.004 -0.4714  0.0291  0.2003
 6710SOL    HW131592   0.408   3.902  12.998 -1.2260 -0.4318 -0.9407
 6710SOL    HW231593   0.343   3.975  13.099  1.0097  1.0089  0.3858
 6711SOL     OW31594   1.769   3.945   8.256  0.3657  0.4094  0.0000
 6711SOL    HW131595   1.789   3.881   8.188 -0.7811 -1.0047  0.9905
 6711SOL    HW231596   1.763   4.025   8.203  0.2962  0.5686  0.2444
 6712SOL     OW31597   3.829   4.210  10.380  0.1084  0.0745  0.1231
 6712SOL    HW131598   3.865   4.289  10.420  1.3006 -0.7663  0.6997
 6712SOL    HW231599   3.785   4.175  10.457  0.8479  1.3905  1.1288
 6713SOL     OW31600   2.863   1.729   2.660  0.3070 -0.1236 -0.0804
 6713SOL    HW131601   2.835   1.819   2.678 -1.7059 -1.5513  3.9200
 6713SOL    HW231602   2.956   1.743   2.648  1.0459 -3.9343  1.3167
 6714SOL     OW31603   2.503   2.064   1.624 -0.5373 -0.0925  0.1901
 6714SOL    HW131604   2.424   2.042   1.675  0.3118 -0.9223  1.1545
 6714SOL    HW231605   2.544   1.981   1.600  1.2519  0.5904  0.9194
 6715SOL     OW31606   1.037   0.413   7.564 -0.1687 -0.1058 -0.0424
 6715SOL    HW131607   1.004   0.459   7.486 -3.0419 -0.8151  0.7405
 6715SOL    HW231608   0.965   0.349   7.564  2.1338 -2.6860 -1.2033
 6716SOL     OW31609   4.642   3.468   9.809  0.7743  0.0313  0.2433
 6716SOL    HW131610   4.622   3.508   9.724 -0.9477  1.3195  1.2740
 6716SOL    HW231611   4.607   3.381   9.789  3.7028 -0.7336 -1.5754
 6717SOL     OW31612   2.372   3.922   8.262  0.5984  0.3483  0.6787
 6717SOL    HW131613   2.346   3.957   8.348 -1.9516 -0.8061  0.3692
 6717SOL    HW231614   2.291   3.905   8.214  1.5795 -0.3824 -0.7253
 6718SOL     OW31615   2.857   1.352   8.349 -0.5077  0.1223  0.1289
 6718SOL    HW131616   2.826   1.310   8.429 -1.3557  0.5588  0.0310
 6718SOL    HW231617   2.775   1.364   8.301 -1.0867  0.6515  1.2673
 6719SOL     OW31618   0.311   2.126  12.099  0.4378 -0.1919  0.0308
 6719SOL    HW131619   0.253   2.127  12.176  0.6208  1.6676  0.1649
 6719SOL    HW231620   0.343   2.217  12.093  0.6968 -0.2247  0.8968
 6720SOL     OW31621   2.555   0.954   9.774  0.0789 -0.2134  0.2945
 6720SOL    HW131622   2.632   0.995   9.736  1.6355 -0.1802  3.5333
 6720SOL    HW231623   2.489   1.023   9.767 -1.6135 -1.9554 -1.0561
 6721SOL     OW31624   1.173   0.242   4.980  0.0326  0.5136  0.3355
 6721SOL    HW131625   1.222   0.258   4.899  1.8680 -0.7689  1.2025
 6721SOL    HW231626   1.233   0.187   5.030 -1.6362  0.0950  1.8942
 6722SOL     OW31627   0.449   2.545   4.498  0.0690  0.5416  0.1219
 6722SOL    HW131628   0.512   2.615   4.479  0.4189  0.4003  0.7394
 6722SOL    HW231629   0.387   2.589   4.556 -0.6052 -0.3598  0.0846
 6723SOL     OW31630   2.604   2.007   2.636 -0.1193 -0.2151 -0.1934
 6723SOL    HW131631   2.547   2.071   2.679 -0.9552 -0.9017 -0.2842
 6723SOL    HW231632   2.682   2.042   2.680 -0.3720 -1.2447  1.0622
 6724SOL     OW31633   4.049   2.936   2.929 -0.2214 -0.0090  0.1002
 6724SOL    HW131634   4.026   2.856   2.880 -1.8130 -0.3127  1.3510
 6724SOL    HW231635   4.132   2.908   2.968 -0.4212  1.0954  1.3053
 6725SOL     OW31636   1.941   1.275   5.819 -0.4024  0.2788 -0.2298
 6725SOL    HW131637   1.898   1.272   5.733  2.5472  0.2249 -1.6955
 6725SOL    HW231638   2.021   1.319   5.791 -0.5799  1.0882  0.5433
 6726SOL     OW31639   0.296   1.129   0.408 -0.1974 -0.0368 -0.0262
 6726SOL    HW131640   0.209   1.140   0.446 -0.0605  2.8887 -0.5495
 6726SOL    HW231641   0.301   1.034   0.418 -0.5415  0.0617  1.0869
 6727SOL     OW31642   4.133   3.659  14.577  0.1809 -0.1106 -0.0683
 6727SOL    HW131643   4.066   3.634  14.641 -0.7012 -2.1583 -1.8323
 6727SOL    HW231644   4.201   3.592  14.576 -0.6032 -0.9147  0.4974
 6728SOL     OW31645   1.170   0.475  10.040 -0.5829  0.5169  0.0204
 6728SOL    HW131646   1.230   0.532  10.088  1.1758 -2.1140  0.9633
 6728SOL    HW231647   1.237   0.424   9.994 -1.4077  1.1014 -1.8484
 6729SOL     OW31648   1.788   1.914  13.416 -0.0624 -0.4851 -0.2008
 6729SOL    HW131649   1.868   1.940  13.372 -0.0142 -1.4062 -0.6542
 6729SOL    HW231650   1.759   2.001  13.444  2.2944  0.7284 -1.5669
 6730SOL     OW31651   0.814   0.921   2.281  0.3631  0.0208 -0.2443
 6730SOL    HW131652   0.799   0.996   2.338 -0.0078  1.1573 -1.8402
 6730SOL    HW231653   0.846   0.965   2.202 -1.8542 -1.7119 -2.1449
 6731SOL     OW31654   4.639   0.828   1.356  0.2882 -0.0839 -0.0649
 6731SOL    HW131655   4.712   0.840   1.417  0.6863  0.2657 -0.6091
 6731SOL    HW231656   4.581   0.900   1.381 -0.7607 -0.9190 -0.1109
 6732SOL     OW31657   2.343   4.420   2.695  0.4186  0.2065  0.0217
 6732SOL    HW131658   2.351   4.402   2.601 -1.4075 -1.0427  0.1189
 6732SOL    HW231659   2.250   4.436   2.706 -0.2666 -3.7077 -0.1044
 6733SOL     OW31660   2.154   3.428   6.954 -0.0799  0.1852 -0.3648
 6733SOL    HW131661   2.161   3.515   6.914 -2.8736 -0.3648 -2.0240
 6733SOL    HW231662   2.106   3.442   7.036  0.6993 -0.8035  0.2556
 6734SOL     OW31663   3.904   2.625   7.363 -0.4243 -0.2158  0.2193
 6734SOL    HW131664   3.927   2.653   7.451  0.4547 -2.0486  0.5782
 6734SOL    HW231665   3.964   2.550   7.359  0.4688  0.4682  0.7344
 6735SOL     OW31666   1.369   4.364   2.930 -0.1718  0.7683  0.1279
 6735SOL    HW131667   1.282   4.362   2.888 -0.3891  1.3473  0.5474
 6735SOL    HW231668   1.347   4.388   3.020 -1.7556  2.4976 -0.7176
 6736SOL     OW31669   0.232   0.955   3.516 -0.0273  0.5318  0.9111
 6736SOL    HW131670   0.268   1.015   3.452 -0.1253  1.8306  2.0695
 6736SOL    HW231671   0.139   0.977   3.507  0.4353  1.3210 -1.7717
 6737SOL     OW31672   0.635   3.990  16.127  0.2298  0.0815 -0.5689
 6737SOL    HW131673   0.689   4.061  16.092  2.1617 -0.4541  1.3665
 6737SOL    HW231674   0.681   3.924  16.075  2.4468  1.0470  0.1710
 6738SOL     OW31675   0.487   2.684   2.042  0.2647  0.1709  0.1190
 6738SOL    HW131676   0.419   2.713   1.981  0.1688 -0.9344 -0.2971
 6738SOL    HW231677   0.552   2.640   1.987 -0.8633  0.1441 -1.1881
 6739SOL     OW31678   2.794   2.018   8.682  0.0760  0.4173  0.1444
 6739SOL    HW131679   2.793   2.104   8.638 -1.2471  1.7060  2.7089
 6739SOL    HW231680   2.865   1.988   8.625 -0.9521 -1.0467 -0.3466
 6740SOL     OW31681   2.239   3.767  13.799 -0.3634  0.6522 -0.1532
 6740SOL    HW131682   2.154   3.808  13.785 -0.1231  1.5009  0.9206
 6740SOL    HW231683   2.236   3.771  13.894  0.5253 -0.4774 -0.0731
 6741SOL     OW31684   2.634   4.043  17.010  0.2205  0.8902 -0.1063
 6741SOL    HW131685   2.605   4.037  16.919  1.9255  0.9826 -0.6575
 6741SOL    HW231686   2.555   4.007  17.050  0.7671 -1.1125 -0.8664
 6742SOL     OW31687   4.544   0.335   5.096  0.3135 -0.4182 -0.4955
 6742SOL    HW131688   4.619   0.374   5.140 -1.0643  0.7764  0.7703
 6742SOL    HW231689   4.543   0.386   5.015  2.3755 -0.2752 -0.4306
 6743SOL     OW31690   2.761   3.174   5.934  0.1476 -0.0454  0.2786
 6743SOL    HW131691   2.746   3.124   5.854  0.4579  2.9566 -1.6635
 6743SOL    HW231692   2.674   3.214   5.930  0.7444  1.2801  0.4468
 6744SOL     OW31693   0.884   2.058   4.139  0.1562 -0.0946  0.0271
 6744SOL    HW131694   0.798   2.018   4.126  0.1367  0.8686 -2.8154
 6744SOL    HW231695   0.892   2.057   4.235  2.4543 -1.5313 -0.1889
 6745SOL     OW31696   3.841   3.657  14.195  0.5223  0.1341  0.3431
 6745SOL    HW131697   3.840   3.743  14.152  0.7110 -0.9198 -1.7478
 6745SOL    HW231698   3.926   3.655  14.239 -0.0747  0.2337  1.5080
 6746SOL     OW31699   1.472   0.270  14.075 -0.5724 -0.3451  0.0879
 6746SOL    HW131700   1.386   0.278  14.115 -1.0529 -3.6941 -0.2818
 6746SOL    HW231701   1.455   0.303  13.987  0.1176  1.0901  0.4837
 6747SOL     OW31702   3.469   4.272   1.270 -0.1651  0.2857 -0.2540
 6747SOL    HW131703   3.383   4.229   1.267  1.3491 -2.8688  1.4688
 6747SOL    HW231704   3.471   4.299   1.178  0.8702  3.9836  0.8901
 6748SOL     OW31705   2.875   0.156  12.499  0.1997  0.3657 -0.0851
 6748SOL    HW131706   2.807   0.122  12.557 -0.0685 -0.7071 -1.0168
 6748SOL    HW231707   2.872   0.088  12.431 -0.2099  1.5544 -1.2535
 6749SOL     OW31708   1.167   4.180   6.995 -0.4779 -0.0655  0.1493
 6749SOL    HW131709   1.159   4.097   6.948 -1.4612 -0.2929  0.7220
 6749SOL    HW231710   1.094   4.179   7.056  0.9268 -1.3120  1.8125
 6750SOL     OW31711   2.724   3.130   7.720 -0.3733 -0.5134  0.2172
 6750SOL    HW131712   2.730   3.208   7.665 -0.2995 -0.2805  0.5524
 6750SOL    HW231713   2.661   3.160   7.786  0.2050 -1.7443  1.3400
 6751SOL     OW31714   2.958   0.984   7.555  0.1454  0.0308 -0.0963
 6751SOL    HW131715   3.001   0.959   7.473  0.4722 -0.1229  0.1259
 6751SOL    HW231716   3.031   0.992   7.616 -1.5409  0.9694  1.7746
 6752SOL     OW31717   1.435   4.353   4.455 -0.7289  0.1366  0.4243
 6752SOL    HW131718   1.422   4.299   4.533  2.8576  1.2815  1.8314
 6752SOL    HW231719   1.341   4.364   4.442 -0.5282  2.9610  1.2148
 6753SOL     OW31720   2.389   2.185  16.377  0.5003 -0.2659  0.2103
 6753SOL    HW131721   2.338   2.149  16.304  0.6495  1.7617 -0.9056
 6753SOL    HW231722   2.344   2.267  16.398  3.3129  1.3172 -0.0491
 6754SOL     OW31723   4.103   2.743   6.817 -0.0896  0.2287  0.0914
 6754SOL    HW131724   4.101   2.830   6.858 -1.4006  0.4835 -0.5187
 6754SOL    HW231725   4.157   2.765   6.741 -1.0373  0.0320 -0.6274
 6755SOL     OW31726   4.430   3.887  11.375 -0.4097 -0.2848 -0.5173
 6755SOL    HW131727   4.353   3.861  11.325 -0.5925 -0.9979  0.1257
 6755SOL    HW231728   4.496   3.833  11.331  1.3868  1.9094 -0.5258
 6756SOL     OW31729   4.721   2.583  17.210  0.3530 -0.1171  0.2550
 6756SOL    HW131730   4.667   2.517  17.253 -0.7595  0.3247 -0.4656
 6756SOL    HW231731   0.013   2.540  17.126 -0.8410  2.6472 -1.3811
 6757SOL     OW31732   1.152   0.105   9.781 -0.0683 -0.2499  0.5145
 6757SOL    HW131733   1.098   0.121   9.859  0.4201  2.5635  0.2648
 6757SOL    HW231734   1.146   0.189   9.737  0.1337  0.3311  1.5968
 6758SOL     OW31735   4.517   1.109  17.478  0.3380  0.4451  0.1378
 6758SOL    HW131736   4.463   1.165  17.533  1.1679 -0.3102  1.6985
 6758SOL    HW231737   4.593   1.085  17.531  1.6822 -1.1701 -2.5205
 6759SOL     OW31738   2.358   4.261   4.415 -0.6187 -0.0518  0.3322
 6759SOL    HW131739   2.302   4.338   4.419  0.3351  0.5742  1.9480
 6759SOL    HW231740   2.424   4.292   4.353  0.3046 -2.2185  0.2156
 6760SOL     OW31741   0.722   1.914   2.890  1.0225 -0.3780  0.1053
 6760SOL    HW131742   0.638   1.874   2.916  0.7050  0.5959  0.5669
 6760SOL    HW231743   0.747   1.841   2.834 -2.5756 -1.2992 -0.3146
 6761SOL     OW31744   0.823   3.374   0.366  0.2576 -0.2651 -0.2633
 6761SOL    HW131745   0.816   3.289   0.409  0.8049 -0.8134 -1.2489
 6761SOL    HW231746   0.745   3.387   0.312  1.7694  1.1928 -2.0914
 6762SOL     OW31747   1.247   1.420  12.151  0.7586 -0.2904 -0.2373
 6762SOL    HW131748   1.178   1.481  12.178 -0.3845 -0.6307 -2.4261
 6762SOL    HW231749   1.244   1.349  12.216  2.3174 -1.2096 -1.1770
 6763SOL     OW31750   2.394   0.713   7.368  0.5134  0.2524  0.0957
 6763SOL    HW131751   2.460   0.711   7.298  0.3375  1.6106 -0.1091
 6763SOL    HW231752   2.434   0.756   7.443  0.4978 -0.6785  0.6293
 6764SOL     OW31753   2.575   2.200   9.908 -0.3459  0.2511  0.4109
 6764SOL    HW131754   2.581   2.208  10.003 -1.1723  1.7314  0.3531
 6764SOL    HW231755   2.521   2.277   9.887  0.6209  0.0180 -2.9911
 6765SOL     OW31756   2.482   2.301   2.018 -0.7545 -0.0152  0.3946
 6765SOL    HW131757   2.490   2.313   2.112  0.6283  1.7850  0.0265
 6765SOL    HW231758   2.450   2.210   2.014  0.1097 -0.2838 -0.4180
 6766SOL     OW31759   2.147   3.980  11.073 -0.6260 -0.6247  0.2786
 6766SOL    HW131760   2.177   3.890  11.087  3.5199  1.2747  3.6653
 6766SOL    HW231761   2.066   3.984  11.123  1.4435  0.8898  3.5295
 6767SOL     OW31762   0.376   4.222  16.549 -0.3879  0.0780  0.8185
 6767SOL    HW131763   0.292   4.180  16.563  0.1594 -1.4121 -0.2726
 6767SOL    HW231764   0.434   4.155  16.585  0.0569 -0.2453 -0.4797
 6768SOL     OW31765   4.307   4.207  13.283  0.0266  0.0059 -0.5227
 6768SOL    HW131766   4.344   4.132  13.331  0.6708  0.4946 -0.2557
 6768SOL    HW231767   4.344   4.193  13.196 -0.7990  0.2657 -0.9094
 6769SOL     OW31768   2.524   0.129   7.605 -0.5778  0.2388  0.5180
 6769SOL    HW131769   2.495   0.155   7.517  2.0199 -1.5366 -0.8628
 6769SOL    HW231770   2.526   0.209   7.658 -2.6105  0.7134 -0.1178
 6770SOL     OW31771   0.447   0.600   4.685  0.1350 -0.6205 -0.3226
 6770SOL    HW131772   0.485   0.673   4.733 -1.8289  0.1734  0.0078
 6770SOL    HW231773   0.367   0.641   4.651 -0.3192 -0.7642  0.5883
 6771SOL     OW31774   1.782   4.422  17.281  0.1345 -0.6996  0.5161
 6771SOL    HW131775   1.805   4.515  17.290 -0.5218 -0.5744  0.9925
 6771SOL    HW231776   1.821   4.393  17.199 -1.4081  0.9418 -0.8207
 6772SOL     OW31777   1.234   0.720   6.191  0.2711 -0.3151 -0.0390
 6772SOL    HW131778   1.207   0.665   6.264  0.7969  1.8084  1.7692
 6772SOL    HW231779   1.176   0.797   6.196  1.6290  0.7767 -1.1024
 6773SOL     OW31780   0.578   0.610   3.488  0.5089  0.9407 -0.1836
 6773SOL    HW131781   0.524   0.534   3.468  1.8541  0.2744 -1.2661
 6773SOL    HW231782   0.527   0.649   3.559 -0.8034  0.8920 -1.0898
 6774SOL     OW31783   0.846   0.907   7.836 -0.2416 -0.2652 -0.4847
 6774SOL    HW131784   0.764   0.896   7.884 -0.1349  2.0515  0.2261
 6774SOL    HW231785   0.860   0.826   7.787 -2.4285 -2.4749  2.5025
 6775SOL     OW31786   0.091   0.100   1.833 -0.1447 -0.3005  0.0563
 6775SOL    HW131787   0.152   0.066   1.767  0.0864  1.2122 -0.5014
 6775SOL    HW231788   0.028   0.028   1.841  0.2490 -0.7101 -0.5388
 6776SOL     OW31789   0.035   3.920   4.123  0.1191 -0.5161  0.2722
 6776SOL    HW131790   0.105   3.930   4.059 -1.0844  1.2865 -0.7722
 6776SOL    HW231791   4.682   3.951   4.075  1.2437  0.0813 -1.1077
 6777SOL     OW31792   1.606   0.160  12.989  0.0807 -0.0027  0.3023
 6777SOL    HW131793   1.670   0.229  13.007  0.7827 -0.7215  0.5629
 6777SOL    HW231794   1.556   0.184  12.911  1.7455  0.7272 -0.5310
 6778SOL     OW31795   4.410   1.483   9.769 -0.4220 -0.6023 -0.0809
 6778SOL    HW131796   4.396   1.391   9.788 -1.4066 -0.5585 -0.6033
 6778SOL    HW231797   4.359   1.507   9.846  1.5669  3.1711  0.0956
 6779SOL     OW31798   1.716   4.278  15.258  0.1991  0.5068 -0.2771
 6779SOL    HW131799   1.690   4.370  15.254 -0.8624  0.3521  2.9005
 6779SOL    HW231800   1.701   4.256  15.350  1.2065  0.5030 -0.1203
 6780SOL     OW31801   4.608   3.174   8.657 -0.0954 -0.5516 -0.7760
 6780SOL    HW131802   4.589   3.136   8.572 -2.5690 -0.1509 -0.4085
 6780SOL    HW231803   4.551   3.119   8.711 -0.9791  0.5387 -0.6069
 6781SOL     OW31804   4.103   0.141  16.702  0.4375  0.2854  0.1299
 6781SOL    HW131805   4.188   0.160  16.662  0.2514  0.5348 -0.1418
 6781SOL    HW231806   4.053   0.209  16.657  2.3633  0.8446 -1.1855
 6782SOL     OW31807   3.490   0.925   5.227  0.3235  0.1775 -0.0591
 6782SOL    HW131808   3.448   0.932   5.313  0.5051  3.6016 -0.2745
 6782SOL    HW231809   3.412   0.916   5.172  1.8444 -2.3126 -1.8018
 6783SOL     OW31810   2.503   1.543  14.156 -0.1966 -0.5342 -0.5378
 6783SOL    HW131811   2.409   1.524  14.163  0.2527 -2.7181 -0.5447
 6783SOL    HW231812   2.517   1.606  14.227 -0.2725 -1.4016  0.2591
 6784SOL     OW31813   3.367   0.510   8.904  0.1443  0.1642 -0.4042
 6784SOL    HW131814   3.398   0.596   8.877  1.0647 -0.4832 -1.3905
 6784SOL    HW231815   3.324   0.490   8.821 -0.0976  1.3378 -0.5624
 6785SOL     OW31816   0.475   3.230   6.047 -0.6131 -0.3559  0.2301
 6785SOL    HW131817   0.465   3.238   5.952  0.0305 -2.9018 -0.0469
 6785SOL    HW231818   0.444   3.140   6.056  1.0140 -0.8067  1.3968
 6786SOL     OW31819   2.369   1.835   3.555  0.5545  0.1665 -0.1070
 6786SOL    HW131820   2.403   1.761   3.605  2.4086  0.0453 -1.5425
 6786SOL    HW231821   2.385   1.795   3.470 -0.9273 -1.2428  0.2871
 6787SOL     OW31822   0.040   4.317   2.696  0.2555 -0.2932 -0.3868
 6787SOL    HW131823   0.089   4.334   2.776 -0.5063 -1.7142  0.3830
 6787SOL    HW231824   0.079   4.371   2.628 -1.6965 -0.5228 -1.6934
 6788SOL     OW31825   1.524   4.342   5.369  0.7271  0.4225 -0.3173
 6788SOL    HW131826   1.490   4.397   5.440 -1.7064 -3.9450  1.8738
 6788SOL    HW231827   1.511   4.253   5.401  1.2176 -0.3241 -2.2218
 6789SOL     OW31828   0.451   3.714   4.208  0.5861 -0.6768  0.1056
 6789SOL    HW131829   0.389   3.681   4.272 -0.4131 -1.1515 -1.0928
 6789SOL    HW231830   0.429   3.671   4.125  1.9278  1.8407 -1.5450
 6790SOL     OW31831   2.904   4.529   1.420 -0.2168 -0.1991  1.1971
 6790SOL    HW131832   2.832   4.501   1.476 -1.4529  1.4796  0.4732
 6790SOL    HW231833   2.979   4.496   1.469 -0.1157 -1.9949 -0.1675
 6791SOL     OW31834   0.338   1.693   4.702 -0.2146 -0.0616  0.1110
 6791SOL    HW131835   0.370   1.724   4.617 -1.3350 -1.4466 -0.8155
 6791SOL    HW231836   0.408   1.634   4.732  0.0198  0.7044  1.0656
 6792SOL     OW31837   1.025   0.950  11.556 -0.3700  0.0658  0.0747
 6792SOL    HW131838   0.955   0.931  11.619 -0.3537  1.3316  0.4737
 6792SOL    HW231839   0.975   0.912  11.484 -2.0374  0.1189  1.2083
 6793SOL     OW31840   1.692   1.533  14.695 -0.1446  0.3770  0.0973
 6793SOL    HW131841   1.655   1.447  14.718  2.0832 -0.5011  0.3463
 6793SOL    HW231842   1.641   1.551  14.616 -1.8291  2.9494  1.7678
 6794SOL     OW31843   3.515   0.739   3.127  0.2217  0.0316 -0.6340
 6794SOL    HW131844   3.468   0.696   3.055 -1.1994  1.3209 -0.4695
 6794SOL    HW231845   3.564   0.668   3.168 -0.7447 -1.1246 -1.4842
 6795SOL     OW31846   2.550   2.072  17.492 -0.0528 -0.6795  0.3600
 6795SOL    HW131847   2.579   2.162  17.507 -1.1225 -0.0552 -1.2426
 6795SOL    HW231848   2.610   2.041  17.424 -0.1227  2.5726 -1.2211
 6796SOL     OW31849   4.225   0.952   6.093 -0.1079 -0.8354 -0.0136
 6796SOL    HW131850   4.184   0.878   6.139  2.1319 -3.0012 -1.4633
 6796SOL    HW231851   4.155   0.991   6.041  0.0952  0.4746  0.7145
 6797SOL     OW31852   3.951   3.064   1.787  0.6740 -0.6132 -1.1378
 6797SOL    HW131853   3.960   3.143   1.734 -3.1825  0.3570 -0.3782
 6797SOL    HW231854   3.862   3.031   1.777  0.6435 -1.0907  0.7399
 6798SOL     OW31855   2.064   2.682   3.503 -0.2480 -0.2141 -0.3336
 6798SOL    HW131856   2.091   2.644   3.419 -0.1957 -3.0243  0.9594
 6798SOL    HW231857   2.089   2.773   3.486  0.1913  0.2613  2.9120
 6799SOL     OW31858   2.946   0.242   8.938 -0.2189  0.4289  0.1822
 6799SOL    HW131859   2.989   0.165   8.976 -0.7323  1.3858  2.7246
 6799SOL    HW231860   2.898   0.261   9.019  2.5526  0.8450  1.7613
 6800SOL     OW31861   2.063   3.439   4.649 -0.0641 -0.5343  0.1549
 6800SOL    HW131862   2.053   3.375   4.578  0.1605 -1.0736  0.6097
 6800SOL    HW231863   2.133   3.399   4.700 -0.5616 -1.6762 -0.0586
 6801SOL     OW31864   3.275   1.921   8.722  0.1189  0.1079 -0.1434
 6801SOL    HW131865   3.206   1.952   8.779  1.8413 -3.2315  3.8121
 6801SOL    HW231866   3.349   1.980   8.740 -0.6600  1.1799 -0.4819
 6802SOL     OW31867   3.986   3.719  11.127 -0.4294  0.5429  0.0405
 6802SOL    HW131868   3.906   3.695  11.173  0.7853 -0.8065  1.4426
 6802SOL    HW231869   4.037   3.709  11.208 -0.7197 -3.5987 -0.2728
 6803SOL     OW31870   3.752   3.144   7.308 -0.5489  0.1925  0.2526
 6803SOL    HW131871   3.828   3.173   7.258 -0.0258 -1.7277 -0.0681
 6803SOL    HW231872   3.801   3.093   7.372 -2.5511 -1.7084  0.2521
 6804SOL     OW31873   4.325   0.599  17.386 -0.1421 -0.4522  0.3297
 6804SOL    HW131874   4.417   0.617  17.405  0.1717  0.4817 -2.1460
 6804SOL    HW231875   4.280   0.684  17.387 -1.5616 -1.1962  0.2323
 6805SOL     OW31876   2.797   1.514  14.993  0.5463  0.6398  0.2355
 6805SOL    HW131877   2.817   1.607  14.993  1.4577  0.4460 -0.6575
 6805SOL    HW231878   2.871   1.482  15.045 -0.8000 -1.4836  0.8814
 6806SOL     OW31879   2.699   2.557  13.407  0.5398  0.3414 -0.1582
 6806SOL    HW131880   2.647   2.613  13.464  1.3471 -0.9542  1.8641
 6806SOL    HW231881   2.673   2.468  13.429  3.3323  0.2597  2.8095
 6807SOL     OW31882   2.601   4.021  17.313  0.3042  0.1263  0.2736
 6807SOL    HW131883   2.664   3.951  17.329  0.3925 -0.4967 -2.8080
 6807SOL    HW231884   2.544   3.983  17.247  0.8531 -1.5191  0.7300
 6808SOL     OW31885   4.483   4.231   4.846 -0.0377  0.0441  0.1899
 6808SOL    HW131886   4.528   4.262   4.925 -0.3712  0.7506  0.1097
 6808SOL    HW231887   4.519   4.303   4.793  0.8984 -1.2992 -0.9888
 6809SOL     OW31888   0.916   1.687   4.134  0.1919  0.0392 -0.4326
 6809SOL    HW131889   0.843   1.745   4.112  0.7001  0.1267 -1.8492
 6809SOL    HW231890   0.942   1.669   4.044  0.7221 -1.2965 -0.0130
 6810SOL     OW31891   3.006   3.931   5.126  0.1441  0.5311  0.0373
 6810SOL    HW131892   3.056   3.964   5.052 -2.4689  1.7014 -1.2180
 6810SOL    HW231893   2.980   3.848   5.086  1.0227 -0.2544  1.1141
 6811SOL     OW31894   0.398   2.421  12.653  0.4954  0.4827 -0.7488
 6811SOL    HW131895   0.375   2.336  12.614 -1.4974 -0.1978  1.9455
 6811SOL    HW231896   0.474   2.399  12.705  0.6563 -1.7106 -1.9181
 6812SOL     OW31897   1.258   1.791  11.461 -0.0510 -0.3589 -0.4753
 6812SOL    HW131898   1.312   1.840  11.523  1.6572 -0.9192 -1.5296
 6812SOL    HW231899   1.209   1.860  11.415  1.3389  1.4371  0.7528
 6813SOL     OW31900   0.707   0.069   8.422  0.0637  1.0772  0.4039
 6813SOL    HW131901   0.794   0.099   8.398 -0.2680  1.5738 -0.1770
 6813SOL    HW231902   0.664   0.069   8.336  2.7525 -0.4173 -0.9494
 6814SOL     OW31903   1.246   1.209   2.050  0.5868 -0.3090  0.0218
 6814SOL    HW131904   1.217   1.117   2.049 -0.0817 -0.1107  1.4221
 6814SOL    HW231905   1.193   1.247   2.120  1.7908  0.8434  0.2862
 6815SOL     OW31906   4.433   1.664   1.967  0.3407 -0.2338  0.1762
 6815SOL    HW131907   4.459   1.741   1.916  1.0933 -0.6451 -0.0637
 6815SOL    HW231908   4.386   1.701   2.041 -0.4701 -1.1382  0.1007
 6816SOL     OW31909   2.828   4.515  11.028  0.0905  0.2321  0.1748
 6816SOL    HW131910   2.872   4.592  11.064 -0.1851  0.3872  0.1810
 6816SOL    HW231911   2.823   4.457  11.104 -2.2030  1.8443  1.2707
 6817SOL     OW31912   0.626   1.842  17.063  0.0092 -0.1228 -0.2876
 6817SOL    HW131913   0.546   1.818  17.110 -1.0960  1.4660 -1.3547
 6817SOL    HW231914   0.630   1.768  17.001 -1.4532 -0.5017  0.0684
 6818SOL     OW31915   4.197   1.635   5.127  0.1699 -0.3562  0.8270
 6818SOL    HW131916   4.186   1.624   5.032 -0.2492  0.9835  0.7116
 6818SOL    HW231917   4.230   1.553   5.161  0.4437 -0.3753  0.5140
 6819SOL     OW31918   2.184   2.450   9.330  0.1574  0.3948  0.2219
 6819SOL    HW131919   2.236   2.486   9.401  1.1305  1.1382 -0.8631
 6819SOL    HW231920   2.221   2.506   9.262 -1.3189  1.1396  0.0260
 6820SOL     OW31921   0.967   3.132   2.829 -0.4765 -0.9784  0.6913
 6820SOL    HW131922   0.886   3.183   2.823  0.9969  1.3541  0.6796
 6820SOL    HW231923   0.970   3.144   2.924  0.7438  0.0465  0.5209
 6821SOL     OW31924   0.426   0.290   2.424 -0.3608 -0.1113 -0.3990
 6821SOL    HW131925   0.426   0.216   2.363  0.5192  0.5836 -1.2441
 6821SOL    HW231926   0.497   0.346   2.392  1.5963 -2.6782 -0.5551
 6822SOL     OW31927   1.763   0.636   6.730  0.4495  0.3858  0.0884
 6822SOL    HW131928   1.674   0.626   6.697  0.7257  0.3571 -0.6531
 6822SOL    HW231929   1.796   0.693   6.661 -2.6134  0.3704 -1.4114
 6823SOL     OW31930   2.678   0.878   2.438  0.5727  0.2498  0.8095
 6823SOL    HW131931   2.654   0.933   2.364  0.1511  0.4159  1.0676
 6823SOL    HW231932   2.594   0.880   2.485  0.2837 -0.9958  0.3458
 6824SOL     OW31933   0.997   0.842   5.686 -0.4285 -0.5600 -0.4218
 6824SOL    HW131934   0.911   0.879   5.668  0.0937  1.0469  0.4162
 6824SOL    HW231935   1.057   0.901   5.641  0.2869 -0.3689  0.7741
 6825SOL     OW31936   3.143   1.894   2.942  0.1052 -0.8497  0.1247
 6825SOL    HW131937   3.169   1.847   2.863 -0.1424  0.5561 -0.7899
 6825SOL    HW231938   3.124   1.820   3.000 -0.5516 -0.5354  0.3163
 6826SOL     OW31939   0.395   1.185   4.148 -0.9721  0.4545 -0.4248
 6826SOL    HW131940   0.424   1.097   4.170  1.4105  1.9018  2.1815
 6826SOL    HW231941   0.343   1.174   4.068 -1.5090  0.3657 -0.0690
 6827SOL     OW31942   0.157   3.914   1.230 -0.5315  0.1792 -0.3688
 6827SOL    HW131943   0.100   3.928   1.305 -0.7768 -2.4539 -0.0495
 6827SOL    HW231944   0.116   3.964   1.160  0.7449  1.4184 -0.2278
 6828SOL     OW31945   4.614   1.152  13.680 -0.0369  0.4402  0.2718
 6828SOL    HW131946   4.547   1.134  13.746 -1.1531  2.5277 -0.2842
 6828SOL    HW231947   4.568   1.129  13.599 -0.4911  1.7258  0.1646
 6829SOL     OW31948   3.356   1.851   6.978 -0.3754 -0.1282  0.2040
 6829SOL    HW131949   3.281   1.796   7.001  0.2222 -2.9304 -4.5459
 6829SOL    HW231950   3.332   1.873   6.888  2.9086 -1.3244 -0.9436
 6830SOL     OW31951   3.895   2.093   8.285 -0.8337 -0.1963 -0.1997
 6830SOL    HW131952   3.928   2.003   8.293  1.8960  0.8306  0.0599
 6830SOL    HW231953   3.802   2.085   8.267 -0.4663 -1.0055 -1.7261
 6831SOL     OW31954   2.343   0.108   9.478  0.0457 -0.2053  0.3992
 6831SOL    HW131955   2.389   0.190   9.458 -0.6464  0.6325  2.2363
 6831SOL    HW231956   2.385   0.056   9.409 -1.6594 -1.6729  0.5000
 6832SOL     OW31957   4.461   1.961   0.407  0.0900 -0.3421  0.4030
 6832SOL    HW131958   4.376   1.983   0.445 -0.9202  1.6893 -3.0334
 6832SOL    HW231959   4.458   1.986   0.315  1.0329 -2.0695 -0.0901
 6833SOL     OW31960   2.515   1.279  16.945 -0.1594 -0.3467 -0.2619
 6833SOL    HW131961   2.567   1.215  16.895 -0.9231  1.0752 -2.9061
 6833SOL    HW231962   2.482   1.224  17.016 -2.3489  0.2848 -0.8023
 6834SOL     OW31963   1.454   3.223  15.988  0.9605  0.3212 -0.4591
 6834SOL    HW131964   1.453   3.244  15.894 -1.2663 -0.2602 -0.5561
 6834SOL    HW231965   1.548   3.206  15.993  0.8570  0.5011  2.0914
 6835SOL     OW31966   3.005   1.632  11.023 -0.1256  0.5199 -0.0180
 6835SOL    HW131967   2.924   1.585  11.005  1.3580 -1.9844 -0.1269
 6835SOL    HW231968   2.995   1.706  10.963 -1.3196  0.0408 -0.4095
 6836SOL     OW31969   4.099   1.603  13.932 -0.4100 -0.6505 -0.2864
 6836SOL    HW131970   4.110   1.566  14.019 -0.4023 -1.4052 -0.6094
 6836SOL    HW231971   4.027   1.568  13.880 -1.2659  2.0211 -0.8899
 6837SOL     OW31972   1.079   4.278   4.745  0.2708 -0.0076  0.1350
 6837SOL    HW131973   1.097   4.327   4.825  0.1202  0.2876 -0.0109
 6837SOL    HW231974   1.046   4.343   4.683  2.1177 -0.5400 -1.4014
 6838SOL     OW31975   0.305   1.415  14.782  0.6824 -0.2120  0.4442
 6838SOL    HW131976   0.299   1.334  14.733  1.9496 -0.1750  0.2369
 6838SOL    HW231977   0.393   1.402  14.817  0.0916  1.0685  2.4023
 6839SOL     OW31978   3.428   0.326   4.124 -0.5506  0.3386  0.4968
 6839SOL    HW131979   3.430   0.354   4.032  1.6444 -0.9780  0.1430
 6839SOL    HW231980   3.355   0.267   4.106 -1.0389  0.8816  0.7160
 6840SOL     OW31981   0.507   2.231   3.740  0.0858 -0.0201  0.5864
 6840SOL    HW131982   0.421   2.200   3.766 -0.0156 -0.9469 -0.8671
 6840SOL    HW231983   0.542   2.148   3.709  0.4650  0.9732 -1.6687
 6841SOL     OW31984   0.395   1.560   0.633 -0.0726 -0.5221 -0.0071
 6841SOL    HW131985   0.337   1.491   0.664  1.0084 -0.1744  2.7729
 6841SOL    HW231986   0.475   1.517   0.662  1.6514  2.6526  0.0051
 6842SOL     OW31987   1.833   4.398   3.119  0.1182 -0.1891  0.1398
 6842SOL    HW131988   1.879   4.441   3.046  1.3715 -0.0052  1.0242
 6842SOL    HW231989   1.761   4.456   3.145  0.6819  0.4631  0.2555
 6843SOL     OW31990   2.281   2.126   9.355  0.2081  0.0571 -0.3287
 6843SOL    HW131991   2.203   2.127   9.300 -1.2452  0.9470  1.7165
 6843SOL    HW231992   2.252   2.166   9.438 -0.6765 -2.1771  0.4339
 6844SOL     OW31993   4.505   1.105   5.354 -0.3107  0.5635  0.3717
 6844SOL    HW131994   4.429   1.068   5.398 -1.0818 -0.8724 -2.1817
 6844SOL    HW231995   4.469   1.130   5.269 -0.2427 -0.3918  0.0491
 6845SOL     OW31996   0.908   1.732  12.680  0.2434  0.0214 -0.1025
 6845SOL    HW131997   0.992   1.732  12.635  0.8089  2.9122  0.9750
 6845SOL    HW231998   0.925   1.814  12.726  0.0707  0.8976 -1.5800
 6846SOL     OW31999   0.066   1.304   0.469  0.5137 -0.4231 -0.6784
 6846SOL    HW132000   4.708   1.348   0.493  1.1688  0.4325 -0.0023
 6846SOL    HW232001   0.054   1.314   0.374 -0.7574  1.1494 -0.3530
 6847SOL     OW32002   0.572   3.596   7.790  0.1053  0.1833  0.6184
 6847SOL    HW132003   0.529   3.609   7.875  1.0579  0.0969  1.1057
 6847SOL    HW232004   0.657   3.567   7.822  0.3545 -0.9375 -1.0855
 6848SOL     OW32005   3.468   2.392   0.809 -0.2301 -0.3984 -0.1336
 6848SOL    HW132006   3.536   2.348   0.860  0.8794 -1.1052 -2.1761
 6848SOL    HW232007   3.527   2.398   0.733 -0.1479  0.2292 -0.0169
 6849SOL     OW32008   4.108   2.196   3.000  0.3657 -0.0354 -0.4989
 6849SOL    HW132009   4.135   2.211   3.091 -0.3041  1.0835 -0.4811
 6849SOL    HW232010   4.059   2.273   2.970 -0.8029 -0.4435  0.3510
 6850SOL     OW32011   1.793   4.330  13.335  0.0343 -0.3861  0.0811
 6850SOL    HW132012   1.847   4.407  13.316  1.1856 -1.2164  0.0511
 6850SOL    HW232013   1.744   4.327  13.252 -0.6732 -0.1098  0.4824
 6851SOL     OW32014   2.587   3.056   4.431 -0.0052  0.5886  0.2405
 6851SOL    HW132015   2.494   3.071   4.411 -0.1094 -0.8904 -0.3603
 6851SOL    HW232016   2.625   3.094   4.351 -1.2725  1.8397  0.2269
 6852SOL     OW32017   1.628   4.558   3.935 -0.6076  0.5129 -0.8936
 6852SOL    HW132018   1.583   4.587   4.015 -0.5125  0.1064 -0.6939
 6852SOL    HW232019   1.708   4.544   3.984 -1.8048 -1.8652  0.3921
 6853SOL     OW32020   1.429   1.293   5.898 -0.3998  0.0475 -0.1377
 6853SOL    HW132021   1.430   1.383   5.864  1.0301 -0.1906 -0.7574
 6853SOL    HW232022   1.516   1.286   5.938  0.5016 -0.7997 -2.2671
 6854SOL     OW32023   2.769   1.264   6.901 -0.1390  0.1288  0.3049
 6854SOL    HW132024   2.684   1.294   6.934 -0.1437  1.2743 -0.7591
 6854SOL    HW232025   2.747   1.243   6.811 -1.7002 -1.4723  1.0553
 6855SOL     OW32026   3.824   0.282   0.025  0.4490 -0.2202  0.8129
 6855SOL    HW132027   3.731   0.262   0.025  0.5257 -0.5619 -0.2814
 6855SOL    HW232028   3.833   0.317   0.114  0.6893 -0.3415  0.8356
 6856SOL     OW32029   0.861   2.090   8.006  0.6747  0.0998  0.1175
 6856SOL    HW132030   0.891   2.000   7.991 -0.7363 -0.3785  0.1214
 6856SOL    HW232031   0.797   2.105   7.936  1.9235  1.8447 -0.6583
 6857SOL     OW32032   1.228   1.608   2.761 -0.1922  0.1015  0.5057
 6857SOL    HW132033   1.232   1.687   2.707  4.6300 -0.2648  0.3481
 6857SOL    HW232034   1.242   1.530   2.707  1.2072  0.0853  0.8921
 6858SOL     OW32035   2.211   0.075  17.512 -0.0544  0.0797 -0.3681
 6858SOL    HW132036   2.176   0.072  17.601 -0.4121 -1.0690 -0.5493
 6858SOL    HW232037   2.180   4.710  17.491  1.9897 -1.1580  1.8733
 6859SOL     OW32038   0.461   1.695   9.809 -0.2158 -0.0362 -0.2604
 6859SOL    HW132039   0.385   1.751   9.829 -0.8884 -1.4603  1.1811
 6859SOL    HW232040   0.446   1.629   9.877  0.1533 -1.7163 -1.8122
 6860SOL     OW32041   2.233   1.379   6.261 -0.2606  0.1679 -0.3413
 6860SOL    HW132042   2.275   1.331   6.332 -1.3125  0.3431  0.3958
 6860SOL    HW232043   2.247   1.474   6.260  1.1076 -0.0619 -2.4271
 6861SOL     OW32044   3.699   4.186   4.627 -0.3210  0.6272  0.5695
 6861SOL    HW132045   3.616   4.225   4.654 -0.5809  0.5568 -0.1240
 6861SOL    HW232046   3.686   4.127   4.553  0.6835  0.7194  0.3240
 6862SOL     OW32047   2.593   4.265  16.342 -0.3643  0.3262 -0.3644
 6862SOL    HW132048   2.582   4.172  16.319 -0.1739  0.3858 -0.6968
 6862SOL    HW232049   2.552   4.264  16.428  1.0204  3.7457  0.3076
 6863SOL     OW32050   2.616   1.885   5.856 -0.2692 -0.0035  0.2433
 6863SOL    HW132051   2.650   1.803   5.890  0.7261 -0.2486 -1.3595
 6863SOL    HW232052   2.573   1.863   5.774 -2.4822  1.6636  0.9518
 6864SOL     OW32053   3.145   1.301   9.265 -0.5693 -0.3493 -0.4444
 6864SOL    HW132054   3.130   1.206   9.263  0.5003 -0.4949 -1.4350
 6864SOL    HW232055   3.102   1.316   9.181 -0.5685 -0.2479 -0.4260
 6865SOL     OW32056   2.605   4.015   3.737 -0.6520  0.2871  0.3041
 6865SOL    HW132057   2.582   4.012   3.830  1.4387 -0.4389  0.7930
 6865SOL    HW232058   2.674   3.949   3.738 -1.4434 -0.5456 -0.4347
 6866SOL     OW32059   0.420   0.212   8.440  0.2220 -0.3149  0.5352
 6866SOL    HW132060   0.340   0.185   8.486 -0.3068 -1.2908 -0.9604
 6866SOL    HW232061   0.486   0.168   8.493  1.8730  1.8270  0.2351
 6867SOL     OW32062   0.783   3.115  10.557 -0.2929  0.4854  0.3697
 6867SOL    HW132063   0.820   3.071  10.633 -0.3897 -2.5076 -1.2991
 6867SOL    HW232064   0.860   3.150  10.512 -1.0558  1.6001 -0.0827
 6868SOL     OW32065   1.316   0.586  13.399  0.5306  0.2643  0.5895
 6868SOL    HW132066   1.255   0.608  13.329  0.5342  0.8027  0.7573
 6868SOL    HW232067   1.262   0.614  13.473 -0.6388 -0.5144  0.0251
 6869SOL     OW32068   3.421   3.378  12.317  0.0994 -0.1074 -0.9938
 6869SOL    HW132069   3.396   3.470  12.308 -1.2915 -0.1726  2.4414
 6869SOL    HW232070   3.487   3.388  12.385 -0.9808  0.3970 -0.0213
 6870SOL     OW32071   1.786   2.230   6.632  0.5504 -0.6538 -0.1498
 6870SOL    HW132072   1.782   2.189   6.546 -1.0888 -2.2979  0.7074
 6870SOL    HW232073   1.710   2.288   6.637 -0.3205 -1.5079 -3.3076
 6871SOL     OW32074   3.004   1.930   5.899 -0.3792 -0.0113  0.7445
 6871SOL    HW132075   2.991   2.005   5.957 -1.0135  1.2729 -1.0505
 6871SOL    HW232076   2.981   1.965   5.813 -0.5005  0.5285  1.0003
 6872SOL     OW32077   4.267   4.186   5.699 -0.7131 -0.0672 -0.3133
 6872SOL    HW132078   4.282   4.095   5.672 -0.3697  0.2146 -1.1050
 6872SOL    HW232079   4.348   4.220   5.660 -1.7567  0.3454 -2.1071
 6873SOL     OW32080   0.824   0.596  12.829  0.2996  0.2757 -0.1800
 6873SOL    HW132081   0.870   0.547  12.897 -1.8626 -0.5235  0.7068
 6873SOL    HW232082   0.870   0.561  12.753  0.3734 -2.9818  1.3283
 6874SOL     OW32083   1.107   1.479   4.707 -0.4964 -0.1171  0.6027
 6874SOL    HW132084   1.117   1.549   4.643  0.0462 -0.4195  0.3599
 6874SOL    HW232085   1.063   1.412   4.654 -1.5248  0.0527  1.2491
 6875SOL     OW32086   0.606   2.769   4.576  0.4421 -0.2078 -0.0686
 6875SOL    HW132087   0.559   2.808   4.650  0.3395 -1.5016  0.5367
 6875SOL    HW232088   0.678   2.719   4.614  0.0505 -1.4538 -0.9891
 6876SOL     OW32089   1.728   2.494   9.274 -0.1371  0.1305 -0.1666
 6876SOL    HW132090   1.652   2.436   9.269 -0.4006  0.4281  0.4308
 6876SOL    HW232091   1.696   2.547   9.347 -2.0961  1.2220 -1.8123
 6877SOL     OW32092   4.251   2.356  15.120 -0.1586 -0.2647  0.4038
 6877SOL    HW132093   4.298   2.386  15.043  0.4997  0.9551  1.2744
 6877SOL    HW232094   4.295   2.407  15.188 -1.3403  1.4145 -0.0800
 6878SOL     OW32095   3.589   2.305   7.358  0.4696 -1.0195 -0.2577
 6878SOL    HW132096   3.668   2.255   7.378  0.1344 -1.6477 -0.5054
 6878SOL    HW232097   3.597   2.376   7.422 -0.3183 -0.9726 -0.2124
 6879SOL     OW32098   2.976   3.659  16.124 -0.7503  0.7039  0.6511
 6879SOL    HW132099   3.008   3.749  16.121  0.1717  0.2748 -2.1006
 6879SOL    HW232100   2.954   3.646  16.032  0.2754  2.0577  0.2204
 6880SOL     OW32101   3.505   1.672   4.424  0.1603  0.3725 -0.0852
 6880SOL    HW132102   3.563   1.736   4.383 -0.8264  0.6182 -1.1166
 6880SOL    HW232103   3.434   1.663   4.360  0.4197 -0.9600 -0.1984
 6881SOL     OW32104   0.265   3.228   9.327 -0.3783  0.0761 -0.5179
 6881SOL    HW132105   0.239   3.293   9.393 -1.4475  0.5530 -1.3997
 6881SOL    HW232106   0.352   3.264   9.310  0.4455 -2.2787 -1.3218
 6882SOL     OW32107   1.738   3.669   5.200 -0.4112  0.2894  0.8170
 6882SOL    HW132108   1.806   3.636   5.142  0.4360  1.8698  0.9071
 6882SOL    HW232109   1.659   3.629   5.164  0.8007 -0.7309 -0.6628
 6883SOL     OW32110   3.983   4.425   7.661 -0.1651  0.1457 -0.5968
 6883SOL    HW132111   4.063   4.474   7.639 -1.3351  1.1161 -2.6881
 6883SOL    HW232112   3.930   4.461   7.590  0.2610  0.7444 -0.6113
 6884SOL     OW32113   3.989   1.491   8.324  0.4940  0.0513  0.1467
 6884SOL    HW132114   3.943   1.465   8.404 -2.4183 -0.1450 -1.5848
 6884SOL    HW232115   3.976   1.418   8.262  0.8622 -0.2051  0.3737
 6885SOL     OW32116   2.088   4.071  10.785 -0.1237 -0.0260 -0.1292
 6885SOL    HW132117   2.111   4.001  10.846 -2.2941  0.2444  1.0369
 6885SOL    HW232118   2.174   4.104  10.761 -0.9443 -0.3972 -3.5102
 6886SOL     OW32119   3.218   0.644   0.670 -0.1143  0.0133 -0.6174
 6886SOL    HW132120   3.239   0.606   0.585 -2.2601 -2.3608 -0.1109
 6886SOL    HW232121   3.147   0.584   0.694 -0.2857  0.2823 -0.4507
 6887SOL     OW32122   2.240   4.024   5.773  0.1885  0.0091  0.9799
 6887SOL    HW132123   2.162   3.972   5.791 -0.8496  1.9901  2.1639
 6887SOL    HW232124   2.212   4.113   5.794 -2.4362 -0.4829 -0.4549
 6888SOL     OW32125   1.966   1.285   4.093  0.3986 -0.0570  0.6663
 6888SOL    HW132126   2.013   1.367   4.105  1.7772 -0.9071  0.9635
 6888SOL    HW232127   1.913   1.279   4.172  0.8449 -1.2799  0.8716
 6889SOL     OW32128   3.671   3.615  13.999 -1.0026  0.0352  0.2397
 6889SOL    HW132129   3.710   3.680  13.941 -1.8067  1.5662  1.4492
 6889SOL    HW232130   3.705   3.640  14.085  0.5351  0.3990 -0.4759
 6890SOL     OW32131   2.731   3.124  13.523 -0.4531 -0.2246  0.3872
 6890SOL    HW132132   2.695   3.209  13.549 -0.5143 -0.1324  0.0024
 6890SOL    HW232133   2.648   3.081  13.500 -0.9916 -0.0114  1.9106
 6891SOL     OW32134   1.074   1.959  13.047 -0.0359 -0.5823  0.4032
 6891SOL    HW132135   1.150   2.006  13.080  1.4304 -1.5456 -1.6431
 6891SOL    HW232136   1.097   1.866  13.047  0.5339 -0.4423  1.1782
 6892SOL     OW32137   1.253   4.526  13.579  0.0644  0.6944  0.6288
 6892SOL    HW132138   1.284   4.614  13.603 -0.5030  1.1497 -0.3036
 6892SOL    HW232139   1.159   4.538  13.597  0.6640  1.8007  3.0607
 6893SOL     OW32140   1.505   1.241   2.154  0.0376  0.1508 -0.1697
 6893SOL    HW132141   1.582   1.251   2.098 -0.8108  0.9174 -1.1766
 6893SOL    HW232142   1.428   1.243   2.098  0.1258 -0.1683 -0.3015
 6894SOL     OW32143   3.119   3.475   8.185  0.6561 -0.6097 -0.1071
 6894SOL    HW132144   3.045   3.416   8.173  0.8058  0.0219 -3.9792
 6894SOL    HW232145   3.134   3.507   8.096  0.7113 -1.3189 -0.3503
 6895SOL     OW32146   4.655   0.140   7.787  0.7066  0.1794 -0.3038
 6895SOL    HW132147   4.706   0.164   7.865  0.4661  1.8916 -0.6644
 6895SOL    HW232148   4.711   0.071   7.751  0.9215  0.2175 -0.0423
 6896SOL     OW32149   4.677   0.825  13.422 -0.2409  0.6855  0.9724
 6896SOL    HW132150   4.585   0.797  13.415 -0.6722  2.5022 -0.6070
 6896SOL    HW232151   4.668   0.908  13.375  0.1326  1.4209  2.1992
 6897SOL     OW32152   3.598   4.717   3.913  0.1034 -0.1685 -0.2834
 6897SOL    HW132153   3.523   4.705   3.971  1.0208  0.6781  1.0933
 6897SOL    HW232154   3.659   4.645   3.932 -0.7284 -0.9043 -0.4004
 6898SOL     OW32155   3.322   0.556  15.741 -0.7326  0.1714 -0.2493
 6898SOL    HW132156   3.323   0.501  15.820  1.0737 -0.4213 -0.7030
 6898SOL    HW232157   3.405   0.537  15.699 -1.1783  0.5969 -1.3147
 6899SOL     OW32158   2.297   4.447   4.668  0.1911  0.5315 -0.1125
 6899SOL    HW132159   2.205   4.453   4.640 -0.1981 -3.7942  0.1572
 6899SOL    HW232160   2.285   4.396   4.748  1.5133  1.9713  0.9932
 6900SOL     OW32161   0.772   4.683   1.339  0.4756  0.7456  0.6248
 6900SOL    HW132162   0.750   4.591   1.353 -1.5262  1.1575  0.1341
 6900SOL    HW232163   0.711   4.697   1.266 -1.0048 -3.4076  1.0632
 6901SOL     OW32164   0.176   2.100   7.373 -0.1372 -0.5420  0.2327
 6901SOL    HW132165   0.139   2.017   7.345 -0.5813 -0.9729  2.1258
 6901SOL    HW232166   0.101   2.157   7.389  0.7783 -0.4877  4.2122
 6902SOL     OW32167   2.430   0.797   9.584  0.5418  0.3592 -0.3165
 6902SOL    HW132168   2.482   0.827   9.658 -0.4295  1.6942 -0.1846
 6902SOL    HW232169   2.455   0.861   9.518  0.6713 -0.9808 -1.5567
 6903SOL     OW32170   1.839   3.336  13.459 -0.7411  0.0946 -0.1518
 6903SOL    HW132171   1.838   3.313  13.552  1.5052  1.5595  0.2395
 6903SOL    HW232172   1.918   3.388  13.471  1.1977 -3.4242  2.4889
 6904SOL     OW32173   0.462   1.939   8.368 -0.3817  0.5253 -0.3597
 6904SOL    HW132174   0.394   1.998   8.402 -1.6865  1.0514 -3.9645
 6904SOL    HW232175   0.482   1.886   8.445  1.6647  0.5876 -0.8619
 6905SOL     OW32176   2.608   1.226   8.996 -0.4612 -0.0646  0.3620
 6905SOL    HW132177   2.650   1.284   8.932 -1.3995 -0.3239 -0.4766
 6905SOL    HW232178   2.527   1.211   8.948 -1.7530 -0.2995  2.6076
 6906SOL     OW32179   3.636   0.602   4.465 -0.3034  0.2122  0.3562
 6906SOL    HW132180   3.598   0.666   4.405  2.5776  0.2565 -1.4546
 6906SOL    HW232181   3.728   0.603   4.436 -0.0699 -1.5771  1.0131
 6907SOL     OW32182   1.536   2.142  15.615  0.1465  0.4034 -0.4557
 6907SOL    HW132183   1.453   2.143  15.567 -0.2177  1.9620  0.2378
 6907SOL    HW232184   1.532   2.055  15.655  0.1054  0.6847  0.1463
 6908SOL     OW32185   0.583   0.187  15.861  0.5471 -0.0936 -0.0050
 6908SOL    HW132186   0.517   0.249  15.832  0.3603 -0.4119 -0.2628
 6908SOL    HW232187   0.620   0.235  15.935 -2.0559  2.1074 -0.1133
 6909SOL     OW32188   1.369   1.548  11.504  0.4309 -0.0567 -0.6581
 6909SOL    HW132189   1.412   1.614  11.558  0.5458 -0.5484 -0.1479
 6909SOL    HW232190   1.304   1.613  11.477 -0.8035 -0.8614  0.3849
 6910SOL     OW32191   4.208   0.212  12.434 -0.1576 -0.5948  0.3247
 6910SOL    HW132192   4.197   0.236  12.526 -0.3776 -0.3200  0.2309
 6910SOL    HW232193   4.232   0.299  12.401 -0.6996 -1.4653 -2.3426
 6911SOL     OW32194   3.187   3.700  11.779 -0.1165 -0.1115  0.1867
 6911SOL    HW132195   3.174   3.652  11.860  1.3019  0.0955  0.5307
 6911SOL    HW232196   3.251   3.644  11.736  1.8099  1.8321  0.5278
 6912SOL     OW32197   3.465   0.998   8.434  0.1684 -0.3116  0.1169
 6912SOL    HW132198   3.370   0.987   8.445 -0.0022  1.6767  0.5887
 6912SOL    HW232199   3.467   1.079   8.382 -0.0465 -0.2433  0.2144
 6913SOL     OW32200   2.320   2.509   3.015 -0.4115  0.0758 -0.5734
 6913SOL    HW132201   2.382   2.583   3.018 -0.9436  0.6279 -2.8372
 6913SOL    HW232202   2.266   2.533   2.940  0.9838  3.1383 -0.6210
 6914SOL     OW32203   4.723   2.463   7.978 -0.3851  0.0659 -0.3276
 6914SOL    HW132204   0.010   2.384   7.925 -2.4612 -2.0054  2.3239
 6914SOL    HW232205   0.041   2.431   8.058  0.4011  0.1731 -0.7000
 6915SOL     OW32206   0.253   2.160   3.814  0.4002  0.2652 -0.9119
 6915SOL    HW132207   0.231   2.102   3.741  0.9720 -1.4079  0.2487
 6915SOL    HW232208   0.167   2.201   3.832 -0.2493 -0.9685 -1.2292
 6916SOL     OW32209   1.006   0.747  14.311 -0.1798 -0.5392 -0.4051
 6916SOL    HW132210   1.073   0.686  14.279 -1.3910 -1.5703 -0.9718
 6916SOL    HW232211   0.924   0.711  14.276 -0.9070  0.8188 -0.0807
 6917SOL     OW32212   4.181   0.558   4.387  0.0563 -0.0353 -0.3931
 6917SOL    HW132213   4.187   0.652   4.408  0.0064 -0.0466 -0.3289
 6917SOL    HW232214   4.092   0.536   4.413  0.8845 -1.0845  1.4940
 6918SOL     OW32215   1.809   2.707   9.057  0.0593  0.3907  0.2715
 6918SOL    HW132216   1.793   2.613   9.052  0.3738  0.2087  2.5574
 6918SOL    HW232217   1.831   2.716   9.150  3.3995  0.3134 -0.5146
 6919SOL     OW32218   3.356   0.550   1.450 -0.3598 -0.0570 -0.0919
 6919SOL    HW132219   3.365   0.492   1.374  2.6065 -3.0081  2.5104
 6919SOL    HW232220   3.270   0.586   1.429 -0.4476  0.7621  1.6984
 6920SOL     OW32221   1.325   1.876   6.186  0.2526 -0.4185 -0.0985
 6920SOL    HW132222   1.271   1.947   6.151  3.1474  1.6174 -0.4983
 6920SOL    HW232223   1.354   1.837   6.103  1.3109 -0.9139  0.5032
 6921SOL     OW32224   3.944   3.017   3.368 -0.1049  0.1719  0.5324
 6921SOL    HW132225   3.967   2.940   3.316 -3.7702 -0.6056  0.0429
 6921SOL    HW232226   3.906   3.070   3.298  0.1049 -1.2822 -0.6793
 6922SOL     OW32227   0.151   2.640   6.109 -0.1457 -0.3468  0.7800
 6922SOL    HW132228   0.096   2.565   6.132  1.1891 -1.2918  0.8948
 6922SOL    HW232229   0.223   2.593   6.066  0.9314  1.4204  0.6520
 6923SOL     OW32230   0.667   1.813   4.030 -0.2571 -0.9481 -0.4281
 6923SOL    HW132231   0.627   1.736   3.988  0.7449 -0.7336 -1.7697
 6923SOL    HW232232   0.616   1.878   3.982 -0.2939 -0.6677 -0.0031
 6924SOL     OW32233   3.280   2.457   3.905 -0.4385 -0.3949 -0.6782
 6924SOL    HW132234   3.255   2.545   3.875 -0.0842  0.3386  1.1924
 6924SOL    HW232235   3.359   2.457   3.851 -1.2014  0.8987 -1.8060
 6925SOL     OW32236   4.582   3.587   5.598 -0.1213 -0.3147 -0.1344
 6925SOL    HW132237   4.544   3.501   5.613 -0.2804 -0.4500 -1.2881
 6925SOL    HW232238   4.505   3.635   5.629 -0.4942 -2.2114  1.8130
 6926SOL     OW32239   4.633   1.742   4.251  0.2554  0.3791  0.5530
 6926SOL    HW132240   4.686   1.685   4.307 -1.0568 -2.3172 -0.9314
 6926SOL    HW232241   4.568   1.677   4.224  0.1855 -0.0450  1.7463
 6927SOL     OW32242   0.006   1.030   3.743  0.0842 -0.1313  0.1970
 6927SOL    HW132243   0.005   1.029   3.647 -2.9431  0.9927  0.2179
 6927SOL    HW232244   0.010   1.123   3.762 -0.9895 -0.4587  2.0393
 6928SOL     OW32245   3.250   2.197   1.706  0.0889 -0.6337 -0.0182
 6928SOL    HW132246   3.298   2.277   1.687 -2.2877  0.5506 -1.0567
 6928SOL    HW232247   3.161   2.224   1.685 -0.2222 -1.0882  0.7074
 6929SOL     OW32248   2.901   0.026   3.450  0.3053 -0.0914 -0.1979
 6929SOL    HW132249   2.976   0.076   3.485 -0.1437  0.2162  0.3290
 6929SOL    HW232250   2.859   0.096   3.400  0.8382  0.3077 -0.0879
 6930SOL     OW32251   1.465   1.336  16.957 -0.3700 -0.2881 -0.2805
 6930SOL    HW132252   1.476   1.386  17.038  0.0965 -0.3478 -0.3070
 6930SOL    HW232253   1.520   1.386  16.896  0.5475  1.5106  2.0158
 6931SOL     OW32254   4.442   1.561   4.198 -0.0330  0.4280 -0.3576
 6931SOL    HW132255   4.349   1.558   4.174 -0.1613 -1.4068  0.3947
 6931SOL    HW232256   4.436   1.508   4.277 -0.3834 -0.0774 -0.7149
 6932SOL     OW32257   1.612   3.370   3.216  0.2048  0.5730  0.1620
 6932SOL    HW132258   1.625   3.278   3.193  0.5436  0.0602  2.4343
 6932SOL    HW232259   1.523   3.367   3.250  0.2807 -0.3694  0.2939
 6933SOL     OW32260   4.356   0.088  12.936 -0.1547 -0.1311  0.0200
 6933SOL    HW132261   4.399   0.036  12.867  2.5403  1.3309  0.6136
 6933SOL    HW232262   4.368   0.044  13.020  4.2202  1.4084  0.2032
 6934SOL     OW32263   4.012   0.944   9.992 -0.8943  0.1220  0.1527
 6934SOL    HW132264   4.059   0.961   9.911  2.3584 -0.0968  2.0146
 6934SOL    HW232265   3.958   0.866   9.976 -0.8668  0.0492  0.4151
 6935SOL     OW32266   2.185   2.242   2.260  0.1122  0.6087  0.3037
 6935SOL    HW132267   2.132   2.297   2.202 -0.0327 -1.2697 -1.3297
 6935SOL    HW232268   2.116   2.193   2.305  1.1602 -0.8830  0.2496
 6936SOL     OW32269   0.603   1.194   5.865 -0.2515 -0.1795 -0.2574
 6936SOL    HW132270   0.536   1.204   5.933 -1.7061 -0.4700 -1.6523
 6936SOL    HW232271   0.613   1.099   5.867  1.1919 -0.0620 -1.9553
 6937SOL     OW32272   4.604   0.330  16.347  0.1240 -0.0941  0.2795
 6937SOL    HW132273   4.652   0.302  16.425  1.7823 -2.1221 -1.4787
 6937SOL    HW232274   4.512   0.333  16.373 -0.1001 -1.1347 -0.3967
 6938SOL     OW32275   3.681   3.303  10.236  0.2710 -0.5258 -0.5989
 6938SOL    HW132276   3.633   3.383  10.216  1.4456  0.2196 -0.4009
 6938SOL    HW232277   3.744   3.284  10.167  0.6297  0.7658 -0.6189
 6939SOL     OW32278   4.041   0.958   7.733 -0.7165 -0.2001  0.0794
 6939SOL    HW132279   4.059   0.939   7.826 -0.4839 -0.2905  0.0172
 6939SOL    HW232280   3.988   1.037   7.738 -0.6084 -0.1737  0.8313
 6940SOL     OW32281   3.154   4.651   2.560  0.2558  0.6867  0.1856
 6940SOL    HW132282   3.175   4.562   2.532  2.9102  1.1762  0.5553
 6940SOL    HW232283   3.123   4.689   2.478  0.9798  0.7649 -0.0595
 6941SOL     OW32284   3.638   4.174  11.490 -0.7708  0.4001  0.1945
 6941SOL    HW132285   3.590   4.249  11.455  0.0451  1.7413  1.9762
 6941SOL    HW232286   3.615   4.107  11.425  0.7957  2.1429 -2.1530
 6942SOL     OW32287   4.204   4.045  12.579 -0.1487 -0.2894 -0.0196
 6942SOL    HW132288   4.204   4.139  12.598 -1.0207  0.1026 -1.9625
 6942SOL    HW232289   4.124   4.023  12.625  0.1226  0.9485  1.0547
 6943SOL     OW32290   2.554   0.932   7.494  0.3611  0.0004 -0.2900
 6943SOL    HW132291   2.612   0.983   7.437  0.9490 -1.4961 -1.0267
 6943SOL    HW232292   2.614   0.868   7.530 -0.0227 -0.2754 -0.1478
 6944SOL     OW32293   0.548   0.799   7.164 -0.3083 -0.1297 -0.2962
 6944SOL    HW132294   0.482   0.778   7.229  1.1077 -1.7209  0.6370
 6944SOL    HW232295   0.493   0.795   7.085  0.6007  1.2667 -0.9959
 6945SOL     OW32296   3.153   2.475  15.518 -0.5328 -0.3717 -0.4195
 6945SOL    HW132297   3.086   2.411  15.493 -1.6290  0.2547  0.9209
 6945SOL    HW232298   3.226   2.422  15.549  0.2692  2.0893  1.8671
 6946SOL     OW32299   0.879   3.320   5.957 -0.1277  0.0925 -0.0518
 6946SOL    HW132300   0.907   3.411   5.957 -3.1021  1.0148  0.1617
 6946SOL    HW232301   0.807   3.335   6.019  0.0054  1.2434 -0.1760
 6947SOL     OW32302   0.447   2.082   9.725  0.3180  0.1840  0.2387
 6947SOL    HW132303   0.440   1.998   9.771  2.7533 -0.0177  0.2415
 6947SOL    HW232304   0.404   2.140   9.788  0.1683  2.5560 -2.0883
 6948SOL     OW32305   0.992   0.460  16.501  0.2218  0.0031  0.6737
 6948SOL    HW132306   0.910   0.493  16.536 -1.7269 -1.2976 -2.7307
 6948SOL    HW232307   0.984   0.366  16.520 -1.8533  0.2023  0.7353
 6949SOL     OW32308   0.851   0.526   9.888 -0.1842 -0.6264  0.0228
 6949SOL    HW132309   0.841   0.431   9.894  1.1383 -0.6712  1.6143
 6949SOL    HW232310   0.841   0.563   9.976  0.2063  1.3296 -0.7642
 6950SOL     OW32311   1.908   3.960   1.425  0.1005 -0.3371  0.3094
 6950SOL    HW132312   1.934   3.971   1.516  0.8121 -0.0024  0.0706
 6950SOL    HW232313   1.898   3.866   1.435  0.4760 -0.4500 -0.3389
 6951SOL     OW32314   3.140   0.005   2.112  0.5127 -0.3132 -0.3692
 6951SOL    HW132315   3.144   0.085   2.165  0.9349  0.3620 -1.4204
 6951SOL    HW232316   3.126   0.036   2.022 -2.3559  1.9159  0.8113
 6952SOL     OW32317   0.978   0.279   9.987 -0.1576  0.3269  0.6943
 6952SOL    HW132318   0.972   0.255  10.079 -1.7792 -0.4691  0.3709
 6952SOL    HW232319   1.026   0.360  10.005  1.9853 -0.5784 -0.8879
 6953SOL     OW32320   1.779   4.218   0.561  0.0890 -0.0156 -0.0330
 6953SOL    HW132321   1.833   4.193   0.485  1.0733 -0.5936  0.8523
 6953SOL    HW232322   1.729   4.291   0.526  0.6224 -0.0480 -0.8661
 6954SOL     OW32323   1.488   3.837   1.906 -0.3271 -0.1079  0.5273
 6954SOL    HW132324   1.514   3.929   1.907  1.1030 -0.5252  1.2177
 6954SOL    HW232325   1.416   3.845   1.843 -0.3341 -1.9450  0.3047
 6955SOL     OW32326   2.547   0.715   3.020 -0.1385 -0.2994 -0.3477
 6955SOL    HW132327   2.609   0.762   2.964  1.5808  0.2742  2.0331
 6955SOL    HW232328   2.595   0.666   3.087  1.7685  0.8366 -0.8774
 6956SOL     OW32329   3.660   2.820  10.110  0.2391 -0.7072  0.6872
 6956SOL    HW132330   3.720   2.784  10.045 -0.3294  1.0181 -0.7790
 6956SOL    HW232331   3.723   2.836  10.180  1.6600  1.3602 -1.0541
 6957SOL     OW32332   2.523   2.105   4.654  0.1982 -0.1247 -0.5318
 6957SOL    HW132333   2.592   2.171   4.647  0.7788 -0.4927  2.0892
 6957SOL    HW232334   2.565   2.036   4.603 -1.1701 -0.6985 -0.9045
 6958SOL     OW32335   3.383   2.759   5.742 -0.2130 -0.7593 -0.0020
 6958SOL    HW132336   3.308   2.778   5.798 -0.3721  0.1373 -0.5172
 6958SOL    HW232337   3.382   2.664   5.753 -0.7020 -0.7525  0.0014
 6959SOL     OW32338   2.890   2.888  13.768 -0.2850  0.3022 -0.1160
 6959SOL    HW132339   2.968   2.942  13.780  0.0189 -0.4646  1.3796
 6959SOL    HW232340   2.901   2.849  13.681 -1.0528 -0.4971  0.1440
 6960SOL     OW32341   2.542   1.811   2.422  0.5561 -0.3202 -0.9629
 6960SOL    HW132342   2.516   1.756   2.496 -1.9230  2.9281  0.6054
 6960SOL    HW232343   2.568   1.893   2.465 -2.1986  0.1539 -0.1666
 6961SOL     OW32344   3.997   3.242  15.657  0.0986 -0.3246  0.5732
 6961SOL    HW132345   4.037   3.192  15.729 -1.3873 -3.0198 -0.4493
 6961SOL    HW232346   3.994   3.329  15.696 -0.9928  0.2033 -0.7197
 6962SOL     OW32347   2.650   3.354  16.810  0.0011  0.2556 -0.3273
 6962SOL    HW132348   2.575   3.314  16.853  0.7385  0.8345  1.4973
 6962SOL    HW232349   2.697   3.376  16.890  1.3989 -0.4856 -0.9261
 6963SOL     OW32350   2.537   3.243   0.852 -0.0471 -0.1524 -0.4494
 6963SOL    HW132351   2.527   3.174   0.787  0.5378 -0.5841 -0.0725
 6963SOL    HW232352   2.619   3.284   0.825 -0.8229  1.6719 -0.0394
 6964SOL     OW32353   2.499   2.175  10.166  0.1637  0.0326  0.4652
 6964SOL    HW132354   2.429   2.240  10.158 -1.7157 -2.2461 -1.5318
 6964SOL    HW232355   2.563   2.222  10.219  1.4165 -0.6404 -0.4482
 6965SOL     OW32356   1.616   1.319   9.657  0.0409 -0.5281 -0.3467
 6965SOL    HW132357   1.613   1.321   9.561 -0.7491 -1.5646 -0.3456
 6965SOL    HW232358   1.520   1.323   9.661  0.1702  2.4762 -0.1089
 6966SOL     OW32359   0.275   0.985   8.614 -0.1180 -0.4437  0.0428
 6966SOL    HW132360   0.370   0.992   8.618 -0.0441 -0.9929 -0.7206
 6966SOL    HW232361   0.252   1.005   8.705  0.3929 -0.6356  0.2129
 6967SOL     OW32362   4.433   1.341   5.752  0.3378  0.0910  0.0799
 6967SOL    HW132363   4.460   1.356   5.842  0.9306 -0.3494 -0.0283
 6967SOL    HW232364   4.459   1.424   5.712 -2.6202  0.7754 -0.4618
 6968SOL     OW32365   0.525   2.846  14.911 -0.0123  0.6557 -0.0710
 6968SOL    HW132366   0.463   2.774  14.926  0.0202  0.2173 -2.0907
 6968SOL    HW232367   0.583   2.814  14.843  0.4861 -0.6891  0.9858
 6969SOL     OW32368   1.590   2.603   1.435 -0.2450 -0.1113 -0.2049
 6969SOL    HW132369   1.557   2.593   1.525 -2.1562  1.8333 -0.7054
 6969SOL    HW232370   1.624   2.514   1.420  1.3358  0.6676 -1.2203
 6970SOL     OW32371   0.871   4.189   2.716  0.0831 -0.3263  0.1541
 6970SOL    HW132372   0.819   4.119   2.755 -2.4780  2.0842  1.0731
 6970SOL    HW232373   0.896   4.151   2.631 -0.0089 -0.9990  0.4281
 6971SOL     OW32374   1.727   2.629  12.806 -0.3867  0.1201 -0.3012
 6971SOL    HW132375   1.822   2.634  12.796 -0.1490  1.7591  2.7202
 6971SOL    HW232376   1.717   2.535  12.792 -0.9647  0.4350 -1.9521
 6972SOL     OW32377   0.456   2.694   3.953  0.0423 -0.2960 -0.7730
 6972SOL    HW132378   0.388   2.728   4.012 -1.1339 -1.7570 -1.2545
 6972SOL    HW232379   0.418   2.611   3.922 -0.0347 -0.4694 -0.2300
 6973SOL     OW32380   3.777   3.525   1.177 -0.2515  0.3352  0.1288
 6973SOL    HW132381   3.754   3.595   1.238  1.2409 -1.1056  2.3664
 6973SOL    HW232382   3.783   3.567   1.092  0.7833  2.4072  1.2222
 6974SOL     OW32383   1.706   3.235  10.051 -0.4310 -0.0314 -0.2027
 6974SOL    HW132384   1.697   3.161  10.111 -0.4491  1.2896  1.4244
 6974SOL    HW232385   1.755   3.207   9.974 -0.2575 -1.4439  0.4143
 6975SOL     OW32386   3.119   3.583   3.347  0.4828  0.1408 -0.3179
 6975SOL    HW132387   3.151   3.627   3.426  0.4850  0.3491 -0.4351
 6975SOL    HW232388   3.127   3.498   3.391 -1.3041 -0.1241 -0.5303
 6976SOL     OW32389   1.774   2.937   5.500  0.0187  0.1494  0.3534
 6976SOL    HW132390   1.736   2.983   5.426 -1.2028 -1.1611  0.1791
 6976SOL    HW232391   1.860   2.919   5.461 -0.1851  0.3235 -0.1606
 6977SOL     OW32392   0.714   3.261   2.848  0.0566  0.1876  0.4126
 6977SOL    HW132393   0.701   3.277   2.942  1.0217  1.6410  0.2899
 6977SOL    HW232394   0.628   3.274   2.807  0.7659  3.3698 -0.0498
 6978SOL     OW32395   3.346   1.557   2.435  0.7286  0.4279 -0.8039
 6978SOL    HW132396   3.417   1.528   2.492 -0.2012 -1.5380 -0.6554
 6978SOL    HW232397   3.349   1.650   2.458  2.4873  0.6109 -1.7690
 6979SOL     OW32398   2.766   2.721   6.719 -0.3960 -0.4579  0.5076
 6979SOL    HW132399   2.818   2.717   6.639 -0.2434  0.6905  0.5477
 6979SOL    HW232400   2.740   2.813   6.717  0.3877 -0.2879 -2.1344
 6980SOL     OW32401   3.642   1.317   6.962 -0.3812 -0.8554 -0.1064
 6980SOL    HW132402   3.734   1.342   6.961 -0.8147  0.7858 -0.3839
 6980SOL    HW232403   3.633   1.222   6.957 -0.0750 -0.7734 -2.2580
 6981SOL     OW32404   0.272   1.499   3.870 -0.1176  0.1519 -0.6202
 6981SOL    HW132405   0.275   1.405   3.851  0.7210  0.5654 -2.5123
 6981SOL    HW232406   0.288   1.497   3.964 -2.2605  0.4300 -0.2417
 6982SOL     OW32407   2.676   2.645   8.462 -0.0524 -0.4034 -0.1629
 6982SOL    HW132408   2.762   2.622   8.498  0.2191  1.4897  0.3977
 6982SOL    HW232409   2.650   2.710   8.528  0.3738 -0.8311  0.4285
 6983SOL     OW32410   3.626   3.209   1.971 -0.6245  0.1871  0.9786
 6983SOL    HW132411   3.629   3.305   1.972 -1.6709  0.2262  0.3507
 6983SOL    HW232412   3.550   3.186   2.025 -1.0059  0.6554  0.6373
 6984SOL     OW32413   0.998   3.592   5.661  0.6613 -0.2020  0.5560
 6984SOL    HW132414   1.046   3.509   5.662  2.1547  0.6939  2.1225
 6984SOL    HW232415   1.056   3.654   5.618 -1.3441  0.1534 -1.6189
 6985SOL     OW32416   3.128   0.022  11.700 -0.4718 -0.1871 -0.2548
 6985SOL    HW132417   3.118   0.114  11.723 -0.0312 -0.2583  0.2306
 6985SOL    HW232418   3.048   4.708  11.737  0.0395 -0.0844  0.9367
 6986SOL     OW32419   1.017   2.080   9.355  0.2755 -0.5183  0.1347
 6986SOL    HW132420   0.938   2.095   9.408 -0.6965  2.0322 -2.0692
 6986SOL    HW232421   1.027   1.986   9.373  0.1819 -0.2661  1.5046
 6987SOL     OW32422   4.177   1.945   6.196 -1.1681  0.1991  0.1620
 6987SOL    HW132423   4.091   1.986   6.205 -0.7047  1.2194 -0.0946
 6987SOL    HW232424   4.216   1.994   6.269  0.3380  0.2643 -0.6862
 6988SOL     OW32425   4.053   0.524   8.999  0.5426  0.7609 -0.4205
 6988SOL    HW132426   4.065   0.603   9.051 -0.9709 -0.6169  2.0416
 6988SOL    HW232427   3.958   0.523   9.015  0.5240 -1.9449 -0.7343
 6989SOL     OW32428   2.770   1.397   3.214  0.2149 -0.1570  0.2887
 6989SOL    HW132429   2.792   1.476   3.265 -0.1757  1.2583 -1.7200
 6989SOL    HW232430   2.804   1.430   3.131  0.2466 -0.7075  0.0825
 6990SOL     OW32431   2.681   1.486   0.510  0.3807  0.1399 -0.1262
 6990SOL    HW132432   2.775   1.478   0.530  0.5782  2.6349 -0.0663
 6990SOL    HW232433   2.673   1.418   0.443  1.5736 -0.9774  0.8603
 6991SOL     OW32434   0.980   3.416  16.625  0.3489  0.1403  0.5307
 6991SOL    HW132435   1.034   3.367  16.562 -0.2188  0.2081 -0.0104
 6991SOL    HW232436   0.986   3.352  16.695 -4.0003 -0.9774 -0.1143
 6992SOL     OW32437   2.852   3.126   4.468  0.3264  0.0865 -0.2447
 6992SOL    HW132438   2.885   3.044   4.430  1.2086  1.1148 -1.7278
 6992SOL    HW232439   2.760   3.105   4.483 -0.4262  3.0522 -0.6749
 6993SOL     OW32440   0.747   1.781   7.298 -0.0595  0.4447  0.4631
 6993SOL    HW132441   0.666   1.751   7.257 -0.0394  0.8561  0.1165
 6993SOL    HW232442   0.797   1.700   7.305  2.3481  1.7678 -1.0878
 6994SOL     OW32443   0.837   4.524   5.864  0.0465  0.1855 -0.4975
 6994SOL    HW132444   0.759   4.513   5.919  0.1664 -0.9495 -0.5566
 6994SOL    HW232445   0.868   4.609   5.895  0.3127  0.0795 -0.4748
 6995SOL     OW32446   2.462   2.558   3.371  0.2693 -0.0044  0.0285
 6995SOL    HW132447   2.481   2.622   3.439  1.5600  0.0819 -0.4157
 6995SOL    HW232448   2.408   2.500   3.425  1.5357 -0.8273  0.3890
 6996SOL     OW32449   4.461   0.200   7.592  0.5100  0.6442 -0.1422
 6996SOL    HW132450   4.438   0.282   7.636 -0.0762  0.6415 -0.4423
 6996SOL    HW232451   4.537   0.167   7.640  1.7889  2.7151 -0.7780
 6997SOL     OW32452   3.436   3.493   2.214  0.2879 -0.1985  0.1472
 6997SOL    HW132453   3.367   3.559   2.207  1.0878  0.6264 -0.0430
 6997SOL    HW232454   3.484   3.488   2.132  0.3415  0.6958  0.1313
 6998SOL     OW32455   2.559   0.476   5.706  0.2339 -0.3529  0.4612
 6998SOL    HW132456   2.599   0.394   5.677  0.5114 -0.2289  0.4990
 6998SOL    HW232457   2.635   0.533   5.717 -1.2761  2.1684 -2.3730
 6999SOL     OW32458   0.167   3.559   7.629  0.4661 -0.3694  0.3115
 6999SOL    HW132459   0.190   3.466   7.617  2.1828  0.2776 -1.3355
 6999SOL    HW232460   0.200   3.599   7.549  1.0156  2.5375  1.9972
 7000SOL     OW32461   1.927   0.816   6.250  0.3468 -0.2525 -0.0540
 7000SOL    HW132462   1.879   0.781   6.175 -0.5114 -2.6658  1.6358
 7000SOL    HW232463   2.017   0.818   6.218  0.3196 -1.0244 -0.1630
 7001SOL     OW32464   3.496   0.755   5.642  0.6198  0.1299  0.0477
 7001SOL    HW132465   3.559   0.685   5.655 -0.3720 -0.4368  1.7958
 7001SOL    HW232466   3.542   0.831   5.679 -2.1330  1.2868  1.1335
 7002SOL     OW32467   2.113   3.213   2.509 -0.0469 -0.2270  0.2277
 7002SOL    HW132468   2.087   3.139   2.453  1.5011 -0.2376 -0.4645
 7002SOL    HW232469   2.179   3.247   2.449 -0.2203  1.2444  0.8626
 7003SOL     OW32470   3.303   2.428   3.224  0.5358 -0.0861  0.2315
 7003SOL    HW132471   3.361   2.440   3.299 -0.1039  0.1482  0.6775
 7003SOL    HW232472   3.242   2.360   3.253 -1.2226  1.1706 -0.5108
 7004SOL     OW32473   4.717   2.836   4.805  0.0843  0.0390 -0.4034
 7004SOL    HW132474   0.087   2.826   4.825  0.6064  0.9242 -2.3928
 7004SOL    HW232475   4.677   2.831   4.892  0.1532  2.0158 -0.2443
 7005SOL     OW32476   0.953   2.746   4.116 -0.8247 -0.2643  0.3802
 7005SOL    HW132477   1.003   2.822   4.086 -2.3189  0.8123  0.6164
 7005SOL    HW232478   0.865   2.770   4.085  0.2665  2.1525 -0.8756
 7006SOL     OW32479   4.474   4.248   2.080  0.2995  0.1539 -0.4665
 7006SOL    HW132480   4.479   4.318   2.016 -3.1460  0.5147 -0.3537
 7006SOL    HW232481   4.457   4.294   2.163  2.0674 -3.5657  1.9747
 7007SOL     OW32482   4.497   0.120   1.236  0.4486 -0.1512 -0.3479
 7007SOL    HW132483   4.535   0.203   1.266 -1.8813  0.6667  0.3216
 7007SOL    HW232484   4.462   0.089   1.320 -1.3312 -1.0258 -1.4181
 7008SOL     OW32485   4.541   2.059   3.924 -0.6268 -1.1705 -0.6848
 7008SOL    HW132486   4.514   2.057   4.016  1.2570  2.9710 -0.0597
 7008SOL    HW232487   4.566   1.969   3.902 -0.2396 -1.3889  0.7077
 7009SOL     OW32488   0.963   1.855  13.457  0.4490  0.1151  0.4139
 7009SOL    HW132489   0.964   1.762  13.477 -2.5905  0.1619  0.7433
 7009SOL    HW232490   0.873   1.885  13.446  0.0551 -1.0120  0.6192
 7010SOL     OW32491   4.164   3.612   3.289 -0.5704 -0.4585 -0.5621
 7010SOL    HW132492   4.126   3.690   3.250  0.6027  0.1300 -0.5294
 7010SOL    HW232493   4.100   3.552   3.329 -0.0495 -1.2344 -0.8990
 7011SOL     OW32494   0.553   0.178   3.304  0.2590 -0.2178  0.2779
 7011SOL    HW132495   0.634   0.186   3.254 -0.5698 -1.9086 -1.3095
 7011SOL    HW232496   0.491   0.182   3.232 -0.4401 -1.6430  0.8195
 7012SOL     OW32497   4.261   0.706  13.167  0.8465  0.0987  0.3714
 7012SOL    HW132498   4.308   0.666  13.095  1.2211 -1.6432  1.5792
 7012SOL    HW232499   4.174   0.720  13.130 -0.3401 -0.7633  2.7866
 7013SOL     OW32500   4.581   3.453   5.327  0.1117  0.6194  0.4737
 7013SOL    HW132501   4.567   3.490   5.414 -0.1478  3.4108 -0.7629
 7013SOL    HW232502   4.556   3.530   5.275 -1.9584 -0.3527  0.0223
 7014SOL     OW32503   3.609   0.373  17.367 -0.1173 -0.1039  0.0213
 7014SOL    HW132504   3.542   0.311  17.395 -0.0159  0.9876  2.7267
 7014SOL    HW232505   3.660   0.324  17.304 -0.4453 -1.2154  0.6257
 7015SOL     OW32506   3.197   2.751   3.301 -0.7066 -0.1840 -0.1833
 7015SOL    HW132507   3.217   2.699   3.223  1.3083  0.3040  0.0192
 7015SOL    HW232508   3.283   2.791   3.317  0.4574 -1.9470 -2.0874
 7016SOL     OW32509   2.727   3.352  12.662 -0.3012 -0.2988  0.5009
 7016SOL    HW132510   2.813   3.358  12.703  0.3745 -2.7617 -0.5047
 7016SOL    HW232511   2.734   3.264  12.623  0.3185 -0.8954  1.9753
 7017SOL     OW32512   2.533   1.478  16.317  0.0854  0.3811  0.8283
 7017SOL    HW132513   2.625   1.455  16.323 -0.5749 -2.1378  1.5788
 7017SOL    HW232514   2.538   1.571  16.295 -4.5401  0.3080 -0.5971
 7018SOL     OW32515   3.266   4.597   8.228 -0.3344 -0.1835 -0.2863
 7018SOL    HW132516   3.351   4.632   8.254 -0.2792 -0.2458 -0.3853
 7018SOL    HW232517   3.278   4.623   8.136 -2.3084  1.4655 -0.0839
 7019SOL     OW32518   4.140   1.351   9.870 -0.4526 -0.1419 -0.6962
 7019SOL    HW132519   4.220   1.300   9.876 -0.3846  0.1909  1.2930
 7019SOL    HW232520   4.079   1.299   9.922 -0.0725  0.6125  0.4893
 7020SOL     OW32521   3.329   3.446  10.444  0.8104  0.5002 -0.0379
 7020SOL    HW132522   3.320   3.361  10.401  2.3162 -0.4840  1.5988
 7020SOL    HW232523   3.383   3.413  10.516  1.5266  1.0265 -0.3410
 7021SOL     OW32524   2.534   0.400   2.291 -0.8249 -0.2943  0.0305
 7021SOL    HW132525   2.509   0.369   2.204  2.9844 -0.8788 -0.8562
 7021SOL    HW232526   2.560   0.491   2.275 -0.6198 -0.2663  0.5248
 7022SOL     OW32527   2.060   4.321   3.512 -0.0881 -0.2095  0.5008
 7022SOL    HW132528   2.120   4.359   3.576 -0.4021  1.1156 -0.0086
 7022SOL    HW232529   2.075   4.227   3.527 -2.0442 -0.2134  2.5071
 7023SOL     OW32530   3.911   3.544   6.708  0.3634  0.1176 -0.4609
 7023SOL    HW132531   3.891   3.485   6.781  0.8253  0.0562 -0.3885
 7023SOL    HW232532   4.005   3.530   6.697  0.3549 -2.6263  2.9288
 7024SOL     OW32533   3.783   2.581   4.912 -0.4390 -0.4092 -0.2825
 7024SOL    HW132534   3.789   2.486   4.912  0.9538 -0.3160  0.6299
 7024SOL    HW232535   3.834   2.593   4.992 -2.0466  0.2234  0.6640
 7025SOL     OW32536   2.245   0.651  16.965  0.4145 -0.0585  0.2653
 7025SOL    HW132537   2.264   0.729  16.913  1.0393 -0.0249  0.5519
 7025SOL    HW232538   2.317   0.656  17.027  0.4575 -1.6285  0.3326
 7026SOL     OW32539   3.134   1.972   0.872  0.1110  0.1019 -0.3844
 7026SOL    HW132540   3.091   2.055   0.891 -1.4380 -0.4992 -1.2799
 7026SOL    HW232541   3.101   1.925   0.949 -0.1924 -1.0301 -1.2076
 7027SOL     OW32542   4.453   1.422   4.419  0.3507  0.6765  0.8981
 7027SOL    HW132543   4.419   1.430   4.508  0.8411 -0.6347  1.1911
 7027SOL    HW232544   4.515   1.350   4.418 -1.1996 -0.6091 -2.2614
 7028SOL     OW32545   0.364   1.799   3.703 -0.2050 -0.5436  0.2712
 7028SOL    HW132546   0.425   1.846   3.761 -1.5167  0.2083  1.0291
 7028SOL    HW232547   0.289   1.772   3.755 -1.5123 -0.0668 -1.3931
 7029SOL     OW32548   0.040   4.117  11.911 -0.5486  0.3539  0.1984
 7029SOL    HW132549   4.689   4.079  11.865 -1.6014  3.2268 -0.5181
 7029SOL    HW232550   0.099   4.043  11.922  0.6537  1.2990  0.1183
 7030SOL     OW32551   3.733   2.526   4.022 -0.0796 -0.0053 -0.7362
 7030SOL    HW132552   3.717   2.480   3.940  2.0933  0.6775 -1.5329
 7030SOL    HW232553   3.667   2.595   4.021  2.1328  2.1316 -0.0865
 7031SOL     OW32554   2.001   3.282  11.646  0.2193 -0.0334 -0.0263
 7031SOL    HW132555   2.074   3.343  11.652  0.4830 -0.4168  0.6945
 7031SOL    HW232556   2.045   3.201  11.619 -1.0264 -0.8963  0.4926
 7032SOL     OW32557   4.044   0.016   2.952 -0.3138 -0.3412  0.2478
 7032SOL    HW132558   4.068   4.648   2.940  0.1496  0.0959 -2.0979
 7032SOL    HW232559   4.004   0.012   3.039 -1.7390  0.3624 -0.3679
 7033SOL     OW32560   0.498   3.981   4.800  0.5214 -0.4178 -0.1107
 7033SOL    HW132561   0.540   4.021   4.877  2.6263 -1.2797 -0.7973
 7033SOL    HW232562   0.421   4.035   4.783  0.0441 -1.6565 -1.8183
 7034SOL     OW32563   3.494   2.964   9.941  0.3299 -0.6933 -0.8235
 7034SOL    HW132564   3.555   2.921  10.001 -2.4270 -0.9588  1.8366
 7034SOL    HW232565   3.413   2.932   9.982 -0.1423 -1.0000 -2.0015
 7035SOL     OW32566   1.643   3.770   7.439 -0.2308 -0.1250 -0.8051
 7035SOL    HW132567   1.684   3.857   7.434 -1.3353  0.3582 -1.4155
 7035SOL    HW232568   1.683   3.738   7.358 -0.7401  3.6393 -2.5397
 7036SOL     OW32569   4.331   2.856   3.461  0.1838  0.1705  0.2707
 7036SOL    HW132570   4.258   2.829   3.517 -0.3071 -0.5011 -0.6952
 7036SOL    HW232571   4.302   2.937   3.420  0.3570  1.1246  2.0390
 7037SOL     OW32572   2.955   0.941   9.035 -0.4473 -0.1622  0.0111
 7037SOL    HW132573   2.992   0.853   9.037  0.6746  0.2995 -0.7311
 7037SOL    HW232574   2.873   0.932   8.986 -2.1850 -0.1055  2.8746
 7038SOL     OW32575   4.682   0.424   0.848 -0.2686  0.7047 -0.9504
 7038SOL    HW132576   4.684   0.414   0.753 -2.9242  1.0730 -1.0447
 7038SOL    HW232577   4.607   0.374   0.879  0.3285 -1.3627 -2.8895
 7039SOL     OW32578   3.917   3.380  15.282 -0.4790 -0.9605  0.3810
 7039SOL    HW132579   3.873   3.330  15.213 -2.4333  2.7310 -1.0675
 7039SOL    HW232580   3.948   3.317  15.347 -0.6266 -0.5624  0.8355
 7040SOL     OW32581   2.763   3.362  13.334 -0.2398 -0.0746 -0.2555
 7040SOL    HW132582   2.814   3.293  13.376  2.3099  1.9900 -0.0073
 7040SOL    HW232583   2.681   3.351  13.383 -1.1269 -0.1917 -1.7674
 7041SOL     OW32584   3.310   4.502   6.668 -0.1072  0.0790 -0.3717
 7041SOL    HW132585   3.250   4.507   6.742 -0.1376  1.1864 -0.4564
 7041SOL    HW232586   3.350   4.589   6.671  0.4133 -0.2141  0.9098
 7042SOL     OW32587   0.756   2.875   9.645 -0.3897  0.1759  0.4142
 7042SOL    HW132588   0.744   2.857   9.739 -0.1129 -1.0138  0.2221
 7042SOL    HW232589   0.667   2.861   9.613 -0.2637 -1.1509  0.6344
 7043SOL     OW32590   2.159   3.637  12.114  0.0883 -0.4107 -0.6833
 7043SOL    HW132591   2.094   3.692  12.069 -0.4915 -0.7726 -0.2962
 7043SOL    HW232592   2.149   3.558  12.061  0.2641  0.4701 -2.0281
 7044SOL     OW32593   2.822   0.424   2.827 -0.9366  0.7109 -0.2825
 7044SOL    HW132594   2.873   0.469   2.895 -0.0440 -0.5437 -0.1151
 7044SOL    HW232595   2.819   0.336   2.866 -0.3804 -0.2000 -2.3212
 7045SOL     OW32596   1.284   1.130   2.482 -0.3259 -0.4122 -0.4566
 7045SOL    HW132597   1.265   1.039   2.505 -2.4375 -0.3173 -1.8080
 7045SOL    HW232598   1.362   1.114   2.428 -1.4404  0.0257 -2.2049
 7046SOL     OW32599   4.506   0.710   3.558 -0.2083 -0.1496 -0.8214
 7046SOL    HW132600   4.481   0.761   3.481  0.3441  1.7548  0.2631
 7046SOL    HW232601   4.587   0.666   3.533 -0.1927 -0.4392 -0.2624
 7047SOL     OW32602   1.062   3.203   8.328 -0.0635  0.2643 -0.1837
 7047SOL    HW132603   1.118   3.198   8.250 -2.3820 -0.2953 -1.8076
 7047SOL    HW232604   1.131   3.167   8.384 -0.0959 -1.8300 -1.4647
 7048SOL     OW32605   0.069   1.483   9.131  0.0948 -0.0296  0.3393
 7048SOL    HW132606   0.009   1.555   9.109  0.0432 -0.4594 -0.9333
 7048SOL    HW232607   0.021   1.452   9.208 -1.2258  1.0947 -0.0274
 7049SOL     OW32608   4.129   1.859   1.662  0.5503 -0.1019  0.3389
 7049SOL    HW132609   4.047   1.885   1.703  1.0900  0.6470  0.9497
 7049SOL    HW232610   4.099   1.803   1.590  1.8674 -1.3360  0.7394
 7050SOL     OW32611   1.399   0.566   8.796 -0.1836  0.2367  0.1142
 7050SOL    HW132612   1.412   0.536   8.706 -1.4586  0.3172 -0.0996
 7050SOL    HW232613   1.312   0.606   8.788 -0.9770 -1.5081  0.0347
 7051SOL     OW32614   0.126   1.893   7.026 -0.2936  0.2351 -0.1033
 7051SOL    HW132615   0.079   1.879   7.108 -1.4272  0.9591 -0.6302
 7051SOL    HW232616   0.149   1.802   7.007  0.0464  0.2244  0.3455
 7052SOL     OW32617   4.031   4.333   7.238 -0.6420 -0.3589  0.0835
 7052SOL    HW132618   4.011   4.373   7.322 -2.0505 -0.2479 -0.3073
 7052SOL    HW232619   4.079   4.255   7.266 -1.2690 -0.5119  0.7053
 7053SOL     OW32620   2.240   2.744   9.383 -0.0300  0.8259 -0.0535
 7053SOL    HW132621   2.322   2.750   9.431  0.0291 -0.1336 -0.0501
 7053SOL    HW232622   2.189   2.687   9.440 -1.9027 -1.2428 -3.8035
 7054SOL     OW32623   2.556   1.314   2.177 -0.6235 -0.0427  0.3744
 7054SOL    HW132624   2.550   1.399   2.134  1.5482 -0.6384 -1.1195
 7054SOL    HW232625   2.497   1.324   2.252  0.1287  2.0449  0.6694
 7055SOL     OW32626   2.062   0.786   2.677 -0.0697  0.1415 -0.0334
 7055SOL    HW132627   2.075   0.731   2.754  2.9895  1.3789  0.3766
 7055SOL    HW232628   2.027   0.863   2.722  2.7348 -0.0008  2.4002
 7056SOL     OW32629   2.169   3.301   7.754 -0.3517  0.1259 -0.2722
 7056SOL    HW132630   2.216   3.218   7.757 -1.6712 -0.5600  1.4183
 7056SOL    HW232631   2.177   3.325   7.846 -1.3580 -2.0004  0.3870
 7057SOL     OW32632   3.034   0.676   5.226 -0.8108  0.0440  0.0106
 7057SOL    HW132633   2.965   0.627   5.270  1.1323 -0.8931  2.0236
 7057SOL    HW232634   3.109   0.620   5.245  0.4033  1.3636 -0.9046
 7058SOL     OW32635   0.179   2.671  17.442  0.2782  0.7356  0.2132
 7058SOL    HW132636   0.119   2.656  17.369  1.0579 -0.3262 -0.1990
 7058SOL    HW232637   0.123   2.648  17.516 -0.8480 -1.7184 -1.3818
 7059SOL     OW32638   2.360   4.432  13.010 -0.1781  0.1066 -0.0238
 7059SOL    HW132639   2.314   4.394  13.085  1.0759  0.4260  0.8977
 7059SOL    HW232640   2.305   4.394  12.941  0.8202 -0.7517 -0.3678
 7060SOL     OW32641   3.146   1.299   2.935 -0.3650  0.1749 -0.2311
 7060SOL    HW132642   3.127   1.262   2.849  2.4808 -3.1172  0.5532
 7060SOL    HW232643   3.239   1.319   2.922 -0.2330 -0.7529 -0.7427
 7061SOL     OW32644   4.086   2.025   9.961 -0.6705  0.6283  0.4150
 7061SOL    HW132645   3.999   2.063   9.977  0.3276  2.0916  2.2792
 7061SOL    HW232646   4.061   1.986   9.877  0.7977  1.3638 -0.3514
 7062SOL     OW32647   4.610   1.526   8.349 -0.0444  0.0895 -0.2063
 7062SOL    HW132648   4.525   1.515   8.391  0.6715 -0.5559  1.0504
 7062SOL    HW232649   4.632   1.614   8.380 -0.1705 -0.3946  1.2240
 7063SOL     OW32650   2.652   4.020   7.274 -0.0307 -0.6344 -0.0923
 7063SOL    HW132651   2.602   4.101   7.273  0.3046 -0.4085  2.2145
 7063SOL    HW232652   2.736   4.056   7.247  0.5576 -3.0616 -1.5410
 7064SOL     OW32653   2.189   4.712   2.148 -0.2678 -0.5522 -0.4671
 7064SOL    HW132654   2.164   4.685   2.060  0.0296 -3.5784  0.3843
 7064SOL    HW232655   2.113   0.037   2.181  0.8438  1.7673 -1.2597
 7065SOL     OW32656   3.992   2.477   2.947 -0.7954  0.3761  0.1761
 7065SOL    HW132657   3.915   2.530   2.970 -1.8437 -1.1992  0.3240
 7065SOL    HW232658   4.039   2.478   3.030  1.9885 -0.7150 -1.3908
 7066SOL     OW32659   1.555   4.606   2.701  0.4590 -0.4055 -0.1344
 7066SOL    HW132660   1.485   4.628   2.763  0.4179 -0.6057 -0.1105
 7066SOL    HW232661   1.615   4.548   2.748 -0.0182  0.4418  1.5176
 7067SOL     OW32662   3.265   2.982   4.244  0.0146 -0.1958  0.0613
 7067SOL    HW132663   3.244   2.902   4.292 -0.1025 -0.7122 -0.8481
 7067SOL    HW232664   3.184   2.980   4.194 -1.4635 -2.0490  2.5415
 7068SOL     OW32665   3.187   1.478   8.178 -0.2948 -0.3496  0.3567
 7068SOL    HW132666   3.189   1.393   8.133  1.9376  0.7047 -1.5118
 7068SOL    HW232667   3.211   1.529   8.101 -0.4919  1.4874  1.5266
 7069SOL     OW32668   2.641   1.140   6.155  0.3457  0.1930 -0.7059
 7069SOL    HW132669   2.625   1.233   6.172  0.1634  0.0357 -0.0356
 7069SOL    HW232670   2.659   1.136   6.061  0.0015  1.6486 -0.8351
 7070SOL     OW32671   2.492   2.258  17.127 -0.4875 -0.1047 -0.6218
 7070SOL    HW132672   2.411   2.291  17.165 -0.7589 -2.5087  0.8846
 7070SOL    HW232673   2.561   2.310  17.166  1.1405 -3.2529  0.6889
 7071SOL     OW32674   1.465   0.129   4.982  0.4954  0.3827 -0.3212
 7071SOL    HW132675   1.534   0.078   5.025 -1.9460 -1.8787  0.8892
 7071SOL    HW232676   1.423   0.065   4.924  0.3252 -0.1704  0.4154
 7072SOL     OW32677   1.415   3.572   9.140  0.2307  0.0682  0.1206
 7072SOL    HW132678   1.456   3.653   9.107 -0.4750  0.5546  0.4445
 7072SOL    HW232679   1.361   3.595   9.215 -0.4325  1.0552 -0.6503
 7073SOL     OW32680   3.555   1.374  17.664  0.2995 -0.3305 -0.1235
 7073SOL    HW132681   3.651   1.371  17.662  0.1931 -3.8521  0.0031
 7073SOL    HW232682   3.532   1.305   0.030 -0.5527  0.7257  0.7430
 7074SOL     OW32683   0.347   1.877  12.115 -0.0255  0.1513  0.8263
 7074SOL    HW132684   0.335   1.972  12.115 -0.4149  0.1048 -1.3806
 7074SOL    HW232685   0.433   1.869  12.157 -0.4593  0.4171  1.7589
 7075SOL     OW32686   0.307   4.126   5.597 -0.1515 -0.4120 -0.3229
 7075SOL    HW132687   0.377   4.084   5.649  1.5285  1.6124 -0.9419
 7075SOL    HW232688   0.254   4.047   5.585 -0.7890  0.2634 -1.8409
 7076SOL     OW32689   3.616   1.899   4.129 -0.6711 -0.1894  0.0976
 7076SOL    HW132690   3.678   1.880   4.200  1.1051  0.0710 -1.3888
 7076SOL    HW232691   3.534   1.920   4.174 -1.3860 -1.0815 -0.7955
 7077SOL     OW32692   3.377   2.778   7.631 -0.2580 -0.1440 -0.3638
 7077SOL    HW132693   3.300   2.779   7.574 -1.2853  2.6473  1.0517
 7077SOL    HW232694   3.337   2.766   7.717  1.2441  0.4088  0.4089
 7078SOL     OW32695   1.604   3.401  16.946  0.1725  0.0380  0.1616
 7078SOL    HW132696   1.628   3.403  17.039 -0.9964 -2.3029  0.5089
 7078SOL    HW232697   1.650   3.481  16.920 -0.5721  0.0629 -1.0712
 7079SOL     OW32698   4.172   1.999   5.457  0.0673 -0.3944  0.1328
 7079SOL    HW132699   4.105   1.982   5.523  0.0367  0.8126  0.4106
 7079SOL    HW232700   4.193   2.092   5.470 -1.4620 -0.7822  5.1618
 7080SOL     OW32701   2.048   2.814   6.389  0.3096 -0.6916  0.0583
 7080SOL    HW132702   1.998   2.747   6.436 -2.2612  0.4849 -0.9997
 7080SOL    HW232703   1.995   2.893   6.398  2.0768  0.2857  1.8309
 7081SOL     OW32704   4.396   0.565   4.920 -0.0999 -0.4362  0.6687
 7081SOL    HW132705   4.434   0.651   4.903  0.2039 -0.1916  2.5915
 7081SOL    HW232706   4.352   0.548   4.837 -0.2270  0.4133  0.5666
 7082SOL     OW32707   1.587   1.737  13.492 -0.4256  0.0016 -0.0261
 7082SOL    HW132708   1.602   1.647  13.461  1.2361  0.2405  0.0755
 7082SOL    HW232709   1.673   1.776  13.477  0.6984 -3.5778 -3.0339
 7083SOL     OW32710   4.561   0.077  17.639 -0.2715  0.3817  0.2795
 7083SOL    HW132711   4.654   0.062  17.651 -0.0965 -0.5014 -2.2779
 7083SOL    HW232712   4.555   0.140  17.567 -0.1559  1.2183  1.0023
 7084SOL     OW32713   0.036   2.786   5.900  0.0257 -0.3712  0.0426
 7084SOL    HW132714   0.071   2.731   5.971  1.8083 -1.1571 -1.4547
 7084SOL    HW232715   0.125   2.811   5.875 -0.0077  0.2528  0.5550
 7085SOL     OW32716   0.636   0.557   7.752 -0.3321 -0.0645  0.3966
 7085SOL    HW132717   0.687   0.512   7.819 -0.1958 -0.0790  0.2830
 7085SOL    HW232718   0.584   0.618   7.805  1.6944  2.7660 -0.8827
 7086SOL     OW32719   1.996   1.243   4.524 -0.1718 -0.0885 -0.2532
 7086SOL    HW132720   1.913   1.230   4.570  0.0629 -0.8243 -0.0458
 7086SOL    HW232721   1.979   1.177   4.457 -1.7485 -1.0402  1.0693
 7087SOL     OW32722   3.031   2.042   6.236 -0.0338  0.2141 -0.7244
 7087SOL    HW132723   3.020   1.949   6.218  2.7879 -0.2063 -0.2256
 7087SOL    HW232724   2.944   2.069   6.265 -0.4229 -0.8112 -0.9399
 7088SOL     OW32725   1.936   1.537   6.886  0.3280  0.2737  0.6232
 7088SOL    HW132726   1.959   1.465   6.944  0.7641  0.6436  0.9081
 7088SOL    HW232727   1.863   1.501   6.834  1.8579 -0.2587 -1.1746
 7089SOL     OW32728   1.661   4.415  11.826  0.2648 -0.0727 -0.6035
 7089SOL    HW132729   1.652   4.480  11.895  0.0371 -0.9178  0.1660
 7089SOL    HW232730   1.582   4.366  11.850  0.4525 -0.3388 -0.5331
 7090SOL     OW32731   4.072   2.078   1.402 -0.4560 -0.1721 -0.0688
 7090SOL    HW132732   4.037   2.038   1.323 -2.4237  1.5975 -0.0720
 7090SOL    HW232733   4.138   2.139   1.368 -2.1015  3.4955  3.3414
 7091SOL     OW32734   3.051   4.391   5.804  0.2249  0.0736 -0.8943
 7091SOL    HW132735   3.137   4.433   5.797 -0.3914  1.1234 -2.3204
 7091SOL    HW232736   3.055   4.312   5.750 -1.5511  0.4257 -1.5680
 7092SOL     OW32737   4.037   1.003   2.137 -0.0652 -0.2320 -0.0408
 7092SOL    HW132738   3.946   1.004   2.109  1.0596 -0.4397 -3.7249
 7092SOL    HW232739   4.029   1.015   2.232 -1.7119  4.1594 -0.7132
 7093SOL     OW32740   0.160   2.374  10.380 -0.5314 -0.7863 -0.5223
 7093SOL    HW132741   0.104   2.445  10.347  2.1140  1.4929 -0.0759
 7093SOL    HW232742   0.135   2.373  10.472 -2.4744  0.0317 -1.0333
 7094SOL     OW32743   2.308   0.468   7.425  0.2475  0.2491 -0.2016
 7094SOL    HW132744   2.331   0.417   7.348 -2.5324 -0.2928 -0.6751
 7094SOL    HW232745   2.360   0.546   7.405 -1.3225  1.6392  1.0646
 7095SOL     OW32746   1.503   4.240  17.581  0.4331  0.1768 -0.3121
 7095SOL    HW132747   1.463   4.184  17.515  0.1602  0.5246 -0.4402
 7095SOL    HW232748   1.592   4.206  17.590  0.4260  0.4155  0.6892
 7096SOL     OW32749   2.848   2.806   8.224 -0.1676  0.2152 -0.3151
 7096SOL    HW132750   2.838   2.889   8.177 -0.4872  0.3784  0.0403
 7096SOL    HW232751   2.764   2.765   8.201 -0.5379  0.0981  1.2566
 7097SOL     OW32752   1.229   4.118   0.596 -0.1419  0.4905  0.1525
 7097SOL    HW132753   1.307   4.173   0.608 -0.3613  0.4960  1.4963
 7097SOL    HW232754   1.176   4.179   0.545  0.6248  1.9883  1.1560
 7098SOL     OW32755   0.347   1.516  15.772 -0.2686 -0.6088  0.4197
 7098SOL    HW132756   0.325   1.432  15.732  1.1090 -0.3803 -0.7993
 7098SOL    HW232757   0.358   1.485  15.862  0.1988  0.5695  0.7711
 7099SOL     OW32758   1.589   3.641   8.733 -0.3910 -0.6173 -0.1406
 7099SOL    HW132759   1.642   3.635   8.813  1.4096  0.9645 -1.2154
 7099SOL    HW232760   1.586   3.737   8.733 -1.2436 -0.6434 -0.4182
 7100SOL     OW32761   1.259   2.371   3.255  0.9333 -0.1368  0.8561
 7100SOL    HW132762   1.261   2.287   3.301 -2.4747 -0.5569  0.2209
 7100SOL    HW232763   1.192   2.365   3.187  2.0865  1.7454 -0.4613
 7101SOL     OW32764   0.288   0.638   4.276 -0.1011  0.1741 -0.6465
 7101SOL    HW132765   0.369   0.650   4.326 -0.2936  0.4899 -0.4138
 7101SOL    HW232766   0.316   0.562   4.225 -0.1294 -0.4575  0.2631
 7102SOL     OW32767   2.261   1.325   4.433  0.2169  0.4201  0.9756
 7102SOL    HW132768   2.288   1.235   4.417 -0.6050  0.2447  0.6159
 7102SOL    HW232769   2.181   1.304   4.479  0.0338 -1.7686 -0.3283
 7103SOL     OW32770   2.575   4.311   8.142 -0.1255  0.1652 -0.3193
 7103SOL    HW132771   2.568   4.312   8.237 -0.8008 -0.3762 -0.3644
 7103SOL    HW232772   2.659   4.268   8.123 -0.4076 -1.3033  1.8100
 7104SOL     OW32773   4.701   1.525   7.938 -0.0464 -0.4543  0.2057
 7104SOL    HW132774   4.681   1.491   8.025  2.8212  2.2615  1.9274
 7104SOL    HW232775   0.040   1.594   7.961  0.0587 -0.7789  0.8897
 7105SOL     OW32776   0.323   1.439   5.336  0.8099  0.3911  0.3775
 7105SOL    HW132777   0.282   1.434   5.422  2.0412 -0.3170  0.9129
 7105SOL    HW232778   0.352   1.349   5.317  1.4890  1.0009 -1.4975
 7106SOL     OW32779   3.915   4.313   3.284 -0.5730  0.5061  0.8794
 7106SOL    HW132780   3.961   4.241   3.241  1.9372  2.4289  0.3042
 7106SOL    HW232781   3.982   4.344   3.345  2.5999 -1.6083 -1.4987
 7107SOL     OW32782   0.819   2.757  13.592 -0.1793  0.3639 -0.3714
 7107SOL    HW132783   0.865   2.715  13.665  0.1414  0.9888 -0.2174
 7107SOL    HW232784   0.894   2.760  13.532  1.3789  0.0747  1.5489
 7108SOL     OW32785   0.414   3.942  16.367  0.3909  0.0431 -0.5819
 7108SOL    HW132786   0.376   3.942  16.455  3.2613  0.9831  0.6254
 7108SOL    HW232787   0.451   3.855  16.356  0.6698 -0.1070  1.7224
 7109SOL     OW32788   3.960   1.791  10.296  0.4141 -0.0438  0.2183
 7109SOL    HW132789   3.878   1.776  10.344  0.5147 -0.7049  0.1790
 7109SOL    HW232790   3.995   1.703  10.289 -1.5852 -0.7926 -0.5204
 7110SOL     OW32791   1.653   4.355   6.980  0.0281  0.3403 -0.5190
 7110SOL    HW132792   1.593   4.409   6.928 -1.6198 -1.9031 -0.9210
 7110SOL    HW232793   1.662   4.411   7.058 -0.0660  0.1619 -0.3806
 7111SOL     OW32794   0.608   0.449   7.051  0.2563  0.0102  0.1594
 7111SOL    HW132795   0.589   0.509   6.979  2.0349 -0.2765 -0.5462
 7111SOL    HW232796   0.537   0.468   7.113 -1.2529  0.3000 -1.6549
 7112SOL     OW32797   1.544   4.605   4.191  0.2025  0.2791  0.3648
 7112SOL    HW132798   1.609   4.565   4.248 -0.8716 -0.3697  1.1342
 7112SOL    HW232799   1.496   4.671   4.240  0.2513  2.4691 -2.5340
 7113SOL     OW32800   1.686   4.700  16.753 -0.4254 -0.4633  0.1696
 7113SOL    HW132801   1.615   4.696  16.817 -0.3940  0.5746  0.2746
 7113SOL    HW232802   1.762   4.715  16.810  0.1880  2.5328 -1.4554
 7114SOL     OW32803   4.681   2.603  10.656  0.1792 -0.1200 -0.4218
 7114SOL    HW132804   0.007   2.649  10.724 -1.8601  0.9464  0.3432
 7114SOL    HW232805   4.595   2.641  10.675  0.6906  1.0242 -0.4138
 7115SOL     OW32806   4.031   1.645   2.580  0.5997 -0.7577  0.0690
 7115SOL    HW132807   3.941   1.651   2.548  0.1169 -0.0629  1.5677
 7115SOL    HW232808   4.027   1.649   2.675 -1.1546 -1.1600  0.0174
 7116SOL     OW32809   3.725   1.908   1.432  0.1153  0.1760  0.3634
 7116SOL    HW132810   3.659   1.973   1.406  1.9056  1.9457  0.2733
 7116SOL    HW232811   3.717   1.919   1.526  1.3955  1.5031  0.3146
 7117SOL     OW32812   0.286   4.203   3.289 -0.3558  0.1507  0.2934
 7117SOL    HW132813   0.196   4.226   3.267 -0.6083  0.0033  1.1618
 7117SOL    HW232814   0.294   4.122   3.238  1.3680  1.2081 -1.0805
 7118SOL     OW32815   2.499   1.638  14.921  0.0437 -0.0522 -0.1123
 7118SOL    HW132816   2.586   1.655  14.957  0.4856  0.1905 -1.3166
 7118SOL    HW232817   2.475   1.576  14.991 -0.9015  1.8182  1.2177
 7119SOL     OW32818   4.534   2.670   7.603  0.4715  0.1210  0.7487
 7119SOL    HW132819   4.537   2.741   7.667  0.8969 -2.1101  3.2152
 7119SOL    HW232820   4.617   2.687   7.559  0.2277 -0.5191  0.0499
 7120SOL     OW32821   3.876   2.336   4.685 -0.0267  0.4303 -0.0988
 7120SOL    HW132822   3.899   2.271   4.619  0.3103  0.8010 -0.3483
 7120SOL    HW232823   3.796   2.303   4.726  0.1151  0.3204  0.0879
 7121SOL     OW32824   1.046   1.965   2.365 -0.3414 -0.3128 -0.0979
 7121SOL    HW132825   0.986   2.038   2.376  0.5319  0.1886  1.3163
 7121SOL    HW232826   0.991   1.902   2.318  0.2481  0.0796 -1.3201
 7122SOL     OW32827   3.467   3.466   1.172  0.2961 -0.1030 -0.5120
 7122SOL    HW132828   3.521   3.396   1.209  0.9713  1.4846  1.4890
 7122SOL    HW232829   3.509   3.545   1.207  1.5726 -0.9932 -0.0541
 7123SOL     OW32830   3.972   0.365  16.620 -0.0947 -0.7109 -0.5407
 7123SOL    HW132831   3.905   0.343  16.555  0.1687  0.7873 -1.3185
 7123SOL    HW232832   3.931   0.445  16.653  1.6730  0.2534 -0.6978
 7124SOL     OW32833   0.521   1.202  14.601 -0.2123  0.1015 -0.1112
 7124SOL    HW132834   0.588   1.161  14.656 -0.6590 -2.3595 -1.3853
 7124SOL    HW232835   0.572   1.240  14.529  1.7368  0.5444  1.4786
 7125SOL     OW32836   2.293   2.934   2.811 -0.0362  0.1723  0.2833
 7125SOL    HW132837   2.253   2.911   2.727 -0.0049 -0.9623  0.5783
 7125SOL    HW232838   2.372   2.880   2.805  1.0481  1.7182  0.7969
 7126SOL     OW32839   3.779   2.617  13.144  0.1913  0.1052  0.3472
 7126SOL    HW132840   3.765   2.627  13.239 -0.3664 -3.4725  0.6666
 7126SOL    HW232841   3.712   2.557  13.111 -0.0474  0.2324  0.5994
 7127SOL     OW32842   2.071   2.265   4.771 -0.3335  0.2804  0.0475
 7127SOL    HW132843   2.049   2.181   4.731 -0.6877  0.2017  0.4033
 7127SOL    HW232844   2.117   2.305   4.698  0.1369  1.0225  0.7447
 7128SOL     OW32845   1.652   2.258   8.821  0.4052  0.2346  0.8022
 7128SOL    HW132846   1.624   2.215   8.740  1.7324  0.9074 -0.0086
 7128SOL    HW232847   1.618   2.346   8.803 -0.6676 -0.0969  1.1714
 7129SOL     OW32848   1.116   4.345   0.478  0.3476 -0.0803  0.4990
 7129SOL    HW132849   1.034   4.300   0.498  0.0379  0.9209  1.4559
 7129SOL    HW232850   1.084   4.433   0.458  1.2251 -0.2417 -1.6840
 7130SOL     OW32851   4.519   4.114   1.253  0.1748  0.0913  0.2976
 7130SOL    HW132852   4.521   4.141   1.161 -0.5018  0.2902  0.3397
 7130SOL    HW232853   4.598   4.157   1.287  0.5751 -1.1483  0.9218
 7131SOL     OW32854   1.670   1.066   6.469  0.2511  0.0934  0.0871
 7131SOL    HW132855   1.692   1.089   6.379  2.0784 -0.2132  0.4595
 7131SOL    HW232856   1.757   1.068   6.509  0.6970 -1.4597 -0.7885
 7132SOL     OW32857   4.079   0.305   4.873  0.1849 -0.0739 -0.6746
 7132SOL    HW132858   4.157   0.252   4.857  0.2152  0.1559 -1.2968
 7132SOL    HW232859   4.107   0.347   4.954  2.2489  0.0615 -1.4652
 7133SOL     OW32860   0.110   4.062   5.311  0.1209 -0.4466  0.1440
 7133SOL    HW132861   0.049   4.071   5.238  2.2204  0.5259 -1.4854
 7133SOL    HW232862   0.056   4.008   5.369 -0.6844 -1.5427 -1.6264
 7134SOL     OW32863   1.741   3.052   9.271  0.1796  0.0634  0.1312
 7134SOL    HW132864   1.778   3.055   9.183  1.5125  0.1454  0.6888
 7134SOL    HW232865   1.660   3.007   9.248  2.2307 -2.8490 -1.4112
 7135SOL     OW32866   2.595   3.356  13.586 -0.2010 -0.0970 -0.6649
 7135SOL    HW132867   2.643   3.404  13.653  0.1973 -2.2393  0.5866
 7135SOL    HW232868   2.525   3.413  13.555 -1.0265 -0.8045 -0.0774
 7136SOL     OW32869   1.706   2.137   4.295  0.1342  0.5670 -0.8175
 7136SOL    HW132870   1.661   2.116   4.377  0.9071 -1.2468 -0.8606
 7136SOL    HW232871   1.633   2.133   4.233 -2.0874 -0.9499  1.9065
 7137SOL     OW32872   2.112   0.534   5.493 -0.0808  0.4906  0.5256
 7137SOL    HW132873   2.051   0.587   5.442 -0.4080 -0.2618  0.1280
 7137SOL    HW232874   2.082   0.563   5.578  0.4217  0.3201  0.7633
 7138SOL     OW32875   4.253   3.331   8.484  0.0109 -0.3310 -0.0668
 7138SOL    HW132876   4.263   3.350   8.577  0.8432 -2.4427  0.2744
 7138SOL    HW232877   4.161   3.358   8.475  0.8669  3.3909  2.3789
 7139SOL     OW32878   0.273   4.688   8.202  0.1745 -0.1728  0.2283
 7139SOL    HW132879   0.346   4.640   8.164 -1.0178 -0.8952 -1.1392
 7139SOL    HW232880   0.292   4.688   8.295 -2.6509 -0.5583  0.8205
 7140SOL     OW32881   0.798   3.808  16.010 -0.1760  0.3401  0.2911
 7140SOL    HW132882   0.765   3.781  15.925 -0.9924 -0.3739  0.8362
 7140SOL    HW232883   0.871   3.864  15.984 -0.3960 -0.3061 -1.7024
 7141SOL     OW32884   1.072   2.237   2.808  0.0586 -0.2607 -0.2337
 7141SOL    HW132885   0.990   2.191   2.789  0.2924 -0.3777 -0.9893
 7141SOL    HW232886   1.117   2.170   2.860 -0.9472 -0.0145  0.9508
 7142SOL     OW32887   0.653   2.985   9.276  0.0500 -0.0631 -1.0621
 7142SOL    HW132888   0.604   2.919   9.326  0.4657  0.7504  0.4093
 7142SOL    HW232889   0.740   2.952   9.255 -0.0278 -1.1382  0.2518
 7143SOL     OW32890   3.563   1.078   7.954  0.0255 -0.0909  0.0967
 7143SOL    HW132891   3.535   1.149   7.896  1.2218  0.6630  0.4392
 7143SOL    HW232892   3.481   1.037   7.979  0.5840 -1.0154  0.4265
 7144SOL     OW32893   2.061   3.792   0.759  0.0048  0.1397  0.1254
 7144SOL    HW132894   2.129   3.795   0.826 -1.0901  0.0807  1.2412
 7144SOL    HW232895   1.986   3.782   0.818  0.2391 -0.3105  0.3417
 7145SOL     OW32896   2.069   3.802   2.376 -0.5374 -0.0777 -0.3124
 7145SOL    HW132897   2.096   3.871   2.317 -0.4051  1.0063  1.0102
 7145SOL    HW232898   2.143   3.778   2.431 -0.0883  1.4462 -0.2585
 7146SOL     OW32899   0.737   4.165   2.160  0.1269 -0.2644 -0.1171
 7146SOL    HW132900   0.817   4.125   2.124 -1.8695 -3.4028 -1.0257
 7146SOL    HW232901   0.779   4.241   2.199  0.1248 -0.4372  0.2221
 7147SOL     OW32902   2.921   1.456   5.873 -0.4095  0.6764 -0.3154
 7147SOL    HW132903   2.875   1.440   5.790 -1.7206  1.8261  0.1969
 7147SOL    HW232904   2.868   1.525   5.912  2.5164  1.9103  1.4780
 7148SOL     OW32905   4.412   0.920   6.963 -0.1997  0.0069 -0.2659
 7148SOL    HW132906   4.438   0.979   6.893  1.3607 -1.2894 -0.7693
 7148SOL    HW232907   4.337   0.872   6.928  0.4477 -0.6707 -0.7172
 7149SOL     OW32908   4.700   1.683   6.207  0.6562  0.1782  0.2284
 7149SOL    HW132909   4.657   1.615   6.258 -0.0598  0.8832  0.5712
 7149SOL    HW232910   4.654   1.759   6.244 -2.0241 -0.2619 -2.2499
 7150SOL     OW32911   0.662   2.953  13.727  0.2187  0.1971 -0.8607
 7150SOL    HW132912   0.586   2.912  13.767  0.3035  1.4425  0.5765
 7150SOL    HW232913   0.734   2.952  13.791 -0.9149  0.1197  0.4128
 7151SOL     OW32914   3.343   1.060  15.455 -0.4257 -0.4299  0.3701
 7151SOL    HW132915   3.349   1.047  15.360  1.4647  1.0505  0.2588
 7151SOL    HW232916   3.287   0.992  15.491  0.2642 -1.8294 -1.2185
 7152SOL     OW32917   4.696   4.558   7.717 -0.0194 -0.5750  0.2114
 7152SOL    HW132918   4.665   4.604   7.795 -3.4736 -2.0305 -0.2909
 7152SOL    HW232919   4.619   4.550   7.661  0.5240 -1.8864 -0.3636
 7153SOL     OW32920   4.509   4.672  12.751 -0.5370  0.2476 -0.2839
 7153SOL    HW132921   4.562   4.598  12.721  1.8087  1.5059  0.6875
 7153SOL    HW232922   4.559   0.028  12.730  0.5947 -0.6988 -1.1808
 7154SOL     OW32923   1.333   3.876   2.692  0.1479 -0.1864 -0.0633
 7154SOL    HW132924   1.295   3.793   2.720 -0.6071  0.0145 -0.4983
 7154SOL    HW232925   1.427   3.872   2.709 -0.5132  0.1580  3.6066
 7155SOL     OW32926   1.446   1.749   4.496  0.4726  0.1520 -0.2619
 7155SOL    HW132927   1.443   1.790   4.583  2.0930 -1.0207  0.3367
 7155SOL    HW232928   1.446   1.833   4.450  2.1608  2.2979  3.6691
 7156SOL     OW32929   2.481   2.630   6.506 -0.0215 -0.5744  0.1107
 7156SOL    HW132930   2.445   2.719   6.507  0.3434 -0.4633  2.4753
 7156SOL    HW232931   2.433   2.604   6.427  1.7012 -2.0346 -0.4682
 7157SOL     OW32932   1.453   1.024   2.320 -0.0762  0.0861 -0.1602
 7157SOL    HW132933   1.502   0.942   2.324 -0.1673 -0.0012 -0.8775
 7157SOL    HW232934   1.508   1.077   2.263 -2.6928  1.8784 -1.0236
 7158SOL     OW32935   0.133   2.757   9.342 -0.5759 -0.3860 -0.6481
 7158SOL    HW132936   0.143   2.846   9.307 -2.7492 -0.2540 -0.9358
 7158SOL    HW232937   0.086   2.769   9.424  0.6204 -1.6754  0.2330
 7159SOL     OW32938   4.325   3.798   7.904  0.0914 -0.2018  0.4668
 7159SOL    HW132939   4.271   3.720   7.910 -1.7656  1.2177  1.9838
 7159SOL    HW232940   4.282   3.838   7.828 -0.2429 -0.1170  0.7008
 7160SOL     OW32941   3.732   1.145   5.259  0.0140  0.4236  0.0522
 7160SOL    HW132942   3.748   1.155   5.353 -3.8238 -0.6753  0.8239
 7160SOL    HW232943   3.661   1.081   5.262  0.8229 -0.5121 -0.8125
 7161SOL     OW32944   2.471   0.035   4.452  0.7776  0.1426  0.5989
 7161SOL    HW132945   2.540   0.073   4.397 -0.6384  1.5683 -0.2000
 7161SOL    HW232946   2.445   4.688   4.394  3.0104 -0.0809 -0.1308
 7162SOL     OW32947   3.551   2.886   8.980 -0.6023  0.0366 -0.0603
 7162SOL    HW132948   3.572   2.799   9.016 -1.2523 -0.7277 -1.5503
 7162SOL    HW232949   3.602   2.939   9.041 -1.3198  0.5182  0.1195
 7163SOL     OW32950   2.532   2.625   4.967 -0.2070 -0.3149 -0.2038
 7163SOL    HW132951   2.496   2.669   4.889  1.7342  0.0047 -0.9211
 7163SOL    HW232952   2.626   2.627   4.948 -0.4092 -0.0852 -1.2073
 7164SOL     OW32953   2.076   2.046   6.153  0.5461  0.2591 -0.1101
 7164SOL    HW132954   2.006   2.024   6.091  1.1562  0.7633 -0.9723
 7164SOL    HW232955   2.082   2.139   6.132 -0.6208  0.4088  0.1913
 7165SOL     OW32956   3.607   0.527   7.039  0.5363 -0.2241  0.7819
 7165SOL    HW132957   3.602   0.434   7.018 -1.4128  0.0535  0.0330
 7165SOL    HW232958   3.541   0.557   6.976  0.9615  0.2937  0.5894
 7166SOL     OW32959   3.869   3.754   8.046 -0.1416  0.1497 -0.4989
 7166SOL    HW132960   3.788   3.707   8.027 -0.1082 -0.3356  0.5825
 7166SOL    HW232961   3.880   3.808   7.968  2.7044  1.0031  0.4806
 7167SOL     OW32962   4.081   0.925  12.849 -0.4260 -0.2912  0.7482
 7167SOL    HW132963   4.170   0.896  12.826 -0.8310 -1.8539  1.1773
 7167SOL    HW232964   4.071   1.010  12.806  0.4054  0.5373  2.2029
 7168SOL     OW32965   1.626   3.070   5.300  0.7958  0.1921 -0.2872
 7168SOL    HW132966   1.676   3.121   5.236 -2.1894  2.2918 -0.9684
 7168SOL    HW232967   1.555   3.130   5.320 -0.0428  0.2067 -3.2300
 7169SOL     OW32968   1.117   3.187   5.034 -0.2114  0.1064 -0.3016
 7169SOL    HW132969   1.057   3.228   5.095  1.6115  3.1385 -0.5420
 7169SOL    HW232970   1.094   3.098   5.059  3.4392 -0.4397  1.1133
 7170SOL     OW32971   2.212   0.603   3.642 -0.0342  0.3027  0.1112
 7170SOL    HW132972   2.160   0.676   3.608 -1.0252  0.2576  1.5096
 7170SOL    HW232973   2.202   0.534   3.577 -2.3478  0.4175  0.3401
 7171SOL     OW32974   1.419   2.738  13.711 -0.9045  0.0170  0.0630
 7171SOL    HW132975   1.472   2.748  13.631 -1.0615  1.8329  0.1829
 7171SOL    HW232976   1.340   2.701  13.672 -2.0257 -0.5443  2.8268
 7172SOL     OW32977   2.606   3.019   8.093 -0.1146  0.5667 -0.1091
 7172SOL    HW132978   2.551   3.094   8.069 -3.0654 -1.3278  0.8470
 7172SOL    HW232979   2.546   2.948   8.072  0.2086 -0.3250  1.9686
 7173SOL     OW32980   3.299   4.058   2.789 -0.1867  0.3311 -0.0343
 7173SOL    HW132981   3.261   4.139   2.824 -1.0424  0.3002 -0.8818
 7173SOL    HW232982   3.271   4.054   2.698  0.8295 -0.4159 -0.3169
 7174SOL     OW32983   0.912   1.601   9.205  0.0041  0.3610  0.0109
 7174SOL    HW132984   0.884   1.514   9.236 -2.3442  1.1927  0.2210
 7174SOL    HW232985   0.831   1.649   9.223  0.2519  0.1866  1.6022
 7175SOL     OW32986   3.007   1.516  12.115 -0.0571 -0.7283  0.1735
 7175SOL    HW132987   3.037   1.556  12.196 -0.3303  1.8273 -0.9799
 7175SOL    HW232988   3.042   1.575  12.048  0.9450 -2.9359 -1.2762
 7176SOL     OW32989   2.820   1.853   9.680  0.1125 -0.4951 -0.6028
 7176SOL    HW132990   2.768   1.810   9.613 -0.0740 -0.7223 -0.3095
 7176SOL    HW232991   2.741   1.880   9.727 -0.5209 -2.8268 -0.3570
 7177SOL     OW32992   3.714   1.505  12.130 -0.5696 -0.0739  0.7539
 7177SOL    HW132993   3.666   1.583  12.103 -0.9863 -0.7273 -0.3836
 7177SOL    HW232994   3.798   1.529  12.091 -0.1522 -1.8020  0.6142
 7178SOL     OW32995   3.871   4.070   4.894 -0.2695  0.0234 -0.3852
 7178SOL    HW132996   3.798   4.115   4.852 -0.9233 -1.9145 -1.3293
 7178SOL    HW232997   3.913   4.141   4.942 -0.5051  0.1889 -0.4273
 7179SOL     OW32998   4.512   3.026   2.273  0.1836  0.5755  0.0647
 7179SOL    HW132999   4.508   3.059   2.184  1.3919  4.4556  1.4482
 7179SOL    HW233000   4.426   3.054   2.306 -0.1087 -0.1727 -0.0724
 7180SOL     OW33001   3.604   0.205   5.062  0.5160 -0.0751 -0.1079
 7180SOL    HW133002   3.684   0.247   5.031  0.3137 -0.1771 -0.7547
 7180SOL    HW233003   3.544   0.261   5.013  0.7513 -1.4791 -1.9901
 7181SOL     OW33004   0.297   3.017   3.899  0.2126 -0.6068  0.0264
 7181SOL    HW133005   0.231   3.019   3.830 -2.2782  1.0432  2.4433
 7181SOL    HW233006   0.264   2.949   3.958  1.9223 -1.6896 -0.2437
 7182SOL     OW33007   4.060   4.097   3.469 -0.0027 -0.2445 -0.4135
 7182SOL    HW133008   4.109   4.111   3.550 -0.3504  0.5522 -0.3488
 7182SOL    HW233009   4.103   4.030   3.415 -1.5892 -1.3179 -0.3451
 7183SOL     OW33010   4.022   1.516  10.533  0.2878  0.0102 -0.4944
 7183SOL    HW133011   3.943   1.553  10.493 -0.0630 -0.3315 -0.1191
 7183SOL    HW233012   3.996   1.424  10.530 -1.5693  0.5362 -0.8882
 7184SOL     OW33013   0.656   4.642   3.118 -0.3349 -0.4484  0.0171
 7184SOL    HW133014   0.605   4.654   3.038 -0.7328 -1.0832  0.1774
 7184SOL    HW233015   0.721   4.712   3.128 -0.8181  0.2742 -1.9707
 7185SOL     OW33016   0.638   2.060   9.146 -0.8039 -0.3063 -0.5957
 7185SOL    HW133017   0.712   2.118   9.158 -0.6914 -0.6147  0.2340
 7185SOL    HW233018   0.637   2.056   9.051 -1.0590 -1.2307 -0.5601
 7186SOL     OW33019   0.847   0.432  12.132 -0.3370  0.7815 -0.9515
 7186SOL    HW133020   0.913   0.373  12.097  0.5298  0.0563  1.9843
 7186SOL    HW233021   0.816   0.378  12.204  0.0474  0.6323 -0.8993
 7187SOL     OW33022   0.521   3.163  10.313 -0.8110  0.7717 -0.0843
 7187SOL    HW133023   0.522   3.147  10.408  2.6243  1.6306  0.0009
 7187SOL    HW233024   0.539   3.082  10.265  1.0434  0.1185  1.7183
 7188SOL     OW33025   0.235   1.119   3.928 -0.4440 -0.4535  0.1260
 7188SOL    HW133026   0.272   1.037   3.895 -0.5388 -0.2794 -0.4177
 7188SOL    HW233027   0.141   1.102   3.921 -0.5255  0.1877 -0.3514
 7189SOL     OW33028   0.372   0.412   4.101 -0.6537 -0.0938 -0.9114
 7189SOL    HW133029   0.296   0.355   4.113 -0.7170  0.4229  1.0760
 7189SOL    HW233030   0.381   0.398   4.007 -1.4685  0.7775 -1.1190
 7190SOL     OW33031   1.732   3.659   7.208 -0.0836 -0.5651 -0.4351
 7190SOL    HW133032   1.756   3.708   7.130 -0.4000 -0.2160 -0.3135
 7190SOL    HW233033   1.701   3.578   7.167  0.8646 -0.2371 -1.7909
 7191SOL     OW33034   0.226   1.751  12.617  0.3710  0.0260 -0.3435
 7191SOL    HW133035   0.194   1.662  12.599  1.3773 -0.4256  0.1539
 7191SOL    HW233036   0.317   1.735  12.593  0.2345 -1.2746 -0.0161
 7192SOL     OW33037   1.287   1.103  16.654  0.1032  0.0332 -0.9674
 7192SOL    HW133038   1.265   1.040  16.586 -0.3051 -0.9235  0.0556
 7192SOL    HW233039   1.221   1.172  16.659 -1.6702 -1.8234  1.0235
 7193SOL     OW33040   4.384   3.019   6.756  0.1912 -0.8255 -0.1859
 7193SOL    HW133041   4.369   2.936   6.710  1.5435 -0.0158 -2.0953
 7193SOL    HW233042   4.340   3.079   6.697  2.8035  1.2023 -0.0658
 7194SOL     OW33043   3.980   3.195  11.400 -0.4064  0.2254 -0.2377
 7194SOL    HW133044   4.007   3.214  11.490  0.1363 -1.4487 -0.0471
 7194SOL    HW233045   4.042   3.128  11.372 -0.9352 -1.1109  1.7556
 7195SOL     OW33046   3.290   0.206   9.133 -0.5603 -0.2524 -0.0991
 7195SOL    HW133047   3.270   0.288   9.179 -0.7729  0.3974 -1.3445
 7195SOL    HW233048   3.204   0.163   9.135  0.0854 -1.5344  0.2952
 7196SOL     OW33049   4.711   4.453   3.433  0.4290  0.1978  0.0314
 7196SOL    HW133050   0.017   4.539   3.404 -0.6217  0.7563  0.6587
 7196SOL    HW233051   0.065   4.400   3.414  1.6359  2.1795 -0.6029
 7197SOL     OW33052   1.152   1.254   6.310 -0.3640  0.1376 -0.7488
 7197SOL    HW133053   1.192   1.297   6.235  1.9440 -1.1751 -0.2621
 7197SOL    HW233054   1.064   1.278   6.280 -0.0378  0.8831 -1.0932
 7198SOL     OW33055   1.940   3.153   2.729 -0.2139  0.2336 -0.1144
 7198SOL    HW133056   1.999   3.188   2.662 -0.0688  1.6758  0.7664
 7198SOL    HW233057   2.003   3.161   2.801  1.5916  3.1289 -2.0133
 7199SOL     OW33058   2.926   0.887   3.573 -0.0420 -0.0325  0.1570
 7199SOL    HW133059   3.001   0.898   3.632  0.0734 -0.5208  0.1000
 7199SOL    HW233060   2.869   0.833   3.627 -0.2110  0.3632  0.3696
 7200SOL     OW33061   3.069   3.133   5.015 -0.2983  0.4280 -0.0356
 7200SOL    HW133062   3.117   3.161   4.937 -0.5362 -1.6355 -0.9348
 7200SOL    HW233063   2.989   3.186   5.010  0.3462  1.1322 -3.0723
 7201SOL     OW33064   3.560   1.459  11.806  0.1354  0.0180 -0.1899
 7201SOL    HW133065   3.645   1.443  11.766  0.9702 -1.8482  2.3995
 7201SOL    HW233066   3.501   1.446  11.731 -1.1730  1.3159  0.6146
 7202SOL     OW33067   0.384   3.849   1.435 -0.2190  0.0166  0.3394
 7202SOL    HW133068   0.320   3.917   1.455 -0.1101  0.6693 -1.4760
 7202SOL    HW233069   0.325   3.774   1.436  0.2084 -0.3259 -0.6431
 7203SOL     OW33070   1.946   1.965   7.715  0.2949 -0.3130  0.5764
 7203SOL    HW133071   1.891   1.943   7.790 -1.4206 -1.4998 -1.0331
 7203SOL    HW233072   1.968   1.882   7.674  2.1482  1.2305 -1.5235
 7204SOL     OW33073   0.467   1.553  13.472 -0.0870 -0.1376 -0.3467
 7204SOL    HW133074   0.431   1.607  13.542 -0.8896 -2.4470  1.0042
 7204SOL    HW233075   0.447   1.607  13.396  1.2929 -0.1196 -0.7059
 7205SOL     OW33076   0.268   3.492   6.193 -0.8236 -0.9249 -0.1648
 7205SOL    HW133077   0.297   3.475   6.283  1.9081 -2.0512 -1.2354
 7205SOL    HW233078   0.347   3.516   6.145 -0.6036 -2.4533 -0.5869
 7206SOL     OW33079   2.408   4.253  16.558  0.7687  0.6856  0.2697
 7206SOL    HW133080   2.318   4.254  16.527  0.5177 -0.6488  0.9695
 7206SOL    HW233081   2.410   4.332  16.612 -2.3481  0.1841  1.1124
 7207SOL     OW33082   1.882   2.817   9.834 -0.0142 -0.5003  0.2020
 7207SOL    HW133083   1.860   2.826   9.927  0.3834 -1.3282  0.3784
 7207SOL    HW233084   1.801   2.775   9.804 -0.5346  0.0183  0.8866
 7208SOL     OW33085   0.779   3.119   2.130 -0.5388  0.2346  0.3472
 7208SOL    HW133086   0.844   3.174   2.176  0.4456 -0.2117 -0.5200
 7208SOL    HW233087   0.702   3.163   2.166 -0.7072  0.5869 -0.4567
 7209SOL     OW33088   1.576   1.395  11.560 -0.3928  0.0135  0.0577
 7209SOL    HW133089   1.507   1.350  11.511 -0.1895 -0.3609  0.1172
 7209SOL    HW233090   1.551   1.487  11.550  0.8622  0.0865 -2.3285
 7210SOL     OW33091   1.877   2.006   5.955 -0.3081  0.3670 -0.7718
 7210SOL    HW133092   1.843   2.082   5.908 -1.4574  0.8891  0.8889
 7210SOL    HW233093   1.946   1.985   5.892 -1.3143  0.1957 -1.8374
 7211SOL     OW33094   2.482   1.363  13.259  0.5181 -0.1027  0.0565
 7211SOL    HW133095   2.518   1.275  13.266  0.5060 -0.2142 -1.2739
 7211SOL    HW233096   2.563   1.409  13.236 -0.5987  2.4813  1.2902
 7212SOL     OW33097   4.219   0.029   8.419 -0.4551  1.0081 -0.3710
 7212SOL    HW133098   4.204   0.085   8.343 -2.3566 -0.2528 -0.9370
 7212SOL    HW233099   4.295   4.706   8.385 -2.3283 -2.2536 -0.0684
 7213SOL     OW33100   3.336   1.957   1.590 -0.2814  0.4418 -0.4221
 7213SOL    HW133101   3.408   1.976   1.530  1.8924  1.5404  2.5586
 7213SOL    HW233102   3.307   2.041   1.626 -0.1473  1.3307 -2.4034
 7214SOL     OW33103   4.155   4.469  16.807  0.1566  0.5284  0.4130
 7214SOL    HW133104   4.100   4.414  16.750  1.3435  1.3781 -1.5548
 7214SOL    HW233105   4.147   4.430  16.894 -1.3110  1.9666  0.9177
 7215SOL     OW33106   2.286   0.504   2.844 -0.1556 -0.4891 -0.0404
 7215SOL    HW133107   2.237   0.424   2.861  1.1531 -1.1381  0.6644
 7215SOL    HW233108   2.363   0.451   2.824 -0.5610 -0.6749 -1.1112
 7216SOL     OW33109   4.136   3.935  15.718  0.0985 -0.1015  0.5122
 7216SOL    HW133110   4.078   4.008  15.735 -0.0059 -0.3362  1.1823
 7216SOL    HW233111   4.182   3.965  15.640 -0.2482 -0.4340  0.1782
 7217SOL     OW33112   2.442   4.436   0.307  0.2638  0.4809  0.4796
 7217SOL    HW133113   2.430   4.497   0.380  1.2642  0.8280  0.3456
 7217SOL    HW233114   2.483   4.498   0.246  2.3797 -1.1516  0.2560
 7218SOL     OW33115   1.668   3.869   6.737  0.8057 -0.1202 -0.2528
 7218SOL    HW133116   1.622   3.942   6.696  0.7737  0.6884  1.2388
 7218SOL    HW233117   1.612   3.795   6.712 -0.7768  0.5748  1.2469
 7219SOL     OW33118   1.136   3.546   6.686  0.3807 -0.0287  0.0297
 7219SOL    HW133119   1.128   3.631   6.643 -1.2623 -0.5101 -0.6184
 7219SOL    HW233120   1.052   3.544   6.732  0.3620 -0.0446 -0.0058
 7220SOL     OW33121   3.501   3.395  13.518 -0.3192  0.1604 -0.2639
 7220SOL    HW133122   3.579   3.395  13.573 -1.3826 -0.9807  1.2244
 7220SOL    HW233123   3.454   3.463  13.565 -0.3265  0.6472 -0.9789
 7221SOL     OW33124   0.941   0.703   2.804  0.0213 -0.2878  0.1816
 7221SOL    HW133125   0.957   0.658   2.721  1.4146 -0.1845  0.3871
 7221SOL    HW233126   0.961   0.643   2.875  0.0717 -0.4607  0.0220
 7222SOL     OW33127   1.148   3.561   5.353  0.0640 -0.2950 -0.6443
 7222SOL    HW133128   1.067   3.598   5.318 -0.8454 -0.8332  0.9118
 7222SOL    HW233129   1.211   3.576   5.282 -0.6683 -0.2188 -1.2716
 7223SOL     OW33130   1.153   2.383   0.443 -0.3426  0.9205  0.0828
 7223SOL    HW133131   1.238   2.339   0.443 -1.7997 -1.9271  2.9006
 7223SOL    HW233132   1.186   2.473   0.450  0.3084  0.5635  1.7502
 7224SOL     OW33133   0.558   2.072   7.386  0.1315 -0.4302  0.0031
 7224SOL    HW133134   0.623   2.035   7.445  0.0262 -0.7486 -0.0837
 7224SOL    HW233135   0.577   2.028   7.303  0.3263 -0.0466 -0.1557
 7225SOL     OW33136   2.264   3.796   0.923 -0.4692  0.1421  0.1160
 7225SOL    HW133137   2.305   3.876   0.955  1.9393 -1.2373  0.4721
 7225SOL    HW233138   2.333   3.732   0.938  0.6277  0.6294 -2.7973
 7226SOL     OW33139   4.589   1.695  14.078 -0.0279 -0.3467 -0.2449
 7226SOL    HW133140   4.676   1.691  14.038  0.2026  0.0255  0.2245
 7226SOL    HW233141   4.544   1.742  14.008  2.6867  2.7758  0.1644
 7227SOL     OW33142   1.048   3.741   9.485  0.4873 -0.6706 -0.0971
 7227SOL    HW133143   1.096   3.786   9.555  1.2772 -4.5625  1.8537
 7227SOL    HW233144   0.975   3.801   9.465 -0.1659 -1.7139 -0.8417
 7228SOL     OW33145   2.061   0.290   8.100 -0.2372  0.1618 -0.8429
 7228SOL    HW133146   2.026   0.338   8.025 -2.3019 -0.4853 -0.2781
 7228SOL    HW233147   2.114   0.364   8.128 -2.4242  1.5744 -0.4527
 7229SOL     OW33148   4.049   3.718   6.929 -0.0977 -0.6433  0.1225
 7229SOL    HW133149   4.083   3.657   6.863 -0.3176 -1.0051  0.3464
 7229SOL    HW233150   4.061   3.666   7.007  1.5970 -0.5775 -0.0970
 7230SOL     OW33151   2.762   1.982  17.320 -0.1052  0.1203  0.1064
 7230SOL    HW133152   2.805   1.937  17.392 -1.9578 -2.7339 -0.5869
 7230SOL    HW233153   2.843   2.029  17.297  0.1496 -1.7052 -2.7173
 7231SOL     OW33154   2.869   3.451  13.908  0.0922 -0.5234 -0.4005
 7231SOL    HW133155   2.865   3.456  13.813  0.8920 -1.7598 -0.4936
 7231SOL    HW233156   2.776   3.457  13.928  0.2186 -0.6706  0.2390
 7232SOL     OW33157   3.309   1.465  11.995  0.1745 -0.0170  0.3386
 7232SOL    HW133158   3.346   1.474  11.907  1.3051 -2.0724  0.6149
 7232SOL    HW233159   3.239   1.530  11.987  0.6000  0.6713  2.1116
 7233SOL     OW33160   3.227   3.489   0.682  0.3843  0.0121  0.1805
 7233SOL    HW133161   3.250   3.448   0.766  0.1985 -3.0756 -1.3034
 7233SOL    HW233162   3.166   3.558   0.709 -2.3050 -1.5534 -2.0067
 7234SOL     OW33163   3.387   0.683   3.630  0.3710 -0.1738 -0.1757
 7234SOL    HW133164   3.385   0.695   3.535 -0.7094 -1.0581 -0.2570
 7234SOL    HW233165   3.470   0.729   3.644  0.9562 -1.2950  0.0275
 7235SOL     OW33166   0.179   1.453   1.584 -0.7968 -0.1889 -0.2002
 7235SOL    HW133167   0.257   1.486   1.629 -1.7738  0.6903  0.8277
 7235SOL    HW233168   0.116   1.481   1.650  0.8152  0.7063  0.9411
 7236SOL     OW33169   4.119   3.773   0.854 -0.3396 -0.0470  0.2756
 7236SOL    HW133170   4.130   3.708   0.924  0.0373 -0.3104 -0.0261
 7236SOL    HW233171   4.035   3.811   0.880  0.8793  2.2431  0.8970
 7237SOL     OW33172   0.014   2.776   3.235 -0.0082  0.1086 -0.1948
 7237SOL    HW133173   0.096   2.762   3.282 -0.5627  1.5560  1.1879
 7237SOL    HW233174   0.024   2.869   3.217 -1.8343  0.4950  0.7555
 7238SOL     OW33175   2.068   0.807   9.356  0.0721 -0.2609 -0.0945
 7238SOL    HW133176   2.071   0.723   9.402  0.5527 -1.6153 -2.6373
 7238SOL    HW233177   2.068   0.869   9.429  1.4235 -0.8577  0.4119
 7239SOL     OW33178   2.740   3.945   4.950 -0.3826 -0.0595  0.0559
 7239SOL    HW133179   2.689   3.908   5.022 -1.3488 -0.1937 -0.6998
 7239SOL    HW233180   2.697   3.906   4.874  1.0013  0.9424 -1.2570
 7240SOL     OW33181   2.836   3.712   7.321 -0.2300 -0.2728 -0.4970
 7240SOL    HW133182   2.751   3.708   7.365  0.3159  2.8886  0.8862
 7240SOL    HW233183   2.888   3.721   7.401 -0.0241 -0.6808 -0.5886
 7241SOL     OW33184   1.018   3.489   8.265 -0.1191  0.5379  0.0249
 7241SOL    HW133185   1.014   3.399   8.297 -0.7937  0.2604 -0.8421
 7241SOL    HW233186   0.925   3.511   8.254  0.0589  0.9433 -0.6347
 7242SOL     OW33187   2.312   2.602  10.996  0.3087 -0.0236  0.0295
 7242SOL    HW133188   2.379   2.598  11.064 -1.5485  0.3607  1.8645
 7242SOL    HW233189   2.295   2.509  10.978  0.9256  0.2667 -2.0889
 7243SOL     OW33190   3.057   1.773  16.379  0.3421  0.5061  0.5228
 7243SOL    HW133191   3.060   1.814  16.292  1.8822 -0.5958  0.0655
 7243SOL    HW233192   3.147   1.744  16.393 -0.3397 -1.9401 -0.2378
 7244SOL     OW33193   1.674   4.686   7.714 -0.2037 -0.1784  0.3522
 7244SOL    HW133194   1.696   4.615   7.774 -3.2866 -0.1811  1.4696
 7244SOL    HW233195   1.644   0.025   7.781 -0.9488 -1.3523  1.1203
 7245SOL     OW33196   3.485   2.197   5.924 -0.4613 -0.4501 -0.2892
 7245SOL    HW133197   3.475   2.135   5.851  2.1270 -1.3509  0.1241
 7245SOL    HW233198   3.542   2.144   5.979  0.0928  2.7202  2.1525
 7246SOL     OW33199   2.051   0.275   7.629 -0.0803  0.2305 -0.3178
 7246SOL    HW133200   2.113   0.243   7.695 -0.5819  0.6959  0.3771
 7246SOL    HW233201   1.991   0.202   7.610  0.3321 -1.1307  3.5400
 7247SOL     OW33202   3.020   2.960   4.143  0.4083  0.0594  0.3389
 7247SOL    HW133203   2.969   2.980   4.064  0.6989 -1.8792 -0.3548
 7247SOL    HW233204   2.948   2.941   4.204  0.6001 -0.7354  0.3209
 7248SOL     OW33205   2.244   2.558   3.658 -0.1789  0.5932 -0.1652
 7248SOL    HW133206   2.247   2.477   3.608 -0.2661  1.1982 -1.1478
 7248SOL    HW233207   2.165   2.599   3.622  0.9234  1.7851 -1.2002
 7249SOL     OW33208   2.014   1.809   9.069 -0.0156  0.2159  0.2273
 7249SOL    HW133209   2.027   1.836   9.160 -0.6560  2.3677 -0.3257
 7249SOL    HW233210   1.958   1.732   9.082  0.8537 -0.6906 -1.3633
 7250SOL     OW33211   3.622   0.954  15.319 -0.2322  0.3537 -0.4630
 7250SOL    HW133212   3.555   0.886  15.310  1.1692 -1.2800  1.3307
 7250SOL    HW233213   3.608   0.988  15.408  1.6524 -0.6325  0.2166
 7251SOL     OW33214   1.075   2.700   8.846 -0.1496 -0.3102  0.1550
 7251SOL    HW133215   1.070   2.753   8.767  2.2527  0.6453  0.6312
 7251SOL    HW233216   0.997   2.646   8.838 -1.3582  1.0319  2.9674
 7252SOL     OW33217   1.571   3.432   5.123 -0.2999  0.0130  0.5583
 7252SOL    HW133218   1.505   3.454   5.058 -0.4638 -0.4498  0.5648
 7252SOL    HW233219   1.518   3.414   5.200 -1.0939 -3.9147 -0.9083
 7253SOL     OW33220   4.074   1.184   7.175 -0.7767 -0.3669  0.6034
 7253SOL    HW133221   4.041   1.094   7.173 -0.6526 -0.2955 -3.6734
 7253SOL    HW233222   4.064   1.207   7.268  1.0536  0.4651  0.5971
 7254SOL     OW33223   3.824   4.078   6.638  0.3914  0.3270 -0.2846
 7254SOL    HW133224   3.842   4.153   6.695 -1.8661  0.3350  0.4316
 7254SOL    HW233225   3.790   4.131   6.566 -1.2371 -1.2978 -0.7126
 7255SOL     OW33226   2.142   2.917   7.400 -0.5074  0.1335  0.1602
 7255SOL    HW133227   2.096   2.976   7.459 -0.4548 -0.3805  0.7152
 7255SOL    HW233228   2.072   2.884   7.343 -1.3385  0.3643  1.0475
 7256SOL     OW33229   1.034   1.228   3.746 -0.0372 -0.0883 -0.0844
 7256SOL    HW133230   1.105   1.276   3.705 -0.5686  1.1513  0.4653
 7256SOL    HW233231   0.980   1.190   3.677 -0.9480 -0.8253  1.0217
 7257SOL     OW33232   0.878   0.798   6.014 -0.4266  0.1567  0.2847
 7257SOL    HW133233   0.940   0.867   6.039  0.4692 -1.1732  1.8110
 7257SOL    HW233234   0.862   0.769   6.104 -1.8749  1.1575  0.3526
 7258SOL     OW33235   4.140   2.926   1.887  0.4290  0.1382  0.1539
 7258SOL    HW133236   4.087   2.992   1.843  1.1557  0.4698 -0.2288
 7258SOL    HW233237   4.075   2.863   1.918 -0.8015  1.0556 -0.5464
 7259SOL     OW33238   1.509   3.970  16.497 -0.1629  0.1804  0.9076
 7259SOL    HW133239   1.596   3.929  16.502 -0.2475 -0.3057 -1.5588
 7259SOL    HW233240   1.496   3.960  16.403  0.7600  0.0603  0.7865
 7260SOL     OW33241   3.372   0.619   2.052 -0.0632  0.3598 -0.1695
 7260SOL    HW133242   3.324   0.539   2.073 -2.2950  1.9008  0.5983
 7260SOL    HW233243   3.431   0.619   2.127 -1.2920  0.3250  0.8079
 7261SOL     OW33244   4.484   2.246   8.603  0.1051 -0.0643  0.1286
 7261SOL    HW133245   4.397   2.287   8.607 -1.3920 -3.4212  1.7794
 7261SOL    HW233246   4.452   2.163   8.569  1.0985 -0.5213  0.3118
 7262SOL     OW33247   2.501   3.280  15.234 -0.3051 -0.3512  0.1019
 7262SOL    HW133248   2.572   3.216  15.239  0.3217  0.4540  1.2306
 7262SOL    HW233249   2.477   3.283  15.326  1.3121  1.9011  0.4259
 7263SOL     OW33250   2.920   0.598  15.151  0.6358  0.0393  0.1685
 7263SOL    HW133251   2.951   0.517  15.109 -1.0215 -0.3585 -0.2826
 7263SOL    HW233252   2.953   0.668  15.095  3.8302 -0.5284  1.3236
 7264SOL     OW33253   1.590   1.505  16.782 -0.0909 -0.4862  0.0109
 7264SOL    HW133254   1.576   1.453  16.703  0.2822  0.6824 -0.8112
 7264SOL    HW233255   1.563   1.590  16.749  1.1336 -0.0887  0.0360
 7265SOL     OW33256   4.127   0.070   9.029 -0.0448  0.2079 -0.1702
 7265SOL    HW133257   4.190   0.084   8.958 -0.5678  2.3139 -0.2368
 7265SOL    HW233258   4.157   0.144   9.082 -0.3456 -0.3921  0.8458
 7266SOL     OW33259   2.996   2.857  14.803  0.2798 -0.3373  0.1161
 7266SOL    HW133260   2.907   2.849  14.838  1.1967 -3.8245  1.6669
 7266SOL    HW233261   2.979   2.851  14.710 -2.8293  0.4154  0.6355
 7267SOL     OW33262   3.657   4.280   2.613 -0.3735 -0.3717 -0.2214
 7267SOL    HW133263   3.576   4.317   2.648 -0.7050 -1.4135  0.1289
 7267SOL    HW233264   3.674   4.210   2.676 -1.0398  2.1003  2.6902
 7268SOL     OW33265   1.900   0.531  16.314 -0.2180  0.3537  0.3676
 7268SOL    HW133266   1.994   0.521  16.299 -0.5838 -3.2752  0.3867
 7268SOL    HW233267   1.901   0.609  16.368  2.7464  0.4869  0.0879
 7269SOL     OW33268   2.908   3.659   4.974 -0.1631 -0.4525  0.0446
 7269SOL    HW133269   2.813   3.673   4.970 -0.5072 -2.0910  2.3663
 7269SOL    HW233270   2.923   3.596   5.045  0.4365 -1.3259 -0.8629
 7270SOL     OW33271   3.002   4.174   5.650 -0.5742  0.1445 -0.2428
 7270SOL    HW133272   2.907   4.176   5.665 -1.0232 -2.8452 -2.7674
 7270SOL    HW233273   3.035   4.086   5.664 -2.7709 -0.5418  0.5687
 7271SOL     OW33274   4.391   1.802  13.154 -0.4813 -0.3175  0.0104
 7271SOL    HW133275   4.387   1.845  13.068  0.6897  0.2165  0.2331
 7271SOL    HW233276   4.486   1.792  13.156 -0.0122  3.8044 -2.3668
 7272SOL     OW33277   2.900   0.835   5.568 -0.0968 -0.4434 -0.1891
 7272SOL    HW133278   2.971   0.893   5.541  0.2308 -1.5921 -1.7789
 7272SOL    HW233279   2.932   0.809   5.655  0.2921 -1.2245 -0.5628
 7273SOL     OW33280   0.328   4.571  15.613 -0.9884  0.4595 -0.2415
 7273SOL    HW133281   0.334   4.650  15.559  4.0210 -0.8588 -1.6376
 7273SOL    HW233282   0.379   4.598  15.690  0.8496  0.6866 -1.5302
 7274SOL     OW33283   2.025   0.888   2.189  0.1577  0.3189  0.4027
 7274SOL    HW133284   2.074   0.867   2.109 -1.3228  0.2520 -0.4866
 7274SOL    HW233285   2.009   0.807   2.237  1.4926 -0.0185  0.2819
 7275SOL     OW33286   1.297   3.655  17.164 -0.2430 -0.4944  0.4345
 7275SOL    HW133287   1.277   3.730  17.107 -1.7779 -1.1003  0.1779
 7275SOL    HW233288   1.259   3.581  17.118 -0.6126  0.9787 -1.6403
 7276SOL     OW33289   4.122   3.091  16.613  0.6156 -0.1032  0.3064
 7276SOL    HW133290   4.155   3.140  16.688 -1.4790 -1.3713  2.0509
 7276SOL    HW233291   4.052   3.041  16.655 -2.0404  2.3835 -1.1761
 7277SOL     OW33292   4.698   2.782   8.233  0.2953 -0.0216 -0.2505
 7277SOL    HW133293   0.022   2.712   8.277 -0.6109 -2.7358 -3.5353
 7277SOL    HW233294   0.047   2.843   8.237  0.2039  0.2078 -1.9324
 7278SOL     OW33295   2.662   4.582   6.217 -0.8955 -0.1874  0.0421
 7278SOL    HW133296   2.621   4.498   6.237 -0.7809 -0.4688 -0.9025
 7278SOL    HW233297   2.722   4.585   6.291 -1.7338  1.8837  0.6487
 7279SOL     OW33298   2.846   2.978   1.607  0.1138  0.2251  0.1475
 7279SOL    HW133299   2.789   2.984   1.683  0.7576 -0.3284  0.6649
 7279SOL    HW233300   2.884   2.891   1.612 -0.5121 -0.1296 -1.2124
 7280SOL     OW33301   4.167   0.375   5.541  0.0095  0.3079 -0.8738
 7280SOL    HW133302   4.206   0.452   5.581  0.4678 -1.4428  2.0791
 7280SOL    HW233303   4.166   0.311   5.612 -0.8097  0.2701 -0.9253
 7281SOL     OW33304   0.490   4.164  11.066 -0.3170  0.0355  0.4653
 7281SOL    HW133305   0.501   4.187  10.974  1.2754 -1.4141  0.2954
 7281SOL    HW233306   0.509   4.247  11.108 -0.2403 -0.0652  0.6291
 7282SOL     OW33307   4.656   3.000  13.745  0.3266  0.0142 -0.3721
 7282SOL    HW133308   4.629   3.089  13.768  0.7901  0.1897 -0.5132
 7282SOL    HW233309   4.624   2.948  13.819  1.8355  2.2419  1.8361
 7283SOL     OW33310   1.699   2.440   6.346 -0.4232 -0.1232  0.7429
 7283SOL    HW133311   1.605   2.448   6.357 -0.8372 -0.0270 -2.7799
 7283SOL    HW233312   1.721   2.532   6.360  0.2878 -0.3078  0.8692
 7284SOL     OW33313   3.257   2.930  13.124 -0.6710 -0.1264  0.3359
 7284SOL    HW133314   3.201   2.968  13.192 -2.9194 -1.7511 -0.5720
 7284SOL    HW233315   3.336   2.937  13.177  0.0169  1.0895 -0.8560
 7285SOL     OW33316   2.165   3.900   4.346  0.0438  0.0744  0.6557
 7285SOL    HW133317   2.154   3.991   4.374  1.0104  0.2399  0.5082
 7285SOL    HW233318   2.153   3.902   4.251 -1.6285  0.6941  0.8827
 7286SOL     OW33319   3.746   1.833   4.373 -0.2633  0.0742 -0.7658
 7286SOL    HW133320   3.838   1.828   4.399 -0.0057 -0.6727 -1.8023
 7286SOL    HW233321   3.714   1.863   4.458  0.2758 -2.2856  0.2585
 7287SOL     OW33322   3.499   4.281   7.102 -0.0123 -0.7046  0.1953
 7287SOL    HW133323   3.425   4.327   7.140 -1.2551 -1.6059 -1.1316
 7287SOL    HW233324   3.463   4.291   7.014  0.4908 -1.5111 -0.1096
 7288SOL     OW33325   1.987   0.537  10.577 -0.4552 -0.1846  0.6800
 7288SOL    HW133326   1.955   0.582  10.655  0.5616 -0.6185  1.3539
 7288SOL    HW233327   2.071   0.577  10.554 -0.6284 -0.2873 -0.1242
 7289SOL     OW33328   2.025   0.457   7.453  0.4011  0.8379 -0.3996
 7289SOL    HW133329   2.098   0.440   7.393  0.8239 -1.1082  0.6469
 7289SOL    HW233330   2.052   0.391   7.517 -1.2713 -1.3792 -1.9802
 7290SOL     OW33331   0.924   3.342   7.175  0.3987 -0.0547  0.1627
 7290SOL    HW133332   0.964   3.311   7.094  0.2134  0.0793  0.0165
 7290SOL    HW233333   0.932   3.436   7.157 -0.5425  0.0477  0.2682
 7291SOL     OW33334   1.513   4.079  10.570  0.0359 -0.1049  0.1491
 7291SOL    HW133335   1.522   3.994  10.528  1.1637  0.2267 -0.2683
 7291SOL    HW233336   1.518   4.124  10.486  2.7389 -0.4577  0.1206
 7292SOL     OW33337   2.309   1.400  15.100  0.1766  0.1312  0.8199
 7292SOL    HW133338   2.246   1.367  15.165  0.9120 -1.0314  0.9419
 7292SOL    HW233339   2.379   1.427  15.159  0.6235  0.1673  0.2666
 7293SOL     OW33340   1.157   0.273  12.618  0.0715  0.7399  0.0962
 7293SOL    HW133341   1.134   0.224  12.539  1.2905 -0.3686  0.4234
 7293SOL    HW233342   1.223   0.219  12.662 -0.2983  0.8002  0.7201
 7294SOL     OW33343   0.934   3.821   8.000 -0.4450 -0.4129  0.0430
 7294SOL    HW133344   0.895   3.819   8.088 -1.0496 -1.9918 -0.2656
 7294SOL    HW233345   1.025   3.828   8.030 -0.5088 -1.5899  0.5026
 7295SOL     OW33346   1.615   1.844   1.036  0.2374  0.5921  0.0204
 7295SOL    HW133347   1.541   1.900   1.010 -0.8208 -1.2267 -0.9036
 7295SOL    HW233348   1.610   1.775   0.971 -0.3106 -0.7305  1.4655
 7296SOL     OW33349   0.141   0.152   8.329 -0.3940  0.1998  0.5199
 7296SOL    HW133350   0.082   0.083   8.359 -0.9682  0.2504 -0.5112
 7296SOL    HW233351   0.204   0.103   8.276 -1.7559  0.5412 -1.4023
 7297SOL     OW33352   0.527   2.833   9.473 -0.2921 -0.3426  0.5332
 7297SOL    HW133353   0.440   2.870   9.493 -1.1141 -1.0498 -1.7232
 7297SOL    HW233354   0.503   2.748   9.435 -1.9714  0.4114 -0.1005
 7298SOL     OW33355   0.423   2.601   6.655 -0.5768 -0.1823 -0.4154
 7298SOL    HW133356   0.483   2.674   6.638  1.0173 -1.2518  0.6203
 7298SOL    HW233357   0.436   2.592   6.749  0.7409 -0.6946 -0.6364
 7299SOL     OW33358   2.312   2.398  10.144  0.3313 -0.3431  0.4412
 7299SOL    HW133359   2.325   2.481  10.099 -0.6831 -0.5588 -0.2555
 7299SOL    HW233360   2.218   2.395  10.161  0.3060  2.1798  0.7412
 7300SOL     OW33361   0.452   3.514  15.368  0.6436  0.2550 -0.6156
 7300SOL    HW133362   0.400   3.433  15.361 -1.6717  1.8674 -2.2336
 7300SOL    HW233363   0.492   3.508  15.455 -0.2417 -0.5998 -0.2620
 7301SOL     OW33364   1.170   3.661  14.108 -0.2040  0.0130 -0.2506
 7301SOL    HW133365   1.149   3.754  14.111 -1.5025 -0.3153  0.9003
 7301SOL    HW233366   1.263   3.661  14.084  0.3940  2.3764  2.0219
 7302SOL     OW33367   4.088   4.596   4.717  0.3372 -0.5873  0.0789
 7302SOL    HW133368   4.147   4.605   4.791  2.0477  1.2340 -1.5008
 7302SOL    HW233369   4.139   4.631   4.644  0.2738  1.7609  1.1544
 7303SOL     OW33370   2.418   2.533   1.711  0.0696  0.1554 -0.0422
 7303SOL    HW133371   2.373   2.616   1.696  0.7464  0.7755  1.3222
 7303SOL    HW233372   2.350   2.471   1.685  1.4834 -0.3987 -2.4146
 7304SOL     OW33373   4.301   3.410   8.744  0.5169  0.0525  0.3880
 7304SOL    HW133374   4.215   3.437   8.777  0.1386 -0.2504 -0.3403
 7304SOL    HW233375   4.359   3.476   8.781  0.2361  1.7699 -2.2216
 7305SOL     OW33376   2.753   0.345   4.091  0.5446  0.0424 -0.0465
 7305SOL    HW133377   2.758   0.402   4.015  0.9675 -0.3792 -0.3325
 7305SOL    HW233378   2.659   0.332   4.103  0.6647 -1.0266 -0.2372
 7306SOL     OW33379   4.597   4.624   1.809 -0.0694 -0.3919 -0.0612
 7306SOL    HW133380   4.504   4.645   1.820  0.5600  2.1498  0.2677
 7306SOL    HW233381   4.604   4.538   1.850 -0.8937  0.1262  1.1505
 7307SOL     OW33382   1.555   2.826   6.793 -0.3683 -0.6145 -0.7204
 7307SOL    HW133383   1.625   2.773   6.832 -0.4435 -0.6600 -0.6476
 7307SOL    HW233384   1.544   2.785   6.707  1.5304 -2.0432 -0.2866
 7308SOL     OW33385   2.725   3.010  16.853 -0.3955  0.4298  0.1043
 7308SOL    HW133386   2.631   3.025  16.841 -0.4657 -0.8616 -0.8323
 7308SOL    HW233387   2.746   3.070  16.925  0.5196  1.6663 -1.1891
 7309SOL     OW33388   3.912   3.128   4.937  0.2016  0.0008 -0.1103
 7309SOL    HW133389   3.983   3.098   4.993 -0.2393  2.6604  1.8528
 7309SOL    HW233390   3.876   3.201   4.987 -0.9902  0.0042 -0.9637
 7310SOL     OW33391   2.281   0.741   3.988 -0.4289  0.0899  0.2941
 7310SOL    HW133392   2.346   0.769   3.923 -1.7907  1.5680 -0.4322
 7310SOL    HW233393   2.295   0.809   4.054  2.5239  1.2048 -1.4415
 7311SOL     OW33394   1.079   1.793   7.572 -0.0666  0.1125 -0.0391
 7311SOL    HW133395   1.172   1.769   7.567  0.1364  1.0342 -0.7688
 7311SOL    HW233396   1.073   1.850   7.495 -3.9398 -0.4901 -0.1651
 7312SOL     OW33397   1.037   2.603   2.237 -0.3884  0.4053  0.3104
 7312SOL    HW133398   0.974   2.562   2.177 -0.4781  1.5829 -0.4144
 7312SOL    HW233399   1.000   2.575   2.321 -0.9450 -0.6099 -0.2613
 7313SOL     OW33400   3.266   0.506  17.417 -0.0350  0.3180  0.1360
 7313SOL    HW133401   3.252   0.416  17.389 -0.7675 -0.5454  3.3739
 7313SOL    HW233402   3.172   0.524  17.414 -0.2482 -0.7705  0.3807
 7314SOL     OW33403   2.494   0.487   4.646 -0.1732  0.4329 -0.2383
 7314SOL    HW133404   2.541   0.405   4.659  1.1551  1.1872 -0.2810
 7314SOL    HW233405   2.526   0.530   4.725 -0.3382  1.7903 -0.9203
 7315SOL     OW33406   1.255   1.394   6.640  0.1669  0.4661 -0.0053
 7315SOL    HW133407   1.203   1.409   6.561  0.1484 -2.2494 -0.4885
 7315SOL    HW233408   1.311   1.319   6.620 -0.5691  0.2763 -1.3561
 7316SOL     OW33409   1.982   0.060   3.367  0.3207  0.4356 -0.7065
 7316SOL    HW133410   1.980   4.688   3.373  0.1738  0.5746  1.5193
 7316SOL    HW233411   2.055   0.077   3.426 -0.6043  0.7387  0.3474
 7317SOL     OW33412   2.901   3.180  10.016  0.4068 -0.9134 -0.0900
 7317SOL    HW133413   2.937   3.239   9.950 -0.5975 -1.9193 -1.5350
 7317SOL    HW233414   2.961   3.106  10.006  0.1219 -1.4234  2.0029
 7318SOL     OW33415   4.630   3.210   8.257 -0.1318  0.2186 -0.4135
 7318SOL    HW133416   4.603   3.213   8.165  0.3004  3.9021 -0.4150
 7318SOL    HW233417   4.617   3.118   8.281  1.2972  0.0148 -0.4439
 7319SOL     OW33418   0.735   0.304   1.599  0.1379 -0.8814 -0.0985
 7319SOL    HW133419   0.664   0.343   1.651  1.2683 -0.4713  1.1442
 7319SOL    HW233420   0.754   0.376   1.539  1.8962 -0.6304  0.7559
 7320SOL     OW33421   1.921   3.710   0.131  0.3666  0.0774  0.2667
 7320SOL    HW133422   1.921   3.804   0.114 -1.2025 -0.1121 -0.7816
 7320SOL    HW233423   1.844   3.701   0.187 -1.5518  3.0095 -1.9269
 7321SOL     OW33424   3.979   3.405  12.167 -0.0202  0.1089  0.1978
 7321SOL    HW133425   3.890   3.423  12.136 -0.8340  1.2969  3.2850
 7321SOL    HW233426   3.998   3.491  12.205 -0.9174  0.9956 -1.3364
 7322SOL     OW33427   1.249   2.025   3.018 -0.1860  0.1261  0.0115
 7322SOL    HW133428   1.293   1.995   2.938 -0.9274 -1.6466  0.2619
 7322SOL    HW233429   1.316   2.089   3.042 -0.4063 -0.4796  2.2100
 7323SOL     OW33430   0.215   2.951   2.681  0.2387  0.4608  0.0746
 7323SOL    HW133431   0.164   3.030   2.695  1.0477  0.7306  1.5044
 7323SOL    HW233432   0.143   2.889   2.673  2.0231 -1.5229 -1.0109
 7324SOL     OW33433   1.885   1.435   9.616  0.0857 -0.4062 -0.3070
 7324SOL    HW133434   1.808   1.491   9.609 -0.6225 -1.2942  0.3609
 7324SOL    HW233435   1.829   1.357   9.608  0.1870 -0.3581 -1.4846
 7325SOL     OW33436   3.962   3.688   0.376  0.1536  0.2397 -0.0546
 7325SOL    HW133437   3.947   3.754   0.308  0.2328  0.4864  0.1664
 7325SOL    HW233438   3.954   3.614   0.316  0.6654 -0.1134  0.3121
 7326SOL     OW33439   3.053   4.716   4.913 -0.6385  0.9458  0.3428
 7326SOL    HW133440   2.958   4.706   4.917  0.0261 -5.1893  0.3970
 7326SOL    HW233441   3.047   0.085   4.890  1.0989  0.7901 -0.7612
 7327SOL     OW33442   3.775   3.320  11.297  0.1229  0.1738  0.3744
 7327SOL    HW133443   3.690   3.280  11.314  0.2206 -0.1026  0.2105
 7327SOL    HW233444   3.834   3.259  11.341  1.1076  1.5166  0.9144
 7328SOL     OW33445   1.003   2.306   8.826  0.3383  0.4511 -0.1463
 7328SOL    HW133446   0.979   2.350   8.908  2.6608 -0.2352  0.9043
 7328SOL    HW233447   0.925   2.317   8.772 -0.3163 -1.2736  0.4260
 7329SOL     OW33448   4.420   0.603   5.211  0.1764 -0.1195 -0.0853
 7329SOL    HW133449   4.417   0.514   5.244  1.2536  0.6525  2.0952
 7329SOL    HW233450   4.389   0.604   5.120 -0.2932  2.8509  0.0960
 7330SOL     OW33451   2.542   4.117   4.549 -0.1639 -0.7792  0.5120
 7330SOL    HW133452   2.474   4.052   4.570  0.0013  0.0589  3.7357
 7330SOL    HW233453   2.486   4.186   4.512 -0.0027 -0.5519  0.6882
 7331SOL     OW33454   1.451   4.457  16.946 -0.1737  0.1831  0.2012
 7331SOL    HW133455   1.460   4.395  17.018  1.6445 -0.9256 -0.9927
 7331SOL    HW233456   1.532   4.441  16.897 -0.3094 -2.5320  0.9037
 7332SOL     OW33457   4.498   3.391   4.864  0.3906 -0.3891 -0.2487
 7332SOL    HW133458   4.580   3.441   4.866  1.0163 -1.3274 -1.7668
 7332SOL    HW233459   4.463   3.422   4.780  1.7221  0.9695 -0.3115
 7333SOL     OW33460   0.375   2.302  15.265  0.2173 -0.1490  0.2467
 7333SOL    HW133461   0.423   2.224  15.240  0.1584  0.3851 -1.5519
 7333SOL    HW233462   0.290   2.272  15.234 -0.1407 -0.9061  1.9614
 7334SOL     OW33463   2.410   0.678   1.216  0.0479 -0.0288 -0.2928
 7334SOL    HW133464   2.361   0.641   1.289  2.0379 -0.2101  0.9463
 7334SOL    HW233465   2.495   0.643   1.240  0.0024 -0.6066 -0.9809
 7335SOL     OW33466   2.934   1.461  14.731 -0.2115  0.4003 -0.3501
 7335SOL    HW133467   2.880   1.471  14.809  0.3830  0.7757  0.0201
 7335SOL    HW233468   2.865   1.478  14.668  0.6108  2.4067 -0.6925
 7336SOL     OW33469   0.079   1.368   3.016  0.8155  0.3321 -0.4103
 7336SOL    HW133470   0.004   1.365   2.956 -1.3580 -0.8242  2.3326
 7336SOL    HW233471   0.129   1.292   2.984  0.1828 -0.2465 -0.0289
 7337SOL     OW33472   1.258   2.388   5.194  0.0569  0.2309 -0.0350
 7337SOL    HW133473   1.282   2.478   5.173 -1.3506  0.2827 -1.4175
 7337SOL    HW233474   1.179   2.411   5.243  0.5642  0.0915  0.8315
 7338SOL     OW33475   1.301   2.937  15.558  0.1290  0.0780  0.1255
 7338SOL    HW133476   1.378   2.984  15.526  0.9828 -1.6860 -0.4246
 7338SOL    HW233477   1.246   3.003  15.600  0.3615  0.3572 -0.0125
 7339SOL     OW33478   0.412   0.584   9.930 -0.2527  0.7921 -0.3952
 7339SOL    HW133479   0.378   0.495   9.923  0.1144  0.5170  1.4079
 7339SOL    HW233480   0.460   0.589   9.847  2.6526  1.6582  1.3099
 7340SOL     OW33481   1.346   1.131  13.195 -0.1861 -0.1465  0.0149
 7340SOL    HW133482   1.286   1.059  13.217 -0.1019 -0.1607  0.1935
 7340SOL    HW233483   1.311   1.182  13.268 -1.0721  0.4678 -0.8275
 7341SOL     OW33484   2.533   3.247  11.503  0.0569 -0.2338  0.2403
 7341SOL    HW133485   2.607   3.185  11.500 -1.5705 -2.0706 -1.8971
 7341SOL    HW233486   2.566   3.334  11.525 -0.3446 -0.5406  2.0493
 7342SOL     OW33487   3.833   3.415   4.726  0.1071  0.3392 -0.0255
 7342SOL    HW133488   3.867   3.497   4.689  0.5805  0.2711  0.2574
 7342SOL    HW233489   3.867   3.407   4.815  2.1934 -1.2709 -0.9912
 7343SOL     OW33490   0.224   0.094  12.643  0.0349  0.2329  0.1267
 7343SOL    HW133491   0.183   0.168  12.687  1.9587 -0.2593  2.7867
 7343SOL    HW233492   0.167   0.017  12.648  0.5199  0.0490  2.8243
 7344SOL     OW33493   2.162   1.799   1.620 -0.1803  0.0979 -0.0047
 7344SOL    HW133494   2.249   1.775   1.651  0.2181 -0.9886 -1.9372
 7344SOL    HW233495   2.111   1.731   1.664  2.7659 -2.2997 -0.3079
 7345SOL     OW33496   2.789   2.157   6.321 -0.3342 -0.2115 -0.0649
 7345SOL    HW133497   2.704   2.157   6.365 -0.1746  1.6858  0.2419
 7345SOL    HW233498   2.772   2.229   6.260 -1.0963 -0.7130 -0.4415
 7346SOL     OW33499   1.241   3.867   3.902  0.1712  0.5699  0.0841
 7346SOL    HW133500   1.169   3.919   3.868  1.0389  2.1690  0.7060
 7346SOL    HW233501   1.280   3.930   3.963 -1.3185  2.0070 -0.4595
 7347SOL     OW33502   1.296   2.500   9.093  0.4040 -0.2558 -0.2118
 7347SOL    HW133503   1.370   2.457   9.049  0.5199 -0.5517  0.2737
 7347SOL    HW233504   1.221   2.456   9.053  1.8712 -1.4309 -1.6798
 7348SOL     OW33505   2.185   2.038   8.470 -0.2138 -0.0031  0.2730
 7348SOL    HW133506   2.183   2.133   8.461 -0.8276  0.1254  1.8153
 7348SOL    HW233507   2.169   2.033   8.564 -3.5566 -0.2398 -0.3052
 7349SOL     OW33508   1.304   0.907   9.993 -0.4749  0.1710  0.5825
 7349SOL    HW133509   1.318   0.923  10.086  1.0930  0.1196  0.3614
 7349SOL    HW233510   1.224   0.854   9.993  0.1434 -0.8019  2.6373
 7350SOL     OW33511   4.605   0.739   6.752 -0.0415 -0.5310 -0.1421
 7350SOL    HW133512   4.602   0.747   6.656  1.7696 -1.4144 -0.2677
 7350SOL    HW233513   4.559   0.822   6.763 -0.9528 -1.2813  1.6982
 7351SOL     OW33514   0.514   0.287   4.915  0.1035  0.0719  0.6364
 7351SOL    HW133515   0.551   0.373   4.935  1.1643 -0.4288  0.8236
 7351SOL    HW233516   0.424   0.317   4.929  0.6487  2.0299 -0.0265
 7352SOL     OW33517   2.048   0.279   2.863  0.0374  0.7033 -0.4298
 7352SOL    HW133518   2.068   0.226   2.940  0.2684  2.4056  0.6746
 7352SOL    HW233519   1.972   0.233   2.828 -0.9264  1.1900  1.0189
 7353SOL     OW33520   1.052   3.028   6.700 -0.2060  0.3866 -0.5863
 7353SOL    HW133521   0.976   3.005   6.755 -0.0536 -2.0091 -1.3910
 7353SOL    HW233522   1.082   2.941   6.675  0.1890  0.0510  1.0531
 7354SOL     OW33523   3.587   0.735   9.256 -0.0860  0.4643  0.9090
 7354SOL    HW133524   3.637   0.796   9.312 -0.2574  0.7002  0.8028
 7354SOL    HW233525   3.642   0.726   9.178 -1.0672  0.2042  0.2576
 7355SOL     OW33526   2.250   1.822  13.577 -0.3060 -0.6448  0.1328
 7355SOL    HW133527   2.265   1.757  13.646  1.5482 -0.4417 -0.0731
 7355SOL    HW233528   2.277   1.777  13.496 -0.1031  0.5733 -0.4726
 7356SOL     OW33529   3.230   1.406   7.689  0.6421 -0.0305 -0.1108
 7356SOL    HW133530   3.267   1.385   7.603 -1.0672 -0.8186 -0.6570
 7356SOL    HW233531   3.162   1.467   7.660 -0.2834 -0.6224  0.8128
 7357SOL     OW33532   1.897   3.646   8.243  0.3872 -0.3269  0.0057
 7357SOL    HW133533   1.906   3.707   8.316  1.9307  0.4051 -0.7991
 7357SOL    HW233534   1.870   3.569   8.293 -1.7855 -1.1058 -2.3558
 7358SOL     OW33535   0.340   0.460   5.485 -0.4920 -0.6291 -0.2028
 7358SOL    HW133536   0.268   0.398   5.497 -0.2190 -0.8534  0.2899
 7358SOL    HW233537   0.359   0.481   5.576 -2.3710  1.9189 -0.4146
 7359SOL     OW33538   2.914   1.555   7.026  0.0693 -0.3967  0.2982
 7359SOL    HW133539   3.000   1.596   7.016 -0.4377  1.1378  2.4033
 7359SOL    HW233540   2.908   1.537   7.120  0.0017 -2.0249 -0.0124
 7360SOL     OW33541   2.169   1.633   7.240 -0.2973  0.6559 -0.2814
 7360SOL    HW133542   2.256   1.599   7.220  0.0378  0.4449  1.5984
 7360SOL    HW233543   2.117   1.554   7.253 -1.0044  1.2012  0.1949
 7361SOL     OW33544   3.045   2.303   3.062  0.0491  0.5587 -0.0912
 7361SOL    HW133545   3.048   2.272   2.971 -2.7277  0.6104 -0.2210
 7361SOL    HW233546   3.099   2.236   3.104 -0.4547  1.2163  1.6136
 7362SOL     OW33547   2.887   2.503  12.356 -0.7656 -0.1051 -0.3791
 7362SOL    HW133548   2.980   2.504  12.376 -0.5393  0.5140 -1.4521
 7362SOL    HW233549   2.865   2.565  12.425 -1.7524 -1.8338  0.8614
 7363SOL     OW33550   2.602   2.902   8.584  0.1468  0.3010  0.0268
 7363SOL    HW133551   2.522   2.927   8.539  0.6207 -1.1200 -1.6016
 7363SOL    HW233552   2.643   2.985   8.559  0.5796  0.4637  1.2785
 7364SOL     OW33553   1.961   3.810   9.200  0.0217 -0.0364 -0.8803
 7364SOL    HW133554   2.051   3.787   9.176  0.1363 -0.2804 -0.1971
 7364SOL    HW233555   1.928   3.857   9.123 -0.6490 -1.8329 -1.6943
 7365SOL     OW33556   1.113   3.816   3.597 -0.2291 -0.6793  0.3188
 7365SOL    HW133557   1.067   3.836   3.516  0.7673 -0.3596 -0.1722
 7365SOL    HW233558   1.049   3.832   3.666 -0.6953  0.7248 -0.4487
 7366SOL     OW33559   1.088   0.322  12.088 -0.0780  0.2152 -0.1474
 7366SOL    HW133560   1.163   0.373  12.118 -1.0780  0.8120  1.2856
 7366SOL    HW233561   1.139   0.270  12.025 -2.8107 -1.7403 -0.7571
 7367SOL     OW33562   0.699   2.736  14.721  0.1837  0.4570  0.0807
 7367SOL    HW133563   0.778   2.786  14.740  0.3814  0.2788 -0.2647
 7367SOL    HW233564   0.700   2.747  14.625 -0.7478 -0.5917 -0.0569
 7368SOL     OW33565   4.080   2.890  12.789 -0.3704 -0.5019 -0.5224
 7368SOL    HW133566   4.135   2.932  12.856  0.0060  0.8314 -1.6825
 7368SOL    HW233567   4.054   2.811  12.837 -2.2991  0.7457  0.4915
 7369SOL     OW33568   2.823   0.260   7.827 -0.6460 -0.2928  0.1064
 7369SOL    HW133569   2.745   0.313   7.838  0.5487  1.7059 -0.9132
 7369SOL    HW233570   2.777   0.178   7.812 -3.2306  0.9236  1.3764
 7370SOL     OW33571   4.259   3.967   7.688  0.0131  0.5359 -0.3441
 7370SOL    HW133572   4.243   4.052   7.730  0.5354  0.1462  0.6255
 7370SOL    HW233573   4.319   3.998   7.620  1.6577  0.1508  0.9412
 7371SOL     OW33574   1.561   3.682   5.994  0.0037 -0.5641  0.3797
 7371SOL    HW133575   1.488   3.702   6.053  1.3151  1.2171  1.3809
 7371SOL    HW233576   1.513   3.674   5.911 -0.1402  2.6643  0.1403
 7372SOL     OW33577   3.169   3.649  10.536  0.1716 -0.0580  0.2342
 7372SOL    HW133578   3.251   3.698  10.539 -0.1498  0.5015 -0.0042
 7372SOL    HW233579   3.208   3.570  10.499  0.5066  0.8359 -1.3258
 7373SOL     OW33580   4.350   1.128   4.356 -0.5279  0.1272 -0.1318
 7373SOL    HW133581   4.355   1.124   4.452  4.6014  0.9781 -0.3834
 7373SOL    HW233582   4.433   1.175   4.344 -0.1350 -0.4176  0.4193
 7374SOL     OW33583   2.093   4.510   5.404 -0.2793 -0.9588 -0.6904
 7374SOL    HW133584   2.143   4.542   5.329 -0.5351  0.3047 -0.3220
 7374SOL    HW233585   2.004   4.531   5.376  0.3998  1.1946 -1.2262
 7375SOL     OW33586   0.900   2.331  11.962  0.0650  0.1704 -0.7271
 7375SOL    HW133587   0.991   2.339  11.931  0.4785 -2.4681 -0.2467
 7375SOL    HW233588   0.899   2.418  12.001  0.5195  0.3927 -1.2216
 7376SOL     OW33589   3.439   0.962   2.294  0.0837 -0.1443 -0.4650
 7376SOL    HW133590   3.508   1.016   2.257 -0.2378  0.8416  0.3435
 7376SOL    HW233591   3.472   0.872   2.298  0.6615  0.1297  1.1180
 7377SOL     OW33592   0.260   2.693  14.968 -0.1346  0.8944  0.3343
 7377SOL    HW133593   0.252   2.607  14.926 -1.0857  1.4302 -0.5813
 7377SOL    HW233594   0.291   2.670  15.056  0.1549  1.0496  0.2738
 7378SOL     OW33595   3.176   0.071   3.017  0.2423  0.4900 -0.1318
 7378SOL    HW133596   3.153   0.010   3.087  2.2587 -0.0196  0.0928
 7378SOL    HW233597   3.157   0.013   2.944  0.9844 -0.5125  0.4674
 7379SOL     OW33598   0.624   0.887  10.067  0.2801  0.0037  0.1176
 7379SOL    HW133599   0.687   0.940  10.116 -0.7966  1.2250  0.1873
 7379SOL    HW233600   0.611   0.813  10.126 -1.2225 -0.5576 -0.9248
 7380SOL     OW33601   4.185   1.381   6.803  0.2948 -0.2748 -0.3238
 7380SOL    HW133602   4.203   1.474   6.816  0.3135 -0.2484 -0.5358
 7380SOL    HW233603   4.207   1.355   6.893 -0.4727  0.6198  0.1258
 7381SOL     OW33604   3.437   2.849   4.576 -0.3515  0.8410 -0.2205
 7381SOL    HW133605   3.375   2.785   4.612  0.5383  0.8519  1.3300
 7381SOL    HW233606   3.521   2.814   4.608 -1.1822 -1.1125 -0.1531
 7382SOL     OW33607   3.909   3.935   7.106  0.4346 -0.2080  0.2834
 7382SOL    HW133608   4.002   3.956   7.108  1.8761 -6.4881 -1.3209
 7382SOL    HW233609   3.910   3.902   7.016  1.0596  0.7217 -0.0557
 7383SOL     OW33610   0.081   3.386  11.045  0.2405 -0.0371  0.1741
 7383SOL    HW133611   0.126   3.421  10.968  2.1667  1.8628  2.1276
 7383SOL    HW233612   4.719   3.410  11.009  1.1087  1.3713 -1.0010
 7384SOL     OW33613   0.415   1.097   2.433  0.5393 -0.0589  0.2447
 7384SOL    HW133614   0.366   1.062   2.359  1.2785  0.5606 -0.5340
 7384SOL    HW233615   0.499   1.122   2.394 -0.7154  0.7271 -1.9384
 7385SOL     OW33616   0.134   1.982   3.626 -0.1029  0.2301 -0.7234
 7385SOL    HW133617   0.162   1.912   3.684 -0.7220  0.9339  0.4241
 7385SOL    HW233618   0.199   1.986   3.556 -0.0560  0.0680 -0.6886
 7386SOL     OW33619   2.378   0.917   8.042  0.1194 -0.8504 -0.7466
 7386SOL    HW133620   2.347   0.938   7.954 -1.0902  1.7862  0.3066
 7386SOL    HW233621   2.320   0.983   8.082  3.3986  2.1794 -1.0222
 7387SOL     OW33622   1.821   4.496  14.448  0.6453 -0.2976  0.3414
 7387SOL    HW133623   1.789   4.466  14.533  1.7206 -1.1634  0.4451
 7387SOL    HW233624   1.776   4.580  14.443 -0.6620 -1.0714 -0.6510
 7388SOL     OW33625   2.941   1.076  13.905 -1.2981  0.0676  0.1405
 7388SOL    HW133626   2.983   1.146  13.956 -2.1250  0.2649  0.5535
 7388SOL    HW233627   2.947   1.116  13.819  0.5798 -0.1444  0.1736
 7389SOL     OW33628   0.642   1.722   4.291  0.1027 -0.2149 -0.2589
 7389SOL    HW133629   0.706   1.658   4.321 -0.5238  0.8981  3.4915
 7389SOL    HW233630   0.655   1.721   4.197  1.3902 -0.3944 -0.0721
 7390SOL     OW33631   2.172   2.334   8.481 -0.1138 -0.0296  0.3903
 7390SOL    HW133632   2.141   2.358   8.568  0.4557  1.4994  0.1824
 7390SOL    HW233633   2.266   2.348   8.491 -0.5272 -0.1230  4.1708
 7391SOL     OW33634   4.720   2.845  11.376 -0.2875 -0.5928 -0.0047
 7391SOL    HW133635   4.719   2.766  11.321 -0.1736  0.0667 -0.9534
 7391SOL    HW233636   4.634   2.884  11.363 -0.1660  0.5399  2.6498
 7392SOL     OW33637   0.575   0.444  12.791  0.2691 -0.1815 -0.5751
 7392SOL    HW133638   0.645   0.508  12.803  1.9185 -1.7403 -1.9844
 7392SOL    HW233639   0.574   0.435  12.696 -1.4475  0.7076 -0.6461
 7393SOL     OW33640   3.549   1.839   6.484 -0.2414 -0.2913  0.0830
 7393SOL    HW133641   3.520   1.873   6.569 -1.2962  1.8576 -1.1509
 7393SOL    HW233642   3.545   1.916   6.428 -1.4692 -0.1722  0.3520
 7394SOL     OW33643   3.433   2.770   8.108  0.3666  0.4780 -0.1327
 7394SOL    HW133644   3.497   2.834   8.078  1.7306  0.2593  2.3112
 7394SOL    HW233645   3.452   2.753   8.201  0.6092  2.6505  0.1993
 7395SOL     OW33646   0.075   2.944  14.315 -0.6557  0.3181  0.4917
 7395SOL    HW133647   0.080   3.014  14.250 -0.2301  1.5029  1.7748
 7395SOL    HW233648   0.058   2.870  14.257 -1.4034  1.4749 -0.7446
 7396SOL     OW33649   4.183   1.706   0.568  0.1145  0.3545 -0.4725
 7396SOL    HW133650   4.154   1.710   0.659  0.1693 -1.7811 -0.3626
 7396SOL    HW233651   4.169   1.613   0.550  1.7250  0.2707 -1.2730
 7397SOL     OW33652   3.418   1.734  10.393 -0.0120  0.3932 -0.8058
 7397SOL    HW133653   3.392   1.680  10.318  1.1778  0.6143 -1.3852
 7397SOL    HW233654   3.341   1.722  10.448 -1.4802  2.4908 -2.4116
 7398SOL     OW33655   1.527   3.499   7.832  0.5758 -0.1901 -0.4216
 7398SOL    HW133656   1.447   3.551   7.832 -0.5079 -1.8584  1.7193
 7398SOL    HW233657   1.586   3.566   7.800  1.3976 -0.4487  0.5571
 7399SOL     OW33658   0.782   1.354   2.910 -0.0657  0.0506  0.3472
 7399SOL    HW133659   0.868   1.394   2.897 -0.5011  0.6543 -0.5952
 7399SOL    HW233660   0.722   1.414   2.866 -0.7698  0.4614  1.8749
 7400SOL     OW33661   1.123   3.603   0.254  0.0927  0.1583  0.3095
 7400SOL    HW133662   1.147   3.599   0.346  0.6711 -1.9467  0.0735
 7400SOL    HW233663   1.032   3.576   0.267  0.4811 -1.0002  0.6367
 7401SOL     OW33664   4.047   2.041   2.327  0.3621  0.0649 -0.2004
 7401SOL    HW133665   4.019   2.066   2.239  1.1883  1.8236  0.0294
 7401SOL    HW233666   4.003   2.096   2.392  1.8862  1.5896 -0.4654
 7402SOL     OW33667   2.792   1.443  10.929  1.0410  0.2026  0.0718
 7402SOL    HW133668   2.792   1.440  11.025 -0.6864  2.1246  0.1347
 7402SOL    HW233669   2.699   1.428  10.911  1.1626 -0.9502  0.4150
 7403SOL     OW33670   1.582   1.599   4.887  0.0992  0.0696 -0.2856
 7403SOL    HW133671   1.497   1.563   4.861 -0.2168  0.8659 -0.3631
 7403SOL    HW233672   1.548   1.675   4.934  1.5473 -0.6190  1.8688
 7404SOL     OW33673   2.768   0.268   5.886  0.1078 -0.2303  0.1576
 7404SOL    HW133674   2.804   0.181   5.867 -0.5809 -0.8411  1.6533
 7404SOL    HW233675   2.728   0.251   5.971 -3.3339  2.3060 -0.9445
 7405SOL     OW33676   2.149   3.929  15.318 -0.0865 -0.6769  0.2558
 7405SOL    HW133677   2.078   3.886  15.364 -0.2376  0.6960  1.3192
 7405SOL    HW233678   2.099   3.944  15.238  2.2217  0.2636 -1.0164
 7406SOL     OW33679   2.654   1.550   1.575 -0.5192  0.0001  0.5901
 7406SOL    HW133680   2.663   1.493   1.499  0.9223  0.9775  0.0058
 7406SOL    HW233681   2.744   1.551   1.609 -0.5998  1.7205  0.7711
 7407SOL     OW33682   0.899   2.669  10.585 -0.7136 -0.3140 -0.1281
 7407SOL    HW133683   0.990   2.686  10.606 -1.1107 -0.1643  1.4732
 7407SOL    HW233684   0.849   2.694  10.663 -0.1055 -0.1018  0.1937
 7408SOL     OW33685   1.795   1.792   8.660 -0.3003  0.5146 -0.1688
 7408SOL    HW133686   1.715   1.745   8.685  0.4315 -1.2562 -1.1559
 7408SOL    HW233687   1.773   1.816   8.569  0.8035 -0.8747 -0.7976
 7409SOL     OW33688   1.804   4.181   4.047 -0.3401  0.5066 -0.1059
 7409SOL    HW133689   1.792   4.119   3.974 -1.7461  3.2379 -2.1990
 7409SOL    HW233690   1.793   4.111   4.111 -1.1878  1.4123  0.7358
 7410SOL     OW33691   2.562   2.325   4.011 -0.1452  0.0825  0.6400
 7410SOL    HW133692   2.535   2.244   4.054 -0.2443 -0.8437 -1.2106
 7410SOL    HW233693   2.631   2.355   4.070 -0.5399  1.8316  0.2391
 7411SOL     OW33694   0.950   3.418  15.682  0.2050  0.5995  0.3009
 7411SOL    HW133695   0.892   3.486  15.646  1.0052  1.2028  0.1511
 7411SOL    HW233696   0.888   3.345  15.677  1.1132 -0.0799 -1.0093
 7412SOL     OW33697   4.199   0.348   0.790  0.2989  0.7382  0.2182
 7412SOL    HW133698   4.115   0.368   0.831 -2.1483 -5.6590 -1.6421
 7412SOL    HW233699   4.251   0.341   0.870  0.3325 -1.1808  0.0280
 7413SOL     OW33700   2.874   1.182   5.292  0.1224 -0.0126 -0.2796
 7413SOL    HW133701   2.946   1.119   5.300 -0.4237 -1.0372 -3.3588
 7413SOL    HW233702   2.801   1.128   5.322  0.5389 -0.2211  0.3578
 7414SOL     OW33703   4.593   3.590   6.504  0.0053  0.8288  0.0527
 7414SOL    HW133704   4.653   3.660   6.479  3.5309 -1.5493  1.8025
 7414SOL    HW233705   4.541   3.591   6.424 -1.5311 -0.5891  1.0430
 7415SOL     OW33706   2.524   0.988   8.364  0.1885 -0.4808 -0.6680
 7415SOL    HW133707   2.591   0.963   8.428 -1.3692 -1.7475  0.4380
 7415SOL    HW233708   2.474   1.053   8.412 -0.2066 -1.6054  0.4185
 7416SOL     OW33709   1.232   2.295   6.454  0.0320 -0.3930  0.1426
 7416SOL    HW133710   1.168   2.338   6.396  0.4955  1.0397  0.6965
 7416SOL    HW233711   1.199   2.205   6.462  0.0158 -0.1371  2.9377
 7417SOL     OW33712   1.213   3.403  17.373  0.3845  0.1214 -0.0648
 7417SOL    HW133713   1.297   3.423  17.413 -0.1867  1.4828  0.4692
 7417SOL    HW233714   1.163   3.479  17.403  0.6747  0.1129  0.4517
 7418SOL     OW33715   1.362   2.752   7.367 -0.7334  0.2653 -0.4679
 7418SOL    HW133716   1.351   2.760   7.461 -2.8151  0.4976 -0.7413
 7418SOL    HW233717   1.425   2.824   7.355  0.8635 -0.9363  0.6273
 7419SOL     OW33718   2.502   0.707  14.180  0.2974  0.4622  0.3868
 7419SOL    HW133719   2.518   0.770  14.250  0.4772  1.4334 -0.5207
 7419SOL    HW233720   2.504   0.754  14.097  0.5506 -0.1890  0.0272
 7420SOL     OW33721   2.646   0.216  14.840  0.3476  0.4313  0.4941
 7420SOL    HW133722   2.590   0.273  14.891  1.8777  2.2031  0.2018
 7420SOL    HW233723   2.628   0.128  14.871 -0.2594  0.0571 -0.9212
 7421SOL     OW33724   4.611   1.401   1.495 -0.3036  0.2914 -0.0960
 7421SOL    HW133725   4.649   1.486   1.475 -0.2105 -0.0009 -1.1165
 7421SOL    HW233726   4.596   1.404   1.590 -2.6616 -0.7621 -0.4364
 7422SOL     OW33727   1.697   2.030   8.230  0.1524  0.2194  0.3275
 7422SOL    HW133728   1.788   2.002   8.236 -0.2851 -1.6823 -2.0230
 7422SOL    HW233729   1.693   2.095   8.300 -0.3407 -0.6966  1.1476
 7423SOL     OW33730   0.232   1.880   1.019  0.3981 -0.0168  0.5218
 7423SOL    HW133731   0.285   1.866   0.941 -0.5083  0.2477 -0.1414
 7423SOL    HW233732   0.187   1.795   1.026  0.6269 -0.2344 -0.7261
 7424SOL     OW33733   0.202   1.803   8.767  0.1979 -0.1220 -0.3331
 7424SOL    HW133734   0.211   1.785   8.674  0.7239  3.2594 -0.9103
 7424SOL    HW233735   0.106   1.801   8.769  0.2198 -1.5971 -0.8046
 7425SOL     OW33736   3.981   2.400  16.668  0.5372 -0.3672  0.2785
 7425SOL    HW133737   3.925   2.476  16.651  0.6079 -0.2811  0.4302
 7425SOL    HW233738   4.069   2.438  16.670  1.1592 -1.8262  0.8285
 7426SOL     OW33739   3.534   2.127   1.415 -0.2989  0.0535 -0.2053
 7426SOL    HW133740   3.568   2.185   1.347 -0.1380 -0.7267 -0.8018
 7426SOL    HW233741   3.466   2.087   1.361 -0.6301  0.6362 -0.2150
 7427SOL     OW33742   4.189   1.720  12.840 -0.1726  0.0242  0.2970
 7427SOL    HW133743   4.271   1.765  12.860 -0.5848  0.4578  0.9939
 7427SOL    HW233744   4.128   1.761  12.901 -1.2100 -0.3372 -0.5115
 7428SOL     OW33745   3.616   0.216   6.659  0.0994 -0.1714 -0.2303
 7428SOL    HW133746   3.703   0.246   6.633  1.2107 -2.1651  1.2525
 7428SOL    HW233747   3.557   0.231   6.584  0.4326 -0.2002 -0.4956
 7429SOL     OW33748   3.431   1.418   6.807  0.3106 -0.1876 -0.1522
 7429SOL    HW133749   3.525   1.402   6.807  0.1680 -1.0070  0.7516
 7429SOL    HW233750   3.401   1.357   6.875 -0.9603 -0.6113 -1.0842
 7430SOL     OW33751   3.867   0.952   5.879 -0.0591  0.7426  0.2158
 7430SOL    HW133752   3.917   0.871   5.871  0.2238  0.8610  0.8571
 7430SOL    HW233753   3.936   1.018   5.867  0.9711  0.0270  2.3197
 7431SOL     OW33754   1.202   0.312   9.595  0.5034  0.3937 -0.0822
 7431SOL    HW133755   1.163   0.264   9.522  0.3082  1.9896 -1.0308
 7431SOL    HW233756   1.259   0.369   9.544  1.5742 -0.6785 -0.0752
 7432SOL     OW33757   4.194   4.377   4.926  0.0855 -0.2204 -0.0221
 7432SOL    HW133758   4.282   4.341   4.910  0.5441  1.5698 -1.5093
 7432SOL    HW233759   4.153   4.346   4.845  0.7756 -2.5773  0.5038
 7433SOL     OW33760   2.913   0.834  14.909  0.3360  0.6084 -0.6922
 7433SOL    HW133761   2.861   0.906  14.945 -0.2648 -0.8732  1.4161
 7433SOL    HW233762   2.911   0.859  14.817  1.1759  2.4209 -0.2054
 7434SOL     OW33763   0.108   0.896   1.556 -0.0844  0.6212 -0.5598
 7434SOL    HW133764   0.163   0.922   1.482  0.4441 -1.7173 -0.9888
 7434SOL    HW233765   0.131   0.970   1.612  1.0209 -0.9874  1.0899
 7435SOL     OW33766   4.473   1.411   8.651 -0.2114 -0.2446  0.5126
 7435SOL    HW133767   4.480   1.318   8.629  1.4272 -0.3601  1.5265
 7435SOL    HW233768   4.536   1.430   8.720  0.4542 -1.3327  0.2109
 7436SOL     OW33769   0.381   2.839   2.247  0.3465 -0.4911  0.5278
 7436SOL    HW133770   0.469   2.845   2.285 -0.1043 -0.4018  1.5560
 7436SOL    HW233771   0.399   2.813   2.157 -1.2040  3.1893 -0.8454
 7437SOL     OW33772   2.392   1.054  16.445  0.2849 -0.3540 -0.8325
 7437SOL    HW133773   2.430   1.083  16.528  0.1603  0.1294 -0.9447
 7437SOL    HW233774   2.452   0.984  16.420  1.6272  0.6753 -0.4960
 7438SOL     OW33775   4.125   4.092   1.617  1.0880 -0.2547 -0.4351
 7438SOL    HW133776   4.173   4.080   1.535  1.8086 -0.8996  0.0723
 7438SOL    HW233777   4.161   4.174   1.650  1.8960 -0.3280 -1.1383
 7439SOL     OW33778   2.148   2.161   2.879 -0.0902 -0.3161 -0.3978
 7439SOL    HW133779   2.091   2.199   2.812  2.2476  0.0826 -2.1669
 7439SOL    HW233780   2.231   2.163   2.832 -1.7433 -3.5296 -3.3682
 7440SOL     OW33781   2.718   4.400   5.387  0.5305  0.1486  0.3843
 7440SOL    HW133782   2.663   4.453   5.329 -1.6851 -0.2773  2.1031
 7440SOL    HW233783   2.700   4.442   5.471 -1.3307  1.3066 -0.5973
 7441SOL     OW33784   0.192   0.981   1.272 -0.0409 -1.1015 -0.4927
 7441SOL    HW133785   0.246   1.060   1.264 -0.5232 -0.6894  0.2906
 7441SOL    HW233786   0.106   1.021   1.285  0.8629  0.3811  0.9975
 7442SOL     OW33787   1.089   1.481  10.582 -0.5011 -0.0031 -0.6699
 7442SOL    HW133788   1.088   1.518  10.493 -1.9341  1.4281 -0.0570
 7442SOL    HW233789   0.995   1.469  10.591 -0.3796  0.1645  0.7710
 7443SOL     OW33790   2.425   1.502  16.773 -0.1297 -0.0866 -0.4481
 7443SOL    HW133791   2.448   1.422  16.820 -0.8766  0.3508  0.6784
 7443SOL    HW233792   2.339   1.514  16.812 -0.8423 -0.6906 -1.8142
 7444SOL     OW33793   3.081   1.516   2.391  0.1991 -0.1821 -0.2938
 7444SOL    HW133794   3.171   1.519   2.423 -0.8689 -0.8230  2.7860
 7444SOL    HW233795   3.041   1.457   2.455 -2.2990 -1.0086 -2.5912
 7445SOL     OW33796   4.204   0.472  10.782 -0.0629  0.0066  0.2756
 7445SOL    HW133797   4.156   0.397  10.818 -0.1656  0.5494  1.2542
 7445SOL    HW233798   4.198   0.456  10.688 -2.9965  2.5056  0.0478
 7446SOL     OW33799   0.916   3.841   6.028 -0.1613  0.0797 -0.2768
 7446SOL    HW133800   0.859   3.916   6.045  0.7638  0.8737 -0.6712
 7446SOL    HW233801   0.966   3.881   5.958  0.3778  3.4169  2.0023
 7447SOL     OW33802   2.155   2.861   2.570 -0.1076 -0.5768  0.2052
 7447SOL    HW133803   2.102   2.932   2.533  0.1537  0.0012  0.9291
 7447SOL    HW233804   2.216   2.843   2.499 -0.5850 -1.0466 -0.0801
 7448SOL     OW33805   2.250   3.662   8.433  0.0865 -0.2849  0.0633
 7448SOL    HW133806   2.320   3.702   8.486 -1.3504  0.5408  1.3305
 7448SOL    HW233807   2.185   3.647   8.502 -1.1987 -1.0679 -1.3168
 7449SOL     OW33808   4.376   1.374   8.055 -0.1161 -0.2686  0.1845
 7449SOL    HW133809   4.363   1.418   7.970  0.8072  0.2050  0.2878
 7449SOL    HW233810   4.321   1.432   8.107 -0.6923  0.1310 -0.8594
 7450SOL     OW33811   1.726   2.071   9.064  0.8296  0.2601 -0.0581
 7450SOL    HW133812   1.809   2.055   9.019  1.4881  0.2920  1.1633
 7450SOL    HW233813   1.667   2.051   8.990  0.3094  1.7017 -0.0362
 7451SOL     OW33814   3.921   0.969  10.273  0.3914  0.2601  0.7253
 7451SOL    HW133815   3.959   0.986  10.187 -3.5693 -0.4945 -1.1756
 7451SOL    HW233816   3.949   0.877  10.281  1.5241  0.5756  0.3416
 7452SOL     OW33817   2.540   0.443   2.568  0.2234  0.1133  0.3332
 7452SOL    HW133818   2.518   0.430   2.476  1.2519  1.2055 -0.0727
 7452SOL    HW233819   2.512   0.532   2.589 -0.5020 -0.0060 -0.1219
 7453SOL     OW33820   2.477   4.182   5.788  0.3317  0.1341  0.1238
 7453SOL    HW133821   2.437   4.253   5.838 -1.8910 -0.0752 -1.3920
 7453SOL    HW233822   2.397   4.134   5.768  1.2986 -1.3550 -0.1495
 7454SOL     OW33823   4.526   3.800   9.332  0.6141  0.3339 -0.7692
 7454SOL    HW133824   4.595   3.793   9.265  3.1368 -0.2573  1.8703
 7454SOL    HW233825   4.563   3.761   9.411  1.9227  0.2799 -1.3977
 7455SOL     OW33826   3.178   0.002  17.338 -0.0688  0.1958 -0.6440
 7455SOL    HW133827   3.163   0.059  17.414 -0.0191  1.1626 -1.3538
 7455SOL    HW233828   3.257   4.675  17.356  0.0323  0.5836 -0.0243
 7456SOL     OW33829   4.047   2.892   5.162 -0.6535  0.4240 -0.7163
 7456SOL    HW133830   4.052   2.933   5.248  0.8726  1.3745 -1.2546
 7456SOL    HW233831   4.106   2.953   5.119  0.1404  0.0250 -0.1819
 7457SOL     OW33832   4.575   0.262   5.555 -0.0885 -0.2680  0.0336
 7457SOL    HW133833   4.573   0.169   5.578 -1.2419 -0.4115 -0.6268
 7457SOL    HW233834   4.482   0.277   5.574 -0.0305 -0.0788  0.1664
 7458SOL     OW33835   1.693   1.137  15.150 -0.0047  0.6981  0.7944
 7458SOL    HW133836   1.765   1.200  15.139 -0.1201  0.4051 -1.6397
 7458SOL    HW233837   1.702   1.096  15.064 -2.0788 -0.1731  1.0137
 7459SOL     OW33838   3.021   2.851   7.082  0.0010  0.0231  0.1721
 7459SOL    HW133839   3.102   2.800   7.071  1.9317  2.8924  1.1090
 7459SOL    HW233840   3.016   2.887   6.994 -0.8350  1.7481  0.9385
 7460SOL     OW33841   3.306   3.155  11.881 -0.3571 -0.5691 -0.5453
 7460SOL    HW133842   3.312   3.086  11.815  0.9939 -2.4227  1.5193
 7460SOL    HW233843   3.272   3.108  11.957 -1.3529  1.2101  0.0927
 7461SOL     OW33844   4.358   2.831  14.763  0.1064  0.0307  0.1660
 7461SOL    HW133845   4.387   2.907  14.712 -2.0121 -0.9056 -2.4063
 7461SOL    HW233846   4.289   2.803  14.704 -0.0034 -0.2424  0.4195
 7462SOL     OW33847   4.449   3.061  14.617  0.1157 -0.3910  0.5024
 7462SOL    HW133848   4.477   3.134  14.561 -0.1180 -1.3661 -0.8912
 7462SOL    HW233849   4.508   2.994  14.583  0.0896 -0.2528  0.1843
 7463SOL     OW33850   0.151   3.646  16.418 -0.6129 -0.1890 -0.0620
 7463SOL    HW133851   0.107   3.562  16.404  0.9002 -0.9394 -0.4199
 7463SOL    HW233852   0.075   3.699  16.396  0.2814  0.0730 -2.5723
 7464SOL     OW33853   3.246   4.126   1.213 -0.3508  0.4569 -0.4354
 7464SOL    HW133854   3.179   4.192   1.232 -1.4099 -0.4281 -1.1203
 7464SOL    HW233855   3.203   4.060   1.266  0.2736  2.0321  2.0183
 7465SOL     OW33856   3.864   3.227  12.342 -0.2735 -0.7850 -0.0151
 7465SOL    HW133857   3.899   3.276  12.268 -3.6273 -0.5248 -1.4355
 7465SOL    HW233858   3.893   3.287  12.410 -0.5325  1.1220 -1.6121
 7466SOL     OW33859   2.619   3.237   9.804 -0.1578 -0.3086 -0.2629
 7466SOL    HW133860   2.615   3.331   9.788 -1.2826 -0.6300 -1.8716
 7466SOL    HW233861   2.681   3.207   9.737  0.6036  0.9445 -0.0973
 7467SOL     OW33862   2.292   1.385  16.041 -0.8724  0.1780  0.1972
 7467SOL    HW133863   2.284   1.469  16.086 -2.1040  0.2323 -0.1183
 7467SOL    HW233864   2.326   1.334  16.115  2.0487 -1.2097 -2.1127
 7468SOL     OW33865   1.456   3.133   6.517  0.9492 -0.2901  0.3929
 7468SOL    HW133866   1.475   3.094   6.432 -0.1502  0.4893 -0.2040
 7468SOL    HW233867   1.362   3.145   6.508  1.7738  5.3934 -0.7728
 7469SOL     OW33868   3.818   2.250   2.825 -0.6147 -0.1663  0.2794
 7469SOL    HW133869   3.825   2.345   2.829  0.1402 -0.2617  1.1386
 7469SOL    HW233870   3.827   2.232   2.918  0.3230  1.0751  0.4264
 7470SOL     OW33871   3.833   0.633   4.213 -0.2668 -0.1418  0.1686
 7470SOL    HW133872   3.795   0.573   4.149  0.8725  1.3130 -1.8794
 7470SOL    HW233873   3.883   0.576   4.271  0.0801  0.1954  0.2021
 7471SOL     OW33874   1.836   4.054   1.169 -0.3959  0.3515  0.5622
 7471SOL    HW133875   1.843   4.033   1.262 -1.2432  0.6570  0.6974
 7471SOL    HW233876   1.741   4.057   1.156 -0.2185 -1.0234 -1.1481
 7472SOL     OW33877   2.111   4.651   5.814 -0.1415  0.1023 -0.6552
 7472SOL    HW133878   2.098   4.596   5.891  0.1801 -0.5873 -1.0952
 7472SOL    HW233879   2.091   0.011   5.857 -2.8833 -0.9080  0.0710
 7473SOL     OW33880   1.709   4.416   8.158  0.2590  0.3127 -0.5944
 7473SOL    HW133881   1.663   4.483   8.208 -0.5915 -1.0360  0.4503
 7473SOL    HW233882   1.702   4.450   8.069  0.8262  0.8225 -0.4400
 7474SOL     OW33883   2.059   1.539   4.160  0.4853  0.4644 -0.1843
 7474SOL    HW133884   1.993   1.538   4.229 -0.1028 -1.6559 -0.7817
 7474SOL    HW233885   2.044   1.632   4.145  2.5823  0.8840  0.2613
 7475SOL     OW33886   0.194   0.445  16.492 -0.4443  0.2667 -0.3687
 7475SOL    HW133887   0.144   0.364  16.500  1.6743 -1.1382 -1.3230
 7475SOL    HW233888   0.276   0.416  16.533  0.2438  1.2556 -1.0154
 7476SOL     OW33889   0.877   1.204   8.676 -0.4897 -0.4738 -0.2707
 7476SOL    HW133890   0.805   1.203   8.738 -1.8343 -0.3708 -1.8192
 7476SOL    HW233891   0.940   1.148   8.721 -0.3436 -0.9420 -1.0520
 7477SOL     OW33892   4.050   4.133   4.091 -0.1187  0.0186 -0.0026
 7477SOL    HW133893   4.015   4.170   4.010 -1.3202  0.6155  0.7994
 7477SOL    HW233894   3.973   4.110   4.142  0.9100 -2.2570  0.5435
 7478SOL     OW33895   0.210   2.504   1.738 -0.2996 -0.6189  0.0249
 7478SOL    HW133896   0.195   2.499   1.644 -1.3244 -1.9510  0.2558
 7478SOL    HW233897   0.274   2.433   1.740  0.6309  0.2843  2.6887
 7479SOL     OW33898   3.326   0.608   7.180  0.0278  0.4187 -0.0867
 7479SOL    HW133899   3.317   0.614   7.085  0.6989 -1.2160 -0.2578
 7479SOL    HW233900   3.407   0.659   7.187  0.8598 -0.7434 -1.0995
 7480SOL     OW33901   1.040   3.974   5.207  0.1305  0.3976 -0.5628
 7480SOL    HW133902   0.980   3.910   5.169 -0.7101  0.3934  0.7529
 7480SOL    HW233903   0.984   4.029   5.262  1.5986  1.4785 -0.1424
 7481SOL     OW33904   0.263   1.509   1.982 -0.8915  0.1493 -0.2806
 7481SOL    HW133905   0.265   1.534   1.890  1.2251 -3.1948 -1.1165
 7481SOL    HW233906   0.172   1.485   2.003 -0.4756  0.6515  2.1172
 7482SOL     OW33907   1.311   3.027   9.068  0.3051 -0.0178  0.2657
 7482SOL    HW133908   1.275   2.938   9.071  1.6377 -0.5006  1.6388
 7482SOL    HW233909   1.300   3.042   8.974  0.9260  0.9105  0.3491
 7483SOL     OW33910   3.254   2.281  12.308  0.3585  0.4285  0.0034
 7483SOL    HW133911   3.273   2.301  12.216  1.8551 -0.0643  0.1963
 7483SOL    HW233912   3.276   2.364  12.350  0.6024 -1.7605  4.1451
 7484SOL     OW33913   2.162   0.096   8.269 -0.5398  0.1548  0.5513
 7484SOL    HW133914   2.176   0.027   8.204  1.1728 -0.0487  1.1454
 7484SOL    HW233915   2.130   0.160   8.205 -0.6678 -0.8310 -0.3686
 7485SOL     OW33916   3.709   1.018   3.751 -0.1733 -0.3160  0.3827
 7485SOL    HW133917   3.761   1.083   3.705 -2.2568  1.9771  1.2432
 7485SOL    HW233918   3.758   1.003   3.832 -0.0789 -0.8134  0.2337
 7486SOL     OW33919   2.392   4.044   6.903 -0.1668 -0.2185 -0.4531
 7486SOL    HW133920   2.386   3.987   6.827  1.0926  0.2810 -0.9296
 7486SOL    HW233921   2.435   3.984   6.964 -0.3087  0.4950  0.3601
 7487SOL     OW33922   0.543   1.660  11.646 -0.1084 -0.4461 -0.2344
 7487SOL    HW133923   0.512   1.577  11.611 -0.0956 -0.3659 -0.4369
 7487SOL    HW233924   0.464   1.688  11.692 -0.1765  0.2675 -0.7851
 7488SOL     OW33925   2.208   1.326   5.398  0.2845 -0.2400  0.3331
 7488SOL    HW133926   2.239   1.288   5.481 -0.3352 -1.9974 -0.2337
 7488SOL    HW233927   2.221   1.248   5.344  0.9652  0.9716 -1.2371
 7489SOL     OW33928   2.635   2.753  12.981  0.1145  0.5336 -0.5248
 7489SOL    HW133929   2.728   2.748  13.005  0.0893 -0.2498 -0.6016
 7489SOL    HW233930   2.632   2.669  12.935 -0.2971  0.4709 -0.3818
 7490SOL     OW33931   1.806   1.840   7.948 -0.1963  0.7624  0.7880
 7490SOL    HW133932   1.722   1.878   7.973 -0.8608  0.2789 -0.7191
 7490SOL    HW233933   1.860   1.890   8.009  1.6107  1.0779 -1.0904
 7491SOL     OW33934   2.066   1.350   9.159  0.0139 -0.7391  0.3603
 7491SOL    HW133935   1.984   1.314   9.194 -0.3939  0.2240  0.4248
 7491SOL    HW233936   2.073   1.424   9.220  3.0271 -0.4479 -0.3501
 7492SOL     OW33937   2.155   0.174   9.121  0.5603  0.5395  0.0361
 7492SOL    HW133938   2.140   0.105   9.186  2.6032  0.4323  0.3983
 7492SOL    HW233939   2.231   0.147   9.069 -0.4931  0.6622 -1.5715
 7493SOL     OW33940   3.578   2.529   8.052 -0.1941 -0.1028 -0.2716
 7493SOL    HW133941   3.538   2.616   8.050 -0.2147 -0.1209 -0.7318
 7493SOL    HW233942   3.527   2.494   7.979 -0.9725 -0.0134  0.2226
 7494SOL     OW33943   0.656   0.488   1.186  0.4071 -0.8674  0.4194
 7494SOL    HW133944   0.639   0.578   1.157 -1.4173 -0.0567  3.9513
 7494SOL    HW233945   0.577   0.483   1.240 -1.3382  3.2309 -1.6817
 7495SOL     OW33946   0.468   3.297   5.775 -0.0605 -0.0794  0.4672
 7495SOL    HW133947   0.554   3.283   5.735 -0.0169  2.0853 -0.1708
 7495SOL    HW233948   0.408   3.256   5.713  1.1013  0.1392 -0.7898
 7496SOL     OW33949   1.464   2.665   6.208 -0.1038 -0.3662 -0.0041
 7496SOL    HW133950   1.495   2.660   6.118  2.4421 -0.1608  0.8535
 7496SOL    HW233951   1.377   2.626   6.204 -0.4059  0.2589  0.4197
 7497SOL     OW33952   0.421   4.600   3.281  0.0850  0.1216 -0.1395
 7497SOL    HW133953   0.481   4.629   3.212  0.3723  0.6736  0.3479
 7497SOL    HW233954   0.364   4.538   3.234 -0.7995 -0.2517  1.4425
 7498SOL     OW33955   1.377   1.983   9.197 -0.2018  0.0660  0.1626
 7498SOL    HW133956   1.329   2.056   9.235 -1.2577 -1.0113  0.8928
 7498SOL    HW233957   1.366   2.001   9.103  1.6086  3.4400  0.6102
 7499SOL     OW33958   2.600   2.279   1.759 -0.2441 -0.7455  0.0946
 7499SOL    HW133959   2.559   2.209   1.709  0.6639 -0.4682 -1.0480
 7499SOL    HW233960   2.539   2.289   1.832 -2.3885 -3.3028 -1.3682
 7500SOL     OW33961   3.188   1.561   7.919  0.4271  0.2861 -0.0841
 7500SOL    HW133962   3.119   1.585   7.857 -0.8484  0.2825  1.3498
 7500SOL    HW233963   3.238   1.507   7.858  0.7408 -0.3578  0.7549
 7501SOL     OW33964   2.931   2.564  13.168  0.2206  0.0634 -0.3617
 7501SOL    HW133965   2.972   2.545  13.083  2.0062 -0.7373  0.6732
 7501SOL    HW233966   2.953   2.485  13.218  0.0206  0.7615  0.8217
 7502SOL     OW33967   0.932   0.186   9.241 -0.1954 -0.1305 -0.5074
 7502SOL    HW133968   0.879   0.256   9.203 -0.4869 -1.2482 -2.2007
 7502SOL    HW233969   0.873   0.116   9.271  2.9625 -2.4044  0.4070
 7503SOL     OW33970   2.799   2.388   5.872  0.2527  0.7144 -0.2382
 7503SOL    HW133971   2.767   2.298   5.879 -0.0270  0.8742  0.4845
 7503SOL    HW233972   2.771   2.412   5.783 -0.7024  1.2803  0.2134
 7504SOL     OW33973   1.774   1.369   0.220  0.1574 -0.2816  0.2222
 7504SOL    HW133974   1.819   1.436   0.272  1.8694 -0.2242 -1.3515
 7504SOL    HW233975   1.846   1.325   0.176 -0.6387  0.0253 -1.3713
 7505SOL     OW33976   0.354   1.351   4.761  0.3775 -0.0470  0.0633
 7505SOL    HW133977   0.417   1.419   4.784 -0.8780  0.1755  2.8892
 7505SOL    HW233978   0.332   1.322   4.850 -0.2263 -1.1877 -0.4606
 7506SOL     OW33979   0.255   3.634   8.615  0.5503 -0.4371  0.1373
 7506SOL    HW133980   0.301   3.613   8.696 -2.4722 -2.5437  1.3155
 7506SOL    HW233981   0.229   3.548   8.582  0.6180  0.6434 -2.7453
 7507SOL     OW33982   2.183   0.106   3.549 -0.5939  0.8563  0.2412
 7507SOL    HW133983   2.252   0.128   3.486 -0.0565  0.2750  0.6310
 7507SOL    HW233984   2.227   0.144   3.625  1.5831  2.4306 -1.7854
 7508SOL     OW33985   2.697   2.778   6.363 -0.4415 -0.2702 -0.6291
 7508SOL    HW133986   2.785   2.803   6.389 -0.6431 -0.7374  0.4940
 7508SOL    HW233987   2.673   2.700   6.412  0.4021  0.3026  0.7025
 7509SOL     OW33988   1.725   0.781   8.742 -0.2366 -0.3584  0.1189
 7509SOL    HW133989   1.753   0.725   8.814  0.3423  0.0426  0.1979
 7509SOL    HW233990   1.771   0.859   8.772 -2.9125  0.4528  2.1442
 7510SOL     OW33991   1.395   4.497  17.535 -0.2233  0.3765 -0.0629
 7510SOL    HW133992   1.322   4.463  17.483  0.4829  0.4948 -1.1095
 7510SOL    HW233993   1.457   4.424  17.539 -1.1746 -0.4692 -0.5477
 7511SOL     OW33994   1.747   2.829  10.076  0.1732  0.0708 -0.1196
 7511SOL    HW133995   1.682   2.767  10.108  0.2642 -0.6116 -1.2515
 7511SOL    HW233996   1.721   2.905  10.128  1.0087 -0.9998  1.8426
 7512SOL     OW33997   1.597   0.204  15.497 -0.7932 -0.0048  0.3401
 7512SOL    HW133998   1.576   0.296  15.514  0.9150  0.5797 -0.5896
 7512SOL    HW233999   1.557   0.194  15.411 -0.1613  0.6881 -0.0427
 7513SOL     OW34000   2.072   3.944   8.667  0.3238 -0.0149  0.1848
 7513SOL    HW134001   2.042   4.034   8.652  0.7410 -0.1609 -1.5329
 7513SOL    HW234002   2.154   3.958   8.620  0.9630 -0.6026  1.1242
 7514SOL     OW34003   1.319   3.258   3.071  0.2980 -0.2871  0.4086
 7514SOL    HW134004   1.313   3.316   3.147  1.5804  0.2804  0.0642
 7514SOL    HW234005   1.371   3.307   3.008  1.1116 -2.4785 -0.6241
 7515SOL     OW34006   3.177   2.738   1.431 -0.5030 -0.3794 -0.1493
 7515SOL    HW134007   3.234   2.666   1.405 -1.5555 -1.9731  1.8749
 7515SOL    HW234008   3.166   2.793   1.354  1.6285  1.1159  0.6222
 7516SOL     OW34009   3.360   1.534   5.164  0.4457  0.7093 -0.1041
 7516SOL    HW134010   3.299   1.461   5.154 -0.4523  1.5017 -0.3666
 7516SOL    HW234011   3.419   1.519   5.090 -0.6208 -3.0938 -0.2148
 7517SOL     OW34012   4.360   2.190   7.598 -0.0826 -0.2755  0.2298
 7517SOL    HW134013   4.280   2.201   7.649 -0.4738 -0.2983 -0.3835
 7517SOL    HW234014   4.332   2.106   7.562 -0.9617 -0.7639  2.0403
 7518SOL     OW34015   3.677   4.486   8.452 -0.2076  0.0211  0.1977
 7518SOL    HW134016   3.617   4.539   8.400  1.1205  1.7378  0.4279
 7518SOL    HW234017   3.618   4.425   8.497 -0.6236  0.1106 -0.2232
 7519SOL     OW34018   1.981   2.991  11.523  0.5480 -0.7384 -0.5878
 7519SOL    HW134019   1.886   2.983  11.518  0.6120 -2.9155  1.8573
 7519SOL    HW234020   2.003   2.957  11.435  0.1230 -0.3995 -0.8218
 7520SOL     OW34021   0.010   0.244  12.299  0.4677 -0.5880  0.2637
 7520SOL    HW134022   0.018   0.317  12.360 -1.9920  0.4188 -0.6083
 7520SOL    HW234023   0.078   0.275  12.239  1.0204 -4.6022 -1.1451
 7521SOL     OW34024   0.555   0.609   9.679 -0.6314  0.1932  0.2774
 7521SOL    HW134025   0.570   0.692   9.724  3.2592 -0.3630  0.0600
 7521SOL    HW234026   0.511   0.643   9.601  0.8252  2.2251  0.3369
 7522SOL     OW34027   1.253   4.258  17.683  0.3820  0.4409  0.2302
 7522SOL    HW134028   1.275   4.214   0.069  1.1936 -0.3319 -0.4067
 7522SOL    HW234029   1.332   4.309  17.663  0.0513  0.8780  0.0454
 7523SOL     OW34030   0.114   0.767   2.399 -0.2411 -0.5219 -0.6204
 7523SOL    HW134031   0.143   0.726   2.480  2.2750 -1.0716 -1.8087
 7523SOL    HW234032   0.034   0.806   2.434 -0.1436 -1.1890  0.3333
 7524SOL     OW34033   0.911   2.535   9.273  0.9035  0.4502 -0.2720
 7524SOL    HW134034   0.899   2.624   9.306  0.8689 -0.9707  3.5564
 7524SOL    HW234035   0.938   2.501   9.358 -1.1912 -1.5838 -0.4456
 7525SOL     OW34036   0.166   0.452  15.881 -0.5548  0.2595 -0.3522
 7525SOL    HW134037   0.128   0.439  15.968  1.6127 -0.2536  0.5140
 7525SOL    HW234038   0.115   0.520  15.837 -0.5409  0.0571 -0.6786
 7526SOL     OW34039   2.002   2.281  12.807  0.3926  0.4935  0.4184
 7526SOL    HW134040   2.023   2.248  12.720  0.9082  0.7817  0.4320
 7526SOL    HW234041   2.069   2.247  12.867  0.3054 -0.4465 -0.0223
 7527SOL     OW34042   2.297   2.249   5.499  0.0857 -0.4049  0.3705
 7527SOL    HW134043   2.330   2.176   5.446  0.3190 -0.5517  0.7175
 7527SOL    HW234044   2.203   2.247   5.482  0.1990 -1.8397 -0.0936
 7528SOL     OW34045   0.380   0.730   6.932  0.0013  0.2566 -0.0095
 7528SOL    HW134046   0.380   0.825   6.937 -1.7843  0.1563  1.7997
 7528SOL    HW234047   0.289   0.717   6.959  0.5227 -1.9210  0.7045
 7529SOL     OW34048   2.518   3.607   3.249  0.7636  0.7249  0.2684
 7529SOL    HW134049   2.534   3.671   3.179 -2.9499  0.0636 -1.1812
 7529SOL    HW234050   2.462   3.660   3.306 -0.3328 -0.0892 -0.0679
 7530SOL     OW34051   1.626   4.199  15.984 -0.1323 -0.3734 -0.0042
 7530SOL    HW134052   1.658   4.289  15.994 -1.2593  0.1080 -0.8329
 7530SOL    HW234053   1.551   4.201  16.044  0.9036 -1.9012  1.3683
 7531SOL     OW34054   3.613   2.386   8.315 -0.2290 -0.0636  0.2469
 7531SOL    HW134055   3.620   2.324   8.243 -0.7170 -0.5088  0.5924
 7531SOL    HW234056   3.566   2.455   8.268 -0.1771  0.6877  1.3053
 7532SOL     OW34057   4.653   0.950   7.647  0.6985 -0.0077  0.6981
 7532SOL    HW134058   4.593   0.960   7.721 -0.2446 -0.3558 -0.0210
 7532SOL    HW234059   0.013   0.983   7.679 -0.2054  1.1883  1.8210
 7533SOL     OW34060   4.512   2.375  15.882  0.3681 -0.2832  0.3035
 7533SOL    HW134061   4.602   2.384  15.912  0.2042 -0.7898  0.9410
 7533SOL    HW234062   4.499   2.280  15.877 -2.3797  0.0042  1.7024
 7534SOL     OW34063   1.147   2.860   9.699  0.3973  1.0455 -0.2057
 7534SOL    HW134064   1.243   2.862   9.699  0.4279 -0.0930 -0.6217
 7534SOL    HW234065   1.125   2.945   9.662  0.1351 -0.8144 -4.3903
 7535SOL     OW34066   1.059   2.809   3.195 -0.3958 -0.5367 -0.1472
 7535SOL    HW134067   1.073   2.876   3.261 -0.2859 -0.7602  0.0572
 7535SOL    HW234068   1.119   2.744   3.232 -0.3768  0.0944  0.9085
 7536SOL     OW34069   4.625   4.212   4.527  0.1206  0.3880 -0.0377
 7536SOL    HW134070   4.534   4.231   4.503  0.4184  1.7206 -0.1038
 7536SOL    HW234071   4.657   4.170   4.447  3.0548 -0.0501  1.3776
 7537SOL     OW34072   4.355   2.110   9.620  0.1692  0.4962 -0.0404
 7537SOL    HW134073   4.319   2.022   9.634 -0.3742  0.4858 -1.5193
 7537SOL    HW234074   4.286   2.172   9.644  0.4981  0.3572  1.2964
 7538SOL     OW34075   4.718   0.991   8.479 -0.5285 -0.6732 -0.0322
 7538SOL    HW134076   0.056   0.993   8.553 -0.9096 -0.0494  0.2705
 7538SOL    HW234077   4.638   1.005   8.530  0.2373  1.4179  0.5692
 7539SOL     OW34078   0.678   4.496  15.806  0.3772 -0.5795  0.0018
 7539SOL    HW134079   0.657   4.405  15.827 -1.4307  0.0304  0.8311
 7539SOL    HW234080   0.746   4.477  15.741  0.0260 -0.7493 -0.3201
 7540SOL     OW34081   4.137   3.612  15.255  0.0993  0.0031  0.2718
 7540SOL    HW134082   4.219   3.648  15.289 -0.4057  2.4633 -1.1374
 7540SOL    HW234083   4.092   3.597  15.338  0.1129 -0.1734  0.2462
 7541SOL     OW34084   3.053   2.021   8.842  0.2479 -0.2176 -1.0173
 7541SOL    HW134085   3.050   2.110   8.875 -1.6373 -1.5793  2.4892
 7541SOL    HW234086   2.973   2.022   8.790  0.4027 -0.0367 -1.2529
 7542SOL     OW34087   1.446   1.444   9.981 -0.1899 -0.4345  0.3301
 7542SOL    HW134088   1.523   1.414  10.031 -0.7324 -1.4467  0.5693
 7542SOL    HW234089   1.479   1.501   9.912  0.6492 -1.7298 -0.3463
 7543SOL     OW34090   1.581   4.618   8.320  0.2973 -0.3067  0.2576
 7543SOL    HW134091   1.590   4.594   8.412  1.8109 -0.3708  0.0841
 7543SOL    HW234092   1.642   4.692   8.327  1.8543 -1.5748  0.0526
 7544SOL     OW34093   0.860   3.611   4.573 -0.2148  0.0943  0.9191
 7544SOL    HW134094   0.806   3.552   4.519  0.1054  0.9681 -0.3673
 7544SOL    HW234095   0.800   3.668   4.619  0.5300  1.4685  0.1949
 7545SOL     OW34096   2.708   4.331  14.713 -0.6765  0.5286 -0.5202
 7545SOL    HW134097   2.737   4.421  14.700 -0.8313  0.6231 -0.1963
 7545SOL    HW234098   2.700   4.289  14.627  0.4788  1.6607 -1.1763
 7546SOL     OW34099   1.070   2.593  13.141 -0.4091  0.2619  0.4312
 7546SOL    HW134100   1.123   2.635  13.074  0.5328 -0.2113  0.8792
 7546SOL    HW234101   1.132   2.597  13.213 -0.5539  1.6219  0.4872
 7547SOL     OW34102   3.665   0.055   2.168 -0.1141  0.6286  0.2149
 7547SOL    HW134103   3.656   0.150   2.159  0.3658  0.6577  0.0601
 7547SOL    HW234104   3.581   0.022   2.137  0.5985 -1.7008  0.7934
 7548SOL     OW34105   3.890   0.313   1.954 -0.2832 -0.2600  0.3433
 7548SOL    HW134106   3.886   0.243   1.888  0.5318  1.4600 -1.5236
 7548SOL    HW234107   3.800   0.343   1.939 -0.0878  0.0768 -0.1467
 7549SOL     OW34108   4.152   1.294   6.276 -0.2624  0.2034 -0.1050
 7549SOL    HW134109   4.220   1.251   6.225  0.3877  1.9800 -0.7406
 7549SOL    HW234110   4.176   1.275   6.367  1.4572 -0.9188 -0.8086
 7550SOL     OW34111   0.359   3.390   8.906 -0.5549 -0.2378 -0.4016
 7550SOL    HW134112   0.316   3.307   8.925  1.2996 -0.9266  0.8331
 7550SOL    HW234113   0.360   3.381   8.811  1.8887  5.5967 -0.9108
 7551SOL     OW34114   4.587   2.522   6.346  0.3968  0.0250  0.2126
 7551SOL    HW134115   4.497   2.490   6.335  0.6353 -0.3611 -0.6151
 7551SOL    HW234116   4.575   2.617   6.355 -0.3655  0.0739 -1.1992
 7552SOL     OW34117   4.043   3.194   5.936 -0.3280 -0.4030  0.3222
 7552SOL    HW134118   4.105   3.168   6.004 -1.3691 -0.7127  1.1612
 7552SOL    HW234119   3.980   3.241   5.991 -2.3861 -0.5039 -1.9384
 7553SOL     OW34120   0.656   1.462   2.213 -0.1709 -0.7582  0.2205
 7553SOL    HW134121   0.679   1.511   2.135  3.1140 -1.7416  0.5809
 7553SOL    HW234122   0.657   1.531   2.279  0.5594  0.3797 -0.9853
 7554SOL     OW34123   0.626   2.255   1.457 -0.0878  0.1394  0.0076
 7554SOL    HW134124   0.601   2.265   1.365  1.7803  0.3482 -0.4818
 7554SOL    HW234125   0.614   2.342   1.495  1.5103 -0.0219  0.8681
 7555SOL     OW34126   3.514   4.191   3.273  0.3467  0.0294 -0.1124
 7555SOL    HW134127   3.455   4.261   3.303  0.1569 -0.5451  0.8632
 7555SOL    HW234128   3.468   4.150   3.200  1.0867 -0.4234 -0.3167
 7556SOL     OW34129   3.220   0.394  10.109  0.5325 -0.2957  0.1576
 7556SOL    HW134130   3.289   0.447  10.150 -0.0576  0.2525  0.4458
 7556SOL    HW234131   3.254   0.305  10.116  0.8122 -0.1117  1.1122
 7557SOL     OW34132   0.632   2.755  15.526 -0.4401 -0.4876 -0.0188
 7557SOL    HW134133   0.609   2.700  15.601  0.1334 -0.7855 -0.0656
 7557SOL    HW234134   0.691   2.695  15.480 -0.6009 -0.4080 -0.3318
 7558SOL     OW34135   3.936   0.939  16.053  0.2782 -0.0651 -0.3483
 7558SOL    HW134136   3.981   0.917  16.134  0.1223 -1.1453 -0.5532
 7558SOL    HW234137   4.003   0.919  15.988 -0.0949 -1.2760 -0.3711
 7559SOL     OW34138   1.328   1.140   3.213 -0.3745 -0.3031 -0.7737
 7559SOL    HW134139   1.409   1.189   3.222 -0.8436  0.3268  0.0210
 7559SOL    HW234140   1.323   1.118   3.120 -0.3069  0.4583 -0.9523
 7560SOL     OW34141   2.902   3.827  13.616 -0.3668 -0.1555  0.8624
 7560SOL    HW134142   2.987   3.870  13.615 -1.0114  1.1065  1.4726
 7560SOL    HW234143   2.860   3.853  13.534  1.1669  1.0818  0.4696
 7561SOL     OW34144   3.858   3.911   0.856 -0.3130  0.5798  0.4449
 7561SOL    HW134145   3.908   3.981   0.815 -0.5187  0.2371 -0.3934
 7561SOL    HW234146   3.772   3.940   0.826 -0.2775 -0.9802 -1.1988
 7562SOL     OW34147   1.398   4.581   3.626 -0.4576 -0.0036 -0.2606
 7562SOL    HW134148   1.359   4.600   3.711  0.9467 -0.1441  0.4038
 7562SOL    HW234149   1.491   4.597   3.638 -0.2846  0.6004 -2.4737
 7563SOL     OW34150   3.175   0.034  16.245  0.4765 -0.3187  0.3524
 7563SOL    HW134151   3.151   4.665  16.247  0.1155 -0.3012 -2.7445
 7563SOL    HW234152   3.096   0.086  16.257  1.1701  1.0047 -0.8126
 7564SOL     OW34153   4.098   3.283  11.904 -0.1486  0.1535  0.2204
 7564SOL    HW134154   4.136   3.281  11.816 -0.4372  0.9809  0.0777
 7564SOL    HW234155   4.080   3.191  11.923  2.1991 -0.2307  0.5892
 7565SOL     OW34156   3.394   0.025   6.706 -0.4938 -0.0470  0.1923
 7565SOL    HW134157   3.479   0.055   6.673 -1.0366 -1.2223 -2.2815
 7565SOL    HW234158   3.371   0.091   6.771 -1.4682  0.5553 -0.7636
 7566SOL     OW34159   2.121   1.137   2.271 -0.3924 -0.4754 -0.6415
 7566SOL    HW134160   2.125   1.159   2.178 -0.8870 -0.5999 -0.6892
 7566SOL    HW234161   2.091   1.047   2.270  0.4059 -0.7278 -1.8477
 7567SOL     OW34162   4.252   2.802   6.177 -0.4364 -0.4573  0.7031
 7567SOL    HW134163   4.282   2.812   6.087  1.4907  0.9604  1.4985
 7567SOL    HW234164   4.287   2.715   6.193  0.1810 -0.0815  1.3646
 7568SOL     OW34165   3.143   1.438  16.680  0.1846 -0.6422 -0.1110
 7568SOL    HW134166   3.051   1.457  16.700  0.6726 -0.7471  2.1649
 7568SOL    HW234167   3.135   1.347  16.710 -2.4024 -0.1927  0.5661
 7569SOL     OW34168   3.338   0.234   6.846 -0.3155  0.0660 -0.0817
 7569SOL    HW134169   3.398   0.291   6.893 -2.0994  0.2483  2.0188
 7569SOL    HW234170   3.286   0.298   6.798  2.0343  1.1441 -1.1529
 7570SOL     OW34171   4.562   1.003   1.764  0.3899  0.5172  0.0006
 7570SOL    HW134172   4.642   1.035   1.805  1.0600  0.5720 -1.3800
 7570SOL    HW234173   4.576   0.910   1.778 -0.5997 -0.0482 -2.7992
 7571SOL     OW34174   2.514   2.213   4.385  0.1123 -0.1478  0.1399
 7571SOL    HW134175   2.500   2.153   4.458  2.2860 -1.1285 -0.2666
 7571SOL    HW234176   2.528   2.147   4.317 -1.5247  0.2744 -0.6255
 7572SOL     OW34177   1.154   0.900  13.251 -0.0989  0.0172 -0.1101
 7572SOL    HW134178   1.172   0.893  13.157 -0.5825  1.9379 -0.3589
 7572SOL    HW234179   1.091   0.834  13.279  0.4733 -0.0418  1.0318
 7573SOL     OW34180   3.800   1.299   5.684  0.4614 -0.4197  0.7047
 7573SOL    HW134181   3.779   1.317   5.776  0.9197  0.5155  0.6290
 7573SOL    HW234182   3.757   1.368   5.634 -0.9716 -1.2155  0.8446
 7574SOL     OW34183   1.343   0.488  17.624 -0.1461  0.1108 -0.2359
 7574SOL    HW134184   1.292   0.415  17.657 -0.9591  1.1041  0.7235
 7574SOL    HW234185   1.350   0.529   0.014  0.0359  0.2413 -0.3125
 7575SOL     OW34186   1.678   4.453  16.039  0.0333  0.0444 -0.7652
 7575SOL    HW134187   1.597   4.483  15.998  0.1397  2.1997  0.6003
 7575SOL    HW234188   1.696   4.531  16.092  3.3484 -0.9018 -0.4485
 7576SOL     OW34189   1.656   3.195  12.575  0.1282 -0.2510 -0.8411
 7576SOL    HW134190   1.668   3.213  12.669 -1.9789 -0.1342 -0.5980
 7576SOL    HW234191   1.562   3.183  12.560 -0.3172  0.9185  0.9917
 7577SOL     OW34192   1.842   0.110   3.721 -0.6093 -0.3213  0.3628
 7577SOL    HW134193   1.874   0.157   3.798 -1.2230 -0.9697  1.0174
 7577SOL    HW234194   1.907   0.040   3.711  2.5358  2.3772  1.5874
 7578SOL     OW34195   1.086   1.083  11.326 -0.8061  0.3628 -0.3110
 7578SOL    HW134196   1.176   1.052  11.316  0.1894  2.8299  1.0030
 7578SOL    HW234197   1.075   1.060  11.418 -3.5435 -0.3571 -0.8179
 7579SOL     OW34198   1.782   4.024   7.410  0.1718 -0.4111  0.5527
 7579SOL    HW134199   1.779   4.059   7.321  1.5938  1.6758  1.3345
 7579SOL    HW234200   1.744   4.103   7.450  1.3889 -0.0650  1.0212
 7580SOL     OW34201   1.568   1.257   7.747 -0.1691 -0.1388 -0.2952
 7580SOL    HW134202   1.514   1.194   7.699  1.0086  0.4357 -2.3376
 7580SOL    HW234203   1.614   1.202   7.811 -0.7775 -1.1899 -0.7551
 7581SOL     OW34204   4.300   0.805   8.882  0.1421 -0.0383 -0.4323
 7581SOL    HW134205   4.274   0.785   8.972 -3.4634  1.3801 -1.1427
 7581SOL    HW234206   4.297   0.720   8.837 -1.1023  0.8754 -2.1016
 7582SOL     OW34207   1.675   3.138   5.838  0.0023  0.0703  0.1803
 7582SOL    HW134208   1.644   3.226   5.814 -1.5695 -1.9701 -5.0664
 7582SOL    HW234209   1.602   3.126   5.900  0.4229 -1.3295  0.3977
 7583SOL     OW34210   4.001   2.725  14.389  0.3622 -0.6396  0.5906
 7583SOL    HW134211   4.002   2.793  14.321 -1.6996 -1.6115 -0.4065
 7583SOL    HW234212   3.949   2.652  14.355 -2.5627  0.8262  1.8400
 7584SOL     OW34213   3.454   4.303  17.384 -0.1665 -0.3847 -0.0211
 7584SOL    HW134214   3.489   4.285  17.471  0.0118  1.7130  0.3421
 7584SOL    HW234215   3.481   4.231  17.327  2.9329  1.4365 -0.8511
 7585SOL     OW34216   2.728   1.359  10.231 -0.2673 -0.3019 -0.5580
 7585SOL    HW134217   2.821   1.383  10.231 -0.3043 -0.1580  2.0898
 7585SOL    HW234218   2.698   1.367  10.140  2.5080  1.9303 -1.2746
 7586SOL     OW34219   1.002   3.750  11.612  0.5302 -0.3237  0.3374
 7586SOL    HW134220   1.092   3.725  11.631  0.1348 -1.0067  1.3145
 7586SOL    HW234221   0.999   3.785  11.523  0.2007  1.0782  0.9052
 7587SOL     OW34222   2.718   2.154   5.956 -0.2959 -0.2444  0.7662
 7587SOL    HW134223   2.690   2.090   5.890 -1.0938  0.7112  0.1840
 7587SOL    HW234224   2.657   2.137   6.028 -0.6566  0.3122  0.5871
 7588SOL     OW34225   3.290   2.140  10.529 -0.6587 -0.0111 -0.2515
 7588SOL    HW134226   3.289   2.146  10.624 -2.0081 -3.1231 -0.0658
 7588SOL    HW234227   3.352   2.207  10.499 -0.3720 -0.3840 -0.4827
 7589SOL     OW34228   2.201   1.648   1.119 -0.3466 -0.0904 -0.0666
 7589SOL    HW134229   2.136   1.704   1.076 -0.1104 -1.0101 -1.6062
 7589SOL    HW234230   2.156   1.607   1.193 -0.4494 -0.0214 -0.0914
 7590SOL     OW34231   2.315   4.471   6.947  0.4813 -1.1026  0.0018
 7590SOL    HW134232   2.361   4.489   6.865 -2.2977 -0.8425 -1.4968
 7590SOL    HW234233   2.390   4.444   7.000  1.5668  2.0217 -0.0006
 7591SOL     OW34234   1.250   2.905   5.922  0.1166 -0.0196  0.3150
 7591SOL    HW134235   1.213   2.967   5.860  0.5810 -0.2031 -0.1472
 7591SOL    HW234236   1.198   2.824   5.919 -0.1399  0.1786 -0.5030
 7592SOL     OW34237   0.199   0.438  11.704 -0.5323 -0.4890  0.6040
 7592SOL    HW134238   0.263   0.476  11.643 -1.4580  1.5592  0.8898
 7592SOL    HW234239   0.124   0.476  11.657 -1.1445  1.1100  2.8512
 7593SOL     OW34240   3.405   2.859  11.483 -0.3529 -0.3585 -0.0443
 7593SOL    HW134241   3.419   2.767  11.459  0.5923 -0.0948 -0.5216
 7593SOL    HW234242   3.489   2.904  11.469 -0.4677  0.4606  1.9694
 7594SOL     OW34243   1.201   2.387   0.730  0.2225  0.9725 -0.1731
 7594SOL    HW134244   1.177   2.350   0.815  0.5125  2.1654  0.4229
 7594SOL    HW234245   1.131   2.341   0.683  2.9827 -2.3446 -1.0844
 7595SOL     OW34246   1.164   3.866   4.963 -0.2031  0.0009  0.2279
 7595SOL    HW134247   1.097   3.897   4.902  0.4484 -0.6536 -0.8145
 7595SOL    HW234248   1.129   3.906   5.043 -0.3788  1.1254 -0.4151
 7596SOL     OW34249   2.347   3.093   7.778  0.3210 -0.2711 -0.3120
 7596SOL    HW134250   2.340   2.997   7.775  2.3030 -0.4760  1.2582
 7596SOL    HW234251   2.388   3.109   7.863  0.4685 -0.3421 -0.3686
 7597SOL     OW34252   1.901   3.816  11.058 -0.1587  0.1903 -0.2148
 7597SOL    HW134253   1.916   3.862  11.140 -0.1651  0.1656 -0.1997
 7597SOL    HW234254   1.865   3.874  10.991  0.1808 -0.9007 -1.3628
 7598SOL     OW34255   0.808   0.455   3.172  0.0910  0.7082  0.0207
 7598SOL    HW134256   0.818   0.436   3.265 -1.2064 -0.3607 -0.0742
 7598SOL    HW234257   0.716   0.439   3.156 -0.2620  1.3930  1.3348
 7599SOL     OW34258   2.495   1.378   6.970 -0.1598 -0.2584 -0.4135
 7599SOL    HW134259   2.444   1.299   6.953  1.2595 -1.0110 -1.1989
 7599SOL    HW234260   2.461   1.438   6.904  0.4748  0.8380  0.2571
 7600SOL     OW34261   1.824   4.646   6.978 -0.1491  0.5087 -0.7390
 7600SOL    HW134262   1.811   4.636   6.884  2.9197  0.3892 -1.1379
 7600SOL    HW234263   1.743   4.688   7.008 -0.0913 -0.4379  0.7642
 7601SOL     OW34264   2.167   1.755  14.038 -0.4446 -0.0786 -0.0440
 7601SOL    HW134265   2.175   1.682  14.100  0.1592 -0.5677 -0.7009
 7601SOL    HW234266   2.196   1.714  13.957 -0.1772  0.8703 -0.4308
 7602SOL     OW34267   4.561   0.247  12.606 -0.6142  0.4467 -0.3343
 7602SOL    HW134268   4.647   0.276  12.637 -0.3929 -2.0840  1.4020
 7602SOL    HW234269   4.587   0.197  12.528  0.0984 -0.1214  0.2694
 7603SOL     OW34270   0.556   1.003   8.623  0.1122  0.5215  0.4281
 7603SOL    HW134271   0.536   0.910   8.623  1.1947  0.2933 -1.0145
 7603SOL    HW234272   0.619   0.997   8.695 -0.3430 -0.0894  0.7759
 7604SOL     OW34273   3.210   4.071   3.777 -0.2912 -0.4818  0.5050
 7604SOL    HW134274   3.223   4.087   3.683  0.5685  0.5186  0.8020
 7604SOL    HW234275   3.115   4.076   3.777 -0.1819  1.5478 -1.6121
 7605SOL     OW34276   1.302   1.212   7.916 -0.4971  0.0877  0.3643
 7605SOL    HW134277   1.225   1.177   7.960 -0.3259 -0.4836  0.2125
 7605SOL    HW234278   1.374   1.219   7.979  0.0598  0.5764 -0.3279
 7606SOL     OW34279   2.788   0.373   1.093  0.0054  0.0650 -0.2764
 7606SOL    HW134280   2.813   0.315   1.021  0.4411  0.1339 -0.1784
 7606SOL    HW234281   2.714   0.321   1.126 -0.6188  0.6708 -0.7230
 7607SOL     OW34282   3.818   4.342   4.113  0.2383  0.0079 -0.1938
 7607SOL    HW134283   3.750   4.291   4.069 -0.9733 -0.3514  2.1367
 7607SOL    HW234284   3.822   4.417   4.052  0.6694 -1.5490 -2.0746
 7608SOL     OW34285   1.387   1.521  13.903 -0.4553 -0.1730 -0.1957
 7608SOL    HW134286   1.296   1.550  13.914 -0.6974 -0.5025 -1.3870
 7608SOL    HW234287   1.413   1.586  13.838  1.3468 -0.9088 -0.2123
 7609SOL     OW34288   3.795   0.654   2.297 -0.1990 -0.4211 -0.5619
 7609SOL    HW134289   3.774   0.696   2.214  0.8786  0.5410 -0.3389
 7609SOL    HW234290   3.878   0.610   2.282 -1.0921 -2.3759  0.1161
 7610SOL     OW34291   2.532   2.007  16.974  0.2828 -0.4906 -0.3801
 7610SOL    HW134292   2.568   1.949  17.040  0.3492  0.1759  0.1619
 7610SOL    HW234293   2.524   2.090  17.020  0.9427 -2.3180  2.9764
 7611SOL     OW34294   0.951   3.520   1.438  0.1913  0.0093  0.5976
 7611SOL    HW134295   0.916   3.575   1.508 -0.9757 -0.1266  0.1301
 7611SOL    HW234296   0.867   3.481   1.413 -0.7136  1.2112  1.8039
 7612SOL     OW34297   4.583   3.605   5.991  0.3090 -0.5203 -0.1750
 7612SOL    HW134298   4.669   3.563   5.986 -0.0531 -1.4634  1.5813
 7612SOL    HW234299   4.526   3.528   5.991  0.5284 -0.6855  2.1200
 7613SOL     OW34300   3.087   4.288   0.947 -0.0260  0.6066  0.3232
 7613SOL    HW134301   3.173   4.327   0.934 -0.0368  0.7873  0.7977
 7613SOL    HW234302   3.090   4.209   0.893  1.4929 -0.7701  2.4178
 7614SOL     OW34303   1.842   3.838   0.965  0.4101 -0.0207  0.0603
 7614SOL    HW134304   1.827   3.769   1.029  0.6797 -0.2108 -0.0812
 7614SOL    HW234305   1.774   3.903   0.978  1.0500  1.1597 -2.5104
 7615SOL     OW34306   3.882   4.462   3.690  0.3854  0.1025 -0.6443
 7615SOL    HW134307   3.834   4.403   3.631  0.5636 -1.1254  0.4256
 7615SOL    HW234308   3.967   4.480   3.650  1.3158  2.3079  2.2975
 7616SOL     OW34309   3.130   4.392   5.503  0.4733 -0.8452  0.2589
 7616SOL    HW134310   3.101   4.323   5.562  0.9153 -1.2012  0.0572
 7616SOL    HW234311   3.063   4.384   5.436 -1.0714 -0.8286  1.7924
 7617SOL     OW34312   3.545   4.447   8.140 -0.4329 -0.3958 -0.3190
 7617SOL    HW134313   3.499   4.479   8.062 -0.5363  0.6242  0.1606
 7617SOL    HW234314   3.625   4.417   8.096  0.0691  0.7902 -0.2110
 7618SOL     OW34315   2.892   3.829   6.369 -0.2961 -0.2761 -0.4515
 7618SOL    HW134316   2.960   3.841   6.436 -1.2592 -1.6994  0.7739
 7618SOL    HW234317   2.924   3.757   6.316 -1.5503 -3.1092  2.6275
 7619SOL     OW34318   0.455   1.798   5.523  0.1253  0.0741  0.4720
 7619SOL    HW134319   0.531   1.768   5.573  0.3833 -1.1494 -0.6588
 7619SOL    HW234320   0.395   1.840   5.585 -2.0213 -0.7798 -1.0092
 7620SOL     OW34321   1.516   0.556   3.122 -0.1460 -0.2346 -0.0418
 7620SOL    HW134322   1.430   0.567   3.082  0.2244 -1.2078 -1.1135
 7620SOL    HW234323   1.524   0.635   3.176  0.6162 -0.4953  0.2318
 7621SOL     OW34324   4.166   3.398   8.080 -0.4544  0.4674  0.0399
 7621SOL    HW134325   4.238   3.400   8.143 -1.7221  0.7562  1.4878
 7621SOL    HW234326   4.207   3.362   8.002 -0.0886 -0.6005  0.7310
 7622SOL     OW34327   2.695   3.668   2.544  0.1329  0.0953 -0.4705
 7622SOL    HW134328   2.638   3.701   2.475  0.0392  1.2432  0.1498
 7622SOL    HW234329   2.696   3.575   2.524 -1.0542 -0.0829  0.3370
 7623SOL     OW34330   4.071   0.394   6.811 -0.0840 -0.7337 -0.2573
 7623SOL    HW134331   4.135   0.421   6.876 -1.4302  1.3752  0.1690
 7623SOL    HW234332   3.995   0.377   6.866 -0.2798 -0.1639 -0.3486
 7624SOL     OW34333   2.617   2.562   7.640  0.2059  0.0304  0.4539
 7624SOL    HW134334   2.617   2.657   7.650  2.1122  0.0946 -0.1892
 7624SOL    HW234335   2.526   2.540   7.659 -0.5210  3.9664  1.6325
 7625SOL     OW34336   4.211   4.706   7.934 -0.0491 -0.2830  0.2828
 7625SOL    HW134337   4.294   4.660   7.935  0.4890  0.7367  1.4702
 7625SOL    HW234338   4.246   0.071   7.946 -2.3299  0.5850  0.5710
 7626SOL     OW34339   0.168   2.520   6.549 -0.2500  0.0555 -0.1459
 7626SOL    HW134340   0.197   2.448   6.493  0.1700  0.7742 -0.8471
 7626SOL    HW234341   0.252   2.540   6.589 -0.7686  0.4422  0.7469
 7627SOL     OW34342   0.979   0.836   1.743  0.5276 -0.0384 -0.4012
 7627SOL    HW134343   1.067   0.815   1.773 -0.7247 -1.0064  2.5771
 7627SOL    HW234344   0.996   0.882   1.661  3.9430 -0.6768 -0.0474
 7628SOL     OW34345   3.623   0.733  10.036 -0.2339  0.5497  0.2073
 7628SOL    HW134346   3.601   0.794   9.967  1.8430 -0.1548 -1.0902
 7628SOL    HW234347   3.719   0.736  10.029  0.0370 -2.1310  2.6343
 7629SOL     OW34348   3.132   3.007   5.592 -0.2683 -0.0948 -0.0598
 7629SOL    HW134349   3.199   2.941   5.573 -0.5196 -0.6596  0.9708
 7629SOL    HW234350   3.136   3.010   5.688 -0.2727 -1.4153 -0.0071
 7630SOL     OW34351   1.191   3.122   6.462 -0.3835  0.5116  0.1927
 7630SOL    HW134352   1.151   3.122   6.549 -2.1162 -0.4906 -0.5915
 7630SOL    HW234353   1.112   3.108   6.409 -0.0091  1.5243 -0.6323
 7631SOL     OW34354   2.651   1.894   7.564  0.2075 -0.0531  0.5064
 7631SOL    HW134355   2.689   1.813   7.598  1.7394 -0.6238 -2.5547
 7631SOL    HW234356   2.640   1.940   7.647 -3.7995  1.4476 -0.8664
 7632SOL     OW34357   2.492   4.258   6.517 -0.0875  0.7889  0.3552
 7632SOL    HW134358   2.415   4.248   6.573 -0.3868  0.2272 -0.1503
 7632SOL    HW234359   2.474   4.191   6.451  0.5945  0.4707  0.4964
 7633SOL     OW34360   4.657   0.348   3.680 -0.3671  0.2850 -0.4028
 7633SOL    HW134361   0.004   0.325   3.619  1.0400  0.5333  1.1508
 7633SOL    HW234362   4.687   0.433   3.711 -1.3199  0.1357  0.8877
 7634SOL     OW34363   2.744   1.454  13.259  0.6801  0.4765  0.3501
 7634SOL    HW134364   2.781   1.374  13.223  0.0247  1.8191 -3.3319
 7634SOL    HW234365   2.765   1.438  13.351 -0.7546  3.1135  1.1535
 7635SOL     OW34366   3.654   3.554   9.491 -0.1082 -0.3999  0.1929
 7635SOL    HW134367   3.744   3.524   9.486 -0.2399 -0.8025  0.2572
 7635SOL    HW234368   3.676   3.645   9.513 -1.1585  0.1414 -0.9639
 7636SOL     OW34369   2.413   0.219   4.797  0.0117  0.3306  0.0303
 7636SOL    HW134370   2.431   0.275   4.873 -3.8139  1.4419  0.1045
 7636SOL    HW234371   2.339   0.180   4.843  2.2044 -3.0778  0.7167
 7637SOL     OW34372   0.479   4.656  15.837  0.1032 -0.0581 -0.7891
 7637SOL    HW134373   0.521   0.018  15.841 -0.7957  0.2491  2.2441
 7637SOL    HW234374   0.552   4.595  15.826 -0.6076 -1.1002  0.2530
 7638SOL     OW34375   4.080   2.662   5.741 -0.1421 -0.7416 -0.0090
 7638SOL    HW134376   4.001   2.640   5.789 -1.2311  0.7539 -1.1190
 7638SOL    HW234377   4.062   2.750   5.707 -2.7853 -1.5962 -0.8493
 7639SOL     OW34378   0.924   2.340   5.019 -0.5395 -0.0624 -0.3247
 7639SOL    HW134379   0.945   2.324   4.927  1.2997 -0.3067  0.1452
 7639SOL    HW234380   0.840   2.294   5.027  0.2161 -1.6738 -1.7974
 7640SOL     OW34381   2.315   1.838   7.762 -0.2539 -0.3532  0.4671
 7640SOL    HW134382   2.225   1.808   7.745  0.2510 -0.7660 -1.4448
 7640SOL    HW234383   2.359   1.767   7.715 -1.9480 -1.0996  0.0034
 7641SOL     OW34384   0.721   1.858  15.783  0.8587 -0.3596 -0.3020
 7641SOL    HW134385   0.795   1.848  15.843  0.2153 -0.4580  0.4679
 7641SOL    HW234386   0.644   1.893  15.827  0.7521 -0.5445 -0.3405
 7642SOL     OW34387   1.974   4.187   8.642 -0.0835  0.4036  0.1423
 7642SOL    HW134388   1.910   4.247   8.604 -0.6304  1.5303  2.8368
 7642SOL    HW234389   2.050   4.227   8.600 -0.5348  1.7332  0.5936
 7643SOL     OW34390   2.260   1.111   5.148  0.3488  0.3673 -0.1855
 7643SOL    HW134391   2.292   1.200   5.134  0.9028  0.5772  2.4760
 7643SOL    HW234392   2.176   1.121   5.104  0.2777  2.1663  0.3754
 7644SOL     OW34393   0.717   1.059   4.264  0.3357 -0.1468 -0.7900
 7644SOL    HW134394   0.667   0.979   4.278  2.1536 -1.3370 -1.1223
 7644SOL    HW234395   0.742   1.057   4.172 -0.1523 -0.2953 -0.9184
 7645SOL     OW34396   2.305   2.010   9.719 -0.0611  0.4171  0.2114
 7645SOL    HW134397   2.227   2.010   9.663  0.1410  2.6448 -0.0915
 7645SOL    HW234398   2.306   2.101   9.751 -1.1106  0.7474 -0.7063
 7646SOL     OW34399   0.827   1.499   8.574  0.5839 -0.6478 -0.2039
 7646SOL    HW134400   0.882   1.434   8.618 -0.7566 -1.5256  0.1710
 7646SOL    HW234401   0.746   1.480   8.620  0.5428 -1.6631 -0.6836
 7647SOL     OW34402   4.482   2.683   3.985 -0.0887 -0.1882  0.2556
 7647SOL    HW134403   4.430   2.675   4.065 -1.2471 -0.2031 -0.4974
 7647SOL    HW234404   4.552   2.740   4.018 -0.0525 -0.3015  0.3720
 7648SOL     OW34405   2.284   2.197  11.715  0.1926  0.2980 -0.0218
 7648SOL    HW134406   2.241   2.200  11.800  1.6396 -1.5017  0.7774
 7648SOL    HW234407   2.374   2.193  11.747 -0.2393 -0.0706  1.1445
 7649SOL     OW34408   0.293   0.385   4.530 -0.2676  0.5907  0.0602
 7649SOL    HW134409   0.373   0.370   4.479  0.0384  1.9231  0.1452
 7649SOL    HW234410   0.336   0.416   4.609  1.2267 -1.9710  0.2389
 7650SOL     OW34411   0.917   3.656   8.552  0.0860 -0.0021 -0.0095
 7650SOL    HW134412   0.977   3.607   8.495  0.0371  1.2854 -1.1572
 7650SOL    HW234413   0.883   3.599   8.621  4.0344 -0.1569  1.7935
 7651SOL     OW34414   4.670   2.197  12.483  0.2898  0.0796  0.1778
 7651SOL    HW134415   4.712   2.274  12.521  0.9225 -1.0644  1.7794
 7651SOL    HW234416   4.597   2.184  12.543  1.4275  0.0415  1.5359
 7652SOL     OW34417   3.810   4.068   3.096 -0.5744 -0.6578  0.3683
 7652SOL    HW134418   3.734   4.115   3.129 -1.3696 -2.3870  1.0265
 7652SOL    HW234419   3.777   4.050   3.008 -0.8795  0.5056  0.2474
 7653SOL     OW34420   2.749   2.378   4.231  0.6564 -0.0229 -0.3509
 7653SOL    HW134421   2.669   2.346   4.272 -0.3418 -0.9882 -3.1164
 7653SOL    HW234422   2.809   2.335   4.292 -1.5165 -2.5518 -0.0328
 7654SOL     OW34423   2.225   2.861  10.309 -0.7536 -0.3218 -0.5219
 7654SOL    HW134424   2.262   2.926  10.249  2.0921 -0.6818  0.8177
 7654SOL    HW234425   2.307   2.813  10.325 -0.9162 -1.0545 -1.9439
 7655SOL     OW34426   4.305   3.148   5.496  0.4008 -0.6245 -1.1037
 7655SOL    HW134427   4.274   3.229   5.456  0.9934  0.6820  1.1353
 7655SOL    HW234428   4.397   3.163   5.477  0.4445 -0.3250 -0.6412
 7656SOL     OW34429   2.736   1.638  11.148 -0.2724 -0.1268  0.3295
 7656SOL    HW134430   2.653   1.674  11.118  1.2517  1.5410 -1.9096
 7656SOL    HW234431   2.712   1.601  11.233  1.0603 -2.2550 -0.2146
 7657SOL     OW34432   1.347   1.003   6.444 -0.0630  0.4932  0.3998
 7657SOL    HW134433   1.371   1.095   6.441  1.7792 -0.0184 -0.4753
 7657SOL    HW234434   1.272   1.003   6.504  0.4393  3.7056  0.9979
 7658SOL     OW34435   3.218   1.047  13.165  0.0117  0.0085  0.1972
 7658SOL    HW134436   3.134   1.016  13.133 -0.4779 -1.1094  2.5454
 7658SOL    HW234437   3.263   1.096  13.097 -1.8133 -0.7720 -1.5659
 7659SOL     OW34438   3.577   4.021   9.622 -0.0384 -0.1285  0.1474
 7659SOL    HW134439   3.663   4.034   9.582 -0.3301  0.2240 -0.3624
 7659SOL    HW234440   3.553   4.112   9.635  0.1450  0.0318 -0.6169
 7660SOL     OW34441   0.938   1.314   9.416  0.1889  0.3628 -0.3169
 7660SOL    HW134442   0.952   1.232   9.463  1.7706  1.7361  1.6088
 7660SOL    HW234443   0.926   1.273   9.330 -0.9995  0.4595 -0.1925
 7661SOL     OW34444   3.575   1.794   5.354 -0.2105 -0.3948  0.3885
 7661SOL    HW134445   3.546   1.719   5.405 -0.9538  0.5148  1.3280
 7661SOL    HW234446   3.661   1.815   5.389  0.3165  0.8590 -1.6928
 7662SOL     OW34447   3.378   1.278   2.821 -0.0851  0.2170 -0.2295
 7662SOL    HW134448   3.463   1.233   2.826  1.0178  2.3602  0.4729
 7662SOL    HW234449   3.331   1.226   2.757  0.0752  2.2880 -2.0186
 7663SOL     OW34450   0.176   3.614  11.956  0.3786 -0.2354 -0.1694
 7663SOL    HW134451   0.087   3.603  11.989  0.5283  0.1862  0.3674
 7663SOL    HW234452   0.194   3.525  11.924 -0.5109 -0.0753 -1.1486
 7664SOL     OW34453   3.118   0.108   1.843 -0.4141  0.5405  0.4082
 7664SOL    HW134454   3.186   0.134   1.781  0.6104 -1.0578  0.8318
 7664SOL    HW234455   3.054   0.178   1.835  0.5174  1.2719 -0.5149
 7665SOL     OW34456   1.831   4.100   2.599  0.1831 -0.4847 -0.2302
 7665SOL    HW134457   1.853   4.100   2.692  1.3545  0.0963 -0.5188
 7665SOL    HW234458   1.894   4.031   2.579  1.0725  0.5869 -1.1115
 7666SOL     OW34459   2.990   1.466   5.370 -0.0252  0.1380  0.1478
 7666SOL    HW134460   2.944   1.542   5.405  0.9077  0.9776 -0.4094
 7666SOL    HW234461   2.921   1.400   5.365  0.2055 -0.0493 -0.7352
 7667SOL     OW34462   1.284   3.099   6.979  0.3833 -0.1599  0.0201
 7667SOL    HW134463   1.370   3.099   7.020  0.4850 -0.9437 -0.1786
 7667SOL    HW234464   1.308   3.096   6.886  2.0272  0.5311  0.4240
 7668SOL     OW34465   2.024   1.887  15.524 -0.5018 -0.1587 -0.1836
 7668SOL    HW134466   2.116   1.885  15.500 -1.0820 -1.0966 -2.3401
 7668SOL    HW234467   1.990   1.799  15.509 -1.4723  0.3004 -0.7191
 7669SOL     OW34468   3.313   0.818  13.288 -0.0455  0.1334  0.3833
 7669SOL    HW134469   3.271   0.748  13.238  0.8250 -0.3290  0.3018
 7669SOL    HW234470   3.278   0.901  13.255  1.6821  0.5114 -0.4958
 7670SOL     OW34471   2.861   4.496   3.359 -0.0159  0.3535  0.1615
 7670SOL    HW134472   2.773   4.470   3.385 -0.2455 -0.2769 -1.2428
 7670SOL    HW234473   2.862   4.582   3.401  1.1326  1.0298 -1.2434
 7671SOL     OW34474   2.544   0.165   1.971 -0.3021  0.3940  0.0473
 7671SOL    HW134475   2.623   0.190   2.019 -0.0645 -1.5126  0.6559
 7671SOL    HW234476   2.487   0.190   2.043 -0.8707  1.7980 -0.8885
 7672SOL     OW34477   0.268   3.781  11.646 -0.4771  0.3707  0.0828
 7672SOL    HW134478   0.321   3.827  11.581  0.1091  0.8582  0.9060
 7672SOL    HW234479   0.302   3.693  11.634 -0.7840  0.0467  1.5816
 7673SOL     OW34480   1.693   1.645  15.477 -0.3879 -0.2683 -0.7371
 7673SOL    HW134481   1.690   1.677  15.387  0.2664  1.2531 -0.2122
 7673SOL    HW234482   1.617   1.587  15.469 -0.0502 -1.1681  2.3600
 7674SOL     OW34483   0.883   2.012   1.778  0.4931  0.0073 -0.3573
 7674SOL    HW134484   0.806   2.032   1.724  0.8940  0.8641 -0.6130
 7674SOL    HW234485   0.851   1.946   1.839  0.2424  0.2395 -0.2366
 7675SOL     OW34486   0.030   2.958   3.721  0.3887  0.0469  0.6377
 7675SOL    HW134487   4.670   2.920   3.693  0.0067  1.6404 -0.3603
 7675SOL    HW234488   0.005   2.996   3.805 -0.5045 -0.5410  0.6450
 7676SOL     OW34489   4.241   3.631  12.640  0.1838  0.1117 -0.4319
 7676SOL    HW134490   4.290   3.609  12.561  2.7309  1.3747  0.7782
 7676SOL    HW234491   4.299   3.689  12.691  1.5534  0.3283 -2.2529
 7677SOL     OW34492   3.900   2.307   7.713  0.0950  0.0964 -0.8103
 7677SOL    HW134493   3.828   2.348   7.666 -1.1070  0.3487  1.2690
 7677SOL    HW234494   3.878   2.341   7.800 -2.6565 -1.5833 -0.8627
 7678SOL     OW34495   0.759   3.905   4.520  0.1604  0.1156  0.5471
 7678SOL    HW134496   0.752   3.998   4.543  2.3679  0.5388 -0.5246
 7678SOL    HW234497   0.730   3.902   4.429  1.3200  0.4361  0.1628
 7679SOL     OW34498   4.095   4.699   3.340 -0.4262 -0.5469 -0.5544
 7679SOL    HW134499   4.022   0.010   3.289  1.6991  3.4084 -0.8643
 7679SOL    HW234500   4.110   0.043   3.405 -1.6981 -1.4592  0.6803
 7680SOL     OW34501   1.426   2.223   3.103  0.3889 -0.1177  0.3863
 7680SOL    HW134502   1.385   2.272   3.174 -0.5136  1.2666 -1.0890
 7680SOL    HW234503   1.502   2.194   3.153  0.9345  0.5100 -0.0698
 7681SOL     OW34504   0.476   1.269   1.938  0.3586  0.7474 -0.4247
 7681SOL    HW134505   0.568   1.275   1.912  0.6223 -0.6163  0.2131
 7681SOL    HW234506   0.453   1.360   1.958  2.3185  0.9152  1.0426
 7682SOL     OW34507   0.143   1.981   3.166 -0.2599  0.6065 -0.3141
 7682SOL    HW134508   0.065   2.036   3.173  0.1440  1.1208  0.1797
 7682SOL    HW234509   0.202   2.018   3.100 -1.0333  1.5617 -0.4546
 7683SOL     OW34510   3.013   1.168   6.991 -0.0260  0.0111  0.6042
 7683SOL    HW134511   2.936   1.221   6.967  0.2284 -0.5122 -1.3564
 7683SOL    HW234512   3.030   1.127   6.906 -1.3367 -0.7300  0.6935
 7684SOL     OW34513   2.203   0.506   2.187  0.4555  0.1321 -0.1405
 7684SOL    HW134514   2.274   0.490   2.125 -0.0427 -0.1884 -0.6301
 7684SOL    HW234515   2.236   0.589   2.223  0.4868  0.6738 -1.4309
 7685SOL     OW34516   1.342   0.458   7.483  0.5625 -0.9659  0.3030
 7685SOL    HW134517   1.247   0.462   7.495  0.7308  0.8481  1.0646
 7685SOL    HW234518   1.344   0.426   7.393 -1.6893 -1.3809  0.3795
 7686SOL     OW34519   1.088   1.939   3.930 -0.2027  0.3431 -0.6805
 7686SOL    HW134520   1.053   1.950   4.019  2.4824 -1.2201  0.5530
 7686SOL    HW234521   1.143   1.861   3.940 -0.6386  0.0315 -0.6753
 7687SOL     OW34522   1.247   0.109   5.265  0.5373 -0.2950  0.2725
 7687SOL    HW134523   1.155   0.128   5.245  0.4696 -0.3118  0.5658
 7687SOL    HW234524   1.276   0.196   5.293  1.9143 -0.0256 -1.9755
 7688SOL     OW34525   3.597   3.553   4.952  0.3566  0.1874  0.0625
 7688SOL    HW134526   3.645   3.619   4.903  0.8881 -0.6746 -0.5864
 7688SOL    HW234527   3.566   3.493   4.885 -1.6279  1.0017  0.2715
 7689SOL     OW34528   2.535   2.081   4.149 -0.3496  0.0399 -0.1856
 7689SOL    HW134529   2.596   2.013   4.120 -0.8991 -0.6758  0.3149
 7689SOL    HW234530   2.452   2.049   4.112 -0.7632  0.1204  0.6660
 7690SOL     OW34531   1.178   1.185   0.644 -0.3163 -0.6332 -0.4037
 7690SOL    HW134532   1.266   1.221   0.641 -0.5325 -0.1466 -0.8565
 7690SOL    HW234533   1.131   1.250   0.696  2.3302  0.5328  0.5092
 7691SOL     OW34534   2.200   3.006   3.879 -0.8193  1.0296 -0.0235
 7691SOL    HW134535   2.123   2.964   3.840 -0.3352 -1.7990  2.0340
 7691SOL    HW234536   2.173   3.013   3.971  0.7824 -0.4331  0.5630
 7692SOL     OW34537   3.363   4.664   4.025  0.4780  0.3995  0.2097
 7692SOL    HW134538   3.335   4.572   4.030  0.1436  0.4271 -1.0724
 7692SOL    HW234539   3.316   4.680   3.943  2.6007 -0.5491 -1.2048
 7693SOL     OW34540   0.361   2.284   1.714 -0.8203 -0.0447  0.5327
 7693SOL    HW134541   0.353   2.188   1.708  1.8608 -0.0043 -3.7532
 7693SOL    HW234542   0.430   2.290   1.648  0.0307 -1.5379  1.2789
 7694SOL     OW34543   4.162   1.592  16.684  0.2942 -0.9385 -0.1110
 7694SOL    HW134544   4.078   1.546  16.680  0.3727 -1.2792  2.0139
 7694SOL    HW234545   4.154   1.637  16.768 -1.5021 -0.4542 -0.5503
 7695SOL     OW34546   1.367   1.881   3.262 -0.2107  0.3505  0.3648
 7695SOL    HW134547   1.337   1.791   3.278  2.2344 -0.2970  1.3298
 7695SOL    HW234548   1.376   1.879   3.167 -1.5018  0.6274  0.2328
 7696SOL     OW34549   3.299   1.627   8.688  0.1642 -0.2362 -0.1792
 7696SOL    HW134550   3.302   1.719   8.714  0.8930 -0.4538  0.4863
 7696SOL    HW234551   3.245   1.637   8.610 -0.5530 -0.6423  0.2599
 7697SOL     OW34552   0.091   1.964   5.265 -0.1629 -0.0984 -0.4030
 7697SOL    HW134553   0.084   1.925   5.352  0.4028  0.1127 -0.2619
 7697SOL    HW234554   0.179   1.948   5.229  0.1526 -0.7064  0.6451
 7698SOL     OW34555   0.423   1.288   8.282  0.1091 -0.1290  0.4117
 7698SOL    HW134556   0.472   1.270   8.362  2.5805  0.0081 -1.0596
 7698SOL    HW234557   0.338   1.250   8.305  0.7114 -1.9460 -0.3442
 7699SOL     OW34558   3.859   3.670   6.162  0.7486 -0.3713 -0.1288
 7699SOL    HW134559   3.875   3.598   6.223 -0.6192 -0.5759 -0.0044
 7699SOL    HW234560   3.765   3.658   6.146  0.4878  1.3581  0.1015
 7700SOL     OW34561   3.902   3.810   1.100  0.2399 -0.3028 -0.1047
 7700SOL    HW134562   3.895   3.840   1.009  1.0194 -0.1234 -0.1061
 7700SOL    HW234563   3.815   3.836   1.129 -0.9407 -2.4496 -1.7409
 7701SOL     OW34564   4.239   0.744  10.742 -0.3183 -0.0080  0.1514
 7701SOL    HW134565   4.225   0.651  10.759 -0.4940 -0.2489 -1.2893
 7701SOL    HW234566   4.156   0.792  10.751 -0.1588 -0.1889  2.6664
 7702SOL     OW34567   4.627   4.675   1.548 -0.3285 -0.3538  0.6339
 7702SOL    HW134568   4.556   0.012   1.529  1.3800  1.4371 -0.1207
 7702SOL    HW234569   4.613   4.648   1.639  0.2838 -0.0621  0.8221
 7703SOL     OW34570   1.901   4.233   7.868 -0.1548 -0.7575  0.6052
 7703SOL    HW134571   1.919   4.147   7.907 -1.5652 -1.0025  0.7166
 7703SOL    HW234572   1.942   4.291   7.933 -2.1749  0.0938  1.1005
 7704SOL     OW34573   2.731   3.310   3.978  0.4382 -0.7685 -0.0459
 7704SOL    HW134574   2.748   3.390   3.928 -1.7485  0.4709  1.1776
 7704SOL    HW234575   2.813   3.261   3.977 -0.0555 -1.6239  0.9651
 7705SOL     OW34576   2.743   1.126   7.446  0.0459 -0.6709  0.3869
 7705SOL    HW134577   2.804   1.185   7.400  0.1556 -0.3559  0.9439
 7705SOL    HW234578   2.805   1.077   7.500 -0.1697 -1.4844 -0.0931
 7706SOL     OW34579   2.296   3.841   2.011  0.1019  0.1449  0.4683
 7706SOL    HW134580   2.295   3.781   2.086  1.2763  0.6591  0.9081
 7706SOL    HW234581   2.208   3.824   1.978  0.6779 -1.4504 -0.2551
 7707SOL     OW34582   1.000   2.873   8.649 -0.1187  0.1259  0.5937
 7707SOL    HW134583   0.954   2.913   8.723  0.7395  0.7615  0.7787
 7707SOL    HW234584   0.937   2.859   8.577  0.4130 -2.7098  0.6895
 7708SOL     OW34585   2.494   0.576   1.771  0.6920 -0.7912 -0.0134
 7708SOL    HW134586   2.497   0.663   1.731 -1.6237 -0.1578  1.2131
 7708SOL    HW234587   2.436   0.524   1.716  4.0622  0.8294 -5.0066
 7709SOL     OW34588   2.999   1.900   6.896  0.2058 -0.0914  0.2713
 7709SOL    HW134589   2.928   1.963   6.888 -0.0402 -0.3670  0.3005
 7709SOL    HW234590   2.971   1.860   6.978 -0.4372  0.3133  0.2529
 7710SOL     OW34591   0.236   2.715  14.082 -0.1830  0.2461  0.2406
 7710SOL    HW134592   0.254   2.622  14.095  1.2278 -0.0324 -3.4149
 7710SOL    HW234593   0.141   2.720  14.089 -0.1833  1.4616 -0.6141
 7711SOL     OW34594   2.011   4.363   7.084  0.0168  0.1222 -0.4043
 7711SOL    HW134595   2.016   4.407   7.000 -2.4191  0.1411 -0.5377
 7711SOL    HW234596   2.094   4.317   7.076  0.6554  0.6411  3.2140
 7712SOL     OW34597   0.535   0.370   2.669 -0.4080 -0.0266 -0.1919
 7712SOL    HW134598   0.486   0.357   2.587 -0.7194  0.8862 -0.1544
 7712SOL    HW234599   0.492   0.449   2.703 -0.4982 -0.4955  0.7672
 7713SOL     OW34600   1.015   4.101   8.552  0.3045 -0.3663  0.1089
 7713SOL    HW134601   0.974   4.016   8.567  0.0662 -0.3829 -0.6486
 7713SOL    HW234602   0.945   4.165   8.539 -0.6679 -1.0237  2.1293
 7714SOL     OW34603   1.743   0.323   8.031 -1.1291 -0.0650  0.1414
 7714SOL    HW134604   1.794   0.393   7.991 -0.9907  0.5173  1.3217
 7714SOL    HW234605   1.753   0.348   8.123 -0.2015 -2.1833  0.6260
 7715SOL     OW34606   0.070   4.598   6.952 -0.2155 -0.3835  0.0893
 7715SOL    HW134607   0.001   4.664   6.946  0.3286  0.2510  0.8043
 7715SOL    HW234608   0.115   4.628   7.030 -0.2667  1.6547 -0.6731
 7716SOL     OW34609   4.060   3.600  15.541  0.2305 -0.3351  0.1372
 7716SOL    HW134610   4.036   3.572  15.629 -0.4250 -2.4061 -0.6757
 7716SOL    HW234611   4.075   3.693  15.555  0.3728 -0.5968  1.6594
 7717SOL     OW34612   3.755   0.241   7.569  0.1633 -0.5977 -0.6027
 7717SOL    HW134613   3.842   0.249   7.530  0.3413 -0.0156 -0.0909
 7717SOL    HW234614   3.750   0.322   7.620 -2.3680 -1.4774  0.5238
 7718SOL     OW34615   2.102   1.594   9.750 -0.0160 -0.1367  0.2327
 7718SOL    HW134616   2.031   1.534   9.724  0.3246 -0.8184  0.8713
 7718SOL    HW234617   2.064   1.627   9.832  3.1201 -0.3619  1.7451
 7719SOL     OW34618   4.569   3.996  11.794  0.3788  0.3055 -1.1399
 7719SOL    HW134619   4.631   3.924  11.804  0.2598  0.5897  1.6395
 7719SOL    HW234620   4.494   3.951  11.754 -0.3248 -0.8112  1.4074
 7720SOL     OW34621   2.134   2.718   5.812 -0.2042 -0.1343  0.3345
 7720SOL    HW134622   2.075   2.722   5.737 -0.9979 -1.6458  0.8809
 7720SOL    HW234623   2.143   2.813   5.819 -0.6369 -0.1006  0.4401
 7721SOL     OW34624   4.024   1.540   3.089  0.1880 -0.0223  0.3548
 7721SOL    HW134625   3.949   1.491   3.054  0.1423  0.0356  0.3716
 7721SOL    HW234626   4.069   1.481   3.150  1.3898  1.2276  0.6663
 7722SOL     OW34627   1.597   0.191  12.519  0.2860  0.0963 -0.7596
 7722SOL    HW134628   1.618   0.285  12.520  1.1618 -0.0952 -1.1015
 7722SOL    HW234629   1.680   0.143  12.516 -0.6064 -1.4707 -0.1531
 7723SOL     OW34630   0.296   2.960   9.524 -0.3056  0.5850  0.2676
 7723SOL    HW134631   0.224   2.982   9.465 -1.0857 -3.5180 -0.2870
 7723SOL    HW234632   0.256   2.998   9.602 -2.4990 -1.1253 -0.0277
 7724SOL     OW34633   3.563   2.454  15.525 -0.2684  0.2713  0.1670
 7724SOL    HW134634   3.630   2.417  15.583  0.8945  1.7551 -0.2136
 7724SOL    HW234635   3.487   2.444  15.583  1.0396 -0.8374  1.6919
 7725SOL     OW34636   3.215   3.714   9.489  0.1668 -0.1381  0.0059
 7725SOL    HW134637   3.182   3.734   9.576  1.5445 -4.4038  1.5396
 7725SOL    HW234638   3.148   3.757   9.436 -1.1707  0.6415  2.3132
 7726SOL     OW34639   3.299   3.300  16.752  0.5423 -0.4049  0.0425
 7726SOL    HW134640   3.338   3.388  16.751 -0.2696 -0.0842 -2.6489
 7726SOL    HW234641   3.337   3.263  16.832  1.0699  3.0047  1.3538
 7727SOL     OW34642   2.364   2.691  13.059 -0.4826  0.2217  0.0836
 7727SOL    HW134643   2.345   2.598  13.050  0.7963 -0.0969  0.7778
 7727SOL    HW234644   2.448   2.699  13.104 -1.2678 -0.0760  1.6224
 7728SOL     OW34645   2.152   4.440   9.636  0.2284  0.2174 -0.0482
 7728SOL    HW134646   2.114   4.363   9.594 -2.1751  1.1687  0.3867
 7728SOL    HW234647   2.241   4.408   9.652  0.0068  0.4098  1.6048
 7729SOL     OW34648   0.312   3.850   2.232  0.0457  0.0182  0.3704
 7729SOL    HW134649   0.283   3.834   2.142 -1.7951  1.0848  0.7824
 7729SOL    HW234650   0.395   3.897   2.225  1.3572 -2.5335 -1.3982
 7730SOL     OW34651   1.491   3.957  10.842  0.1650 -0.0026  0.2232
 7730SOL    HW134652   1.529   4.039  10.809  1.2565 -0.1845  1.0669
 7730SOL    HW234653   1.409   3.991  10.878  0.4100  0.4556  0.3425
 7731SOL     OW34654   2.193   0.930   6.232 -0.0046  0.6706  0.6209
 7731SOL    HW134655   2.288   0.917   6.223 -0.0047  0.3694  1.0174
 7731SOL    HW234656   2.182   0.992   6.160 -1.2992  0.6884  0.8404
 7732SOL     OW34657   4.174   0.179   3.526  0.1686 -0.6231 -0.1269
 7732SOL    HW134658   4.264   0.158   3.552 -0.9575 -3.1779  1.8297
 7732SOL    HW234659   4.181   0.272   3.505 -2.3233 -0.9160 -2.1146
 7733SOL     OW34660   3.195   1.171   6.189  0.4163 -0.3340 -0.4220
 7733SOL    HW134661   3.279   1.129   6.168  0.5143 -0.6598  0.6222
 7733SOL    HW234662   3.200   1.161   6.284 -1.1654  0.3727 -0.2750
 7734SOL     OW34663   2.385   1.596   8.830 -0.0610  0.4770  0.7154
 7734SOL    HW134664   2.382   1.690   8.846  0.6571  0.8788 -1.5113
 7734SOL    HW234665   2.378   1.567   8.921 -0.9218 -1.7815 -0.0810
 7735SOL     OW34666   1.820   1.955  15.737  0.1578 -0.5698  0.2343
 7735SOL    HW134667   1.905   1.929  15.702 -0.1956 -1.1343 -0.2044
 7735SOL    HW234668   1.823   2.031  15.679  0.2734 -1.3791 -0.8157
 7736SOL     OW34669   1.047   0.064   6.823  0.3917  0.5270 -0.3559
 7736SOL    HW134670   1.029   4.696   6.801  2.1772 -0.3841  2.0205
 7736SOL    HW234671   1.142   0.059   6.811  0.6466  0.0016  1.9045
 7737SOL     OW34672   1.086   1.571   6.449  0.3019  0.3965 -0.4569
 7737SOL    HW134673   1.146   1.642   6.428 -0.1167  0.4822 -1.3274
 7737SOL    HW234674   1.039   1.569   6.366  0.2550  2.4360 -0.4809
 7738SOL     OW34675   3.705   1.835   3.433 -0.4121 -0.2252  0.3165
 7738SOL    HW134676   3.769   1.818   3.502  0.6750 -0.5318 -0.7658
 7738SOL    HW234677   3.753   1.795   3.360  0.2375 -0.4402  0.8552
 7739SOL     OW34678   2.274   2.921   3.122  0.2814  0.1233  0.1124
 7739SOL    HW134679   2.355   2.872   3.136  1.4804  1.6117 -1.6063
 7739SOL    HW234680   2.260   2.908   3.028  0.6583  2.8015 -0.3241
 7740SOL     OW34681   4.722   4.407   5.520 -0.3497 -0.2051  0.2464
 7740SOL    HW134682   0.058   4.348   5.475 -0.6178 -1.4405  1.5070
 7740SOL    HW234683   0.049   4.488   5.516  0.6579 -0.9283 -1.6390
 7741SOL     OW34684   3.509   3.659   4.103  0.7607 -0.7135 -0.7944
 7741SOL    HW134685   3.541   3.645   4.014  1.4414  0.5327 -0.7514
 7741SOL    HW234686   3.597   3.680   4.137  0.9543 -1.8680 -0.5922
 7742SOL     OW34687   1.935   1.804   4.139 -0.4765 -0.0593  0.2103
 7742SOL    HW134688   1.980   1.874   4.186  1.2535 -1.2681  0.3397
 7742SOL    HW234689   1.851   1.809   4.184 -0.7929 -0.9085 -0.2912
 7743SOL     OW34690   2.280   2.191   3.831  0.5618  0.3199  0.1005
 7743SOL    HW134691   2.208   2.151   3.783  1.1041 -0.2085 -0.2661
 7743SOL    HW234692   2.359   2.169   3.782  1.6759  0.5512  1.7759
 7744SOL     OW34693   1.435   2.735   2.573 -0.0570 -0.1098  0.0236
 7744SOL    HW134694   1.382   2.727   2.652  0.6596  1.4767  0.6491
 7744SOL    HW234695   1.417   2.656   2.522  0.2946  1.4117 -2.4509
 7745SOL     OW34696   3.673   3.496   3.513  0.3139 -0.2274 -0.4929
 7745SOL    HW134697   3.595   3.545   3.538 -0.7142 -2.5694  0.8998
 7745SOL    HW234698   3.659   3.417   3.565 -0.3245 -0.1921 -0.6054
 7746SOL     OW34699   1.940   0.929   4.979  0.0394 -0.2753 -0.0578
 7746SOL    HW134700   1.914   0.863   5.043 -0.4005  1.4446  1.5570
 7746SOL    HW234701   1.907   0.882   4.903 -0.4065 -0.8148  0.4716
 7747SOL     OW34702   2.459   1.723   7.370 -0.0617 -0.6461  0.4645
 7747SOL    HW134703   2.482   1.811   7.343 -1.4469 -0.6299 -0.6338
 7747SOL    HW234704   2.456   1.687   7.281  2.0315  1.1757 -0.3093
 7748SOL     OW34705   4.253   0.186   2.315 -0.0603  0.3489 -0.8321
 7748SOL    HW134706   4.166   0.190   2.275 -0.8633 -1.1758  0.8012
 7748SOL    HW234707   4.275   0.093   2.307 -0.8165  0.3010 -2.5535
 7749SOL     OW34708   1.475   0.541   0.666 -0.7474  0.1490  0.5515
 7749SOL    HW134709   1.395   0.561   0.715 -0.4092 -0.5042  1.3696
 7749SOL    HW234710   1.486   0.446   0.672 -2.3297 -0.0487  0.3570
 7750SOL     OW34711   4.518   3.177   4.193  0.3702  0.2385 -0.6568
 7750SOL    HW134712   4.492   3.089   4.222 -3.5575  0.5964 -3.0154
 7750SOL    HW234713   4.552   3.211   4.275 -1.2449  0.8696 -0.2365
 7751SOL     OW34714   3.617   3.059   2.782  0.5102 -0.3840  0.3543
 7751SOL    HW134715   3.584   3.078   2.870 -0.4452 -0.6006  0.0361
 7751SOL    HW234716   3.541   3.083   2.729 -0.1871 -2.9739  0.2017
 7752SOL     OW34717   1.448   3.421   8.737  0.0728 -0.0915  0.5040
 7752SOL    HW134718   1.469   3.358   8.806  3.0266 -0.1149 -0.4383
 7752SOL    HW234719   1.511   3.493   8.739 -0.8171  0.6594  1.4997
 7753SOL     OW34720   3.622   2.279   1.205  0.5378 -0.0163 -0.0394
 7753SOL    HW134721   3.620   2.267   1.110 -0.1574  0.3563 -0.0725
 7753SOL    HW234722   3.697   2.334   1.228 -0.3589  0.8152  0.9238
 7754SOL     OW34723   4.180   0.489   6.249 -0.4095  0.8086 -0.4511
 7754SOL    HW134724   4.146   0.402   6.272  2.8243  0.6779  3.7039
 7754SOL    HW234725   4.261   0.489   6.299 -0.8030  1.3602  0.1799
 7755SOL     OW34726   1.173   3.047   4.363  0.2269  0.4906 -0.4701
 7755SOL    HW134727   1.083   3.072   4.384  1.6050  3.4738  1.8960
 7755SOL    HW234728   1.202   3.136   4.345  2.1611 -0.0934 -0.3395
 7756SOL     OW34729   3.466   2.459   2.580  0.4038 -0.3694  0.2780
 7756SOL    HW134730   3.401   2.498   2.521 -0.3710 -0.7294  0.8930
 7756SOL    HW234731   3.501   2.379   2.541  1.3498 -0.0820  0.5400
 7757SOL     OW34732   0.323   0.148   5.747  1.1158 -0.0352 -0.2175
 7757SOL    HW134733   0.314   0.176   5.656  0.7885 -1.6207 -0.6702
 7757SOL    HW234734   0.296   0.057   5.744 -0.3051  0.3307  1.2917
 7758SOL     OW34735   0.647   2.798   8.052  0.6329 -0.2036 -0.0102
 7758SOL    HW134736   0.696   2.852   8.113 -0.1311  0.0534  0.3762
 7758SOL    HW234737   0.698   2.717   8.060 -1.0760 -1.3709 -0.9047
 7759SOL     OW34738   0.379   0.123  15.549 -0.3314  0.1441 -0.0972
 7759SOL    HW134739   0.365   0.211  15.515  2.6023  0.7596  0.3339
 7759SOL    HW234740   0.474   0.117  15.555 -0.2953 -0.6568 -1.3453
 7760SOL     OW34741   1.285   3.968  12.575  0.0479 -0.1847 -0.4620
 7760SOL    HW134742   1.380   3.953  12.576 -0.0586 -0.5155  4.3814
 7760SOL    HW234743   1.271   3.999  12.664 -0.1717  0.7872 -0.8421
 7761SOL     OW34744   3.493   0.218   2.710 -0.0936 -0.5758 -0.0872
 7761SOL    HW134745   3.584   0.245   2.722 -0.6006  1.2819 -0.4311
 7761SOL    HW234746   3.476   0.209   2.804  2.4230  1.7705  0.5859
 7762SOL     OW34747   2.486   0.696  17.076  0.0077  0.2720 -0.2800
 7762SOL    HW134748   2.518   0.755  17.145 -1.0940  1.9938 -1.2204
 7762SOL    HW234749   2.504   0.615  17.122 -0.4254 -0.5286 -1.5296
 7763SOL     OW34750   3.510   4.107  15.637 -0.0483  0.1148 -0.1546
 7763SOL    HW134751   3.451   4.151  15.699 -0.8588 -1.2002  0.0120
 7763SOL    HW234752   3.594   4.144  15.665 -1.1249  2.5561 -0.1298
 7764SOL     OW34753   1.918   4.327  15.998 -0.1397  0.2214 -0.1843
 7764SOL    HW134754   1.839   4.379  16.013  0.2652  0.8080 -0.0837
 7764SOL    HW234755   1.985   4.396  15.999  0.3012 -0.1971 -0.7521
 7765SOL     OW34756   0.652   3.552   4.356 -0.1896 -0.7408 -0.3800
 7765SOL    HW134757   0.600   3.472   4.370 -2.5653  0.8156 -0.3895
 7765SOL    HW234758   0.597   3.613   4.307 -1.5182 -0.8051  1.0343
 7766SOL     OW34759   1.781   1.985   3.047 -0.0624  0.0132  0.2349
 7766SOL    HW134760   1.757   2.026   3.130 -1.4412 -1.4256  0.5629
 7766SOL    HW234761   1.843   2.050   3.015  1.5411 -1.6751 -0.1039
 7767SOL     OW34762   4.583   0.114   3.789  0.0311 -0.3832 -0.0182
 7767SOL    HW134763   4.615   0.192   3.742 -1.7711 -0.4156 -1.3047
 7767SOL    HW234764   4.527   0.075   3.722 -0.6936  2.2024 -0.9221
 7768SOL     OW34765   1.378   3.872   3.669 -0.6695  0.5694  0.3311
 7768SOL    HW134766   1.294   3.880   3.625  0.2427 -1.5138 -1.7976
 7768SOL    HW234767   1.342   3.846   3.754 -2.8876  1.2697 -0.3995
 7769SOL     OW34768   4.290   0.837   7.372  0.7325 -0.5098  0.0114
 7769SOL    HW134769   4.276   0.747   7.402  1.9858 -0.3922  0.9478
 7769SOL    HW234770   4.255   0.889   7.445 -0.5588 -1.5025  0.1072
 7770SOL     OW34771   3.059   2.566   5.728 -0.0595 -0.0408  1.3153
 7770SOL    HW134772   3.097   2.623   5.795  3.1142  0.6960 -1.0722
 7770SOL    HW234773   2.982   2.530   5.771 -0.6488  1.0699  1.2136
 7771SOL     OW34774   1.429   3.092  13.816 -0.3095 -0.0081 -0.1092
 7771SOL    HW134775   1.421   3.181  13.784 -0.6184 -0.2174 -0.6051
 7771SOL    HW234776   1.508   3.106  13.868  0.5112 -2.6359 -0.6396
 7772SOL     OW34777   3.133   4.584   3.224 -0.7518 -0.1202  0.1294
 7772SOL    HW134778   3.160   4.493   3.227  1.1181  0.3982 -0.9488
 7772SOL    HW234779   3.181   4.615   3.301 -0.1923  0.5942 -0.5141
 7773SOL     OW34780   3.317   1.310   7.031 -0.0952 -0.4210 -0.6648
 7773SOL    HW134781   3.378   1.245   7.066 -1.1216 -2.3546 -2.4766
 7773SOL    HW234782   3.231   1.275   7.054  0.1099  0.1559  1.0117
 7774SOL     OW34783   1.094   0.739   8.713 -0.0355 -0.0878  0.2885
 7774SOL    HW134784   1.089   0.701   8.625 -1.2965 -3.0191  1.6253
 7774SOL    HW234785   1.079   0.664   8.771  0.8146 -0.2611  0.2726
 7775SOL     OW34786   2.549   0.437   6.778  0.2614 -0.6383  0.0051
 7775SOL    HW134787   2.503   0.480   6.851  1.6933  1.2042 -0.1762
 7775SOL    HW234788   2.488   0.434   6.705  0.5490 -1.2560 -0.2029
 7776SOL     OW34789   0.960   0.996   2.697 -0.3192  0.1294  0.4496
 7776SOL    HW134790   0.944   0.904   2.718  1.7154  0.0966  1.8221
 7776SOL    HW234791   0.965   1.027   2.787 -2.5166 -0.6217  0.8411
 7777SOL     OW34792   3.312   1.415   0.241 -0.1699  0.5732  0.3867
 7777SOL    HW134793   3.293   1.446   0.330 -0.1117  0.7569  0.3341
 7777SOL    HW234794   3.403   1.437   0.226 -0.4511  1.1583 -0.4358
 7778SOL     OW34795   4.708   0.778   8.844 -0.0153 -1.5262  0.1287
 7778SOL    HW134796   4.707   0.724   8.923  0.7872  1.8119  2.4195
 7778SOL    HW234797   0.005   0.864   8.881 -0.8389 -0.6664 -1.4364
 7779SOL     OW34798   4.154   3.510   7.097  0.5910  0.4077 -0.5081
 7779SOL    HW134799   4.127   3.492   7.187  1.5507 -0.6449 -0.4170
 7779SOL    HW234800   4.227   3.452   7.073  1.8275  0.9633  1.9859
 7780SOL     OW34801   1.616   3.102  12.892  0.2544 -0.1637  0.2738
 7780SOL    HW134802   1.669   3.073  12.966 -0.5186  2.5188  1.8755
 7780SOL    HW234803   1.558   3.170  12.926 -0.4692 -0.3848 -0.5228
 7781SOL     OW34804   3.672   4.362   7.332  0.3231 -0.5674 -0.2781
 7781SOL    HW134805   3.722   4.360   7.250  2.8493 -2.6482  1.3239
 7781SOL    HW234806   3.601   4.423   7.308 -0.8510 -1.8355  0.0117
 7782SOL     OW34807   3.875   4.504   8.735  1.0082  0.4993  0.4578
 7782SOL    HW134808   3.804   4.557   8.769 -1.2487 -1.2094 -1.6235
 7782SOL    HW234809   3.920   4.557   8.669  2.1689 -0.7138  0.2505
 7783SOL     OW34810   2.515   1.815  11.071  0.7561 -0.0179 -0.1058
 7783SOL    HW134811   2.427   1.819  11.109  0.3229  0.7365 -1.2143
 7783SOL    HW234812   2.499   1.741  11.013 -0.5448 -0.1980  0.4830
 7784SOL     OW34813   3.458   3.881   3.095  0.4581 -0.1930  0.1591
 7784SOL    HW134814   3.370   3.919   3.103 -0.1139 -1.1892 -1.2908
 7784SOL    HW234815   3.489   3.886   3.185 -1.4213 -0.4167  0.8259
 7785SOL     OW34816   4.383   2.763   5.325 -0.3000 -0.0495  0.7211
 7785SOL    HW134817   4.445   2.701   5.364  1.3648  0.9150 -0.3665
 7785SOL    HW234818   4.446   2.831   5.300 -0.0765 -0.0937  1.1676
 7786SOL     OW34819   4.599   4.183   4.251 -0.2729 -0.1434 -0.0788
 7786SOL    HW134820   4.561   4.149   4.170 -2.6786  0.4445  0.7887
 7786SOL    HW234821   4.688   4.210   4.231 -0.2135 -0.9516 -0.9334
 7787SOL     OW34822   3.348   0.954   7.150  0.5875 -0.3386  0.0705
 7787SOL    HW134823   3.314   1.020   7.210 -0.8472 -1.7196  0.7766
 7787SOL    HW234824   3.270   0.915   7.111  0.9548 -1.6013  0.5859
 7788SOL     OW34825   2.700   4.700   0.494  0.2201  0.7855 -0.2647
 7788SOL    HW134826   2.683   0.071   0.494  0.0048  0.7703  2.5036
 7788SOL    HW234827   2.612   4.664   0.500 -0.1107  1.2345 -2.4878
 7789SOL     OW34828   0.898   1.196   5.206 -0.8753  0.1231  0.6165
 7789SOL    HW134829   0.945   1.149   5.137  0.0987  0.5845  0.9662
 7789SOL    HW234830   0.896   1.281   5.163 -0.5624  0.1033  0.5651
 7790SOL     OW34831   0.499   0.131   7.185 -0.7845 -0.4694  0.3285
 7790SOL    HW134832   0.522   0.130   7.092 -0.2293  0.7892  0.4589
 7790SOL    HW234833   0.584   0.115   7.226  0.5266  0.8703 -1.8825
 7791SOL     OW34834   2.738   1.640   6.569 -0.0022  0.4588 -0.2691
 7791SOL    HW134835   2.818   1.673   6.527  0.5233 -1.0501 -0.4452
 7791SOL    HW234836   2.671   1.687   6.519 -0.2538  0.1730 -0.2025
 7792SOL     OW34837   4.026   1.388   1.740  0.7307 -0.3348 -0.1326
 7792SOL    HW134838   4.039   1.322   1.808  1.6869 -1.6740 -1.6194
 7792SOL    HW234839   4.057   1.455   1.800 -0.5464 -0.9889  1.2684
 7793SOL     OW34840   2.385   3.399   5.952  0.2144 -0.1463 -0.1252
 7793SOL    HW134841   2.393   3.355   5.867  2.2674  1.3476 -0.6936
 7793SOL    HW234842   2.360   3.328   6.012  2.6304  1.1260  2.3588
 7794SOL     OW34843   2.561   3.058   0.662  0.6223 -0.6539  0.6232
 7794SOL    HW134844   2.605   3.032   0.581 -2.7852 -1.3110 -1.0184
 7794SOL    HW234845   2.565   2.973   0.707  0.9239 -0.0726  1.6959
 7795SOL     OW34846   3.471   3.985  13.070  0.2588  0.1221  0.1809
 7795SOL    HW134847   3.395   3.934  13.041 -1.1265  2.5723 -0.5421
 7795SOL    HW234848   3.461   4.004  13.163 -1.5023  0.1892 -0.0261
 7796SOL     OW34849   2.128   3.586   1.105  0.2243  0.4325 -0.2171
 7796SOL    HW134850   2.132   3.680   1.087 -0.3983  0.9200  2.1884
 7796SOL    HW234851   2.033   3.572   1.114  0.1341 -1.0346 -3.7266
 7797SOL     OW34852   1.341   2.719   0.300  0.4291 -0.0642 -0.3629
 7797SOL    HW134853   1.274   2.691   0.363 -0.0915  0.2123 -0.7967
 7797SOL    HW234854   1.398   2.762   0.364  0.9490  0.0800 -0.9266
 7798SOL     OW34855   2.972   0.942   5.204 -0.8488 -0.0619 -0.1995
 7798SOL    HW134856   3.001   0.853   5.224 -0.1232  0.3307  0.5008
 7798SOL    HW234857   2.892   0.926   5.153 -1.0301  0.9221 -0.2176
 7799SOL     OW34858   2.895   4.479   8.027 -0.3606  0.0506 -0.5630
 7799SOL    HW134859   2.920   4.391   7.998 -1.7311 -0.4604 -0.2089
 7799SOL    HW234860   2.955   4.529   7.973  1.4312  0.0905  1.4490
 7800SOL     OW34861   4.451   2.532   6.659  0.2703 -0.0378  0.2803
 7800SOL    HW134862   4.543   2.537   6.684  0.1101 -2.7954  1.4323
 7800SOL    HW234863   4.447   2.441   6.631 -1.4494 -0.4741  1.8926
 7801SOL     OW34864   0.597   3.510   7.326 -0.2202  0.2648 -0.5533
 7801SOL    HW134865   0.600   3.597   7.286 -0.0558  0.0870 -0.9240
 7801SOL    HW234866   0.689   3.500   7.349 -0.2530 -0.3862 -0.7137
 7802SOL     OW34867   2.888   3.710   3.267  0.0497  0.0676  0.7014
 7802SOL    HW134868   2.874   3.694   3.174  1.4125 -0.0555  0.5231
 7802SOL    HW234869   2.970   3.663   3.281 -0.2813  0.1003  2.8397
 7803SOL     OW34870   1.196   0.052  15.299  0.4558 -0.2899  0.1149
 7803SOL    HW134871   1.121   0.055  15.240  0.2769  2.2496  0.4532
 7803SOL    HW234872   1.226   4.686  15.282 -1.8879 -0.6831 -1.8747
 7804SOL     OW34873   3.551   3.281   0.227 -0.3793  0.0854 -0.0269
 7804SOL    HW134874   3.487   3.347   0.204 -0.4861  0.2415  0.7109
 7804SOL    HW234875   3.495   3.223   0.278  1.1555 -1.3860  0.0022
 7805SOL     OW34876   3.653   4.029   6.090  0.3562  0.0913  0.2344
 7805SOL    HW134877   3.646   3.989   6.176  1.1218  1.5540  0.9706
 7805SOL    HW234878   3.729   3.986   6.050  1.5036  0.4710  2.0468
 7806SOL     OW34879   2.440   3.729   8.633 -0.6744  0.2011 -0.5548
 7806SOL    HW134880   2.509   3.713   8.569  1.1707 -1.7855  1.9468
 7806SOL    HW234881   2.490   3.707   8.711 -0.8998 -2.8609 -1.2934
 7807SOL     OW34882   1.791   1.252  17.132  0.3341 -0.0378  0.0194
 7807SOL    HW134883   1.877   1.214  17.113  0.1751 -0.5338  0.2751
 7807SOL    HW234884   1.791   1.334  17.083 -1.0330 -0.7502 -1.1878
 7808SOL     OW34885   3.633   3.620   8.011 -0.4586  0.0101  0.2228
 7808SOL    HW134886   3.627   3.568   8.091 -3.3361 -0.0919 -0.0820
 7808SOL    HW234887   3.610   3.551   7.948  1.0676  0.1519 -0.4907
 7809SOL     OW34888   2.944   3.660   2.257  0.2648  0.2385 -0.1649
 7809SOL    HW134889   2.871   3.721   2.247  0.8686  0.5001 -3.1455
 7809SOL    HW234890   2.881   3.588   2.253 -1.2127  1.4812  1.0264
 7810SOL     OW34891   0.165   2.453   1.416 -0.0392  0.1429 -0.4045
 7810SOL    HW134892   0.083   2.423   1.377  1.0823 -1.3973 -1.5740
 7810SOL    HW234893   0.221   2.388   1.374  0.6304 -0.1614  0.9790
 7811SOL     OW34894   1.969   3.810   7.749 -1.0972 -0.0468  0.1527
 7811SOL    HW134895   2.027   3.776   7.681 -1.5099 -1.1534  0.3514
 7811SOL    HW234896   1.894   3.753   7.730  0.0287 -0.3829 -3.2583
 7812SOL     OW34897   3.668   0.151   9.209  0.0178 -0.2389 -0.0312
 7812SOL    HW134898   3.635   0.241   9.207 -0.8990 -0.6455 -3.2241
 7812SOL    HW234899   3.759   0.169   9.187  0.2069 -0.6987  0.3812
 7813SOL     OW34900   4.492   0.373   9.844 -0.0935  0.3270  0.6732
 7813SOL    HW134901   4.461   0.463   9.850  1.9050  1.0522  0.2171
 7813SOL    HW234902   4.510   0.346   9.934 -0.8799  0.0657  0.7484
 7814SOL     OW34903   1.519   0.919   4.064  0.4681 -0.1514 -0.6933
 7814SOL    HW134904   1.459   0.971   4.010 -0.5360 -0.7011 -0.1089
 7814SOL    HW234905   1.603   0.963   4.056  0.8070 -0.4496  1.1491
 7815SOL     OW34906   2.464   1.604   7.127  0.3870  0.2867  0.0288
 7815SOL    HW134907   2.534   1.602   7.062  0.6811 -0.4491  0.3644
 7815SOL    HW234908   2.460   1.513   7.157 -0.7518  0.4806  0.4464
 7816SOL     OW34909   2.081   3.333  10.608 -0.1561  0.2572 -0.6333
 7816SOL    HW134910   2.009   3.333  10.544 -0.0748  0.0124 -0.7285
 7816SOL    HW234911   2.142   3.381  10.552 -0.0861 -0.5973 -1.2993
 7817SOL     OW34912   1.293   2.112   3.380  0.1063 -0.0699 -0.2891
 7817SOL    HW134913   1.314   2.104   3.473 -2.2077  0.8181  0.3156
 7817SOL    HW234914   1.323   2.026   3.350 -0.2988  0.0957 -1.1675
 7818SOL     OW34915   0.815   4.120  16.772  0.1871  0.3204 -0.0455
 7818SOL    HW134916   0.882   4.171  16.727  1.7366 -0.9887  0.8152
 7818SOL    HW234917   0.849   4.040  16.811 -1.4951 -1.5066 -2.3084
 7819SOL     OW34918   4.311   0.593   5.643 -0.2026 -0.4719  0.0692
 7819SOL    HW134919   4.352   0.643   5.573 -1.9032  0.6256 -0.1261
 7819SOL    HW234920   4.384   0.562   5.697 -0.1063 -0.4128 -0.0263
 7820SOL     OW34921   0.085   0.731   9.644 -0.0021 -0.2492  0.5145
 7820SOL    HW134922   0.166   0.759   9.688  1.0776  0.7932 -2.1715
 7820SOL    HW234923   0.063   0.809   9.593 -1.0062 -0.2573  0.9406
 7821SOL     OW34924   1.236   0.970  11.014  0.2512 -0.1050 -0.1064
 7821SOL    HW134925   1.210   1.060  11.034 -2.8077 -0.7217 -1.1874
 7821SOL    HW234926   1.230   0.963  10.919  0.6131 -1.7686 -0.0111
 7822SOL     OW34927   3.019   4.466   8.923 -0.5474 -0.1068 -0.1705
 7822SOL    HW134928   3.006   4.381   8.965  1.2321  0.0923  0.8257
 7822SOL    HW234929   3.083   4.510   8.980  1.2819  0.4672 -2.6622
 7823SOL     OW34930   0.812   3.223   5.472  0.1591 -0.3670 -0.3741
 7823SOL    HW134931   0.804   3.235   5.566  0.4371 -0.1005 -0.3847
 7823SOL    HW234932   0.732   3.260   5.436  0.0774 -0.3840 -0.2064
 7824SOL     OW34933   2.838   1.831   1.928 -0.3038 -0.1698  1.1092
 7824SOL    HW134934   2.893   1.755   1.944  1.2140  0.7718  0.3294
 7824SOL    HW234935   2.769   1.810   1.991 -0.8964  0.4180  0.6633
 7825SOL     OW34936   0.178   2.747   7.796 -0.1661  0.5581 -0.1064
 7825SOL    HW134937   0.241   2.812   7.825 -3.1766  1.8042  3.6903
 7825SOL    HW234938   0.205   2.669   7.845  0.7638  0.3096 -1.0163
 7826SOL     OW34939   0.171   0.008   3.525 -0.3614 -0.5937  0.2349
 7826SOL    HW134940   0.176   4.714   3.619  0.1364 -1.9695 -0.0435
 7826SOL    HW234941   0.264   0.019   3.503 -0.1737  0.2856  1.4579
 7827SOL     OW34942   0.846   4.133   9.893 -0.3894  0.3920 -0.2589
 7827SOL    HW134943   0.791   4.170   9.823 -0.4431 -0.3462 -0.6059
 7827SOL    HW234944   0.863   4.041   9.871 -0.8264  0.6776 -1.7707
 7828SOL     OW34945   0.748   1.498   6.848  0.3295 -0.7915 -0.0288
 7828SOL    HW134946   0.736   1.464   6.936 -0.1494 -1.0672 -0.1952
 7828SOL    HW234947   0.808   1.570   6.867 -0.4857  0.0380 -0.5924
 7829SOL     OW34948   0.397   1.784  15.648 -0.3556  0.5624  0.7596
 7829SOL    HW134949   0.393   1.692  15.676 -2.4684  0.3917 -0.1089
 7829SOL    HW234950   0.426   1.833  15.725  0.3712 -1.6667  1.9253
 7830SOL     OW34951   2.636   0.905  13.201  0.0880 -0.4227 -0.0023
 7830SOL    HW134952   2.674   0.831  13.248 -0.7000  0.5437  2.1598
 7830SOL    HW234953   2.589   0.859  13.132  1.6892 -0.9760 -0.7189
 7831SOL     OW34954   0.680   4.418  14.819 -0.5437  0.0090  0.8166
 7831SOL    HW134955   0.671   4.341  14.875  0.5059 -1.0000 -0.4227
 7831SOL    HW234956   0.594   4.411  14.778  0.3338 -1.0821 -0.8252
 7832SOL     OW34957   1.291   1.075  14.987  0.6172 -0.1561 -0.2636
 7832SOL    HW134958   1.329   1.098  14.902  0.7703  1.0705  0.1432
 7832SOL    HW234959   1.332   1.132  15.052 -2.6573  2.0249 -0.1193
 7833SOL     OW34960   0.167   3.638  11.377  0.1854  0.2033 -0.3584
 7833SOL    HW134961   0.261   3.636  11.357  0.0819  1.1329 -0.9549
 7833SOL    HW234962   0.139   3.550  11.352 -1.8103  0.5943  0.5504
 7834SOL     OW34963   1.617   1.839   1.902  0.1674  0.2302 -0.6167
 7834SOL    HW134964   1.572   1.920   1.927  0.7254  0.3042  0.1459
 7834SOL    HW234965   1.654   1.874   1.821 -0.3036  0.5296 -0.7055
 7835SOL     OW34966   0.079   1.383   6.222  0.0438 -0.1860 -0.4761
 7835SOL    HW134967   0.097   1.349   6.310  1.1077  1.7313  0.0259
 7835SOL    HW234968   0.128   1.464   6.237 -0.8651  0.1950  0.4009
 7836SOL     OW34969   3.121   2.771   4.451 -0.3845  0.3101  0.7267
 7836SOL    HW134970   3.184   2.699   4.456 -1.6125 -0.7426  0.9935
 7836SOL    HW234971   3.049   2.740   4.506 -0.3966 -3.5431 -1.4475
 7837SOL     OW34972   1.860   4.243   8.305  0.4639  0.5393 -0.1242
 7837SOL    HW134973   1.803   4.295   8.247 -1.1319 -1.8729 -0.7024
 7837SOL    HW234974   1.865   4.296   8.385 -0.3445  0.8360 -0.2656
 7838SOL     OW34975   2.451   1.819   2.963  0.3004  0.0245  0.3874
 7838SOL    HW134976   2.362   1.856   2.961  0.7214  1.0147 -0.1863
 7838SOL    HW234977   2.429   1.733   2.998  1.1501  1.3592  4.1358
 7839SOL     OW34978   4.012   0.647   8.685 -0.5578 -0.1470  0.1191
 7839SOL    HW134979   3.983   0.719   8.741 -1.7768  0.0748 -0.8049
 7839SOL    HW234980   3.963   0.573   8.721 -0.1519  0.4129  1.8522
 7840SOL     OW34981   0.881   4.291  16.426 -0.1961 -0.5809 -1.0095
 7840SOL    HW134982   0.919   4.255  16.506 -0.9790  0.1689 -0.2911
 7840SOL    HW234983   0.868   4.218  16.367 -0.1912 -1.2154 -0.2287
 7841SOL     OW34984   1.666   0.602   8.430  0.5663 -0.1831  0.5051
 7841SOL    HW134985   1.600   0.668   8.452  1.2036  0.5163  0.3165
 7841SOL    HW234986   1.725   0.670   8.397  1.3263 -1.6086 -1.0503
 7842SOL     OW34987   4.524   3.464   7.789  0.4090  0.4933  0.1695
 7842SOL    HW134988   4.561   3.475   7.702 -0.1326  0.1877 -0.0993
 7842SOL    HW234989   4.526   3.557   7.810  0.5923  0.6634 -0.6140
 7843SOL     OW34990   4.166   3.887  11.298 -0.2330  0.5938  0.5960
 7843SOL    HW134991   4.162   3.875  11.393 -1.5944 -0.3547  0.4183
 7843SOL    HW234992   4.099   3.955  11.289 -0.8841 -0.2713 -1.1113
 7844SOL     OW34993   0.201   0.192   5.141 -0.0025  0.3161  0.4340
 7844SOL    HW134994   0.106   0.199   5.142  0.0117  0.5784 -0.1238
 7844SOL    HW234995   0.210   0.118   5.202  2.9277 -0.3532 -0.7894
 7845SOL     OW34996   0.680   4.144   8.218  0.0490 -0.2795  0.7415
 7845SOL    HW134997   0.690   4.203   8.293 -0.4757  1.0412 -0.2395
 7845SOL    HW234998   0.769   4.129   8.187  0.7478  0.4911  2.3660
 7846SOL     OW34999   4.018   2.762   3.264 -0.2256  0.0792 -0.4984
 7846SOL    HW135000   3.941   2.716   3.296 -0.4978  1.2500  0.5359
 7846SOL    HW235001   4.030   2.727   3.175  0.8819 -4.1679  1.3319
 7847SOL     OW35002   2.419   4.485   5.935 -0.1946 -0.4892 -0.0446
 7847SOL    HW135003   2.369   4.560   5.966 -1.4965 -0.9190 -1.1043
 7847SOL    HW235004   2.437   4.443   6.019 -0.3016 -0.4555 -0.0054
 7848SOL     OW35005   4.019   0.725   4.697  0.1450 -0.4978  0.1580
 7848SOL    HW135006   4.028   0.694   4.787  0.6189  1.4372  0.7982
 7848SOL    HW235007   3.926   0.748   4.692  0.7274  2.1419  1.0605
 7849SOL     OW35008   3.170   0.453   3.891  0.0112  0.2150  0.4882
 7849SOL    HW135009   3.132   0.482   3.808 -1.8556 -3.2470  0.1467
 7849SOL    HW235010   3.096   0.403   3.926 -1.0881  1.2835 -0.2770
 7850SOL     OW35011   1.687   2.145  13.490 -0.3959 -0.0904 -0.0900
 7850SOL    HW135012   1.669   2.147  13.584 -0.4538 -0.0619 -0.1015
 7850SOL    HW235013   1.711   2.235  13.468  0.2918 -0.5397 -1.1305
 7851SOL     OW35014   2.676   3.877  16.433  0.4965  0.1055  0.3200
 7851SOL    HW135015   2.620   3.879  16.356  2.4398 -0.3413 -1.1046
 7851SOL    HW235016   2.694   3.784  16.441 -0.7482 -0.1940 -0.3507
 7852SOL     OW35017   3.260   4.219   5.128  0.0980  0.1803 -0.0512
 7852SOL    HW135018   3.332   4.268   5.166  0.6623  0.4085 -1.4282
 7852SOL    HW235019   3.240   4.285   5.061 -0.8737  0.3753  0.4212
 7853SOL     OW35020   3.287   1.836  11.063  0.5045  0.1875 -0.2760
 7853SOL    HW135021   3.296   1.743  11.081  0.6368  0.0450 -1.0804
 7853SOL    HW235022   3.210   1.850  11.119  0.0316 -1.1946 -0.5764
 7854SOL     OW35023   1.500   1.198   4.251 -0.7169 -0.2744 -0.1540
 7854SOL    HW135024   1.412   1.230   4.267  0.3041  0.5658  3.9000
 7854SOL    HW235025   1.486   1.181   4.158 -1.8707 -0.5112  0.0671
 7855SOL     OW35026   2.759   3.554   3.855 -0.0729  0.1360 -0.3904
 7855SOL    HW135027   2.694   3.624   3.853 -0.4074 -0.1414  0.7764
 7855SOL    HW235028   2.815   3.582   3.928  2.7628 -0.9389 -2.1443
 7856SOL     OW35029   3.185   0.215   6.008 -0.1192 -0.0174 -0.4013
 7856SOL    HW135030   3.140   0.130   6.006 -0.9901  0.5094 -2.6001
 7856SOL    HW235031   3.132   0.267   5.948 -1.0278  1.4322  1.6516
 7857SOL     OW35032   1.025   4.510  11.722 -0.0533  0.3734 -0.5865
 7857SOL    HW135033   0.959   4.453  11.761 -0.7587  1.6522  0.0807
 7857SOL    HW235034   0.967   4.546  11.654 -0.0583 -0.7561 -1.1700
 7858SOL     OW35035   1.589   0.356   6.833 -0.2885  0.2955 -0.3934
 7858SOL    HW135036   1.621   0.420   6.770  0.5081  1.6389  1.3934
 7858SOL    HW235037   1.621   0.401   6.911 -3.0093  0.2864  0.7563
 7859SOL     OW35038   2.472   2.954   2.415 -0.1050 -0.2255  0.2783
 7859SOL    HW135039   2.464   2.962   2.319 -1.8280  0.3549  0.4705
 7859SOL    HW235040   2.528   3.028   2.438 -0.3719  0.0588  0.0138
 7860SOL     OW35041   1.085   1.914  15.443  0.2780  0.2698  0.2904
 7860SOL    HW135042   1.022   1.921  15.372 -3.5039  0.4013  3.6268
 7860SOL    HW235043   1.157   1.867  15.402  0.2129  2.4348 -2.3060
 7861SOL     OW35044   2.731   2.374  17.258 -0.2287  0.9295 -0.3258
 7861SOL    HW135045   2.826   2.362  17.248 -0.6003 -1.2366 -1.2332
 7861SOL    HW235046   2.716   2.463  17.227 -0.0969  0.8604 -0.5865
 7862SOL     OW35047   4.237   1.231  14.632 -0.6537  0.1272 -0.3473
 7862SOL    HW135048   4.311   1.259  14.686 -0.3996 -1.4333  0.1079
 7862SOL    HW235049   4.243   1.292  14.558 -1.6450 -0.3580 -0.8214
 7863SOL     OW35050   0.553   2.710  12.778 -0.2182 -0.7940 -0.1110
 7863SOL    HW135051   0.493   2.678  12.845 -0.7390 -0.8008 -0.5748
 7863SOL    HW235052   0.625   2.650  12.799  0.9763  0.8129  0.3314
 7864SOL     OW35053   1.558   2.108   8.609  0.4467 -0.2626 -0.0116
 7864SOL    HW135054   1.502   2.146   8.542  0.7601 -2.3563 -1.4801
 7864SOL    HW235055   1.507   2.030   8.632 -0.4037  0.5581  0.8901
 7865SOL     OW35056   3.889   3.219   3.567 -0.1236 -0.1148  0.4173
 7865SOL    HW135057   3.919   3.148   3.510 -0.3902  0.0682  0.0404
 7865SOL    HW235058   3.794   3.219   3.557 -0.0513  1.7022 -0.1659
 7866SOL     OW35059   1.825   0.152   0.551 -0.6081 -0.2112  0.1735
 7866SOL    HW135060   1.738   0.180   0.580 -0.4378 -1.3283  1.7754
 7866SOL    HW235061   1.857   0.234   0.514 -2.0789 -0.2589 -1.2005
 7867SOL     OW35062   2.656   1.056  12.458 -0.7868 -0.0996  0.0461
 7867SOL    HW135063   2.608   1.132  12.425 -0.8963 -0.1574  0.0726
 7867SOL    HW235064   2.722   1.038  12.390 -0.4269  0.9141  0.1305
 7868SOL     OW35065   2.731   4.414  13.428 -0.3980 -0.0272  0.1375
 7868SOL    HW135066   2.800   4.442  13.368 -1.1951 -0.2166 -0.8605
 7868SOL    HW235067   2.655   4.466  13.403 -0.6509 -0.9121 -0.9360
 7869SOL     OW35068   0.777   2.313   8.677  0.3652 -1.0399  0.0545
 7869SOL    HW135069   0.707   2.379   8.670  0.0834 -1.4842 -1.4401
 7869SOL    HW235070   0.756   2.252   8.606  1.5139 -1.5506  0.1682
 7870SOL     OW35071   0.136   1.938  14.177  0.1718 -0.2473 -0.6684
 7870SOL    HW135072   0.124   1.908  14.087  0.6264 -1.0326 -0.4695
 7870SOL    HW235073   0.049   1.938  14.216  1.4222 -0.5607  2.0818
 7871SOL     OW35074   3.564   4.518   3.509 -0.2430  0.3271 -0.3716
 7871SOL    HW135075   3.606   4.598   3.538 -2.8765  0.7854  2.0905
 7871SOL    HW235076   3.544   4.483   3.596 -0.6227 -1.6754 -1.2496
 7872SOL     OW35077   2.924   2.842   1.951  0.5300 -0.7683  0.6238
 7872SOL    HW135078   2.975   2.774   1.907  0.1255  0.1017 -1.1923
 7872SOL    HW235079   2.885   2.797   2.026  1.0663 -1.5915  0.4185
 7873SOL     OW35080   2.965   3.957   8.407  0.5817 -0.3420  0.1324
 7873SOL    HW135081   2.992   3.889   8.468 -2.4918 -0.5044  1.3402
 7873SOL    HW235082   2.979   4.035   8.461 -0.1770 -1.9452  2.6716
 7874SOL     OW35083   4.564   2.231   9.455  0.0304 -0.2475 -0.0668
 7874SOL    HW135084   4.540   2.166   9.521  0.0462 -1.1950 -0.9769
 7874SOL    HW235085   4.491   2.225   9.392  0.1526 -0.8857 -0.1522
 7875SOL     OW35086   4.533   3.139  10.963 -0.1705  0.0440 -0.5652
 7875SOL    HW135087   4.480   3.199  11.016  1.9169  0.6387  0.8853
 7875SOL    HW235088   4.572   3.200  10.901  0.3035 -0.1331 -0.4444
 7876SOL     OW35089   1.698   1.815  11.473  0.3244 -0.3069  0.3341
 7876SOL    HW135090   1.708   1.823  11.378 -0.9362  0.0382  0.2265
 7876SOL    HW235091   1.766   1.750  11.491  0.4050  0.2039  1.9089
 7877SOL     OW35092   3.521   1.170   0.163 -0.0761  0.4954  0.0918
 7877SOL    HW135093   3.467   1.137   0.235  1.9434  0.3244  1.5281
 7877SOL    HW235094   3.507   1.112   0.089 -2.3790  0.0596  0.8733
 7878SOL     OW35095   4.434   0.735   0.298  0.4122 -0.1255  0.2865
 7878SOL    HW135096   4.494   0.773   0.362 -0.6310  0.0355  1.1791
 7878SOL    HW235097   4.395   0.806   0.247 -3.3911 -1.5444  1.1631
 7879SOL     OW35098   4.141   0.492   2.573 -0.0633  0.5388 -0.0455
 7879SOL    HW135099   4.167   0.542   2.495  0.8679 -0.6064 -0.4577
 7879SOL    HW235100   4.079   0.547   2.622 -0.9152 -0.1840 -0.3303
 7880SOL     OW35101   0.001   1.919   2.642  0.3862 -0.2241 -0.8903
 7880SOL    HW135102   0.004   1.830   2.678  2.5411  0.2092  0.0056
 7880SOL    HW235103   4.711   1.911   2.548  3.0357  0.2272 -1.3127
 7881SOL     OW35104   1.464   2.465   0.583  0.1716  0.2270  0.0267
 7881SOL    HW135105   1.437   2.392   0.527 -0.3286  0.1798  0.3302
 7881SOL    HW235106   1.558   2.479   0.571  0.0748  2.1843  1.5687
 7882SOL     OW35107   2.093   1.963   4.976  0.3704  0.1828  0.4538
 7882SOL    HW135108   2.165   2.019   4.947 -0.3716  0.4905 -0.7926
 7882SOL    HW235109   2.055   1.934   4.893 -0.1042  1.5804  0.1939
 7883SOL     OW35110   2.729   0.143   9.316  0.4399  0.2106  0.1681
 7883SOL    HW135111   2.791   0.070   9.319  1.0298  0.7641  1.2648
 7883SOL    HW235112   2.787   0.203   9.270  0.1446 -0.0661 -0.5673
 7884SOL     OW35113   2.276   1.310  10.451 -0.1648  0.2280 -0.0255
 7884SOL    HW135114   2.238   1.328  10.365  2.2085  0.7960 -0.9573
 7884SOL    HW235115   2.366   1.343  10.446  0.0340  0.0838  2.4261
 7885SOL     OW35116   1.025   4.682   6.516 -0.1323 -0.5705 -0.3790
 7885SOL    HW135117   1.091   0.028   6.510 -1.4115  0.5543 -1.4559
 7885SOL    HW235118   1.034   4.650   6.605 -0.0377  0.5889  0.0284
 7886SOL     OW35119   4.465   4.544   2.797 -0.1217 -0.3640  0.2075
 7886SOL    HW135120   4.414   4.574   2.872  0.8265  0.1552  0.6453
 7886SOL    HW235121   4.492   4.625   2.755  0.1679 -0.2132  0.6785
 7887SOL     OW35122   1.928   0.521   3.307  0.8385  0.0115  0.9074
 7887SOL    HW135123   1.887   0.525   3.221 -2.6751 -2.3501  2.4788
 7887SOL    HW235124   1.854   0.557   3.357  0.7103 -0.1031  0.7997
 7888SOL     OW35125   4.654   2.227   7.421 -0.2264 -0.1622  0.1681
 7888SOL    HW135126   4.645   2.315   7.384 -0.2926 -0.5672 -0.7808
 7888SOL    HW235127   4.573   2.211   7.468 -0.6905 -0.4179 -0.7182
 7889SOL     OW35128   3.481   2.700  11.167  0.2137 -0.1889  0.5244
 7889SOL    HW135129   3.467   2.684  11.260 -0.0693  0.1929  0.5479
 7889SOL    HW235130   3.512   2.615  11.136  1.2201  0.6757 -0.8443
 7890SOL     OW35131   3.686   4.331   9.435 -0.4899 -0.1119 -0.1138
 7890SOL    HW135132   3.669   4.274   9.360  1.5434  0.3564 -0.9228
 7890SOL    HW235133   3.781   4.330   9.445 -0.5387 -1.4434  0.2223
 7891SOL     OW35134   1.024   2.634   0.853 -0.1288 -0.2965  0.1469
 7891SOL    HW135135   1.021   2.671   0.765 -0.1917  0.0111  0.2780
 7891SOL    HW235136   1.115   2.655   0.876 -0.9580  1.7079  1.5985
 7892SOL     OW35137   0.821   2.961  10.306  0.6351  0.6143  0.4153
 7892SOL    HW135138   0.790   2.870  10.306 -1.0072  1.1682  1.3157
 7892SOL    HW235139   0.871   2.976  10.386  0.3246  1.4383  0.4550
 7893SOL     OW35140   4.460   2.738   3.246 -0.4112  0.2930  0.1176
 7893SOL    HW135141   4.429   2.792   3.318 -0.3487 -0.7233  0.9117
 7893SOL    HW235142   4.551   2.763   3.229 -0.1311 -1.1084 -0.5022
 7894SOL     OW35143   4.528   3.086   9.935 -0.1421 -0.8394 -0.2445
 7894SOL    HW135144   4.537   3.139   9.855  1.2164  1.8933  1.7294
 7894SOL    HW235145   4.622   3.083   9.954 -0.4070 -0.0426  1.1285
 7895SOL     OW35146   0.762   2.642   7.515 -0.2419  0.2770 -0.5080
 7895SOL    HW135147   0.756   2.713   7.579 -1.9815  0.4326 -0.8412
 7895SOL    HW235148   0.823   2.684   7.454  1.4921 -0.8354  0.4525
 7896SOL     OW35149   4.024   0.849   4.121 -0.2452 -0.1770  0.2537
 7896SOL    HW135150   3.970   0.777   4.153  0.6661 -2.0780 -2.4260
 7896SOL    HW235151   4.044   0.879   4.210  1.1199  1.3358 -0.5698
 7897SOL     OW35152   3.663   1.803   5.090 -0.4469  0.1029  0.3756
 7897SOL    HW135153   3.619   1.797   5.175  1.3876 -0.3677  1.2769
 7897SOL    HW235154   3.754   1.806   5.117 -0.2556  0.2521 -0.2882
 7898SOL     OW35155   3.270   4.593   8.970 -0.4858 -0.5534  0.3416
 7898SOL    HW135156   3.220   4.669   9.000 -0.1232  0.3539 -1.3538
 7898SOL    HW235157   3.342   4.600   9.031  0.2173  0.4460 -0.6011
 7899SOL     OW35158   1.738   4.683   9.063 -0.4195  0.1481 -0.2577
 7899SOL    HW135159   1.776   0.047   9.063 -0.6689  0.2599 -2.8855
 7899SOL    HW235160   1.671   4.688   9.131  0.7693 -1.8789  1.0742
 7900SOL     OW35161   2.321   1.742   0.008 -0.0672  0.0556 -0.3580
 7900SOL    HW135162   2.327   1.835   0.030  1.3298  0.1680 -1.2435
 7900SOL    HW235163   2.404   1.721  17.662 -1.7922 -2.1113 -2.6794
 7901SOL     OW35164   0.719   3.386   6.518  0.6002  0.0226  0.2787
 7901SOL    HW135165   0.807   3.356   6.495 -0.0662 -1.3562 -0.5101
 7901SOL    HW235166   0.670   3.339   6.450 -0.7912  2.2876 -0.2909
 7902SOL     OW35167   2.850   1.485   2.756  0.6557 -0.0081  0.0146
 7902SOL    HW135168   2.846   1.579   2.736  0.6977 -0.0985 -0.4199
 7902SOL    HW235169   2.923   1.482   2.818  0.2996 -0.0451  0.4340
 7903SOL     OW35170   1.108   4.559   7.914 -0.3795  1.0841  0.1528
 7903SOL    HW135171   1.140   4.637   7.959  1.0926 -0.3470  1.6151
 7903SOL    HW235172   1.016   4.566   7.940 -0.0292  0.4385  1.5857
 7904SOL     OW35173   2.939   3.444  12.831  0.7012  0.2224  0.4926
 7904SOL    HW135174   2.887   3.422  12.909  1.0858 -0.2911  0.6036
 7904SOL    HW235175   3.024   3.417  12.865  1.7406  2.8583 -0.0284
 7905SOL     OW35176   3.012   3.180   3.086  0.4078 -0.2599  0.0934
 7905SOL    HW135177   3.089   3.236   3.089  0.7961 -0.7688 -0.3043
 7905SOL    HW235178   3.024   3.147   2.997 -1.2123  0.1511 -0.2755
 7906SOL     OW35179   4.236   0.431  16.731  0.7745 -0.3064  0.0516
 7906SOL    HW135180   4.161   0.419  16.672 -0.0824  2.6077  0.5678
 7906SOL    HW235181   4.196   0.435  16.818  1.0413  0.0548  0.1542
 7907SOL     OW35182   3.717   4.176   8.789  0.2171 -0.3136  0.2217
 7907SOL    HW135183   3.636   4.126   8.775 -0.3112  0.5752  0.0570
 7907SOL    HW235184   3.749   4.142   8.872  0.3952 -0.7411 -0.0218
 7908SOL     OW35185   1.068   3.270   6.833  0.0663 -0.3910  0.2700
 7908SOL    HW135186   1.080   3.196   6.774  0.4864 -1.4313  1.6475
 7908SOL    HW235187   1.147   3.321   6.815  0.8456 -0.8486  2.3710
 7909SOL     OW35188   3.435   1.209   5.418  0.0766 -0.3231  0.2013
 7909SOL    HW135189   3.402   1.119   5.423 -3.9436  0.9672 -2.8119
 7909SOL    HW235190   3.369   1.264   5.461 -0.7448 -2.5072  1.7791
 7910SOL     OW35191   0.823   0.033  16.304 -0.0277  0.2049  0.4735
 7910SOL    HW135192   0.866   0.113  16.275  0.4873  0.6750  2.5554
 7910SOL    HW235193   0.773   0.001  16.229 -1.6622  4.2689 -0.1746
 7911SOL     OW35194   1.270   4.559   1.934  0.0957  0.2844  0.2408
 7911SOL    HW135195   1.331   4.611   1.881 -0.4815 -0.4874 -1.1683
 7911SOL    HW235196   1.184   4.595   1.913 -1.4280 -2.1527  2.2991
 7912SOL     OW35197   1.801   3.327   0.382  0.4718  0.1416  0.2070
 7912SOL    HW135198   1.850   3.357   0.459  0.3530 -3.5310  1.7505
 7912SOL    HW235199   1.865   3.354   0.316  1.4876 -0.1408  1.0651
 7913SOL     OW35200   0.705   2.527   2.980  0.7274  0.0853  0.3579
 7913SOL    HW135201   0.682   2.460   2.915  2.1875 -0.0910  0.0201
 7913SOL    HW235202   0.767   2.475   3.032  2.1649 -0.1745 -1.5990
 7914SOL     OW35203   2.933   4.220  14.974  0.1755 -0.1483 -0.3982
 7914SOL    HW135204   2.987   4.288  15.014  0.4813 -1.1011  0.8097
 7914SOL    HW235205   2.969   4.144  15.018 -2.5044 -0.2848  1.5411
 7915SOL     OW35206   3.221   2.396   5.248  0.7358 -0.2625 -0.5869
 7915SOL    HW135207   3.214   2.373   5.341  0.3270  2.0293 -0.0295
 7915SOL    HW235208   3.316   2.405   5.238  1.1584 -1.9158  1.8906
 7916SOL     OW35209   2.819   2.805   5.685  0.1678 -0.0544  0.0732
 7916SOL    HW135210   2.856   2.845   5.606  1.1867 -0.5139  0.3255
 7916SOL    HW235211   2.761   2.736   5.654  1.6352 -1.1606 -0.1925
 7917SOL     OW35212   3.166   1.456   5.745 -0.6298  0.1073  0.1855
 7917SOL    HW135213   3.078   1.433   5.777 -0.9132  1.0744  0.0966
 7917SOL    HW235214   3.225   1.428   5.816  1.9443  1.8532 -1.2730
 7918SOL     OW35215   1.342   2.057   7.818  0.5620  0.3984  0.3085
 7918SOL    HW135216   1.267   2.015   7.858  0.1982 -0.5388 -1.3812
 7918SOL    HW235217   1.295   2.105   7.750  2.6283  0.9314 -0.7553
 7919SOL     OW35218   0.668   0.768  15.928  0.1632  0.1670  0.1038
 7919SOL    HW135219   0.585   0.738  15.966  0.1167  1.9633  1.4158
 7919SOL    HW235220   0.637   0.802  15.844 -1.1690 -2.0077 -0.2841
 7920SOL     OW35221   1.143   1.264  13.053 -0.0620 -0.1593 -0.4870
 7920SOL    HW135222   1.073   1.215  13.096 -1.3713  0.5760 -1.7974
 7920SOL    HW235223   1.222   1.210  13.055  0.6196  0.7610 -2.7079
 7921SOL     OW35224   0.871   4.689   5.111 -0.0930  0.2770 -0.1474
 7921SOL    HW135225   0.857   0.059   5.126  0.0870  0.2639  0.1048
 7921SOL    HW235226   0.781   4.664   5.090 -0.2068 -1.0391  1.8980
 7922SOL     OW35227   2.215   4.285   2.908 -0.4232  0.6212  0.1230
 7922SOL    HW135228   2.173   4.362   2.872  0.4072  0.7289 -0.6109
 7922SOL    HW235229   2.287   4.268   2.848 -1.4227 -0.1477 -0.8546
 7923SOL     OW35230   3.915   0.097   4.161 -0.0302  0.0941 -0.4687
 7923SOL    HW135231   3.832   0.119   4.118 -0.7393 -0.2520  0.7098
 7923SOL    HW235232   3.911   0.135   4.249  0.0020 -0.9354 -0.0178
 7924SOL     OW35233   3.570   2.541  15.034 -0.0870 -0.5007  0.8796
 7924SOL    HW135234   3.631   2.615  15.029  1.2282 -1.7945 -2.1369
 7924SOL    HW235235   3.624   2.466  15.059  0.6444  0.1764  1.3372
 7925SOL     OW35236   0.218   0.103   2.774  0.1766  0.1126  0.3715
 7925SOL    HW135237   0.136   0.094   2.725 -1.2170  2.1300  2.3090
 7925SOL    HW235238   0.215   0.199   2.776  1.9716  0.1275  1.6079
 7926SOL     OW35239   1.117   1.673  12.992 -0.7182 -0.0138 -0.1540
 7926SOL    HW135240   1.045   1.611  13.001 -0.3894 -0.3688  0.0214
 7926SOL    HW235241   1.163   1.645  13.071 -0.8749 -1.8769 -0.7131
 7927SOL     OW35242   2.990   0.161   8.003  0.3429  0.1405 -0.1228
 7927SOL    HW135243   2.922   0.154   8.070  1.5488  0.4723  1.1438
 7927SOL    HW235244   2.935   0.184   7.929 -0.6145 -1.1002  0.2118
 7928SOL     OW35245   1.582   0.960   4.719  0.2826  0.1805  0.5042
 7928SOL    HW135246   1.532   0.889   4.680 -0.8649  0.7938  0.8460
 7928SOL    HW235247   1.528   1.038   4.706 -1.6787 -1.3525 -0.6316
 7929SOL     OW35248   1.945   2.455   9.520  0.5069 -0.0677  0.0139
 7929SOL    HW135249   1.973   2.543   9.543  0.7577 -0.3378  0.7601
 7929SOL    HW235250   1.915   2.422   9.606  1.1797 -1.2189 -0.1986
 7930SOL     OW35251   3.713   1.142   2.330 -0.0611 -0.5785  0.2682
 7930SOL    HW135252   3.711   1.129   2.235  1.6713 -0.9057  0.2664
 7930SOL    HW235253   3.803   1.119   2.353  0.9814  1.5113 -1.7256
 7931SOL     OW35254   0.829   2.563   6.011 -0.3846  0.2434  0.7294
 7931SOL    HW135255   0.915   2.602   5.995 -0.1251 -0.3339  0.7508
 7931SOL    HW235256   0.774   2.596   5.939 -0.4051 -1.1533  0.1089
 7932SOL     OW35257   1.476   0.541   8.196 -0.3606 -0.0882  0.6315
 7932SOL    HW135258   1.551   0.571   8.247 -1.4764  0.3189  2.0509
 7932SOL    HW235259   1.410   0.578   8.254 -0.0948 -2.3543  2.3741
 7933SOL     OW35260   1.093   3.467   2.622 -0.0349  0.1269 -0.0781
 7933SOL    HW135261   1.109   3.388   2.570 -1.0921 -0.6064  0.7202
 7933SOL    HW235262   1.007   3.442   2.656  0.3252 -1.3455 -0.2254
 7934SOL     OW35263   4.580   1.072   8.737 -0.5428  0.3205  0.3459
 7934SOL    HW135264   4.551   1.043   8.824  2.7009  2.1754  2.0553
 7934SOL    HW235265   4.498   1.053   8.691 -2.0109  0.4020  2.9427
 7935SOL     OW35266   3.999   1.187   7.480  0.1139  0.1828 -0.0282
 7935SOL    HW135267   4.075   1.244   7.499 -0.9081  1.2401  0.8857
 7935SOL    HW235268   3.953   1.190   7.564  2.1458 -2.2544  1.1589
 7936SOL     OW35269   1.506   4.035   2.287  0.1549  0.0595  0.0439
 7936SOL    HW135270   1.524   4.078   2.371  2.0956 -0.4588 -0.1053
 7936SOL    HW235271   1.465   3.958   2.326  2.0289 -0.2891  1.3048
 7937SOL     OW35272   0.936   4.081   8.197 -0.2823  0.3726 -0.8721
 7937SOL    HW135273   0.985   4.011   8.240 -0.9656  0.1672 -0.4369
 7937SOL    HW235274   1.008   4.136   8.164 -1.9744  1.5426 -2.5619
 7938SOL     OW35275   2.878   2.248   9.201 -0.2990  0.4577  0.1233
 7938SOL    HW135276   2.800   2.198   9.225 -0.2372 -0.5305 -1.7424
 7938SOL    HW235277   2.882   2.303   9.280  0.5014 -1.1945  1.2273
 7939SOL     OW35278   0.030   4.525  17.496 -0.0224  0.2337 -0.1051
 7939SOL    HW135279   0.038   4.572  17.579 -2.0506 -1.5926  1.1038
 7939SOL    HW235280   4.709   4.449  17.532 -0.4494 -0.3229 -1.7938
 7940SOL     OW35281   3.379   0.744  15.338  0.1397 -0.2613 -0.2891
 7940SOL    HW135282   3.439   0.745  15.413 -0.8764 -0.9631  0.5253
 7940SOL    HW235283   3.298   0.752  15.388  2.8797  1.7084  3.8632
 7941SOL     OW35284   3.767   1.658   7.617 -0.5165  0.0909  0.7437
 7941SOL    HW135285   3.745   1.747   7.645 -2.0763  0.1733 -0.7511
 7941SOL    HW235286   3.731   1.663   7.528 -1.1260 -0.5623  0.9598
 7942SOL     OW35287   2.876   3.153   8.737 -0.8982 -1.0132 -0.0959
 7942SOL    HW135288   2.859   3.120   8.649  1.0761 -0.9058 -0.5189
 7942SOL    HW235289   2.967   3.123   8.744 -0.3889  0.9032  1.4747
 7943SOL     OW35290   4.556   4.332  17.543  0.0787 -0.0084 -0.0212
 7943SOL    HW135291   4.526   4.423  17.552 -1.2311 -0.5680  1.2562
 7943SOL    HW235292   4.500   4.309  17.469  1.1661 -1.1573 -0.4699
 7944SOL     OW35293   1.108   0.957  12.641 -0.2322 -0.2090 -0.9595
 7944SOL    HW135294   1.023   1.001  12.637 -1.4044 -2.1192  2.7341
 7944SOL    HW235295   1.096   0.878  12.588  1.0108 -0.4099 -0.9326
 7945SOL     OW35296   1.426   3.882   4.902 -0.0694  0.0016  0.1701
 7945SOL    HW135297   1.331   3.877   4.918  0.2034 -0.0254  1.7515
 7945SOL    HW235298   1.466   3.912   4.983  0.7444  2.4136 -1.1052
 7946SOL     OW35299   1.309   1.983   5.176 -0.0750  0.1248  0.2160
 7946SOL    HW135300   1.378   2.018   5.232  0.9223 -0.2954 -0.7630
 7946SOL    HW235301   1.293   2.063   5.126  0.8690 -0.0415 -0.3343
 7947SOL     OW35302   0.074   1.265   0.193  0.1069 -0.3569 -0.1082
 7947SOL    HW135303   4.714   1.250   0.149 -0.1609  0.0734  0.2602
 7947SOL    HW235304   0.144   1.250   0.129  1.1474 -1.3797  1.2820
 7948SOL     OW35305   0.021   1.422   1.794  0.3064  0.0821 -0.2776
 7948SOL    HW135306   4.652   1.434   1.817  0.3302 -1.5750  0.6960
 7948SOL    HW235307   0.036   1.347   1.852  0.7682 -1.7683 -2.8027
 7949SOL     OW35308   2.123   3.255   4.435  0.1735  0.1055  0.4093
 7949SOL    HW135309   2.172   3.231   4.356  1.6550  0.1811  1.3145
 7949SOL    HW235310   2.031   3.241   4.413  0.3578 -0.6401  0.1079
 7950SOL     OW35311   1.617   3.113   8.294  0.6668 -0.3111 -0.7906
 7950SOL    HW135312   1.668   3.036   8.267 -3.0422 -2.7527 -0.8143
 7950SOL    HW235313   1.673   3.184   8.262  0.0702 -0.2116 -1.6164
 7951SOL     OW35314   1.202   2.276  14.688  0.1848  0.4262 -0.0253
 7951SOL    HW135315   1.151   2.357  14.686 -1.1200 -0.4009 -0.5143
 7951SOL    HW235316   1.283   2.312  14.725 -0.4326  1.2401  0.5412
 7952SOL     OW35317   2.810   3.408   3.088 -0.2852 -0.1416 -0.6153
 7952SOL    HW135318   2.799   3.313   3.091  0.7544 -0.2563 -0.5782
 7952SOL    HW235319   2.798   3.445   3.175 -0.6444 -0.3658 -0.5654
 7953SOL     OW35320   4.497   3.842   6.313  0.2752  0.1170 -0.1258
 7953SOL    HW135321   4.502   3.867   6.405 -0.4911 -0.3404  0.0342
 7953SOL    HW235322   4.583   3.800   6.309 -0.1639 -0.8964  1.3963
 7954SOL     OW35323   3.366   3.208  10.343 -0.6607  0.0620  0.5994
 7954SOL    HW135324   3.343   3.155  10.267 -1.3147  0.5770  0.4499
 7954SOL    HW235325   3.456   3.227  10.316 -0.8559  4.0582  2.8353
 7955SOL     OW35326   0.112   1.849  16.843 -0.2042  0.4592 -0.2900
 7955SOL    HW135327   0.178   1.903  16.885  1.1587  0.1974 -2.0770
 7955SOL    HW235328   0.088   1.913  16.777 -0.1757 -0.0505 -0.7987
 7956SOL     OW35329   1.733   2.331  12.791  0.5051 -0.3014 -0.0127
 7956SOL    HW135330   1.823   2.299  12.798  1.4694  2.4701  0.4163
 7956SOL    HW235331   1.709   2.270  12.722 -2.8530 -0.3590  1.2048
 7957SOL     OW35332   3.443   1.325   0.542 -0.0399  0.3207  0.2810
 7957SOL    HW135333   3.520   1.356   0.494 -1.5371  3.2733 -0.1903
 7957SOL    HW235334   3.405   1.253   0.493  0.3326  1.1801 -1.2767
 7958SOL     OW35335   1.547   4.109   6.997  0.4768  0.4488 -0.2655
 7958SOL    HW135336   1.476   4.150   7.047 -1.3142 -0.7133 -1.8363
 7958SOL    HW235337   1.572   4.190   6.953  0.3915  2.0295  2.6208
 7959SOL     OW35338   4.110   1.648   9.844  0.5426  0.0825 -0.0992
 7959SOL    HW135339   4.101   1.554   9.827 -0.3476  0.1177  0.1876
 7959SOL    HW235340   4.022   1.687   9.841  0.2744 -0.6488 -1.6422
 7960SOL     OW35341   0.075   1.608   3.480 -0.2400 -0.2431 -0.8220
 7960SOL    HW135342   0.002   1.618   3.541  0.8861  2.1755  0.1291
 7960SOL    HW235343   0.150   1.647   3.525 -0.9825  2.9362 -2.3672
 7961SOL     OW35344   0.316   3.132   6.943 -0.5611 -0.1246 -0.0423
 7961SOL    HW135345   0.259   3.067   6.902  1.0715 -0.4835 -1.7117
 7961SOL    HW235346   0.324   3.095   7.031  1.2623  0.7362  0.1601
 7962SOL     OW35347   3.637   3.768   9.753  0.1447  0.3146  0.0218
 7962SOL    HW135348   3.616   3.854   9.718  1.5744  0.3872 -0.6789
 7962SOL    HW235349   3.554   3.721   9.754 -0.9041  2.1724 -1.2091
 7963SOL     OW35350   1.663   0.495  10.120 -0.5846  0.5065 -0.3638
 7963SOL    HW135351   1.666   0.514  10.026 -0.6346 -1.5237 -0.7723
 7963SOL    HW235352   1.657   0.400  10.109  0.9756  0.7128 -3.1463
 7964SOL     OW35353   2.158   2.545   3.251 -0.2283  0.4834  0.0338
 7964SOL    HW135354   2.247   2.531   3.284  0.8828  1.8918 -2.3723
 7964SOL    HW235355   2.172   2.523   3.159  1.1075  0.2482  0.2917
 7965SOL     OW35356   4.076   3.950   6.779 -0.4257 -0.3118  0.3891
 7965SOL    HW135357   3.989   3.971   6.743 -0.2268 -1.8528 -0.9519
 7965SOL    HW235358   4.056   3.879   6.840  1.2008 -0.4633  0.7259
 7966SOL     OW35359   1.768   3.233   5.108  0.3529  0.6469  0.4383
 7966SOL    HW135360   1.744   3.221   5.016  0.5477  1.3084  0.3056
 7966SOL    HW235361   1.750   3.327   5.114  0.2099  0.6367  0.1599
 7967SOL     OW35362   1.512   0.294   8.858  0.4816 -1.2555 -0.3033
 7967SOL    HW135363   1.479   0.329   8.941  1.7626 -1.4158  0.2874
 7967SOL    HW235364   1.552   0.371   8.817  0.0529  0.0259  1.6861
 7968SOL     OW35365   4.359   1.693   3.619 -0.3890  0.1583  0.3977
 7968SOL    HW135366   4.358   1.771   3.675 -0.0883  0.1974  0.3512
 7968SOL    HW235367   4.378   1.726   3.532 -1.1283  1.3340  0.6809
 7969SOL     OW35368   1.279   1.101   8.974 -0.2412 -0.1413 -0.2546
 7969SOL    HW135369   1.228   1.147   9.042  1.5258  1.0317  0.2717
 7969SOL    HW235370   1.362   1.071   9.011 -0.6526 -1.9752 -0.7945
 7970SOL     OW35371   1.606   2.726   5.533 -0.0969 -0.2503  0.5788
 7970SOL    HW135372   1.563   2.766   5.608  0.0594  1.1456 -0.0760
 7970SOL    HW235373   1.677   2.790   5.530 -0.3402 -0.0119  0.0098
 7971SOL     OW35374   2.953   2.293   4.809 -0.4200  0.4238 -0.1833
 7971SOL    HW135375   2.980   2.233   4.879 -2.0017 -1.2118 -0.9739
 7971SOL    HW235376   3.015   2.364   4.823  0.3945 -0.1410 -0.9666
 7972SOL     OW35377   0.718   3.240  15.672  0.3303 -0.2297 -0.0685
 7972SOL    HW135378   0.731   3.150  15.642 -3.2502 -0.9218  0.4494
 7972SOL    HW235379   0.654   3.232  15.743  0.4198 -1.1726 -0.0990
 7973SOL     OW35380   2.323   2.334   6.890  0.1890 -0.3821 -0.3297
 7973SOL    HW135381   2.341   2.276   6.816 -0.3563 -0.0923 -0.6895
 7973SOL    HW235382   2.406   2.381   6.902  1.0666 -2.3493  1.3173
 7974SOL     OW35383   3.987   3.741   3.577 -0.0496  0.3942  0.5617
 7974SOL    HW135384   4.079   3.765   3.564 -0.2222  1.5233  1.4391
 7974SOL    HW235385   3.973   3.655   3.537  1.0458  0.9534 -1.0126
 7975SOL     OW35386   4.549   1.816  13.663  0.0913 -0.1887  0.0190
 7975SOL    HW135387   4.501   1.835  13.744  1.0197  0.5366  0.4091
 7975SOL    HW235388   4.584   1.730  13.687 -1.1500 -1.0714 -1.3428
 7976SOL     OW35389   2.676   2.059   9.218 -0.4073 -0.1655  0.3304
 7976SOL    HW135390   2.676   2.016   9.133  0.2408  0.9495 -0.2342
 7976SOL    HW235391   2.591   2.040   9.257  0.6441 -1.6134  1.9371
 7977SOL     OW35392   0.338   1.913   7.812  1.1532  0.2847  0.5176
 7977SOL    HW135393   0.377   1.991   7.851  0.9679  1.1806 -1.0937
 7977SOL    HW235394   0.353   1.928   7.719 -1.1256  1.0798  0.2673
 7978SOL     OW35395   0.699   2.603   3.679  0.2684 -0.0070 -0.2525
 7978SOL    HW135396   0.768   2.640   3.734 -1.1328 -0.9759  2.1646
 7978SOL    HW235397   0.639   2.676   3.667 -0.9233 -0.8329  0.6294
 7979SOL     OW35398   2.326   2.773   9.812 -0.6326 -0.2019 -0.3335
 7979SOL    HW135399   2.252   2.831   9.791 -0.9998  0.2584  2.2496
 7979SOL    HW235400   2.391   2.792   9.744  1.2089  1.0488  1.7677
 7980SOL     OW35401   1.242   3.164  15.105 -0.4234  0.1132 -0.2186
 7980SOL    HW135402   1.234   3.235  15.042  0.7828  0.3389 -0.1209
 7980SOL    HW235403   1.201   3.092  15.058  0.6322 -0.3009 -0.5195
 7981SOL     OW35404   1.514   1.835   3.874  0.1794  0.6638 -0.4505
 7981SOL    HW135405   1.597   1.787   3.878 -0.6530 -0.7893 -0.6397
 7981SOL    HW235406   1.558   1.920   3.879  0.8579  0.1724  1.9934
 7982SOL     OW35407   4.494   2.655   4.752  0.1162  0.4857 -0.0708
 7982SOL    HW135408   4.405   2.675   4.723  0.3805 -0.1712 -1.3429
 7982SOL    HW235409   4.534   2.738   4.777  1.1145 -0.1854  0.5534
 7983SOL     OW35410   2.024   0.856   3.927  0.5241 -0.0709  0.2082
 7983SOL    HW135411   2.040   0.943   3.963  0.4283 -0.0307  0.1523
 7983SOL    HW235412   2.116   0.828   3.921  0.8529  0.9276  0.5735
 7984SOL     OW35413   0.077   2.240   7.772 -0.2118  0.8525 -0.5083
 7984SOL    HW135414   4.720   2.192   7.790 -0.0816  1.0367  0.5796
 7984SOL    HW235415   0.097   2.211   7.683 -1.7960  3.2040 -1.6398
 7985SOL     OW35416   0.567   3.875   1.755 -0.6040 -0.5565 -0.1065
 7985SOL    HW135417   0.582   3.928   1.833  2.1110  1.6878 -2.1523
 7985SOL    HW235418   0.538   3.793   1.795 -0.1616 -0.8735 -0.4360
 7986SOL     OW35419   2.774   3.632  16.464 -0.2161  0.3889  0.4839
 7986SOL    HW135420   2.786   3.601  16.374 -1.2363  1.0678  0.1193
 7986SOL    HW235421   2.727   3.560  16.507 -1.7100 -1.4948 -4.3035
 7987SOL     OW35422   0.720   3.591  13.818  0.1072 -0.2632 -0.2759
 7987SOL    HW135423   0.809   3.559  13.826  0.7302  1.9193  1.6825
 7987SOL    HW235424   0.734   3.652  13.746 -1.9464 -0.9600 -1.2954
 7988SOL     OW35425   0.451   2.292   8.668 -0.0791  0.0535 -0.5583
 7988SOL    HW135426   0.398   2.213   8.657 -0.4849  0.2070  0.2806
 7988SOL    HW235427   0.460   2.296   8.763 -2.8574 -1.3343 -0.2325
 7989SOL     OW35428   1.123   1.562  14.681  0.0121  0.0898 -0.5688
 7989SOL    HW135429   1.204   1.566  14.629  1.3369  0.5362  1.5504
 7989SOL    HW235430   1.053   1.568  14.616 -0.2890  2.2085 -0.0650
 7990SOL     OW35431   4.471   1.539   6.325  0.2720 -0.3470  0.1312
 7990SOL    HW135432   4.473   1.565   6.417 -0.8630  4.6763 -1.2881
 7990SOL    HW235433   4.397   1.580   6.282  0.7845 -3.5972 -3.9434
 7991SOL     OW35434   1.030   1.105   7.556 -0.1989  0.0311 -0.5699
 7991SOL    HW135435   0.946   1.109   7.602  0.2884  0.0387  0.3103
 7991SOL    HW235436   1.076   1.173   7.606  0.7239 -0.6126 -0.5406
 7992SOL     OW35437   4.462   3.817   2.220 -0.0328 -0.2570 -0.3494
 7992SOL    HW135438   4.390   3.757   2.207 -0.5933  0.3390 -0.0236
 7992SOL    HW235439   4.418   3.878   2.280  1.0257 -1.2135  1.4086
 7993SOL     OW35440   0.121   0.181   6.860 -0.0920  0.0027  0.1099
 7993SOL    HW135441   0.138   0.231   6.940 -0.6035  0.0551  0.1879
 7993SOL    HW235442   0.031   0.148   6.870  0.1903 -0.8222 -0.0667
 7994SOL     OW35443   2.940   4.057   9.450  0.4885 -0.2708  0.3677
 7994SOL    HW135444   2.849   4.085   9.464 -0.3181 -2.1726 -1.1496
 7994SOL    HW235445   2.976   4.105   9.524  1.6099 -1.5311  0.6287
 7995SOL     OW35446   1.025   0.360  14.397  0.2264  0.2992  1.4040
 7995SOL    HW135447   0.995   0.407  14.475  1.6403  3.0947  0.2527
 7995SOL    HW235448   0.983   0.275  14.414  0.5225 -0.7848 -3.3305
 7996SOL     OW35449   2.466   0.732   5.078 -0.3066  0.5199 -0.5248
 7996SOL    HW135450   2.488   0.653   5.030 -1.6449 -2.0696  3.1692
 7996SOL    HW235451   2.401   0.775   5.022 -0.1234 -2.0974 -2.7459
 7997SOL     OW35452   3.298   2.622   6.687  0.2004  0.2122 -0.3136
 7997SOL    HW135453   3.392   2.603   6.674 -0.0529 -0.4357 -1.2188
 7997SOL    HW235454   3.269   2.562   6.618  0.2340 -1.5568  1.2112
 7998SOL     OW35455   4.290   4.512   6.189  0.5472 -0.2615 -0.7013
 7998SOL    HW135456   4.202   4.497   6.155 -1.4772  0.5857  4.2886
 7998SOL    HW235457   4.279   4.497   6.282 -3.3490  2.6391 -0.7233
 7999SOL     OW35458   1.885   2.240   1.167  0.2051 -0.1452  0.4255
 7999SOL    HW135459   1.854   2.150   1.157 -0.6792 -0.0688  2.3490
 7999SOL    HW235460   1.844   2.282   1.091  1.6642 -1.0458 -0.8597
 8000SOL     OW35461   2.259   4.149  17.582  0.3371  0.1909 -0.3585
 8000SOL    HW135462   2.347   4.187  17.583  0.2405  0.5204 -2.9654
 8000SOL    HW235463   2.261   4.091  17.506 -1.8924  2.4055 -2.1074
 8001SOL     OW35464   3.813   3.939   3.437 -0.3739 -0.7876  0.2293
 8001SOL    HW135465   3.884   3.999   3.412  0.0667 -1.0562  0.8162
 8001SOL    HW235466   3.857   3.865   3.479  2.0364  1.4856  1.7502
 8002SOL     OW35467   0.674   2.353   6.073  0.7242  0.0193  0.0713
 8002SOL    HW135468   0.739   2.422   6.062  1.0302 -0.8116 -3.3236
 8002SOL    HW235469   0.626   2.377   6.152 -1.1541  0.4252 -1.2087
 8003SOL     OW35470   3.944   1.295   2.741 -0.3186  0.7569  0.1328
 8003SOL    HW135471   3.950   1.302   2.837  0.0120 -1.3313  0.2665
 8003SOL    HW235472   3.856   1.330   2.729  0.1229  1.5131 -0.8785
 8004SOL     OW35473   1.117   3.242  17.565 -0.5582 -0.5935 -0.4589
 8004SOL    HW135474   1.142   3.321  17.517  0.4044 -0.6095  0.0222
 8004SOL    HW235475   1.177   3.177  17.528  1.6270  2.5772 -2.5151
 8005SOL     OW35476   4.014   0.065  12.777  0.4071 -0.7554 -0.1887
 8005SOL    HW135477   3.947   0.001  12.801  2.3881 -1.8184  2.4240
 8005SOL    HW235478   4.090   0.009  12.766 -0.8155 -2.3544 -0.5903
 8006SOL     OW35479   0.040   2.203   8.678 -0.0240 -0.2177 -0.2527
 8006SOL    HW135480   4.668   2.200   8.680  0.0060 -1.5039 -0.7706
 8006SOL    HW235481   0.071   2.126   8.727 -0.0543  0.6611  1.1402
 8007SOL     OW35482   3.251   4.036  16.594 -0.9824  0.3220  0.4437
 8007SOL    HW135483   3.170   4.086  16.597 -0.6047  0.9385  0.5004
 8007SOL    HW235484   3.315   4.107  16.586 -0.2434 -0.3138  0.7116
 8008SOL     OW35485   0.332   3.834   6.888  0.5883  0.1029  0.3861
 8008SOL    HW135486   0.314   3.924   6.863 -1.2628 -0.1623  0.7441
 8008SOL    HW235487   0.250   3.807   6.930  0.5460 -0.1961  0.1194
 8009SOL     OW35488   2.015   1.050   6.831 -0.0173 -0.1310 -0.2377
 8009SOL    HW135489   2.042   0.999   6.907  1.5915  1.2606  0.1298
 8009SOL    HW235490   2.044   0.987   6.765 -1.6010  0.7910 -1.8059
 8010SOL     OW35491   0.801   2.093   2.411 -0.1029  0.0288 -0.3141
 8010SOL    HW135492   0.799   2.092   2.315  0.8506 -0.4605 -0.3329
 8010SOL    HW235493   0.745   2.021   2.438  0.0987 -0.2687 -0.6860
 8011SOL     OW35494   3.013   4.522   7.413  0.4368 -0.2720 -0.1204
 8011SOL    HW135495   3.051   4.482   7.491 -2.2358  0.4227  1.5607
 8011SOL    HW235496   3.025   4.616   7.427  1.5334 -0.4795  0.3376
 8012SOL     OW35497   2.305   3.128   8.110  0.4471 -0.3409  0.1634
 8012SOL    HW135498   2.230   3.184   8.092 -1.0855 -2.0970  1.1135
 8012SOL    HW235499   2.265   3.060   8.164 -1.4682 -1.1645 -2.2862
 8013SOL     OW35500   2.766   1.924   8.299 -0.6810  0.2319  0.5234
 8013SOL    HW135501   2.749   1.830   8.299  0.6841 -0.0072  0.9482
 8013SOL    HW235502   2.685   1.960   8.336 -1.0239  0.3642 -0.3311
 8014SOL     OW35503   1.199   0.281   9.235  0.2262  0.3003  0.1514
 8014SOL    HW135504   1.116   0.235   9.247  0.4439 -0.7458 -2.3311
 8014SOL    HW235505   1.166   0.368   9.212 -1.2858 -0.2684  0.1517
 8015SOL     OW35506   3.167   4.445   2.389 -0.7851 -0.0477  0.5214
 8015SOL    HW135507   3.102   4.505   2.353  0.2763  0.7761 -0.0167
 8015SOL    HW235508   3.237   4.473   2.329 -0.6438 -0.6448  0.4054
 8016SOL     OW35509   4.513   1.253   4.004 -0.0977 -0.1412 -0.2156
 8016SOL    HW135510   4.516   1.334   4.055  1.0150 -1.5421  1.9460
 8016SOL    HW235511   4.594   1.205   4.023  0.1211  0.9130  1.5213
 8017SOL     OW35512   0.788   3.947   2.906 -0.8222 -0.0562  0.7199
 8017SOL    HW135513   0.833   3.885   2.849  2.9197  1.7508  1.7053
 8017SOL    HW235514   0.823   3.929   2.993  0.1180 -0.2968  0.2894
 8018SOL     OW35515   4.593   0.287   1.792  0.2416 -0.3582 -0.2561
 8018SOL    HW135516   4.654   0.218   1.818  3.3412  2.2564 -0.5351
 8018SOL    HW235517   4.649   0.346   1.741  0.0917 -0.0813 -0.1005
 8019SOL     OW35518   0.576   3.805   8.848  0.0033  0.3120 -0.2004
 8019SOL    HW135519   0.669   3.788   8.832  0.4704  2.9805 -0.3312
 8019SOL    HW235520   0.554   3.716   8.872  2.3510 -0.3815 -0.6068
 8020SOL     OW35521   3.804   1.247  13.896  0.2518  0.5079 -0.1879
 8020SOL    HW135522   3.812   1.244  13.991  1.1476  1.4400 -0.2361
 8020SOL    HW235523   3.757   1.165  13.880 -0.8586  0.5376  2.8452
 8021SOL     OW35524   2.033   0.910   5.609 -0.4013  0.7253 -0.1243
 8021SOL    HW135525   2.111   0.855   5.597 -1.6675 -0.9102 -0.7601
 8021SOL    HW235526   2.000   0.869   5.688 -1.0677 -0.9601 -1.2689
 8022SOL     OW35527   1.944   2.254  17.039  0.6093 -0.0145  0.0753
 8022SOL    HW135528   1.959   2.326  17.100  0.4802 -0.0794  0.1819
 8022SOL    HW235529   1.871   2.208  17.080  0.2509 -0.2241 -0.8122
 8023SOL     OW35530   1.784   0.120   4.308 -0.2225  0.3474 -0.4392
 8023SOL    HW135531   1.742   0.203   4.332  1.9671  0.5779  2.6691
 8023SOL    HW235532   1.754   0.065   4.380  0.6195  0.3626 -0.0714
 8024SOL     OW35533   1.240   1.446  10.179 -0.0024 -0.2639  0.0641
 8024SOL    HW135534   1.300   1.482  10.245 -1.4657  1.0711  0.6575
 8024SOL    HW235535   1.303   1.460  10.108 -1.5755 -0.3656 -1.3637
 8025SOL     OW35536   1.119   0.681   2.468  0.4996 -0.1930  0.4442
 8025SOL    HW135537   1.029   0.694   2.439 -0.0987  1.3209  2.9993
 8025SOL    HW235538   1.176   0.694   2.393  0.9708 -0.9242  0.6682
 8026SOL     OW35539   0.858   3.139   9.557 -0.2694 -0.0109 -0.5919
 8026SOL    HW135540   0.821   3.059   9.595  0.5622  1.0055  2.3182
 8026SOL    HW235541   0.919   3.125   9.485  0.8394 -1.1472  0.5549
 8027SOL     OW35542   0.212   3.384   8.509 -0.7827  0.4887 -0.0878
 8027SOL    HW135543   0.162   3.398   8.428 -1.6181  0.8506  0.4914
 8027SOL    HW235544   0.210   3.289   8.516  0.7527  0.4315 -0.5282
 8028SOL     OW35545   0.623   4.155  15.005 -0.3357 -0.1327 -0.1433
 8028SOL    HW135546   0.572   4.181  15.082  2.2861  2.4287  0.7475
 8028SOL    HW235547   0.638   4.066  15.036  1.2497  0.2499  0.1991
 8029SOL     OW35548   2.418   4.442   2.446  0.1696 -0.1105  0.0795
 8029SOL    HW135549   2.436   4.534   2.467  0.4627 -0.3791  1.0357
 8029SOL    HW235550   2.401   4.449   2.352 -1.1167  2.7380  0.5212
 8030SOL     OW35551   4.400   2.792  15.224 -0.0921  0.0076 -0.0329
 8030SOL    HW135552   4.399   2.737  15.146 -1.4073 -0.2665  0.1717
 8030SOL    HW235553   4.366   2.733  15.291 -0.6749  0.8201  0.3969
 8031SOL     OW35554   0.540   3.174   8.051 -0.2175  0.1134 -0.2544
 8031SOL    HW135555   0.562   3.190   7.960  2.4777 -1.5511  0.1299
 8031SOL    HW235556   0.627   3.192   8.085 -1.1086 -0.1429  2.2608
 8032SOL     OW35557   2.221   4.339   8.831 -0.0741  0.5954  0.4417
 8032SOL    HW135558   2.195   4.408   8.771 -0.4072 -1.2261 -1.5111
 8032SOL    HW235559   2.276   4.394   8.887 -0.5722 -0.4666  1.9641
 8033SOL     OW35560   3.724   2.441   2.365 -0.0401  0.1980 -0.3145
 8033SOL    HW135561   3.772   2.479   2.438  0.5710 -0.2015 -0.5125
 8033SOL    HW235562   3.644   2.493   2.355 -0.9405 -1.0600  0.2251
 8034SOL     OW35563   1.111   1.541  16.980  0.5288  0.2339  1.1766
 8034SOL    HW135564   1.156   1.580  16.906  0.5171  0.3996  1.2587
 8034SOL    HW235565   1.021   1.575  16.980  0.4945  0.1413  1.3018
 8035SOL     OW35566   2.372   3.010   5.680 -0.4117 -0.5808 -0.1238
 8035SOL    HW135567   2.297   2.978   5.731 -1.5071 -0.7522 -1.8585
 8035SOL    HW235568   2.352   3.103   5.692  2.0330 -0.0280 -0.2316
 8036SOL     OW35569   4.298   1.489   2.797  0.0333 -0.0816 -0.1785
 8036SOL    HW135570   4.330   1.579   2.806 -3.3080  1.1609 -1.0793
 8036SOL    HW235571   4.230   1.482   2.864 -0.6260  2.0172 -0.6433
 8037SOL     OW35572   0.968   0.343   2.379 -0.4702 -0.2739  0.3322
 8037SOL    HW135573   1.046   0.360   2.432 -0.9902 -1.6416  1.5253
 8037SOL    HW235574   0.990   0.394   2.301 -0.5066  0.6805  0.9348
 8038SOL     OW35575   4.346   4.278   3.931  0.1210  0.8407 -0.3123
 8038SOL    HW135576   4.424   4.320   3.895 -0.0047  0.9515 -0.4594
 8038SOL    HW235577   4.314   4.352   3.982 -0.0533 -0.0216  0.8216
 8039SOL     OW35578   2.576   2.893   2.898  0.8393 -0.0540  0.3058
 8039SOL    HW135579   2.605   2.981   2.921  2.4422 -0.3511 -0.5438
 8039SOL    HW235580   2.562   2.861   2.987 -1.5863  2.3553  0.7858
 8040SOL     OW35581   2.966   0.685   8.800 -0.3202 -0.1075  0.1811
 8040SOL    HW135582   3.004   0.699   8.887 -0.0693 -0.0292  0.0562
 8040SOL    HW235583   2.873   0.702   8.816 -0.6974 -2.1728  0.1970
 8041SOL     OW35584   0.018   2.878   7.081  0.3388  0.3480  0.7119
 8041SOL    HW135585   0.110   2.902   7.073  0.8274 -1.7319 -0.0289
 8041SOL    HW235586   4.717   2.870   6.989 -1.3233 -1.2181  1.2823
 8042SOL     OW35587   0.291   2.892  14.677  0.0856 -0.2928  0.0590
 8042SOL    HW135588   0.196   2.895  14.685 -0.0229  1.2820 -1.8016
 8042SOL    HW235589   0.301   2.802  14.646 -1.7955 -0.2414 -0.6730
 8043SOL     OW35590   2.635   3.947   8.321 -0.0417  0.3359 -0.2408
 8043SOL    HW135591   2.624   3.857   8.349  0.5223  0.3479  0.0267
 8043SOL    HW235592   2.547   3.965   8.287 -0.0291  0.2861 -0.2991
 8044SOL     OW35593   2.278   4.210   0.286 -0.3575 -0.7153  0.1637
 8044SOL    HW135594   2.204   4.245   0.335 -0.6429  0.1968 -0.9246
 8044SOL    HW235595   2.318   4.290   0.251  0.0632 -0.6078  0.8713
 8045SOL     OW35596   2.400   2.044  11.483  0.1880 -0.2243  0.6536
 8045SOL    HW135597   2.424   2.110  11.417 -0.8373 -1.8140 -1.3249
 8045SOL    HW235598   2.366   2.095  11.556  0.7803 -0.1716  0.8903
 8046SOL     OW35599   3.172   1.857  10.540  0.3024  0.1444 -0.2063
 8046SOL    HW135600   3.154   1.843  10.632 -1.0162  2.3087 -0.1314
 8046SOL    HW235601   3.206   1.946  10.540  0.9468 -0.1003 -0.6298
 8047SOL     OW35602   2.303   1.948  11.238 -0.8252  0.0371  0.3158
 8047SOL    HW135603   2.256   1.868  11.216 -0.4312 -0.2616  0.5505
 8047SOL    HW235604   2.234   2.013  11.247 -1.5851 -0.6397 -0.6646
 8048SOL     OW35605   0.401   2.616  13.275 -0.1951 -0.0505 -0.3052
 8048SOL    HW135606   0.460   2.686  13.303  3.1695 -3.4392  1.0018
 8048SOL    HW235607   0.422   2.564  13.352  0.2120  0.4510 -0.0770
 8049SOL     OW35608   0.662   3.065   4.852 -0.1696  0.3308  0.1750
 8049SOL    HW135609   0.742   3.014   4.837  0.1722  0.5754  1.1989
 8049SOL    HW235610   0.699   3.153   4.844 -0.3132  0.3200 -0.5979
 8050SOL     OW35611   4.310   0.076   4.211 -0.2192 -0.0944 -0.1120
 8050SOL    HW135612   4.324   0.130   4.289 -0.7904 -0.5445  0.3019
 8050SOL    HW235613   4.328   0.143   4.146  0.0841 -0.4270 -0.3709
 8051SOL     OW35614   0.559   4.038   1.970  1.0761  0.0131 -0.1241
 8051SOL    HW135615   0.475   4.081   1.988  1.5767  1.5848 -1.4971
 8051SOL    HW235616   0.617   4.101   2.012  0.6000 -1.0611  2.1446
 8052SOL     OW35617   2.154   0.141  16.817  0.6100  0.0718  0.3130
 8052SOL    HW135618   2.179   0.233  16.804  3.0072 -0.2107  2.8749
 8052SOL    HW235619   2.200   0.123  16.899  1.2810 -0.3108 -0.1412
 8053SOL     OW35620   1.512   3.373   2.876 -0.1813 -0.4282 -0.3571
 8053SOL    HW135621   1.583   3.309   2.879  0.3457  0.1554 -0.6938
 8053SOL    HW235622   1.514   3.394   2.783 -2.6171 -0.7385 -0.4998
 8054SOL     OW35623   2.282   2.373  17.258  0.1329 -0.0762 -0.1277
 8054SOL    HW135624   2.191   2.400  17.272 -1.3942 -3.9002 -2.7885
 8054SOL    HW235625   2.278   2.281  17.287 -0.8905  0.5287  1.7037
 8055SOL     OW35626   2.873   4.131   6.939  0.9142  0.6137 -0.3550
 8055SOL    HW135627   2.966   4.148   6.930  0.6565  0.4236 -3.4461
 8055SOL    HW235628   2.870   4.045   6.981  1.0023  1.3875  1.2301
 8056SOL     OW35629   4.417   2.467  16.250  0.1596 -0.4841  0.3179
 8056SOL    HW135630   4.389   2.504  16.166 -2.4511 -0.9834  0.9761
 8056SOL    HW235631   4.370   2.529  16.306  2.1688  0.0739  1.3661
 8057SOL     OW35632   0.117   3.917   4.687  0.2056 -0.0574 -0.1861
 8057SOL    HW135633   0.114   3.920   4.591  0.4454 -0.3122 -0.2000
 8057SOL    HW235634   0.187   3.979   4.704  0.2267 -0.0000 -0.4734
 8058SOL     OW35635   4.697   2.431   4.092  0.1246 -0.0072 -0.7520
 8058SOL    HW135636   4.615   2.397   4.128 -0.3061 -0.5618 -2.2483
 8058SOL    HW235637   4.710   2.505   4.151  0.4488  2.5834 -4.0423
 8059SOL     OW35638   2.457   0.539   3.758  0.5523 -0.1910 -0.6036
 8059SOL    HW135639   2.374   0.577   3.730 -0.5104 -2.2943 -0.2945
 8059SOL    HW235640   2.473   0.465   3.699  0.7253  0.7388 -1.7187
 8060SOL     OW35641   2.510   4.019   6.044 -0.3001  0.3611  0.2884
 8060SOL    HW135642   2.570   4.045   5.973 -1.4676  0.6443 -0.5998
 8060SOL    HW235643   2.529   3.928   6.063  2.5101  0.4717 -1.9331
 8061SOL     OW35644   4.231   0.033  13.939  0.2223  0.3424 -0.1995
 8061SOL    HW135645   4.281   0.000  13.864  0.0867 -0.4622  0.0568
 8061SOL    HW235646   4.220   4.674  13.986 -0.4744  0.4927 -0.1093
 8062SOL     OW35647   1.615   0.390  15.075 -0.1503 -0.2462  0.2582
 8062SOL    HW135648   1.519   0.395  15.082 -0.2027  1.0933 -1.6210
 8062SOL    HW235649   1.633   0.324  15.142 -1.4007  0.2720  1.1114
 8063SOL     OW35650   2.783   1.457   2.450  0.6625 -0.0624  0.4399
 8063SOL    HW135651   2.830   1.438   2.531 -1.2546  0.5632  1.6967
 8063SOL    HW235652   2.764   1.551   2.450  0.3522 -0.1280 -1.7943
 8064SOL     OW35653   3.676   0.265   8.621  0.1479  0.3737  0.0611
 8064SOL    HW135654   3.735   0.202   8.580  1.7497  0.3095  2.4374
 8064SOL    HW235655   3.697   0.345   8.574  2.1773  1.2504  2.4704
 8065SOL     OW35656   2.425   0.824  14.643  0.2227  0.3736 -0.3669
 8065SOL    HW135657   2.367   0.901  14.647  1.1924  1.0017  1.4816
 8065SOL    HW235658   2.508   0.854  14.679  0.4399  0.2707 -0.7846
 8066SOL     OW35659   0.321   0.905   3.769  0.3597 -0.3380  0.0886
 8066SOL    HW135660   0.287   0.905   3.680  5.3379 -1.6555 -1.7568
 8066SOL    HW235661   0.293   0.826   3.816  0.2060  1.2773  2.7503
 8067SOL     OW35662   0.731   2.923   2.990  0.1510  0.0110 -0.2416
 8067SOL    HW135663   0.735   2.979   3.068 -1.1969 -0.6493  0.2899
 8067SOL    HW235664   0.654   2.873   3.016  0.1401  1.2298  2.0596
 8068SOL     OW35665   1.121   1.653   8.644  0.2686 -0.3558 -0.1906
 8068SOL    HW135666   1.139   1.563   8.617  1.8989 -0.7315  2.1547
 8068SOL    HW235667   1.171   1.696   8.575 -0.7829  1.1416 -0.0206
 8069SOL     OW35668   0.997   0.288   6.633  0.4117  0.2758 -0.7821
 8069SOL    HW135669   1.029   0.239   6.709 -0.3593  2.0764  0.6899
 8069SOL    HW235670   0.911   0.312   6.668  1.6790 -0.7890  3.1026
 8070SOL     OW35671   4.507   2.789  11.585  0.1335 -0.6032 -0.3442
 8070SOL    HW135672   4.470   2.749  11.664 -0.9175  0.7311 -0.1527
 8070SOL    HW235673   4.562   2.718  11.551 -0.4702  0.1182 -2.8654
 8071SOL     OW35674   3.357   4.639  12.720 -0.5244 -0.0931 -0.3687
 8071SOL    HW135675   3.405   4.686  12.787  1.6448 -1.0269 -1.2481
 8071SOL    HW235676   3.294   4.590  12.772 -1.3569  0.4202 -0.9025
 8072SOL     OW35677   4.377   2.501  15.687  0.0982  0.2343  0.1075
 8072SOL    HW135678   4.318   2.426  15.680 -1.7271  1.7125 -0.0931
 8072SOL    HW235679   4.428   2.479  15.765  0.8316  0.7371 -0.2272
 8073SOL     OW35680   2.146   4.333  17.137  0.2389 -0.3348  0.3508
 8073SOL    HW135681   2.050   4.336  17.138  0.1586 -0.7888 -4.1054
 8073SOL    HW235682   2.170   4.394  17.068 -2.5563  0.9335  0.5036
 8074SOL     OW35683   4.077   1.447   6.075 -0.1157 -0.2150 -0.6458
 8074SOL    HW135684   4.157   1.498   6.087 -0.1989 -0.2880  0.2164
 8074SOL    HW235685   4.085   1.393   6.153 -1.1979 -2.6704 -2.2118
 8075SOL     OW35686   1.484   0.418   3.371 -0.3567  0.0750  0.0517
 8075SOL    HW135687   1.568   0.451   3.341  0.0207 -1.1208 -0.1890
 8075SOL    HW235688   1.436   0.400   3.290 -3.1440  2.7755  1.0752
 8076SOL     OW35689   2.206   4.540  10.862  0.1574 -0.1114  0.5197
 8076SOL    HW135690   2.286   4.586  10.839 -0.0253 -0.5101 -0.9703
 8076SOL    HW235691   2.221   4.511  10.952 -0.3401  1.8644  1.2144
 8077SOL     OW35692   4.354   2.712   7.357 -0.2591  0.2179  0.2845
 8077SOL    HW135693   4.443   2.745   7.364  0.6178 -2.3180  0.8250
 8077SOL    HW235694   4.367   2.635   7.412  0.9273  2.0596  2.6034
 8078SOL     OW35695   3.810   3.174  17.505 -0.0552  0.7459 -0.4146
 8078SOL    HW135696   3.815   3.270  17.509  0.9409  0.7302 -1.2394
 8078SOL    HW235697   3.788   3.152  17.595 -0.7072  0.7557 -0.5693
 8079SOL     OW35698   1.343   4.389  12.965  0.0903 -0.1896  0.4917
 8079SOL    HW135699   1.271   4.431  12.919  0.5819 -2.4560 -2.3274
 8079SOL    HW235700   1.408   4.460  12.965 -1.3700  1.1198 -1.9242
 8080SOL     OW35701   3.854   4.397  17.125  0.3650  0.2834  0.3306
 8080SOL    HW135702   3.901   4.416  17.206 -1.3530 -1.1475  1.6593
 8080SOL    HW235703   3.926   4.373  17.066  0.4775 -1.5743  1.2314
 8081SOL     OW35704   4.296   0.367   5.311  0.1941  0.2206 -0.1711
 8081SOL    HW135705   4.344   0.288   5.290  1.1844 -0.0136  2.9043
 8081SOL    HW235706   4.262   0.360   5.401  0.1640  3.0131  0.0538
 8082SOL     OW35707   1.156   3.286  15.324 -0.3313 -0.6237  0.2292
 8082SOL    HW135708   1.082   3.337  15.292  0.9159  1.1222  0.1375
 8082SOL    HW235709   1.203   3.265  15.243  0.1555  0.1896  0.2936
 8083SOL     OW35710   3.833   3.556  17.552  0.6877  0.8730 -0.2074
 8083SOL    HW135711   3.818   3.650  17.539 -1.4710  0.8441  2.3735
 8083SOL    HW235712   3.876   3.528  17.471  2.1174  1.0589  0.4853
 8084SOL     OW35713   0.454   4.418   4.310  0.0419 -0.4161 -0.3611
 8084SOL    HW135714   0.493   4.429   4.223 -3.0486  2.2066 -1.4301
 8084SOL    HW235715   0.530   4.425   4.368 -1.3265  2.0283  1.1297
 8085SOL     OW35716   0.565   1.943   7.046  0.0614 -0.0549 -0.3183
 8085SOL    HW135717   0.483   1.992   7.039  0.1796 -0.1222 -2.1326
 8085SOL    HW235718   0.532   1.868   7.096  0.3263  0.7941  1.1269
 8086SOL     OW35719   4.557   0.312   4.441  0.0140 -0.4617 -0.3296
 8086SOL    HW135720   4.616   0.378   4.405 -0.5707 -1.0934 -2.4284
 8086SOL    HW235721   4.610   0.234   4.422 -0.5532 -0.6721 -1.0540
 8087SOL     OW35722   2.453   0.679  11.178 -0.6579 -0.4444 -0.3085
 8087SOL    HW135723   2.430   0.622  11.105  1.4145 -1.7167 -0.0004
 8087SOL    HW235724   2.445   0.619  11.253  0.2019  0.3923  0.4544
 8088SOL     OW35725   3.330   3.298  14.495  0.6409  0.0456 -0.4117
 8088SOL    HW135726   3.343   3.212  14.535  0.0973  0.2104  0.1247
 8088SOL    HW235727   3.260   3.335  14.549  0.5026  0.3675 -0.8102
 8089SOL     OW35728   3.097   0.422   1.127 -0.4900  0.2175 -0.0834
 8089SOL    HW135729   3.069   0.353   1.187  2.6886  1.4697  2.8524
 8089SOL    HW235730   3.184   0.424   1.167 -0.6244 -5.6862  0.4410
 8090SOL     OW35731   1.627   1.692   3.105 -0.0235  0.1710  0.5521
 8090SOL    HW135732   1.553   1.672   3.048 -1.5415  1.9104  1.9370
 8090SOL    HW235733   1.606   1.638   3.181  1.2299 -2.7284 -1.1287
 8091SOL     OW35734   3.548   1.633   1.369 -0.0965 -0.7179 -0.4416
 8091SOL    HW135735   3.619   1.675   1.322  1.4925 -0.5059  2.1410
 8091SOL    HW235736   3.543   1.551   1.321  0.5233  0.8868 -3.2227
 8092SOL     OW35737   0.277   2.874   5.834  0.1846  0.3057 -0.1825
 8092SOL    HW135738   0.334   2.877   5.758  1.9943  3.8161  1.3367
 8092SOL    HW235739   0.304   2.956   5.877  2.3150 -1.6553  2.1905
 8093SOL     OW35740   2.656   0.657  14.883  0.8811 -0.1182  0.1322
 8093SOL    HW135741   2.620   0.745  14.870  0.6198  0.1953  3.0277
 8093SOL    HW235742   2.740   0.677  14.924 -0.9337  1.7404  2.9425
 8094SOL     OW35743   3.668   4.660   6.859  0.0449  0.0088  0.4589
 8094SOL    HW135744   3.629   4.613   6.785 -1.5911  1.2213  0.5774
 8094SOL    HW235745   3.759   4.629   6.853  0.2936  0.7016  0.6844
 8095SOL     OW35746   0.089   0.913  17.305  0.6098 -0.1253  0.1411
 8095SOL    HW135747   0.067   0.840  17.363  0.6658  0.8360  1.3653
 8095SOL    HW235748   0.179   0.886  17.282  0.6245  0.0277  0.0153
 8096SOL     OW35749   4.494   2.633   9.882 -0.0676 -0.3655  0.3297
 8096SOL    HW135750   4.427   2.583   9.837 -1.8620  1.0153  1.4845
 8096SOL    HW235751   4.507   2.573   9.955  2.4545 -1.0622 -0.6975
 8097SOL     OW35752   2.112   1.189  15.008  0.2778 -0.4057 -0.3101
 8097SOL    HW135753   2.122   1.096  14.987  0.4578 -0.3599 -0.4348
 8097SOL    HW235754   2.025   1.214  14.978  0.5004  0.6346 -0.0919
 8098SOL     OW35755   0.303   3.640   6.675 -1.0611  0.2342  0.0074
 8098SOL    HW135756   0.310   3.698   6.751 -0.8914 -0.3751  0.4574
 8098SOL    HW235757   0.224   3.594   6.703  0.1695 -1.6056  0.4051
 8099SOL     OW35758   0.761   2.604   3.309 -0.2737  0.3397 -0.3581
 8099SOL    HW135759   0.747   2.545   3.383  2.0099  2.7953  2.0470
 8099SOL    HW235760   0.780   2.542   3.239 -0.2127  0.9401 -0.8695
 8100SOL     OW35761   2.175   0.562   5.190  0.3553 -0.2948  0.8275
 8100SOL    HW135762   2.195   0.654   5.209 -1.6396  0.8471 -2.6350
 8100SOL    HW235763   2.149   0.528   5.275 -0.4654 -2.9127 -0.4870
 8101SOL     OW35764   0.749   3.031  13.411  0.2621  0.0941 -0.0122
 8101SOL    HW135765   0.811   2.994  13.348  1.1656  1.1655  0.2412
 8101SOL    HW235766   0.792   3.116  13.426 -2.0037  1.6601 -2.4820
 8102SOL     OW35767   0.468   2.388  16.156  0.0994 -0.5561 -0.1098
 8102SOL    HW135768   0.507   2.340  16.083  2.1143 -0.3948  0.8650
 8102SOL    HW235769   0.530   2.360  16.224 -0.6403  1.0452  1.2303
 8103SOL     OW35770   3.903   0.218   0.659  0.3143  0.3094 -0.3004
 8103SOL    HW135771   3.878   0.209   0.751 -0.3854  0.8724 -0.4379
 8103SOL    HW235772   3.846   0.163   0.606  0.0005  0.8648 -0.5475
 8104SOL     OW35773   0.732   3.068   4.406  0.2127 -0.9067  0.8578
 8104SOL    HW135774   0.805   3.023   4.363  1.3952  0.2319  1.6572
 8104SOL    HW235775   0.796   3.098   4.470 -1.5637 -0.7764  2.5672
 8105SOL     OW35776   0.721   3.882   6.708  0.3211  0.0839 -0.4388
 8105SOL    HW135777   0.642   3.931   6.687 -0.3158 -1.0310 -0.6547
 8105SOL    HW235778   0.780   3.899   6.634 -2.1471  0.6187 -2.2889
 8106SOL     OW35779   2.420   0.832   3.412  0.2097 -0.4977 -0.2562
 8106SOL    HW135780   2.458   0.917   3.390  0.0214 -0.4226 -0.2887
 8106SOL    HW235781   2.495   0.791   3.455 -1.1637 -2.3320  0.3733
 8107SOL     OW35782   1.146   1.463   9.504 -0.2062 -0.7896  0.4156
 8107SOL    HW135783   1.101   1.525   9.562  2.6431  1.1089  0.6064
 8107SOL    HW235784   1.082   1.403   9.465 -0.6358 -1.4168  2.0803
 8108SOL     OW35785   4.235   2.956  15.433 -0.4810 -0.0644  0.0120
 8108SOL    HW135786   4.214   2.991  15.346  1.7579 -0.3783 -0.6627
 8108SOL    HW235787   4.226   2.861  15.432 -0.1517 -0.0882 -0.6660
 8109SOL     OW35788   1.518   2.813  12.777 -0.7307  0.2537  0.8068
 8109SOL    HW135789   1.606   2.774  12.784 -1.9417 -2.6418 -0.1455
 8109SOL    HW235790   1.529   2.845  12.688  0.3893 -0.7228  0.5785
 8110SOL     OW35791   2.071   1.240   8.917  0.5311  0.2256 -0.8488
 8110SOL    HW135792   2.125   1.299   8.865  1.3993  1.2462  1.2045
 8110SOL    HW235793   2.077   1.282   9.002  0.4213 -1.8010  0.1773
 8111SOL     OW35794   3.953   3.417  12.522 -0.1070  0.1460  0.0296
 8111SOL    HW135795   3.929   3.385  12.609  3.7463  1.1511  1.4600
 8111SOL    HW235796   4.043   3.444  12.541  0.4207 -2.3001  0.9909
 8112SOL     OW35797   3.197   3.885   6.455  0.6137 -0.2264  0.0066
 8112SOL    HW135798   3.118   3.922   6.495  1.1280  2.2306 -1.2357
 8112SOL    HW235799   3.237   3.882   6.542 -1.5538 -0.7356  0.9906
 8113SOL     OW35800   0.187   1.638   5.196  0.7335  0.1584  0.0120
 8113SOL    HW135801   0.257   1.704   5.192  1.5246 -0.6430  0.6967
 8113SOL    HW235802   0.238   1.565   5.231 -1.3974 -1.6766 -0.7633
 8114SOL     OW35803   0.079   1.452  14.968 -0.5199  0.1907 -0.6525
 8114SOL    HW135804   0.112   1.444  15.057 -2.5631 -0.7363  0.0269
 8114SOL    HW235805   0.156   1.438  14.912 -0.2550  2.8169 -0.9412
 8115SOL     OW35806   2.878   3.604   4.086 -0.1625  0.4366  0.0424
 8115SOL    HW135807   2.826   3.667   4.135  1.3011  0.7003  1.2719
 8115SOL    HW235808   2.945   3.583   4.152 -0.5028  1.2599  0.6390
 8116SOL     OW35809   3.947   3.498   3.464  0.2117  0.4276 -0.4857
 8116SOL    HW135810   3.858   3.516   3.437  1.1275  0.7826 -3.2676
 8116SOL    HW235811   3.936   3.406   3.488  0.9586 -0.1563 -2.3605
 8117SOL     OW35812   1.464   3.972  11.349  0.2473  0.1840 -0.5154
 8117SOL    HW135813   1.413   3.946  11.271 -0.5905  3.5888 -1.1016
 8117SOL    HW235814   1.451   3.890  11.396 -2.9615  2.0444  1.8308
 8118SOL     OW35815   3.511   1.357   4.794 -0.1227  0.2358  0.0826
 8118SOL    HW135816   3.540   1.374   4.884 -1.4708 -0.2721  0.6138
 8118SOL    HW235817   3.417   1.365   4.811 -0.4731  1.5196 -2.5187
 8119SOL     OW35818   1.593   2.089   3.903 -0.5095 -0.4187  0.3402
 8119SOL    HW135819   1.624   2.153   3.967 -0.0161 -1.4979  1.1850
 8119SOL    HW235820   1.498   2.100   3.903 -0.4317  0.3149 -2.5220
 8120SOL     OW35821   0.966   3.100   3.108  0.4780 -0.4959  0.1057
 8120SOL    HW135822   1.024   3.070   3.178  0.2244  1.3360  1.1178
 8120SOL    HW235823   0.879   3.080   3.142 -1.1842  3.8377 -1.5582
 8121SOL     OW35824   4.052   1.695   8.511  0.3895 -0.2419  0.4301
 8121SOL    HW135825   3.975   1.748   8.530  0.6386  0.5042 -0.6266
 8121SOL    HW235826   4.006   1.619   8.474  0.1509 -0.2656  0.7727
 8122SOL     OW35827   1.929   0.240   5.099  0.7818  0.1398 -0.2005
 8122SOL    HW135828   2.003   0.217   5.156  2.1060  0.1477 -1.9174
 8122SOL    HW235829   1.959   0.326   5.069  1.4359 -0.4060 -1.0847
 8123SOL     OW35830   2.724   2.852  14.884  0.5579  0.2502  0.1300
 8123SOL    HW135831   2.689   2.772  14.845 -2.1186  1.3194  0.3775
 8123SOL    HW235832   2.696   2.922  14.825  0.5153 -1.2998 -1.6995
 8124SOL     OW35833   1.839   1.248   3.835 -0.2647  0.4186  0.0164
 8124SOL    HW135834   1.909   1.224   3.774 -0.8895  0.1511 -0.6029
 8124SOL    HW235835   1.888   1.274   3.913  1.4555 -0.2376 -0.8556
 8125SOL     OW35836   4.614   2.975   0.526 -0.2422  0.2987  0.1299
 8125SOL    HW135837   4.527   3.003   0.497  0.1009  1.7879  0.5437
 8125SOL    HW235838   4.664   2.997   0.447 -2.6487  1.5518 -1.0491
 8126SOL     OW35839   3.132   1.871  17.387  0.0475 -0.2753  0.1976
 8126SOL    HW135840   3.078   1.945  17.360  0.7559  0.6715  1.3901
 8126SOL    HW235841   3.182   1.843  17.310  0.9576 -1.8433  1.3544
 8127SOL     OW35842   2.836   3.467   0.739 -0.4351 -0.2651 -0.0066
 8127SOL    HW135843   2.891   3.520   0.797 -1.0498 -0.5862  0.8723
 8127SOL    HW235844   2.752   3.512   0.753 -0.7623 -0.6450 -0.7974
 8128SOL     OW35845   3.173   2.009   3.853  0.2623  0.4841 -0.3195
 8128SOL    HW135846   3.246   1.979   3.906 -0.2166  0.6884  0.4591
 8128SOL    HW235847   3.185   1.945   3.783  0.1242 -1.6745  1.6412
 8129SOL     OW35848   1.253   2.923   5.409 -0.0614  0.1680 -0.1161
 8129SOL    HW135849   1.166   2.960   5.396 -0.3365  0.2363  1.8778
 8129SOL    HW235850   1.307   2.992   5.370  0.3049 -0.5151 -0.8330
 8130SOL     OW35851   4.293   2.549   7.668 -0.2139 -0.8065  0.0328
 8130SOL    HW135852   4.380   2.586   7.675 -0.8809  0.5308  1.1640
 8130SOL    HW235853   4.285   2.484   7.738 -0.8390  0.6149  1.2853
 8131SOL     OW35854   2.806   4.073   5.985  0.3476  0.3230 -0.1225
 8131SOL    HW135855   2.807   4.123   5.903  1.7356 -0.5355 -0.6427
 8131SOL    HW235856   2.848   4.141   6.037 -0.4414  0.5919  0.1532
 8132SOL     OW35857   0.904   0.176   4.362 -0.2692 -0.3407  0.3364
 8132SOL    HW135858   0.994   0.177   4.329 -0.4619 -0.3882 -0.1874
 8132SOL    HW235859   0.859   0.227   4.295 -0.8511 -2.5517 -0.9539
 8133SOL     OW35860   3.468   4.189   3.552  0.0137  0.1085 -0.4774
 8133SOL    HW135861   3.519   4.222   3.478  1.2851  0.5151  0.5924
 8133SOL    HW235862   3.400   4.138   3.508 -1.2285  0.5325  0.9887
 8134SOL     OW35863   1.792   2.382   7.413 -0.3075 -0.2331  0.5088
 8134SOL    HW135864   1.855   2.311   7.426  1.0284  0.9393  0.3793
 8134SOL    HW235865   1.759   2.386   7.503  1.7075  0.5120  1.2058
 8135SOL     OW35866   3.586   3.395  12.536  0.1841  0.1327 -0.1345
 8135SOL    HW135867   3.633   3.341  12.600  2.6491  0.6618 -1.5055
 8135SOL    HW235868   3.495   3.402  12.565  0.6799  1.4473  1.0785
 8136SOL     OW35869   4.196   4.256   8.713 -0.4974 -0.0269  0.2805
 8136SOL    HW135870   4.106   4.231   8.690 -0.0057 -0.1880 -1.4746
 8136SOL    HW235871   4.208   4.337   8.663  2.2285 -0.5431  0.1036
 8137SOL     OW35872   0.573   3.074  14.697 -0.3250 -0.3816  0.2636
 8137SOL    HW135873   0.582   3.162  14.659 -0.1760 -0.9183 -0.9422
 8137SOL    HW235874   0.662   3.053  14.725  0.2208 -0.6794 -1.7219
 8138SOL     OW35875   0.432   3.563   8.039  0.3869  0.4031  1.0497
 8138SOL    HW135876   0.404   3.510   8.113  1.6237 -1.4217  0.2026
 8138SOL    HW235877   0.380   3.643   8.049  1.2874  0.9672  1.2526
 8139SOL     OW35878   3.873   3.111  17.236 -0.1611  0.2496  0.5566
 8139SOL    HW135879   3.818   3.186  17.214  0.8008  0.1103 -2.3719
 8139SOL    HW235880   3.852   3.106  17.329  1.8376  1.5655  1.0845
 8140SOL     OW35881   4.125   4.096   8.119 -0.2796 -0.2617 -0.5914
 8140SOL    HW135882   4.116   4.001   8.128  2.2730 -0.3363  1.1361
 8140SOL    HW235883   4.201   4.113   8.175  1.2171  0.7199 -2.9359
 8141SOL     OW35884   4.116   3.829   3.101  0.2119 -0.1067  0.6350
 8141SOL    HW135885   4.059   3.841   3.025 -1.4357 -1.6872  1.6008
 8141SOL    HW235886   4.200   3.862   3.071 -0.2141  0.0224 -0.4275
 8142SOL     OW35887   0.106   3.394   8.286  0.5994 -0.5110 -0.5939
 8142SOL    HW135888   0.038   3.327   8.299  0.2586  0.2209  1.2688
 8142SOL    HW235889   0.063   3.447   8.218 -0.4363  1.7513  1.8473
 8143SOL     OW35890   4.581   1.791   7.569  0.0191 -0.3122 -0.6556
 8143SOL    HW135891   4.607   1.853   7.501 -1.0398  1.4002  0.4802
 8143SOL    HW235892   4.486   1.785   7.564  0.0610 -1.1913 -0.3464
 8144SOL     OW35893   3.681   0.281  15.689 -0.5689  0.0963  0.1339
 8144SOL    HW135894   3.611   0.346  15.689  0.6137  1.3637  0.0782
 8144SOL    HW235895   3.628   0.209  15.653  0.4311 -0.2286 -0.6861
 8145SOL     OW35896   0.863   4.275   7.762  0.1183 -0.4782 -0.5319
 8145SOL    HW135897   0.833   4.325   7.838 -1.5635 -0.9806 -0.8539
 8145SOL    HW235898   0.850   4.187   7.797  0.2041  0.4771  1.9122
 8146SOL     OW35899   2.489   0.617  15.426 -0.2302 -0.2030 -0.3173
 8146SOL    HW135900   2.450   0.560  15.492  2.4684 -1.3214  0.2979
 8146SOL    HW235901   2.557   0.568  15.380  1.5179 -0.8448  2.9858
 8147SOL     OW35902   2.454   0.989   4.708  0.2324 -0.4014  0.1886
 8147SOL    HW135903   2.408   1.073   4.709  1.4281  0.2415  2.8059
 8147SOL    HW235904   2.440   0.954   4.796 -3.0853 -2.4993 -1.2010
 8148SOL     OW35905   2.498   3.528   2.939  0.7212 -0.3649  0.4422
 8148SOL    HW135906   2.515   3.590   3.010  1.2381  1.1423 -0.9920
 8148SOL    HW235907   2.584   3.522   2.896  1.4770  1.5265  1.6806
 8149SOL     OW35908   3.729   3.611   7.004  0.2178 -0.3288  0.5311
 8149SOL    HW135909   3.741   3.691   6.953 -2.7976 -0.8973 -1.1142
 8149SOL    HW235910   3.795   3.550   6.971  1.7497  0.6521  1.7559
 8150SOL     OW35911   4.300   1.819   9.721  0.4011 -0.2801 -0.1902
 8150SOL    HW135912   4.249   1.753   9.768 -0.4638  1.3175  1.0797
 8150SOL    HW235913   4.337   1.869   9.794 -0.6999  0.1651  0.0572
 8151SOL     OW35914   0.088   2.047   8.895 -0.0159 -0.0224  0.0840
 8151SOL    HW135915   0.013   2.098   8.926 -0.6004 -0.5114 -0.5232
 8151SOL    HW235916   0.116   2.003   8.975  0.0167 -1.9726 -1.0143
 8152SOL     OW35917   0.683   1.586   7.953  0.2535  0.2073  1.0910
 8152SOL    HW135918   0.694   1.609   8.045  1.4666 -0.8108  1.1968
 8152SOL    HW235919   0.589   1.587   7.935 -0.0744  1.3811  2.8814
 8153SOL     OW35920   4.670   4.371   1.211 -0.1427  0.4509 -0.2973
 8153SOL    HW135921   4.628   4.415   1.137 -0.5952  1.3513  0.4909
 8153SOL    HW235922   0.002   4.446   1.233 -0.3471  0.5758 -0.2089
 8154SOL     OW35923   4.287   3.773   2.528 -0.3354 -0.3179 -0.0904
 8154SOL    HW135924   4.296   3.678   2.519 -2.3389 -0.4718 -0.4187
 8154SOL    HW235925   4.219   3.799   2.466  2.5051  1.2278 -2.5084
 8155SOL     OW35926   3.527   2.993  14.787 -0.1309  0.2733 -0.1992
 8155SOL    HW135927   3.510   2.914  14.736  2.6910 -0.6018  0.2190
 8155SOL    HW235928   3.497   3.058  14.723 -3.8667  0.5975  1.8306
 8156SOL     OW35929   1.238   1.463   6.898  0.0670 -0.2885  0.2574
 8156SOL    HW135930   1.258   1.433   6.810 -0.7346  0.4014 -0.1548
 8156SOL    HW235931   1.226   1.376   6.937  2.3818 -0.9895 -0.5629
 8157SOL     OW35932   1.880   1.976   6.398 -0.1607  0.4794  0.6316
 8157SOL    HW135933   1.825   2.032   6.343  0.2410 -1.0083 -1.2706
 8157SOL    HW235934   1.952   1.954   6.338  1.3721  1.8661  1.9717
 8158SOL     OW35935   3.422   2.424   3.473  0.0724  0.3400  0.3609
 8158SOL    HW135936   3.424   2.351   3.535 -0.6085  0.5705  0.6599
 8158SOL    HW235937   3.424   2.495   3.537  0.1292 -0.5231  1.3357
 8159SOL     OW35938   3.915   0.495   4.442 -0.2929  0.2356 -0.0553
 8159SOL    HW135939   3.885   0.409   4.412  1.5856 -0.6574  0.6652
 8159SOL    HW235940   3.972   0.466   4.512  1.4964  3.1021 -0.3137
 8160SOL     OW35941   3.574   2.362   6.641  0.3783  0.1024  0.1578
 8160SOL    HW135942   3.602   2.450   6.616 -3.7931  0.9393 -1.5527
 8160SOL    HW235943   3.610   2.355   6.729 -2.1695 -0.1233  1.1730
 8161SOL     OW35944   1.714   2.777   0.724  0.0893  0.4074 -0.2474
 8161SOL    HW135945   1.806   2.761   0.701 -0.1715 -0.4584 -0.7072
 8161SOL    HW235946   1.717   2.853   0.782  1.9790 -0.3456  0.6509
 8162SOL     OW35947   1.274   2.453   2.185  0.0184 -0.3909 -0.3299
 8162SOL    HW135948   1.330   2.489   2.116  1.5312 -0.8421  0.6592
 8162SOL    HW235949   1.223   2.531   2.208  2.4831  1.3630 -0.8240
 8163SOL     OW35950   0.785   2.328   6.630  0.2599  0.1599  0.3585
 8163SOL    HW135951   0.852   2.350   6.694 -0.3639 -1.9666  1.7698
 8163SOL    HW235952   0.711   2.307   6.687  0.3132  1.4403  0.8948
 8164SOL     OW35953   3.771   2.638   3.349  0.3334  0.4171  0.0050
 8164SOL    HW135954   3.781   2.585   3.428 -1.7796 -0.9862 -0.6589
 8164SOL    HW235955   3.760   2.726   3.385 -1.6976  0.5585 -0.9611
 8165SOL     OW35956   2.096   0.065   5.551  0.6963  0.3695  0.0326
 8165SOL    HW135957   2.104   0.030   5.640  1.6400 -0.4587 -0.3705
 8165SOL    HW235958   2.084   4.705   5.506 -1.7510 -0.1153  1.6179
 8166SOL     OW35959   0.110   1.152   8.804 -0.2401  0.4725  0.3567
 8166SOL    HW135960   0.089   1.242   8.826  0.2945  0.9013 -0.9070
 8166SOL    HW235961   0.023   1.115   8.789  0.1282 -0.2278 -0.0674
 8167SOL     OW35962   1.840   1.955   1.390  0.0640 -0.0450 -0.6029
 8167SOL    HW135963   1.839   1.950   1.294 -0.0621  0.0529 -0.6063
 8167SOL    HW235964   1.885   1.875   1.418 -3.3220 -1.9492 -0.6753
 8168SOL     OW35965   0.325   2.832  17.204  0.2141 -0.7309 -0.0833
 8168SOL    HW135966   0.266   2.786  17.144 -0.7954 -2.3094  2.1115
 8168SOL    HW235967   0.408   2.795  17.174 -0.0025  0.2322 -1.8504
 8169SOL     OW35968   3.996   3.257   1.583  1.0288 -0.2451 -0.0275
 8169SOL    HW135969   4.089   3.244   1.564  1.0836 -1.8315  1.3646
 8169SOL    HW235970   3.969   3.304   1.503 -1.7766  0.4402  1.3154
 8170SOL     OW35971   0.892   1.949   5.855  0.0363  0.1787 -0.5549
 8170SOL    HW135972   0.921   2.002   5.780  0.1656  0.5237 -0.2612
 8170SOL    HW235973   0.875   2.016   5.921  1.9846  0.8700 -0.7634
 8171SOL     OW35974   1.244   1.239   7.244  0.1814  0.3513  0.0248
 8171SOL    HW135975   1.162   1.268   7.203  0.0589  0.1265  0.1130
 8171SOL    HW235976   1.230   1.146   7.230 -0.9267  0.6616 -0.9376
 8172SOL     OW35977   1.888   1.127   8.592  0.8343  0.3901  0.0160
 8172SOL    HW135978   1.795   1.109   8.596  0.3961  2.0117 -3.0023
 8172SOL    HW235979   1.892   1.223   8.586  2.3240  0.2486 -1.1558
 8173SOL     OW35980   4.319   4.604   3.017  0.0434  0.2409  0.0062
 8173SOL    HW135981   4.300   4.692   3.048  2.0470  1.2260 -1.5404
 8173SOL    HW235982   4.243   4.559   3.053  0.9778 -0.1874  1.4406
 8174SOL     OW35983   3.599   3.352   3.163  0.5583 -0.0330  0.6876
 8174SOL    HW135984   3.553   3.418   3.215  0.3586  0.0880  0.3582
 8174SOL    HW235985   3.614   3.402   3.083 -1.9562  0.6653  0.6636
 8175SOL     OW35986   4.495   2.715   2.154 -0.4379  0.5469  0.2225
 8175SOL    HW135987   4.552   2.760   2.091 -2.0420 -0.5844 -2.0388
 8175SOL    HW235988   4.404   2.742   2.137  0.2280  2.1808 -0.8092
 8176SOL     OW35989   3.420   3.786   8.019  0.2733  0.0249  0.3487
 8176SOL    HW135990   3.407   3.751   8.108 -1.9306 -0.2350 -0.0841
 8176SOL    HW235991   3.486   3.721   7.995  0.5058  0.4652 -0.1902
 8177SOL     OW35992   2.574   3.479   8.995 -0.1296 -0.5286  0.1598
 8177SOL    HW135993   2.592   3.481   9.089 -0.4972 -0.9555  0.2361
 8177SOL    HW235994   2.480   3.465   8.998  0.1063 -1.8425  1.4235
 8178SOL     OW35995   4.294   2.051   8.582 -0.0705  0.5096 -0.0201
 8178SOL    HW135996   4.284   2.008   8.667  0.9322  0.2585 -0.0250
 8178SOL    HW235997   4.263   2.139   8.604 -3.8983 -0.9792  0.5394
 8179SOL     OW35998   1.324   3.711   3.281 -0.1234 -0.3721 -0.4848
 8179SOL    HW135999   1.260   3.651   3.319 -0.4437  1.0182  1.1920
 8179SOL    HW236000   1.331   3.678   3.192  2.1069  2.3612 -1.3473
 8180SOL     OW36001   2.590   0.581  10.324 -0.2489 -0.7736 -0.2298
 8180SOL    HW136002   2.552   0.503  10.365  0.7092 -0.8045  0.5799
 8180SOL    HW236003   2.678   0.579  10.360  0.4661 -0.2205 -1.9341
 8181SOL     OW36004   1.532   1.946   5.333 -0.1939 -0.7659  0.0756
 8181SOL    HW136005   1.550   1.858   5.365 -1.4384 -1.5566 -1.3927
 8181SOL    HW236006   1.579   1.933   5.251  0.3253 -1.3370  0.4662
 8182SOL     OW36007   3.051   2.877   6.714  0.2844 -0.0045  0.1084
 8182SOL    HW136008   2.979   2.910   6.768 -1.0955 -1.4308 -0.8428
 8182SOL    HW236009   3.121   2.850   6.773 -0.2526 -0.3190  0.5949
 8183SOL     OW36010   1.051   3.927   4.573  0.4483  0.1236 -0.0867
 8183SOL    HW136011   1.025   3.903   4.662  1.0095  3.6078  0.9961
 8183SOL    HW236012   0.965   3.904   4.537 -0.0685  1.4550  0.3136
 8184SOL     OW36013   1.593   3.863   5.747 -0.2773 -0.2235 -0.3518
 8184SOL    HW136014   1.675   3.908   5.729 -1.4429  1.1636 -2.1234
 8184SOL    HW236015   1.617   3.796   5.812  0.9192 -0.4002 -0.9776
 8185SOL     OW36016   1.509   3.170   6.055 -0.1163  0.9917  0.0690
 8185SOL    HW136017   1.445   3.139   6.120  0.0818 -0.5660 -0.4828
 8185SOL    HW236018   1.525   3.260   6.082  1.1950  0.4519  1.1038
 8186SOL     OW36019   0.357   0.262  12.432  0.1619 -0.6032  0.0329
 8186SOL    HW136020   0.276   0.288  12.388  0.0407 -0.3629  0.3918
 8186SOL    HW236021   0.322   0.220  12.510 -1.7445  0.8604 -0.0349
 8187SOL     OW36022   1.331   1.476   4.857  0.3704 -0.0874 -0.3645
 8187SOL    HW136023   1.265   1.506   4.794  0.5406 -2.9183 -1.8688
 8187SOL    HW236024   1.276   1.433   4.922 -1.5027  0.8730 -1.2954
 8188SOL     OW36025   2.799   4.199   8.293 -0.0940  0.1411  0.0904
 8188SOL    HW136026   2.798   4.292   8.315  0.3078  1.0442 -3.7687
 8188SOL    HW236027   2.726   4.173   8.349 -0.6645 -0.1990 -0.7992
 8189SOL     OW36028   1.711   1.885   7.064 -0.4119 -0.0382 -0.1328
 8189SOL    HW136029   1.703   1.971   7.022  0.0852  0.1327  0.1161
 8189SOL    HW236030   1.756   1.916   7.142 -2.0330 -2.2192  1.6322
 8190SOL     OW36031   0.379   3.994   5.239 -0.0538  0.0036 -0.2109
 8190SOL    HW136032   0.287   3.981   5.261  0.4677 -0.8763  1.3849
 8190SOL    HW236033   0.382   4.078   5.192 -0.4163  0.8099  1.2148
 8191SOL     OW36034   1.980   1.359   5.265 -0.0825 -0.3818 -0.5449
 8191SOL    HW136035   1.911   1.399   5.318 -0.2560 -0.7905 -0.4631
 8191SOL    HW236036   2.050   1.364   5.330 -0.3875  0.6908 -0.2968
 8192SOL     OW36037   4.170   0.921   9.755  0.2163 -0.1096  0.0445
 8192SOL    HW136038   4.152   0.843   9.703  0.1759  0.3590 -0.6498
 8192SOL    HW236039   4.265   0.928   9.759  0.3127  0.3892 -3.7194
 8193SOL     OW36040   0.213   2.078   5.928 -0.2950 -0.1691 -0.1251
 8193SOL    HW136041   0.143   2.014   5.915 -0.6236 -0.3393  2.5234
 8193SOL    HW236042   0.241   2.056   6.016 -0.2844 -0.1672 -0.1280
 8194SOL     OW36043   1.969   2.216  15.928  0.4753 -0.4893  0.2790
 8194SOL    HW136044   2.035   2.209  15.860  0.3090 -0.0654  0.0717
 8194SOL    HW236045   1.911   2.284  15.893  1.1075  0.0191  0.2162
 8195SOL     OW36046   1.809   2.902   5.764 -0.7615  0.4074  0.0555
 8195SOL    HW136047   1.770   2.984   5.795 -0.7961  0.2001  0.5713
 8195SOL    HW236048   1.798   2.908   5.670 -0.0238  3.4694  0.1681
 8196SOL     OW36049   1.676   1.177   3.428 -0.4448  0.3753  0.4753
 8196SOL    HW136050   1.702   1.097   3.471 -1.7220 -0.0839  0.3912
 8196SOL    HW236051   1.745   1.194   3.363  0.3057 -2.0245  0.6594
 8197SOL     OW36052   3.043   0.311   5.265 -0.0647 -0.3962  0.6162
 8197SOL    HW136053   3.053   0.220   5.238 -0.9076  0.0827 -1.3199
 8197SOL    HW236054   3.127   0.355   5.250  0.2308 -1.8230 -1.7494
 8198SOL     OW36055   2.077   4.686   9.520 -0.0589 -0.1847  0.0620
 8198SOL    HW136056   2.153   0.007   9.558  0.2181 -2.0145  1.6526
 8198SOL    HW236057   2.093   4.607   9.571 -0.0239  0.6451  1.3523
 8199SOL     OW36058   0.868   4.643  12.997  0.1968 -0.2906 -0.3569
 8199SOL    HW136059   0.778   4.674  12.984 -0.1149 -0.7867  0.6633
 8199SOL    HW236060   0.864   4.549  13.016 -1.9486  0.0499  0.8427
 8200SOL     OW36061   4.416   0.292   4.064 -0.2626  0.1401 -0.3582
 8200SOL    HW136062   4.365   0.369   4.086 -1.7888 -1.3253  1.2284
 8200SOL    HW236063   4.448   0.312   3.976  1.8286  0.9753  0.5797
 8201SOL     OW36064   1.006   0.841   8.219 -0.4220  0.1238 -0.1507
 8201SOL    HW136065   1.004   0.919   8.163 -1.5967 -0.1752 -0.5079
 8201SOL    HW236066   1.083   0.857   8.274  0.5531 -1.0901 -1.1739
 8202SOL     OW36067   3.080   4.047   0.801  0.2163  0.4453 -0.2431
 8202SOL    HW136068   2.993   4.009   0.793  1.2713 -1.4862 -2.6720
 8202SOL    HW236069   3.101   4.085   0.715  2.4682 -0.1925  0.0115
 8203SOL     OW36070   2.623   0.785   1.516 -0.2128  0.0727 -0.3599
 8203SOL    HW136071   2.617   0.811   1.608 -0.9855 -0.5537 -0.2281
 8203SOL    HW236072   2.538   0.811   1.479 -0.0970  0.2388 -0.5076
 8204SOL     OW36073   0.470   2.763   7.844 -0.2449  0.3674  0.0972
 8204SOL    HW136074   0.536   2.779   7.911 -0.3037  3.9491 -0.6937
 8204SOL    HW236075   0.470   2.845   7.795 -1.2500  0.8580  0.9291
 8205SOL     OW36076   1.594   1.557   2.413 -0.1034  0.5682  0.0211
 8205SOL    HW136077   1.562   1.619   2.348  1.8100  1.2820 -0.2345
 8205SOL    HW236078   1.685   1.582   2.431  0.1131  0.3676 -0.8193
 8206SOL     OW36079   2.234   1.775  11.471 -0.0748 -0.0319  1.0529
 8206SOL    HW136080   2.282   1.853  11.442 -1.5547 -0.4866 -2.6661
 8206SOL    HW236081   2.165   1.808  11.529  0.8940 -0.5107  2.4605
 8207SOL     OW36082   1.745   2.070  14.752  0.0387 -0.1374  0.1507
 8207SOL    HW136083   1.835   2.093  14.777  0.7481 -1.6080 -1.1200
 8207SOL    HW236084   1.759   1.978  14.734  3.4817  0.3704  0.2087
 8208SOL     OW36085   1.105   0.140   2.118 -0.0224  0.1998  0.1840
 8208SOL    HW136086   1.099   0.179   2.031 -0.0662 -0.2001  0.0081
 8208SOL    HW236087   1.033   0.078   2.109 -1.3421  1.7414  0.1467
 8209SOL     OW36088   3.540   3.714   9.165  0.9200 -0.1379  0.1026
 8209SOL    HW136089   3.522   3.683   9.254  1.1780  3.1862  1.3006
 8209SOL    HW236090   3.458   3.683   9.127  1.2084  0.7255 -1.2127
 8210SOL     OW36091   0.804   3.855   5.077 -0.3119  0.3019 -0.1328
 8210SOL    HW136092   0.762   3.941   5.069  1.4654  1.3344  1.6871
 8210SOL    HW236093   0.734   3.790   5.073  0.9527 -1.1633  1.7544
 8211SOL     OW36094   1.141   3.240   4.761 -0.0907  0.2654  0.2200
 8211SOL    HW136095   1.132   3.222   4.854 -0.8883 -0.1240  0.0660
 8211SOL    HW236096   1.176   3.155   4.735  0.3251  0.3059  0.6527
 8212SOL     OW36097   2.483   1.107   3.399 -0.4448  1.0953 -0.0764
 8212SOL    HW136098   2.418   1.176   3.393 -1.1613  0.3685 -0.6984
 8212SOL    HW236099   2.548   1.144   3.459 -0.2677  0.1126  0.3313
 8213SOL     OW36100   0.988   0.100   8.599  0.1259 -0.2214  0.2044
 8213SOL    HW136101   0.976   0.129   8.689  0.0383  0.8849 -0.1663
 8213SOL    HW236102   1.083   0.112   8.593  0.1366 -0.0096  0.8692
 8214SOL     OW36103   0.515   4.202   6.855 -0.0046 -0.2328 -0.0331
 8214SOL    HW136104   0.446   4.247   6.807 -0.7620 -0.8481  0.4817
 8214SOL    HW236105   0.470   4.180   6.937  2.3982 -0.0006  1.3511
 8215SOL     OW36106   1.049   0.960   6.161  0.5241  0.0737  0.2391
 8215SOL    HW136107   1.030   0.968   6.255 -0.3403  1.7115 -0.0759
 8215SOL    HW236108   1.097   1.039   6.137  0.3778 -0.9365 -3.3753
 8216SOL     OW36109   1.664   1.902   5.101 -0.9246 -0.0617 -0.0792
 8216SOL    HW136110   1.577   1.865   5.085 -0.2374 -2.1482  1.1310
 8216SOL    HW236111   1.668   1.975   5.039  0.4601  1.1215  1.4159
 8217SOL     OW36112   1.761   3.069   6.749  0.6425  0.0708 -0.4901
 8217SOL    HW136113   1.805   3.136   6.697 -0.6900  2.4310  1.4386
 8217SOL    HW236114   1.678   3.115   6.759  0.1128 -1.1598  0.9406
 8218SOL     OW36115   3.432   0.265   6.471 -0.2284  0.1697  0.9036
 8218SOL    HW136116   3.456   0.182   6.430  0.3200  0.5442  0.4637
 8218SOL    HW236117   3.344   0.247   6.503 -0.5977  2.0215  0.9496
 8219SOL     OW36118   3.466   3.941   6.901 -0.3635 -0.1352  0.1947
 8219SOL    HW136119   3.488   3.951   6.994  1.7675 -1.0360 -0.2152
 8219SOL    HW236120   3.403   4.010   6.882 -0.9090 -0.7458 -0.1832
 8220SOL     OW36121   0.123   3.654   4.788 -0.1828  0.2435  0.2131
 8220SOL    HW136122   0.098   3.741   4.756 -1.1204  0.2570  0.9647
 8220SOL    HW236123   0.100   3.604   4.710 -1.6841  1.9460 -0.4458
 8221SOL     OW36124   2.092   3.289   7.189 -0.5767  0.1157 -0.2852
 8221SOL    HW136125   2.150   3.224   7.149 -2.0121  0.0764 -2.2873
 8221SOL    HW236126   2.154   3.321   7.255 -0.6190  0.3855 -0.3761
 8222SOL     OW36127   1.779   1.031   2.203 -0.0266  0.8151 -0.0626
 8222SOL    HW136128   1.750   0.964   2.264  1.5901 -0.4921 -0.7304
 8222SOL    HW236129   1.872   1.011   2.194 -0.0807 -0.0204  1.2236
 8223SOL     OW36130   0.060   0.765   7.263  0.0443 -0.1366  0.2579
 8223SOL    HW136131   0.036   0.835   7.202  1.5229 -0.1556 -0.3496
 8223SOL    HW236132   4.707   0.758   7.320  1.9706  0.2684  2.9049
 8224SOL     OW36133   1.952   3.544   7.927  0.5068  0.5847 -0.1309
 8224SOL    HW136134   2.032   3.595   7.914 -0.8428  2.3866 -1.2490
 8224SOL    HW236135   1.921   3.589   8.005 -1.7026 -0.0278 -0.6405
 8225SOL     OW36136   1.176   2.285   4.332 -0.5230 -0.2184  0.1503
 8225SOL    HW136137   1.149   2.314   4.245  0.3945  1.3384  0.3935
 8225SOL    HW236138   1.230   2.359   4.357  1.2579 -1.5330  0.2318
 8226SOL     OW36139   0.923   4.120   4.417 -0.0081  0.1900  0.2242
 8226SOL    HW136140   0.933   4.079   4.331  0.3884 -0.3091  0.5117
 8226SOL    HW236141   0.989   4.080   4.473 -0.4435 -2.4350 -1.1496
 8227SOL     OW36142   4.058   0.247   2.811  0.7912  0.1292 -0.0799
 8227SOL    HW136143   4.142   0.237   2.767 -0.0024  2.3085 -2.0857
 8227SOL    HW236144   4.048   0.162   2.854 -0.0130  0.0309 -0.4680
 8228SOL     OW36145   1.592   2.173   7.723 -0.1192 -0.1914 -0.4007
 8228SOL    HW136146   1.640   2.121   7.659 -3.4825 -3.0396 -0.6193
 8228SOL    HW236147   1.521   2.123   7.764 -0.1569  1.6008  1.6713
 8229SOL     OW36148   2.745   0.591   9.031 -0.1531  0.0301 -0.1785
 8229SOL    HW136149   2.762   0.580   9.125 -2.8805 -2.1536  0.0591
 8229SOL    HW236150   2.743   0.502   8.996 -0.5743  0.0174 -0.1252
 8230SOL     OW36151   0.683   3.390   6.161 -0.6316  0.3942  0.4154
 8230SOL    HW136152   0.606   3.338   6.138  0.9662 -2.3832  1.4504
 8230SOL    HW236153   0.652   3.478   6.141 -2.6424 -0.3419  0.3300
 8231SOL     OW36154   2.981   3.772  16.562 -0.0067  0.5436  0.3842
 8231SOL    HW136155   2.908   3.724  16.523  2.4836 -1.6458 -1.6445
 8231SOL    HW236156   2.946   3.854  16.594 -1.6725  0.3227 -0.8530
 8232SOL     OW36157   2.730   3.135  17.077 -0.2353 -0.4649 -0.2204
 8232SOL    HW136158   2.667   3.128  17.149  0.7426  0.6959  0.7578
 8232SOL    HW236159   2.773   3.220  17.081  0.5666 -1.0349  3.1013
 8233SOL     OW36160   1.389   3.814   2.417  0.0788  0.4426 -0.7287
 8233SOL    HW136161   1.426   3.733   2.450  0.7011  0.0101 -2.4572
 8233SOL    HW236162   1.353   3.839   2.502 -2.3795 -4.4018 -0.3786
 8234SOL     OW36163   3.431   3.561   9.379  0.5073 -0.0053  0.2375
 8234SOL    HW136164   3.376   3.618   9.432 -1.0232 -1.0767 -0.1627
 8234SOL    HW236165   3.511   3.563   9.431  0.6990 -2.6508  0.0535
 8235SOL     OW36166   0.917   3.730   2.762 -0.3884  0.4919 -0.0296
 8235SOL    HW136167   0.983   3.734   2.693 -1.2918 -0.1933 -0.9295
 8235SOL    HW236168   0.969   3.711   2.840 -0.1243  0.3857 -0.2317
 8236SOL     OW36169   0.133   2.597  10.963 -0.4228  0.3716  0.4753
 8236SOL    HW136170   0.075   2.639  11.026 -0.7749 -0.1580  0.4961
 8236SOL    HW236171   0.152   2.666  10.899  0.5353 -1.0017 -0.7246
 8237SOL     OW36172   2.509   0.750   8.572 -0.2282  0.2245  0.1117
 8237SOL    HW136173   2.432   0.783   8.618  0.1116 -3.7811  3.5108
 8237SOL    HW236174   2.507   0.657   8.596  1.8862  0.7354  2.2379
 8238SOL     OW36175   3.933   1.698   3.512 -0.3685  0.4745  0.7816
 8238SOL    HW136176   4.010   1.650   3.543 -0.0882  1.1856  1.1776
 8238SOL    HW236177   3.971   1.786   3.511  0.7036 -0.0497 -3.9042
 8239SOL     OW36178   2.775   3.730   6.844  0.1303 -0.0954  0.3324
 8239SOL    HW136179   2.838   3.670   6.806 -2.0292 -1.8756 -0.4661
 8239SOL    HW236180   2.767   3.802   6.780  1.4513 -1.7992 -1.7489
 8240SOL     OW36181   0.445   2.703   2.815 -0.3682 -0.3633 -0.1245
 8240SOL    HW136182   0.461   2.644   2.742  1.0225  0.7692 -0.7459
 8240SOL    HW236183   0.423   2.782   2.767  2.1903  0.4263 -0.0087
 8241SOL     OW36184   0.647   4.639   8.930 -0.2304 -0.5382  0.4953
 8241SOL    HW136185   0.552   4.637   8.921 -0.4250  0.2333  2.4383
 8241SOL    HW236186   0.670   4.698   8.858 -4.2775 -1.0499 -1.1941
 8242SOL     OW36187   3.236   0.375  14.480 -0.0322  0.6806  0.2414
 8242SOL    HW136188   3.254   0.468  14.471 -0.8369  0.8823  0.6631
 8242SOL    HW236189   3.256   0.349  14.569 -0.5462 -0.9846 -0.1214
 8243SOL     OW36190   1.853   1.271   5.569  0.0197 -0.3677 -0.2747
 8243SOL    HW136191   1.877   1.203   5.507  0.4541  0.0590 -0.5792
 8243SOL    HW236192   1.782   1.312   5.520  0.2810 -1.6382 -1.6945
 8244SOL     OW36193   3.349   0.933   5.443 -0.0381  0.2499  0.2989
 8244SOL    HW136194   3.421   0.901   5.499  0.2899  0.0601 -0.2232
 8244SOL    HW236195   3.294   0.856   5.456 -1.7110  1.7544  2.1711
 8245SOL     OW36196   3.421   3.465   5.624  0.6257 -0.2933  0.0060
 8245SOL    HW136197   3.378   3.544   5.590 -2.1842 -1.5030  0.7103
 8245SOL    HW236198   3.364   3.403   5.576 -1.6602  0.3025  1.9421
 8246SOL     OW36199   2.285   0.380   8.548  0.0988 -0.5197 -0.0140
 8246SOL    HW136200   2.242   0.331   8.477  0.6865 -1.5339  0.3310
 8246SOL    HW236201   2.275   0.472   8.522 -0.8959 -0.8062 -0.6745
 8247SOL     OW36202   2.477   0.925   6.248  0.3409  0.5518 -0.9110
 8247SOL    HW136203   2.538   0.986   6.207  1.6338  0.0175  0.2037
 8247SOL    HW236204   2.541   0.855   6.267 -1.0173 -0.3344  0.3849
 8248SOL     OW36205   4.124   4.677  10.975  0.3606  0.7790  0.4484
 8248SOL    HW136206   4.148   4.600  11.026 -2.7104 -0.1188  0.5367
 8248SOL    HW236207   4.152   0.023  11.035  0.5470 -0.3802  1.7085
 8249SOL     OW36208   3.492   1.205   5.835 -0.2145 -0.0674  0.1045
 8249SOL    HW136209   3.429   1.230   5.767 -1.4412 -1.6307  0.6408
 8249SOL    HW236210   3.442   1.252   5.903  0.2092 -2.1113  1.8315
 8250SOL     OW36211   0.622   1.636   6.239 -0.5194 -0.0050  0.7905
 8250SOL    HW136212   0.602   1.728   6.259 -1.1862 -0.1895  0.9575
 8250SOL    HW236213   0.570   1.622   6.159  3.1787 -1.4294 -1.3772
 8251SOL     OW36214   0.870   2.120   6.103  0.3651 -0.6538  0.1813
 8251SOL    HW136215   0.822   2.190   6.058  2.1059 -0.7980 -1.8980
 8251SOL    HW236216   0.829   2.111   6.189 -1.2487 -1.7212 -0.6920
 8252SOL     OW36217   2.120   3.644   3.288  0.4234  0.2377  0.0869
 8252SOL    HW136218   2.173   3.689   3.223 -1.0105  2.2954  0.3241
 8252SOL    HW236219   2.047   3.705   3.300 -0.6057 -0.8420 -0.6685
 8253SOL     OW36220   0.096   1.906  17.295  0.1352 -0.3103  0.1818
 8253SOL    HW136221   0.066   1.817  17.275  0.9435  0.1302 -2.8805
 8253SOL    HW236222   0.146   1.882  17.374 -0.3050  1.1471  0.9041
 8254SOL     OW36223   4.582   0.623   4.120 -0.5574 -0.2458 -0.0965
 8254SOL    HW136224   4.621   0.547   4.078  0.2342  1.1759 -1.9484
 8254SOL    HW236225   4.613   0.690   4.059 -0.9030  2.1194  2.2951
 8255SOL     OW36226   0.593   2.436   7.860 -0.2415  0.3410 -0.0921
 8255SOL    HW136227   0.574   2.394   7.944  3.2130  0.1578  0.5833
 8255SOL    HW236228   0.507   2.432   7.818  1.1393  0.7750 -2.9031
 8256SOL     OW36229   0.556   0.578   6.814 -0.2770 -0.0003  0.0153
 8256SOL    HW136230   0.496   0.644   6.849  0.6700  1.3301 -0.8605
 8256SOL    HW236231   0.502   0.554   6.739 -1.7711 -0.4724  1.2394
 8257SOL     OW36232   2.360   3.030   2.161  0.1357  0.1071  0.2728
 8257SOL    HW136233   2.374   2.977   2.083 -0.0115  0.0368  0.2945
 8257SOL    HW236234   2.275   2.998   2.192 -0.2014 -0.4322 -1.2221
 8258SOL     OW36235   3.013   3.925   5.775  0.3926  0.4788  0.0590
 8258SOL    HW136236   2.929   3.901   5.815  0.7110 -1.3654 -0.3448
 8258SOL    HW236237   3.065   3.845   5.786 -0.1534  0.2863  1.2019
 8259SOL     OW36238   1.012   1.281   4.556 -0.0768 -0.0958 -0.2730
 8259SOL    HW136239   0.985   1.194   4.525 -0.6574  0.7361 -2.0984
 8259SOL    HW236240   1.082   1.290   4.492 -1.1157 -1.4642 -1.6304
 8260SOL     OW36241   0.285   2.145  17.204  0.5708  0.4653  0.2423
 8260SOL    HW136242   0.209   2.114  17.254 -1.2542 -0.5303 -3.1635
 8260SOL    HW236243   0.311   2.218  17.261  0.1628 -0.4921  1.6676
 8261SOL     OW36244   4.243   1.785   4.632 -0.1582 -0.0776  0.3310
 8261SOL    HW136245   4.252   1.867   4.681  2.2993 -0.0757 -0.1081
 8261SOL    HW236246   4.328   1.744   4.647  0.3427  1.2752  1.2476
 8262SOL     OW36247   2.788   3.235   6.702  0.3546  0.6480 -0.0802
 8262SOL    HW136248   2.830   3.183   6.632  0.4129 -0.8072  1.0325
 8262SOL    HW236249   2.712   3.267   6.652  0.9530  1.1281 -0.6830
 8263SOL     OW36250   0.528   1.250   6.644  0.1574  0.3514 -0.3911
 8263SOL    HW136251   0.621   1.260   6.662 -0.2636 -0.5040  2.2042
 8263SOL    HW236252   0.515   1.332   6.596 -1.8655 -0.3818 -1.1082
 8264SOL     OW36253   2.040   2.739   3.008 -0.3743  0.0034  0.1064
 8264SOL    HW136254   1.996   2.825   3.009 -0.1221  0.1790 -3.1645
 8264SOL    HW236255   2.050   2.720   3.101 -0.6109 -1.4020 -0.1640
 8265SOL     OW36256   4.567   4.614   1.114 -0.0853  0.4646  0.4723
 8265SOL    HW136257   4.626   4.653   1.050 -0.7723 -0.8588 -0.9622
 8265SOL    HW236258   4.554   4.684   1.178 -1.9437 -1.4103  2.1617
 8266SOL     OW36259   1.154   3.357   1.296  0.3340 -0.1471 -0.8346
 8266SOL    HW136260   1.094   3.421   1.335 -0.6044  0.1193 -2.7070
 8266SOL    HW236261   1.222   3.361   1.363 -1.2413 -1.5076  0.8174
 8267SOL     OW36262   2.225   2.924  12.966 -0.1814  0.2839  0.3826
 8267SOL    HW136263   2.209   2.980  13.042  1.1133  0.9210  0.1689
 8267SOL    HW236264   2.252   2.844  13.012 -0.4798  0.5903  1.0881
 8268SOL     OW36265   0.141   2.816  10.059  0.0855  0.3437  0.0829
 8268SOL    HW136266   0.138   2.775   9.973 -2.0552  0.6890 -0.0203
 8268SOL    HW236267   0.228   2.855  10.064 -0.2540  1.1028  0.0731
 8269SOL     OW36268   3.978   2.622   5.119 -0.5016  0.6434 -0.4006
 8269SOL    HW136269   4.030   2.700   5.098 -1.0186  0.9515 -0.5322
 8269SOL    HW236270   4.022   2.590   5.198 -0.8477  0.2895 -0.3528
 8270SOL     OW36271   1.058   1.406   7.459  0.3016 -0.2468 -0.4573
 8270SOL    HW136272   1.066   1.363   7.544 -3.0604  0.1362  0.0175
 8270SOL    HW236273   1.152   1.407   7.438  0.6546 -0.6853  1.1155
 8271SOL     OW36274   4.405   3.858  11.637 -0.2145  0.1680 -0.1114
 8271SOL    HW136275   4.444   3.875  11.551  1.3065 -0.5558  0.4346
 8271SOL    HW236276   4.311   3.873  11.628 -0.6015 -1.8831  0.5765
 8272SOL     OW36277   4.055   2.826   2.514  0.5066 -0.1716 -0.0517
 8272SOL    HW136278   4.091   2.839   2.601 -1.9493  1.2011  0.7546
 8272SOL    HW236279   3.973   2.874   2.513  0.9590  0.6082  1.0368
 8273SOL     OW36280   3.532   3.846   2.669 -0.0413 -0.0388 -0.1812
 8273SOL    HW136281   3.510   3.808   2.754 -0.5622  1.1331  0.2087
 8273SOL    HW236282   3.444   3.852   2.632 -0.2165  1.8442  0.5407
 8274SOL     OW36283   1.997   2.451   9.062  0.7230 -0.1690  0.1781
 8274SOL    HW136284   1.976   2.383   8.997  0.7990 -0.5909  0.5999
 8274SOL    HW236285   2.059   2.509   9.018  0.0252  2.1304  2.2732
 8275SOL     OW36286   0.348   3.648   3.191  0.0340 -0.0539 -0.3860
 8275SOL    HW136287   0.285   3.604   3.247  0.7716  1.7438  1.8755
 8275SOL    HW236288   0.422   3.587   3.197 -0.7970 -0.8898  1.2794
 8276SOL     OW36289   0.546   1.469   2.737  0.2472 -0.0699 -0.0349
 8276SOL    HW136290   0.521   1.380   2.709  0.7064 -0.0131 -0.6352
 8276SOL    HW236291   0.485   1.478   2.811  0.2221 -1.6174  0.1329
 8277SOL     OW36292   1.853   3.025   4.778  0.1329  0.4352  0.4154
 8277SOL    HW136293   1.919   3.073   4.827 -1.5928  3.4518 -0.2400
 8277SOL    HW236294   1.907   2.983   4.712  0.0460 -1.6516  1.6640
 8278SOL     OW36295   3.777   4.704   4.535 -0.2192 -0.4473  0.3380
 8278SOL    HW136296   3.692   4.660   4.526 -0.6722  0.9467 -2.3205
 8278SOL    HW236297   3.834   4.627   4.536  0.1879 -0.1726 -0.7507
 8279SOL     OW36298   4.652   4.679   3.147  0.0607  0.2870 -0.0474
 8279SOL    HW136299   4.611   4.599   3.113 -2.1449  2.5138 -2.5885
 8279SOL    HW236300   4.598   0.023   3.107  0.4682  0.3323 -0.5240
 8280SOL     OW36301   4.686   2.237   2.211 -0.3730 -0.3961  0.0680
 8280SOL    HW136302   4.637   2.316   2.234  0.5313 -0.2975  1.6674
 8280SOL    HW236303   0.022   2.265   2.142 -1.8869 -1.5701 -1.6974
 8281SOL     OW36304   0.786   4.043   6.964 -0.2904  0.1625 -0.0752
 8281SOL    HW136305   0.729   4.056   6.889  0.4257  1.1934 -0.4405
 8281SOL    HW236306   0.736   4.083   7.036 -1.4065 -0.1218 -0.6976
 8282SOL     OW36307   3.040   3.246  16.690 -0.2713 -0.2118  0.5580
 8282SOL    HW136308   2.999   3.325  16.726  0.1324  0.1575  0.2155
 8282SOL    HW236309   3.128   3.283  16.684 -0.4286  0.4891  2.5546
 8283SOL     OW36310   2.519   1.927   3.881  0.5029 -0.3723 -0.2284
 8283SOL    HW136311   2.485   2.006   3.840  0.2673 -1.2716 -1.7483
 8283SOL    HW236312   2.440   1.874   3.882  0.7068 -0.6844 -1.0695
 8284SOL     OW36313   4.248   1.337   3.956 -0.2916 -0.2702  0.3599
 8284SOL    HW136314   4.337   1.303   3.950  0.2507  1.4360 -1.1562
 8284SOL    HW236315   4.210   1.269   4.013 -0.0817 -0.3757  0.3740
 8285SOL     OW36316   0.099   2.850   5.624  0.4402 -0.0474  0.7975
 8285SOL    HW136317   0.065   2.761   5.609  0.0561  0.2024  0.1917
 8285SOL    HW236318   0.187   2.844   5.660  1.3377  0.3677 -1.3467
 8286SOL     OW36319   3.854   4.386   0.762  0.5099 -0.3840 -0.2721
 8286SOL    HW136320   3.822   4.347   0.844 -1.2535 -0.7584 -1.1558
 8286SOL    HW236321   3.916   4.315   0.744  0.9741 -0.0678  0.0734
 8287SOL     OW36322   0.963   0.590  16.842 -0.0780 -0.0200  0.4616
 8287SOL    HW136323   0.971   0.652  16.769 -0.4469  0.2286  0.6305
 8287SOL    HW236324   1.045   0.540  16.844 -1.2048 -1.8955 -0.2154
 8288SOL     OW36325   0.075   2.143  16.942 -0.1096  0.5450 -0.4491
 8288SOL    HW136326   0.077   2.142  16.847 -2.5909  0.9643 -0.5215
 8288SOL    HW236327   0.154   2.095  16.967 -1.5839 -0.2127  2.8673
 8289SOL     OW36328   2.955   0.327   1.825  0.2617 -0.0957  0.0281
 8289SOL    HW136329   3.019   0.364   1.764 -0.0829  0.2148 -0.1408
 8289SOL    HW236330   2.883   0.386   1.802  0.8490  0.9179  0.7754
 8290SOL     OW36331   1.391   0.922   6.765 -0.2325  0.1583 -0.8274
 8290SOL    HW136332   1.451   0.913   6.690 -0.3072  2.5967 -1.1669
 8290SOL    HW236333   1.457   0.944   6.831 -0.0050  0.8725 -1.2895
 8291SOL     OW36334   3.915   2.282   8.751 -0.0521  0.1879  0.3364
 8291SOL    HW136335   3.905   2.346   8.822 -0.9933  0.8586 -0.4154
 8291SOL    HW236336   3.856   2.214   8.785  1.0462 -0.2835  1.3424
 8292SOL     OW36337   3.412   2.571   3.717 -0.1972 -0.2278 -0.1223
 8292SOL    HW136338   3.466   2.614   3.783  1.3042 -1.6405 -0.4503
 8292SOL    HW236339   3.332   2.623   3.726 -0.1427  0.0591 -1.2740
 8293SOL     OW36340   0.788   0.342  12.574  0.3602 -0.1752  0.1338
 8293SOL    HW136341   0.804   0.274  12.640  1.4602 -1.7933 -1.7898
 8293SOL    HW236342   0.816   0.296  12.495 -2.9092 -0.4290 -0.8786
 8294SOL     OW36343   3.746   0.506   8.536 -0.0669  0.1798 -0.1640
 8294SOL    HW136344   3.712   0.589   8.569  0.6516 -0.0034  1.0142
 8294SOL    HW236345   3.764   0.530   8.445  0.8811 -0.8912 -0.2599
 8295SOL     OW36346   2.512   1.378   2.446 -0.5264 -0.5470 -0.0328
 8295SOL    HW136347   2.607   1.381   2.438 -0.7005  0.4913 -1.9256
 8295SOL    HW236348   2.505   1.400   2.539  1.6108 -0.6023  0.1486
 8296SOL     OW36349   3.339   2.433   1.607  0.0940  0.2573 -0.0819
 8296SOL    HW136350   3.351   2.436   1.512  3.3413 -0.1377  0.3141
 8296SOL    HW236351   3.413   2.486   1.635  1.2913 -1.0155 -0.8536
 8297SOL     OW36352   2.313   0.186   6.840  0.2646 -0.2202 -0.2543
 8297SOL    HW136353   2.397   0.184   6.886 -0.5856  0.5551  1.3006
 8297SOL    HW236354   2.265   0.109   6.868 -1.6443  1.5630  1.3047
 8298SOL     OW36355   4.722   0.892   8.205 -0.0239  0.5339 -0.0857
 8298SOL    HW136356   4.641   0.911   8.158  0.2667 -1.2427 -1.3167
 8298SOL    HW236357   4.707   0.937   8.288 -0.5126  1.5491 -0.7298
 8299SOL     OW36358   2.554   0.932  11.161 -0.2647  0.5027 -0.3177
 8299SOL    HW136359   2.637   0.888  11.181 -0.9951 -0.7739 -0.0705
 8299SOL    HW236360   2.499   0.854  11.173 -3.0658  2.0049 -3.3570
 8300SOL     OW36361   1.574   0.070  17.446 -0.5573  0.2103  0.1080
 8300SOL    HW136362   1.632   0.010  17.492 -0.5585  0.8176  0.9003
 8300SOL    HW236363   1.614   0.153  17.471  0.4352 -0.6094  1.2117
 8301SOL     OW36364   1.653   3.013  17.253  0.9175 -0.0131 -0.1982
 8301SOL    HW136365   1.633   3.094  17.300 -2.4520 -1.2909  0.6149
 8301SOL    HW236366   1.600   3.027  17.175  0.8027 -1.2515 -0.3453
 8302SOL     OW36367   4.232   0.575  12.866  0.0323 -0.0741 -0.5595
 8302SOL    HW136368   4.170   0.510  12.898 -0.1512 -0.2963 -1.3494
 8302SOL    HW236369   4.307   0.520  12.840  0.4147  0.4619 -0.5937
 8303SOL     OW36370   4.707   0.080   4.383 -0.0413 -0.0316 -0.4824
 8303SOL    HW136371   4.641   0.025   4.426 -0.2053  0.2267 -0.3976
 8303SOL    HW236372   0.041   0.018   4.339 -2.7011 -2.7101 -0.1795
 8304SOL     OW36373   0.776   0.714  13.267 -0.4861  0.5243 -0.2307
 8304SOL    HW136374   0.699   0.699  13.213 -2.6012  1.3219  2.5222
 8304SOL    HW236375   0.832   0.751  13.198 -2.4553 -0.8676 -2.5325
 8305SOL     OW36376   3.165   3.973   2.195 -0.0540 -0.8505  0.2599
 8305SOL    HW136377   3.252   4.013   2.190  0.0325 -1.0776 -0.0768
 8305SOL    HW236378   3.144   3.951   2.104  0.9395  0.0426 -0.1886
 8306SOL     OW36379   0.597   3.632   6.129  0.0634 -0.2447 -0.2699
 8306SOL    HW136380   0.541   3.701   6.164  0.6347 -0.1608  0.4730
 8306SOL    HW236381   0.678   3.677   6.106 -0.5686  0.8088 -0.4245
 8307SOL     OW36382   1.195   4.312   8.408  0.3888 -0.6507  0.0876
 8307SOL    HW136383   1.128   4.250   8.436 -0.4598  0.0164 -0.4834
 8307SOL    HW236384   1.270   4.256   8.431  0.4387 -0.9460 -0.7838
 8308SOL     OW36385   1.165   1.707  16.756  0.2799  0.7496  0.3421
 8308SOL    HW136386   1.197   1.779  16.702 -1.3890  1.7958  0.7583
 8308SOL    HW236387   1.175   1.638  16.689 -2.2304  0.7147  0.0342
 8309SOL     OW36388   4.081   3.505   7.649  0.5438  0.3663 -0.2924
 8309SOL    HW136389   4.120   3.574   7.704  2.3901 -0.4893 -0.5282
 8309SOL    HW236390   4.087   3.532   7.558  1.7547 -0.1921 -0.3762
 8310SOL     OW36391   1.573   3.007  10.203  0.4704  0.0616 -0.2302
 8310SOL    HW136392   1.574   2.951  10.280 -1.3779  0.9905  0.4739
 8310SOL    HW236393   1.486   3.048  10.203  1.6847  2.5976 -2.1894
 8311SOL     OW36394   3.295   4.436  12.910  0.5270 -0.4941  0.0990
 8311SOL    HW136395   3.346   4.360  12.938  1.4496  0.8028  1.9562
 8311SOL    HW236396   3.206   4.402  12.903  0.1573  0.5067 -0.0375
 8312SOL     OW36397   1.708   0.143   8.330 -0.1222  0.2427 -0.0078
 8312SOL    HW136398   1.613   0.151   8.342 -0.1226  1.9382 -1.1140
 8312SOL    HW236399   1.733   0.233   8.312  0.0016  0.1378 -0.3601
 8313SOL     OW36400   1.759   0.321   2.004  0.2403 -0.2398 -0.0692
 8313SOL    HW136401   1.845   0.321   2.046  1.0430 -0.7541 -1.6853
 8313SOL    HW236402   1.731   0.236   2.037 -0.4843  0.5638  1.3898
 8314SOL     OW36403   3.815   1.623  14.877  0.1351  0.6061 -0.2182
 8314SOL    HW136404   3.878   1.669  14.823  1.6173 -0.7171  0.3827
 8314SOL    HW236405   3.869   1.554  14.915 -3.7625 -1.1368  2.1923
 8315SOL     OW36406   2.879   0.333   9.202  0.0845  0.4142  0.2082
 8315SOL    HW136407   2.830   0.400   9.250 -0.8416  0.1816 -0.4158
 8315SOL    HW236408   2.958   0.383   9.181  0.8453 -0.4027  1.1520
 8316SOL     OW36409   0.295   0.362  12.877 -0.0031 -0.5295 -0.3730
 8316SOL    HW136410   0.308   0.296  12.944  0.4341  0.3252  0.3812
 8316SOL    HW236411   0.384   0.366  12.842  0.1566 -1.8945 -0.1035
 8317SOL     OW36412   1.936   4.412  15.107 -0.2330  0.1099  0.0801
 8317SOL    HW136413   1.957   4.446  15.020 -0.7851  3.2089  1.1493
 8317SOL    HW236414   1.931   4.494  15.157  0.4428  1.1265 -1.5125
 8318SOL     OW36415   3.726   0.538   6.161 -0.4904  0.3780 -0.3452
 8318SOL    HW136416   3.676   0.549   6.242  2.9635  1.4714  1.6286
 8318SOL    HW236417   3.721   0.627   6.126  0.7415  0.6616  0.1813
 8319SOL     OW36418   2.407   4.719  16.100  0.2782 -0.3886 -1.0325
 8319SOL    HW136419   2.353   4.681  16.169  2.4037 -0.8709  0.3832
 8319SOL    HW236420   2.491   4.705  16.144  0.1507 -1.8633 -1.2715
 8320SOL     OW36421   0.417   1.631   6.003  0.1816  0.0121 -0.1578
 8320SOL    HW136422   0.379   1.563   5.947  0.4155 -1.7472  1.8251
 8320SOL    HW236423   0.449   1.700   5.944 -0.2728  0.1311 -0.2665
 8321SOL     OW36424   4.104   2.009   8.031 -0.0092 -0.7202 -0.1587
 8321SOL    HW136425   4.136   1.929   8.074  1.0785 -0.8601 -1.2274
 8321SOL    HW236426   4.054   1.971   7.959 -1.2524 -0.8504  0.7720
 8322SOL     OW36427   2.510   1.153  17.526 -0.3940 -0.5525 -0.3692
 8322SOL    HW136428   2.427   1.201  17.520 -1.0409 -1.6702 -0.3521
 8322SOL    HW236429   2.578   1.217  17.506 -0.1395 -0.1870  1.7041
 8323SOL     OW36430   1.244   2.022   4.623 -0.3057 -0.5745 -0.5479
 8323SOL    HW136431   1.151   2.031   4.604 -0.6630 -4.2448 -0.5892
 8323SOL    HW236432   1.266   2.109   4.656 -1.7217  0.0647 -1.2849
 8324SOL     OW36433   3.335   2.305   2.273 -0.0657  0.4142 -0.6679
 8324SOL    HW136434   3.402   2.300   2.205  0.8612 -0.4752  0.3114
 8324SOL    HW236435   3.255   2.287   2.224  0.2658  0.8545 -1.3640
 8325SOL     OW36436   0.794   3.210   8.176 -0.5483  0.1602 -0.4707
 8325SOL    HW136437   0.847   3.253   8.109 -1.3368  1.5463 -0.1829
 8325SOL    HW236438   0.861   3.165   8.228 -0.5781  0.0984 -0.4848
 8326SOL     OW36439   3.670   0.320   2.214 -0.1540  0.2583  0.0955
 8326SOL    HW136440   3.644   0.291   2.302 -2.9709 -0.3894 -0.9357
 8326SOL    HW236441   3.680   0.411   2.239 -3.6657  0.7371 -0.1605
 8327SOL     OW36442   4.181   2.489   3.157 -0.4014 -0.4364  0.1237
 8327SOL    HW136443   4.178   2.482   3.252 -2.3395  1.0020  0.1631
 8327SOL    HW236444   4.230   2.410   3.132  1.8547  1.4883 -1.4486
 8328SOL     OW36445   1.847   0.739  16.458  0.9064 -0.2223 -0.2823
 8328SOL    HW136446   1.839   0.824  16.413  1.9412 -0.2879 -0.5958
 8328SOL    HW236447   1.819   0.764  16.546 -2.4257  2.0465 -1.9683
 8329SOL     OW36448   4.144   1.850  11.572  0.7384 -0.3400  0.4173
 8329SOL    HW136449   4.199   1.842  11.494 -1.5413  0.0653 -1.2120
 8329SOL    HW236450   4.057   1.873  11.540  1.5653  1.0987 -0.7846
 8330SOL     OW36451   2.861   0.718   6.706 -0.1663  0.2386 -0.1993
 8330SOL    HW136452   2.908   0.778   6.648 -2.3622  0.2678 -1.9377
 8330SOL    HW236453   2.774   0.715   6.665 -1.2221 -0.4186  2.0997
 8331SOL     OW36454   2.729   0.826   2.880  0.7365 -0.3703 -0.9022
 8331SOL    HW136455   2.798   0.875   2.925 -0.6149 -0.5392  1.3250
 8331SOL    HW236456   2.760   0.834   2.790 -1.3928 -1.2451 -1.6936
 8332SOL     OW36457   2.328   3.616   3.838  0.4046 -0.1235 -0.5355
 8332SOL    HW136458   2.381   3.539   3.816  2.4821  0.9921  0.4989
 8332SOL    HW236459   2.254   3.610   3.777  0.5213 -2.9310 -0.3982
 8333SOL     OW36460   1.104   2.369   6.008  0.1184  0.1954 -0.0307
 8333SOL    HW136461   1.183   2.324   6.036  0.4835  0.1987 -1.0641
 8333SOL    HW236462   1.091   2.309   5.935 -0.2423 -0.5386  0.6333
 8334SOL     OW36463   2.148   2.554   7.256 -0.3032  0.4092  0.0702
 8334SOL    HW136464   2.111   2.482   7.207  0.0047 -0.9059  1.7840
 8334SOL    HW236465   2.220   2.580   7.198  0.5762 -1.3719  0.3921
 8335SOL     OW36466   4.127   2.157   7.758  0.0684 -0.0365  0.7222
 8335SOL    HW136467   4.080   2.075   7.774 -2.2433  0.8833 -1.2845
 8335SOL    HW236468   4.060   2.221   7.734  0.9084  0.3633 -0.5788
 8336SOL     OW36469   4.337   3.163   7.948 -0.5202 -0.4445 -0.1851
 8336SOL    HW136470   4.247   3.184   7.974  0.4227  2.1361  1.0181
 8336SOL    HW236471   4.325   3.069   7.934 -1.1312 -1.1352  4.8502
 8337SOL     OW36472   2.117   1.588  13.352  0.1856  0.2200 -0.1455
 8337SOL    HW136473   2.189   1.649  13.339  1.4984 -0.9436  1.6910
 8337SOL    HW236474   2.045   1.639  13.314  0.7659  0.8715 -0.3602
 8338SOL     OW36475   4.215   3.798   0.271  0.8658  0.2412 -0.1518
 8338SOL    HW136476   4.164   3.737   0.324  0.2417 -0.4409 -1.5402
 8338SOL    HW236477   4.193   3.785   0.179 -1.8855 -0.0060  0.5393
 8339SOL     OW36478   3.091   2.506   6.911  0.7068  0.4119 -0.0470
 8339SOL    HW136479   3.124   2.549   6.991 -0.5261 -0.5955  1.0031
 8339SOL    HW236480   3.164   2.446   6.893 -1.1608 -1.9491  0.2778
 8340SOL     OW36481   0.713   2.787   4.042 -0.0525  0.3414 -0.2804
 8340SOL    HW136482   0.666   2.830   4.114  2.5075  0.5299  1.2671
 8340SOL    HW236483   0.651   2.720   4.011 -0.9037  0.5640  0.9323
 8341SOL     OW36484   2.849   2.669  12.549  0.5000 -0.1739 -0.4003
 8341SOL    HW136485   2.899   2.620  12.614 -1.7770 -1.2224  0.5630
 8341SOL    HW236486   2.800   2.731  12.603  0.4735  1.9190 -2.7868
 8342SOL     OW36487   3.826   2.523  10.083  0.3148  0.4525  0.4727
 8342SOL    HW136488   3.869   2.583  10.021 -0.3436 -0.8242 -1.2241
 8342SOL    HW236489   3.735   2.535  10.056  0.2070  0.0232  0.6600
 8343SOL     OW36490   0.397   0.110   7.820 -0.0831  0.3169  0.3525
 8343SOL    HW136491   0.334   0.091   7.750  0.3881  1.2375 -0.3228
 8343SOL    HW236492   0.354   0.181   7.867 -0.5208 -0.0347  0.4919
 8344SOL     OW36493   3.086   4.502  10.851 -0.1175  0.3851 -0.0603
 8344SOL    HW136494   3.044   4.587  10.838  0.4642  0.3684 -2.0084
 8344SOL    HW236495   3.180   4.519  10.862  0.3765 -3.0215  1.0207
 8345SOL     OW36496   2.024   4.043   7.534  0.2182  0.0935 -0.3671
 8345SOL    HW136497   2.050   4.040   7.442  0.3416 -0.3378 -0.3181
 8345SOL    HW236498   1.929   4.047   7.521 -0.0829  1.2691  2.0580
 8346SOL     OW36499   0.163   2.721  10.326  0.2436 -0.1965  0.1384
 8346SOL    HW136500   0.135   2.785  10.261 -3.9214 -2.6228 -0.4344
 8346SOL    HW236501   0.082   2.670  10.340  0.7027 -1.1983 -0.8975
 8347SOL     OW36502   2.355   0.757   2.819 -0.1280 -0.0363 -0.9798
 8347SOL    HW136503   2.297   0.682   2.830  0.9376 -1.0625 -2.2626
 8347SOL    HW236504   2.429   0.751   2.879 -1.1537 -0.7952  0.2267
 8348SOL     OW36505   2.424   1.625   3.699 -0.0304  0.5086 -0.6647
 8348SOL    HW136506   2.490   1.581   3.751  0.8262  3.0271  0.3741
 8348SOL    HW236507   2.363   1.639   3.771 -2.1974 -1.5618 -2.1025
 8349SOL     OW36508   3.105   0.671  13.123  0.2520  0.7423  0.3120
 8349SOL    HW136509   3.128   0.686  13.031  1.0166  0.7944  0.5069
 8349SOL    HW236510   3.167   0.600  13.142 -0.1461 -0.0648 -1.3907
 8350SOL     OW36511   3.290   3.252   5.505 -0.9144 -0.0164  0.1933
 8350SOL    HW136512   3.232   3.184   5.540  1.4390 -2.0792  0.1066
 8350SOL    HW236513   3.272   3.231   5.413  1.5442 -2.0746  0.1866
 8351SOL     OW36514   1.301   4.700  12.434  0.7226  0.5192 -0.4505
 8351SOL    HW136515   1.213   4.687  12.469  0.8680  2.0851  0.4935
 8351SOL    HW236516   1.355   4.647  12.493  1.2958 -1.2585 -2.5547
 8352SOL     OW36517   4.407   2.425  10.376  0.0657 -0.3468  0.5147
 8352SOL    HW136518   4.318   2.409  10.409 -0.6788  0.8727 -0.8679
 8352SOL    HW236519   4.455   2.375  10.442 -0.5556  1.6804  2.4930
 8353SOL     OW36520   2.627   0.123   8.434 -0.3107 -0.0615 -0.1192
 8353SOL    HW136521   2.674   0.151   8.512  0.5357 -0.9467 -0.3195
 8353SOL    HW236522   2.701   0.082   8.390 -0.6146 -2.1161  1.2281
 8354SOL     OW36523   3.669   1.079   3.378  0.3934  0.1249 -0.2364
 8354SOL    HW136524   3.638   1.152   3.324  1.1738  1.3105  0.9388
 8354SOL    HW236525   3.733   1.126   3.431  0.5898 -3.5926  2.8819
 8355SOL     OW36526   1.493   0.853   6.145 -0.5585 -0.6620  0.2031
 8355SOL    HW136527   1.405   0.824   6.166 -0.7467  1.6072  2.5654
 8355SOL    HW236528   1.481   0.909   6.068  0.4503  1.2226  1.3943
 8356SOL     OW36529   4.560   4.076   2.964 -0.6648 -0.2820  0.0021
 8356SOL    HW136530   4.551   4.156   2.913  0.7714  0.4810  0.9478
 8356SOL    HW236531   4.654   4.056   2.964 -1.2422 -2.9699  2.0723
 8357SOL     OW36532   1.355   3.301  12.030 -0.3731 -0.6734 -0.0684
 8357SOL    HW136533   1.311   3.386  12.032  0.5927 -0.1330 -2.0584
 8357SOL    HW236534   1.331   3.274  11.941  0.5799 -1.9575  0.0722
 8358SOL     OW36535   0.814   1.728   8.463  0.3878 -1.2957 -0.8574
 8358SOL    HW136536   0.743   1.763   8.518  1.2623 -1.6724  0.5073
 8358SOL    HW236537   0.826   1.645   8.508  1.1948 -1.3841 -1.2527
 8359SOL     OW36538   1.075   3.836   8.720 -0.2862 -0.3590  0.0922
 8359SOL    HW136539   1.157   3.786   8.717  0.2434  0.6094 -1.4240
 8359SOL    HW236540   1.036   3.806   8.637 -0.4245  0.3426 -0.0950
 8360SOL     OW36541   0.802   4.405   7.993 -0.0361  0.1708  0.8471
 8360SOL    HW136542   0.766   4.419   8.081 -2.1699  1.6443 -0.2814
 8360SOL    HW236543   0.769   4.486   7.954 -0.3477  0.2497  1.2796
 8361SOL     OW36544   0.797   2.619   4.690 -0.0124  0.3997  0.0444
 8361SOL    HW136545   0.819   2.577   4.773 -0.1682 -0.1144 -0.1766
 8361SOL    HW236546   0.810   2.556   4.619 -1.4022  0.8666 -0.6250
 8362SOL     OW36547   1.496   4.306  17.175 -0.2136  0.4171 -0.9446
 8362SOL    HW136548   1.468   4.255  17.252 -1.4422  1.9635 -0.3695
 8362SOL    HW236549   1.558   4.361  17.222  0.0523 -0.8144  0.1580
 8363SOL     OW36550   3.027   4.213   9.014  0.0183  0.2924  0.0407
 8363SOL    HW136551   3.072   4.155   9.076  0.7449  2.3377  1.4428
 8363SOL    HW236552   2.936   4.185   9.025  0.3672 -0.9831 -0.3224
 8364SOL     OW36553   4.381   3.353   8.234 -0.3568 -0.0498  0.0591
 8364SOL    HW136554   4.433   3.277   8.262  1.7551  1.6531  0.7180
 8364SOL    HW236555   4.326   3.364   8.311  0.4814 -1.1689  0.8269
 8365SOL     OW36556   0.226   0.401   7.477  0.0951 -1.0347 -0.2067
 8365SOL    HW136557   0.195   0.490   7.497  0.6578 -0.7347 -0.6708
 8365SOL    HW236558   0.315   0.406   7.513 -0.4378 -1.8942  1.2200
 8366SOL     OW36559   3.289   3.756   9.927  0.3741 -0.4479  0.3323
 8366SOL    HW136560   3.378   3.746   9.960  0.2050 -0.4897  0.7840
 8366SOL    HW236561   3.306   3.828   9.867 -2.0344 -0.2948 -0.1679
 8367SOL     OW36562   0.214   1.425  11.364 -0.5173  0.9401 -1.1746
 8367SOL    HW136563   0.289   1.420  11.424 -1.7521  1.1189  0.4048
 8367SOL    HW236564   0.240   1.367  11.293  2.3170  0.7935 -0.0103
 8368SOL     OW36565   2.677   0.370   7.368 -0.1963 -0.0937 -0.4295
 8368SOL    HW136566   2.685   0.463   7.348  2.0363 -0.2194 -0.1235
 8368SOL    HW236567   2.708   0.377   7.458 -1.0822 -0.2878 -0.1064
 8369SOL     OW36568   0.854   0.661   9.045 -0.1637 -0.0639 -0.0017
 8369SOL    HW136569   0.829   0.639   9.135  2.2556 -1.0710  0.4429
 8369SOL    HW236570   0.900   0.744   9.062  0.7994 -0.0806 -2.4787
 8370SOL     OW36571   0.082   4.466   6.303 -0.3058 -0.3350 -0.0738
 8370SOL    HW136572   0.044   4.449   6.217 -1.9819  0.3819  0.5339
 8370SOL    HW236573   0.133   4.544   6.280 -1.6855  0.4782 -0.3611
 8371SOL     OW36574   2.486   4.230   9.864  0.0956 -0.8378  0.3223
 8371SOL    HW136575   2.579   4.255   9.865  0.3415 -1.6437 -1.3237
 8371SOL    HW236576   2.468   4.289   9.790  0.5674  0.2285  1.0614
 8372SOL     OW36577   4.111   0.963   4.889 -0.0527  0.0533 -0.2475
 8372SOL    HW136578   4.024   0.994   4.912  0.4331 -0.4442  2.2219
 8372SOL    HW236579   4.086   0.871   4.884 -1.4244  0.5304 -2.0902
 8373SOL     OW36580   3.578   2.722   2.972  0.1998  0.0966 -0.4926
 8373SOL    HW136581   3.501   2.666   2.985  0.3574  0.7548  3.1240
 8373SOL    HW236582   3.566   2.786   3.042 -1.4601 -2.2428  1.3788
 8374SOL     OW36583   3.145   0.378   1.659  0.5062  0.3930 -0.0475
 8374SOL    HW136584   3.200   0.394   1.582  2.0363  1.6290  1.3089
 8374SOL    HW236585   3.203   0.320   1.707 -1.5324 -1.7465 -0.1862
 8375SOL     OW36586   0.611   1.173   4.759 -0.0114 -0.2719 -0.6402
 8375SOL    HW136587   0.706   1.185   4.762  0.2398 -1.4072 -3.7054
 8375SOL    HW236588   0.589   1.207   4.845 -0.1885 -0.7968 -0.4801
 8376SOL     OW36589   3.372   3.403   4.079  0.1185  0.4014 -0.0127
 8376SOL    HW136590   3.399   3.483   4.123  1.0493 -0.2935  0.6708
 8376SOL    HW236591   3.364   3.345   4.155  2.1554  1.4584  1.0070
 8377SOL     OW36592   1.791   0.260  12.728  0.0324 -0.2247  0.3591
 8377SOL    HW136593   1.725   0.291  12.791  3.1278  2.3579  2.3319
 8377SOL    HW236594   1.801   0.169  12.754  0.1167  0.0005  1.1192
 8378SOL     OW36595   2.263   1.109   5.617 -0.4578  0.2845  0.4810
 8378SOL    HW136596   2.336   1.047   5.617 -0.4722  0.2687  0.3098
 8378SOL    HW236597   2.187   1.050   5.607 -0.0627  0.2291 -2.1842
 8379SOL     OW36598   1.234   1.096   9.748 -0.4752 -0.3213  0.0664
 8379SOL    HW136599   1.317   1.050   9.740 -0.8716 -0.9022 -0.6091
 8379SOL    HW236600   1.204   1.053   9.829 -0.6677 -1.2605 -0.5020
 8380SOL     OW36601   3.918   2.118   2.100  0.1294 -0.1317 -0.3095
 8380SOL    HW136602   3.874   2.185   2.047  2.7272  0.3882 -1.7914
 8380SOL    HW236603   3.859   2.044   2.081 -2.7341  2.4614 -1.5700
 8381SOL     OW36604   0.440   3.785   9.745 -0.1153 -0.2543 -0.5882
 8381SOL    HW136605   0.415   3.694   9.729 -1.8172  0.2349 -0.7077
 8381SOL    HW236606   0.448   3.784   9.840  1.0103 -0.6260 -0.6845
 8382SOL     OW36607   1.455   3.239   7.262 -0.0705  0.0308 -0.1979
 8382SOL    HW136608   1.484   3.185   7.188  2.0392  0.9606 -0.0243
 8382SOL    HW236609   1.536   3.275   7.297 -0.0313 -2.6879  2.5331
 8383SOL     OW36610   1.737   0.847   4.514 -0.1659  0.0939 -0.0901
 8383SOL    HW136611   1.656   0.801   4.495 -0.8818  0.3309  2.4522
 8383SOL    HW236612   1.720   0.919   4.575  0.9071 -0.0993  0.4402
 8384SOL     OW36613   2.768   4.015   8.022  0.3563  0.5134 -0.4604
 8384SOL    HW136614   2.737   3.965   7.946  3.7154 -3.4716  0.8190
 8384SOL    HW236615   2.742   4.099   7.984 -0.8263  0.2675 -0.2073
 8385SOL     OW36616   2.796   2.284   3.599 -0.0146 -0.1741  0.0726
 8385SOL    HW136617   2.762   2.296   3.688  1.6710  1.2981  0.5135
 8385SOL    HW236618   2.851   2.362   3.585  0.2583 -0.0258  2.0364
 8386SOL     OW36619   1.248   3.146   3.516  0.5734 -0.1910 -0.2302
 8386SOL    HW136620   1.231   3.232   3.555  1.4079  0.8066 -2.0953
 8386SOL    HW236621   1.231   3.092   3.593 -1.0023  1.6070  0.7006
 8387SOL     OW36622   2.722   2.840   2.690  0.0729  0.2321 -0.0742
 8387SOL    HW136623   2.673   2.835   2.772  1.9867  3.5386  1.2708
 8387SOL    HW236624   2.809   2.826   2.728  1.0844  0.1001 -2.4425
 8388SOL     OW36625   0.223   3.280   3.219 -0.1137 -0.3216  0.4026
 8388SOL    HW136626   0.276   3.288   3.139 -0.9835 -1.0076 -0.2481
 8388SOL    HW236627   0.132   3.290   3.192  0.4224  1.0985 -0.9133
 8389SOL     OW36628   1.983   3.967   7.112 -0.0265 -0.1069 -0.1617
 8389SOL    HW136629   1.915   4.029   7.140 -2.1546 -1.7813 -1.5914
 8389SOL    HW236630   2.053   4.014   7.068 -1.5238  1.8921 -0.4271
 8390SOL     OW36631   3.591   2.964  10.397 -0.2916  0.0180  0.1317
 8390SOL    HW136632   3.625   3.028  10.335 -1.0407 -1.8379 -2.2060
 8390SOL    HW236633   3.567   3.021  10.470 -5.4539  0.3997 -1.8308
 8391SOL     OW36634   2.699   0.644   2.270  0.0331 -0.3789  0.4124
 8391SOL    HW136635   2.671   0.718   2.322 -1.6157 -1.3588  0.9103
 8391SOL    HW236636   2.793   0.661   2.263  0.2668 -2.2367 -1.0334
 8392SOL     OW36637   4.428   3.297  11.977  0.0824 -0.4401  0.1042
 8392SOL    HW136638   4.414   3.234  11.907 -0.2642 -0.7035  0.4086
 8392SOL    HW236639   4.522   3.305  11.987  0.1542 -1.1617  0.0074
 8393SOL     OW36640   3.222   0.655  10.426  0.0891 -0.1669  0.2113
 8393SOL    HW136641   3.137   0.659  10.383  0.5781 -0.0148 -0.7247
 8393SOL    HW236642   3.184   0.649  10.514  1.1347 -1.8434  0.5522
 8394SOL     OW36643   0.813   2.728   6.725 -0.2991  0.0748 -0.1275
 8394SOL    HW136644   0.813   2.671   6.801  1.3548  1.0861  0.6263
 8394SOL    HW236645   0.905   2.739   6.701  0.0969 -4.0521 -0.4317
 8395SOL     OW36646   3.671   4.132  13.922  0.3052  0.3302  0.2834
 8395SOL    HW136647   3.618   4.211  13.908 -0.9797 -0.7843 -1.1335
 8395SOL    HW236648   3.754   4.157  13.881 -0.2122  3.5855  1.2120
 8396SOL     OW36649   1.746   4.265   0.085  0.3040 -0.8357 -0.7253
 8396SOL    HW136650   1.757   4.214   0.005  1.2642  0.3415 -1.3363
 8396SOL    HW236651   1.791   4.346   0.064  1.4051 -1.5349 -1.0849
 8397SOL     OW36652   3.937   3.279   2.340  0.5523  0.4645  0.5138
 8397SOL    HW136653   3.962   3.305   2.251 -1.7247 -0.8332 -0.5027
 8397SOL    HW236654   3.867   3.216   2.329  1.0688  0.3214 -1.9104
 8398SOL     OW36655   3.478   3.749   2.404  0.0999 -0.2516  0.0989
 8398SOL    HW136656   3.552   3.760   2.463  1.2075  0.1131 -1.3726
 8398SOL    HW236657   3.479   3.653   2.401  3.3714 -0.1512 -1.8485
 8399SOL     OW36658   3.982   3.492   1.708 -0.3518 -0.3776 -0.1280
 8399SOL    HW136659   4.060   3.521   1.661  0.2243 -0.7651  0.5731
 8399SOL    HW236660   3.987   3.402   1.676  2.6123 -0.3895  0.3675
 8400SOL     OW36661   0.994   3.592   7.115 -0.4602 -0.2620  0.4811
 8400SOL    HW136662   1.084   3.572   7.089  0.0365  0.1935  1.8678
 8400SOL    HW236663   0.977   3.673   7.067  0.1122 -1.1933 -1.3239
 8401SOL     OW36664   3.949   2.983   5.698 -0.0927  0.4413  0.1532
 8401SOL    HW136665   3.932   3.072   5.669  2.3678  0.0465 -2.4523
 8401SOL    HW236666   4.001   2.957   5.623  3.3729  1.3601  2.2613
 8402SOL     OW36667   3.309   4.297   5.920 -0.4125 -0.1059 -0.4596
 8402SOL    HW136668   3.360   4.288   6.000 -0.2550 -1.8039 -0.7335
 8402SOL    HW236669   3.246   4.228   5.942  0.8594 -0.6212  1.5581
 8403SOL     OW36670   3.270   1.288  15.224  0.3397 -0.8390  0.4059
 8403SOL    HW136671   3.309   1.327  15.302  1.5285 -0.5959 -0.3018
 8403SOL    HW236672   3.280   1.194  15.236  1.8077 -0.7791 -0.2844
 8404SOL     OW36673   0.086   2.952  12.077  0.4351  0.1406 -0.0741
 8404SOL    HW136674   0.167   3.000  12.092  0.2217  0.4177  0.1868
 8404SOL    HW236675   0.054   2.942  12.167 -1.9535 -0.1175 -0.9488
 8405SOL     OW36676   2.079   2.624  13.110  0.5534 -0.9721 -0.6256
 8405SOL    HW136677   2.089   2.598  13.019  1.3700 -1.9261 -0.2656
 8405SOL    HW236678   1.995   2.669  13.116  1.2265  0.1656  0.1866
 8406SOL     OW36679   2.074   1.561   3.020 -0.0032  0.2357 -0.6243
 8406SOL    HW136680   2.081   1.478   3.069 -2.2752 -0.5988 -1.7187
 8406SOL    HW236681   2.005   1.608   3.066 -1.2044 -2.3617  0.2524
 8407SOL     OW36682   2.600   1.406   8.710  0.5192 -0.5925 -0.7503
 8407SOL    HW136683   2.614   1.492   8.671 -0.1535  0.4714  1.3648
 8407SOL    HW236684   2.514   1.419   8.749  1.0312  0.0527  0.1561
 8408SOL     OW36685   3.663   3.152  15.954 -0.0590  0.1337  0.0590
 8408SOL    HW136686   3.701   3.107  15.879  0.0794 -1.0951  0.8783
 8408SOL    HW236687   3.588   3.184  15.904 -0.0104 -0.6246 -0.4899
 8409SOL     OW36688   2.151   2.812   6.113 -0.0387 -0.0922 -0.3659
 8409SOL    HW136689   2.188   2.898   6.092 -1.9855  1.2464  1.5954
 8409SOL    HW236690   2.101   2.826   6.193  1.0055  0.8590  0.1235
 8410SOL     OW36691   1.336   2.721   1.348 -0.8799 -0.0903  0.7741
 8410SOL    HW136692   1.427   2.693   1.358 -1.4818 -2.4899 -0.6686
 8410SOL    HW236693   1.331   2.731   1.253 -0.6609 -0.5222  0.7205
 8411SOL     OW36694   0.479   0.055  13.459 -0.1826 -0.6679 -0.0408
 8411SOL    HW136695   0.518   0.085  13.377 -2.7434 -0.3065 -1.1262
 8411SOL    HW236696   0.392   0.094  13.456 -0.2771 -1.0957 -2.3891
 8412SOL     OW36697   3.129   0.789   3.741 -0.2352 -0.1044 -0.3860
 8412SOL    HW136698   3.200   0.755   3.687 -2.0182 -1.4388 -1.8522
 8412SOL    HW236699   3.171   0.785   3.827 -0.0078  2.0224 -0.3985
 8413SOL     OW36700   2.470   3.782   4.385  0.2905 -0.7790 -0.1443
 8413SOL    HW136701   2.426   3.704   4.419 -3.5538  0.5678 -1.9993
 8413SOL    HW236702   2.459   3.844   4.457 -1.4959 -1.0338 -0.2040
 8414SOL     OW36703   1.516   1.625   2.010  1.1342  0.2055 -0.1518
 8414SOL    HW136704   1.551   1.559   1.950 -0.5315 -0.5059 -0.3434
 8414SOL    HW236705   1.557   1.702   1.971 -0.0996  2.4807  3.0590
 8415SOL     OW36706   1.335   3.845   7.292  0.2702 -0.5110  0.3666
 8415SOL    HW136707   1.388   3.896   7.353  2.4566  0.6383 -2.4857
 8415SOL    HW236708   1.246   3.864   7.321  0.0082 -1.0718 -0.0597
 8416SOL     OW36709   2.171   3.359  13.535 -0.2128 -0.3645 -0.4629
 8416SOL    HW136710   2.139   3.376  13.623  0.8851 -0.4171 -0.0632
 8416SOL    HW236711   2.121   3.426  13.488  1.7078  0.4647 -1.2931
 8417SOL     OW36712   1.995   2.385  10.126  0.0603 -0.1896 -0.7932
 8417SOL    HW136713   1.980   2.478  10.145  2.2512 -0.3957  1.9638
 8417SOL    HW236714   1.955   2.332  10.194  0.3612  1.6748  0.8455
 8418SOL     OW36715   1.462   1.445   6.361  0.7510  0.2352  0.1628
 8418SOL    HW136716   1.430   1.418   6.275 -1.5433  1.1230  0.7392
 8418SOL    HW236717   1.471   1.539   6.346  1.1504  0.3157  0.9163
 8419SOL     OW36718   3.344   4.157   6.371 -0.0209  0.2245 -0.2013
 8419SOL    HW136719   3.330   4.064   6.392  3.0282  0.1301  1.4422
 8419SOL    HW236720   3.322   4.200   6.454 -0.5825 -1.2845  0.4419
 8420SOL     OW36721   0.875   1.741   3.312 -0.0345 -0.0354 -0.2319
 8420SOL    HW136722   0.953   1.786   3.280  0.9686 -0.1650  1.9939
 8420SOL    HW236723   0.838   1.706   3.231  1.2071 -0.9316 -0.4226
 8421SOL     OW36724   2.093   3.780  16.226 -0.4899 -0.4365  0.4334
 8421SOL    HW136725   2.069   3.862  16.183  1.6632  0.0296  0.1375
 8421SOL    HW236726   2.007   3.742  16.246 -0.0748 -1.1956  0.7760
 8422SOL     OW36727   1.716   4.389  13.029  0.1173  0.4111  0.1837
 8422SOL    HW136728   1.744   4.318  12.971 -1.4527  1.2632 -1.6299
 8422SOL    HW236729   1.794   4.442  13.043  0.6335 -0.3904  0.2950
 8423SOL     OW36730   3.848   3.894   2.623  0.3798 -0.3628  0.8682
 8423SOL    HW136731   3.785   3.822   2.621  0.0910 -0.0892  0.3504
 8423SOL    HW236732   3.860   3.915   2.531  0.0777 -1.4070  0.6039
 8424SOL     OW36733   2.600   1.814   1.589  0.2729 -0.4266  0.0380
 8424SOL    HW136734   2.687   1.834   1.555 -0.2308  1.7417 -0.0093
 8424SOL    HW236735   2.597   1.721   1.568 -1.6786 -0.1155 -1.0588
 8425SOL     OW36736   3.006   2.781  14.050 -0.0847 -0.0395 -0.7438
 8425SOL    HW136737   3.054   2.863  14.037 -3.3427  1.9695 -0.0048
 8425SOL    HW236738   3.009   2.751  13.959  0.2961 -1.1840 -0.3501
 8426SOL     OW36739   3.497   1.110   9.129  0.2344  0.4787  0.1544
 8426SOL    HW136740   3.415   1.077   9.166  0.3355 -0.1634 -0.1905
 8426SOL    HW236741   3.517   1.042   9.065  1.1536  1.9437 -1.1011
 8427SOL     OW36742   2.824   3.203   1.991  0.2031  0.3235  0.2484
 8427SOL    HW136743   2.886   3.275   2.001 -0.0706  1.1118 -3.5641
 8427SOL    HW236744   2.886   3.138   1.957 -1.8769 -1.9089  0.7203
 8428SOL     OW36745   4.284   4.468   8.585  0.2427  0.6055  0.1219
 8428SOL    HW136746   4.269   4.558   8.615 -0.2852  0.5548  0.0032
 8428SOL    HW236747   4.268   4.477   8.491  0.1791 -1.0281 -0.0257
 8429SOL     OW36748   3.798   3.633  15.257  0.0282 -0.0894 -0.2324
 8429SOL    HW136749   3.760   3.632  15.345  1.6323  0.8076  0.4676
 8429SOL    HW236750   3.855   3.556  15.252 -0.6439 -0.6337  0.4158
 8430SOL     OW36751   0.996   4.073   2.113 -0.2859 -0.0593 -0.4213
 8430SOL    HW136752   1.026   4.003   2.170  0.8365 -0.4385 -1.4890
 8430SOL    HW236753   1.072   4.107   2.066  0.8078  1.9392  2.8662
 8431SOL     OW36754   2.681   1.617   6.933 -0.5207  0.3938  0.2062
 8431SOL    HW136755   2.696   1.595   6.841 -2.0531  0.3242 -0.0278
 8431SOL    HW236756   2.760   1.584   6.976  0.4488 -0.8958 -2.5419
 8432SOL     OW36757   3.981   2.969   6.246  0.4399  0.1059  0.0821
 8432SOL    HW136758   4.075   2.985   6.231  0.4690  0.6843  0.8794
 8432SOL    HW236759   3.989   2.879   6.276  0.9915  0.1231 -0.0105
 8433SOL     OW36760   2.197   3.661   7.933  0.4149 -0.0322  0.3844
 8433SOL    HW136761   2.187   3.685   7.841 -1.2508 -3.0614 -0.2484
 8433SOL    HW236762   2.205   3.738   7.990  0.5411  1.2861 -1.4141
 8434SOL     OW36763   2.192   4.528   3.166 -0.0007  0.3824 -0.4526
 8434SOL    HW136764   2.200   4.562   3.256  1.7682 -2.5045  0.4637
 8434SOL    HW236765   2.273   4.477   3.159 -0.4234 -0.2101 -0.9199
 8435SOL     OW36766   4.048   2.641   3.847 -0.1072  0.5481  0.6113
 8435SOL    HW136767   4.015   2.660   3.935  0.5636  0.8305  0.7971
 8435SOL    HW236768   4.132   2.685   3.835  0.6378 -0.1936  3.0847
 8436SOL     OW36769   2.837   0.267  17.236  0.0265 -0.2781  0.0887
 8436SOL    HW136770   2.750   0.229  17.234 -0.0280 -0.3054  3.1647
 8436SOL    HW236771   2.850   0.277  17.141 -2.8126  0.7188 -0.1903
 8437SOL     OW36772   1.658   3.435   7.363 -0.0419  0.4781  0.0693
 8437SOL    HW136773   1.694   3.401   7.445 -1.9042  1.2115  1.1834
 8437SOL    HW236774   1.699   3.521   7.355  0.9419 -0.2128 -2.5810
 8438SOL     OW36775   1.211   3.332   4.319 -0.2274  0.7394  0.4872
 8438SOL    HW136776   1.153   3.382   4.375  0.3432  1.4773  0.4148
 8438SOL    HW236777   1.191   3.358   4.230 -0.7414  1.0010  0.6801
 8439SOL     OW36778   0.917   0.188  13.039  0.3163 -0.1020 -0.3938
 8439SOL    HW136779   0.894   0.096  13.027  0.0885 -0.2257  0.9278
 8439SOL    HW236780   1.005   0.193  13.003  1.0645 -0.6421  1.3456
 8440SOL     OW36781   4.592   3.452   8.933  0.5673  0.2046  0.7344
 8440SOL    HW136782   4.593   3.390   9.006  2.6042  1.5975  1.8905
 8440SOL    HW236783   4.536   3.522   8.967  1.4466  1.9493 -1.4411
 8441SOL     OW36784   4.079   4.652   4.326 -0.0406 -0.4078  0.0473
 8441SOL    HW136785   4.165   4.672   4.289 -0.8010  1.4043 -0.7062
 8441SOL    HW236786   4.022   4.686   4.257  1.6967  0.1636 -1.0975
 8442SOL     OW36787   1.910   1.896  14.107  0.5892  0.4078  0.1799
 8442SOL    HW136788   1.987   1.847  14.078  1.3626  2.0475 -0.5233
 8442SOL    HW236789   1.882   1.835  14.175 -0.8940  1.7894  0.8044
 8443SOL     OW36790   2.463   4.468   3.012 -0.1749  0.2845  0.4074
 8443SOL    HW136791   2.383   4.521   3.008 -0.1470  0.1377 -2.0039
 8443SOL    HW236792   2.496   4.481   2.923 -0.5721 -0.6057  0.1332
 8444SOL     OW36793   1.814   1.702   2.593  0.2240 -0.0825  0.4016
 8444SOL    HW136794   1.741   1.740   2.642 -0.1063  0.8032 -0.7815
 8444SOL    HW236795   1.873   1.688   2.667 -0.1346 -2.5979  0.1907
 8445SOL     OW36796   2.362   3.281  10.840  0.8844 -0.0869  0.9546
 8445SOL    HW136797   2.377   3.198  10.885  1.1473 -1.0802 -1.0087
 8445SOL    HW236798   2.442   3.302  10.792  0.1277  2.2006  0.6772
 8446SOL     OW36799   0.409   4.422   2.291 -0.2546  0.3044 -0.3509
 8446SOL    HW136800   0.405   4.467   2.207 -2.0194 -1.8740 -1.4345
 8446SOL    HW236801   0.479   4.473   2.333  0.6602 -1.6564  0.5141
 8447SOL     OW36802   2.170   2.507  17.586  0.7512 -0.4838  0.0364
 8447SOL    HW136803   2.123   2.496  17.668  0.1012 -0.4310 -0.3233
 8447SOL    HW236804   2.259   2.512  17.621  0.1816 -0.6537  1.5011
 8448SOL     OW36805   0.555   2.494   1.567 -0.5553 -0.4643  0.6315
 8448SOL    HW136806   0.555   2.573   1.513  0.0962  1.6590  3.7377
 8448SOL    HW236807   0.534   2.520   1.656 -0.6603 -1.9126  1.0247
 8449SOL     OW36808   4.081   2.720  10.633  0.4421  0.4709 -0.3189
 8449SOL    HW136809   4.152   2.746  10.575  0.1312 -1.8845 -1.7694
 8449SOL    HW236810   4.128   2.653  10.683 -0.8441 -0.1690  0.0551
 8450SOL     OW36811   0.532   1.793   6.582 -0.0580 -0.1489  0.0432
 8450SOL    HW136812   0.620   1.820   6.606  0.0304  0.1886 -0.6445
 8450SOL    HW236813   0.498   1.880   6.561  2.3518  0.8883  0.5334
 8451SOL     OW36814   3.467   4.479   6.181 -0.3598  0.0601 -0.8266
 8451SOL    HW136815   3.494   4.507   6.094 -1.2034 -0.7227 -1.3368
 8451SOL    HW236816   3.478   4.385   6.178  1.0965  0.1938  0.5817
 8452SOL     OW36817   1.988   0.127   2.217  0.2683  0.1283 -0.0134
 8452SOL    HW136818   2.004   0.219   2.235  0.8217  0.6312 -3.0401
 8452SOL    HW236819   1.893   0.135   2.209  0.2506 -1.7479 -1.7835
 8453SOL     OW36820   3.654   0.924  12.017 -0.0477 -0.0244  0.1917
 8453SOL    HW136821   3.742   0.960  12.033  2.0260 -4.5328 -1.2909
 8453SOL    HW236822   3.660   0.845  12.071  0.7637 -0.5180 -0.6316
 8454SOL     OW36823   2.935   2.708   3.386  0.2786 -0.5577  0.1560
 8454SOL    HW136824   2.939   2.639   3.453  0.2946 -0.9734 -0.2733
 8454SOL    HW236825   3.027   2.717   3.364  0.6376 -0.9388  1.4650
 8455SOL     OW36826   0.666   3.419   4.105  0.0388  0.2630 -0.1364
 8455SOL    HW136827   0.628   3.332   4.117  0.6413  0.1128  0.6650
 8455SOL    HW236828   0.656   3.468   4.187  0.6677 -0.3097  0.2841
 8456SOL     OW36829   2.437   2.428   8.437 -0.0543 -0.0664 -0.2699
 8456SOL    HW136830   2.460   2.355   8.380  2.0845  0.4553 -0.0666
 8456SOL    HW236831   2.517   2.470   8.469 -0.6940  1.2839 -0.4232
 8457SOL     OW36832   2.731   0.411   0.707  0.1713  0.4092 -0.0876
 8457SOL    HW136833   2.822   0.389   0.724  0.1683 -0.0683 -0.6874
 8457SOL    HW236834   2.710   0.489   0.759  1.1331  0.7334 -0.1906
 8458SOL     OW36835   4.084   1.033   6.637  0.0854 -0.3221 -0.4065
 8458SOL    HW136836   4.162   0.977   6.643  0.5657  0.3206 -0.6145
 8458SOL    HW236837   4.060   1.014   6.546 -2.2953  0.9106 -0.0198
 8459SOL     OW36838   2.022   3.199   6.864  0.9702 -0.7630  0.0122
 8459SOL    HW136839   2.045   3.198   6.771  2.5530  1.5904  0.3692
 8459SOL    HW236840   2.072   3.272   6.902 -0.9547  0.4022  0.3337
 8460SOL     OW36841   3.988   3.491  15.808  0.1936 -0.7318 -0.3310
 8460SOL    HW136842   4.020   3.559  15.868  1.3040  0.3230 -2.0983
 8460SOL    HW236843   3.911   3.459  15.854  0.3092 -1.9223 -0.9829
 8461SOL     OW36844   3.609   3.368   6.575  0.1542 -0.6221  0.6828
 8461SOL    HW136845   3.561   3.439   6.618  1.4667  2.6807 -3.2759
 8461SOL    HW236846   3.649   3.418   6.503 -0.2859 -0.1509  0.7654
 8462SOL     OW36847   1.786   3.622   8.913  0.0071  0.4245  0.5927
 8462SOL    HW136848   1.878   3.637   8.892  0.6576 -4.7679 -0.1369
 8462SOL    HW236849   1.796   3.573   8.994  1.5268  0.7775  0.6109
 8463SOL     OW36850   3.600   0.258   6.957 -0.4922  0.3353  0.2157
 8463SOL    HW136851   3.646   0.182   6.993 -3.4277 -1.9539 -0.8575
 8463SOL    HW236852   3.595   0.229   6.866  0.7575 -0.2282  0.3183
 8464SOL     OW36853   1.487   2.575   1.666 -0.0533  0.0180 -0.0120
 8464SOL    HW136854   1.402   2.620   1.671  0.3227  0.6832  0.5176
 8464SOL    HW236855   1.462   2.491   1.705  0.3983 -1.9672 -4.0689
 8465SOL     OW36856   2.540   2.394   6.651 -0.5898  0.3471 -0.0727
 8465SOL    HW136857   2.582   2.416   6.734  1.4036 -0.8109 -0.7482
 8465SOL    HW236858   2.519   2.480   6.615  1.2481  0.9487  0.2944
 8466SOL     OW36859   4.154   1.435   7.484  0.0448  0.2486 -0.1598
 8466SOL    HW136860   4.167   1.449   7.390  2.4859  0.8047  0.2540
 8466SOL    HW236861   4.226   1.375   7.505 -3.1765 -3.5791  0.0037
 8467SOL     OW36862   3.305   0.666   6.124  0.0000  0.1916 -0.1737
 8467SOL    HW136863   3.365   0.619   6.067 -0.3758 -0.5260  0.0186
 8467SOL    HW236864   3.268   0.593   6.174 -1.1954 -0.6304 -2.2302
 8468SOL     OW36865   3.739   4.069   0.257  0.2884 -0.2733  0.5042
 8468SOL    HW136866   3.749   4.044   0.165 -3.0745  1.7107 -0.4010
 8468SOL    HW236867   3.652   4.031   0.272  0.5363 -2.0606 -2.6159
 8469SOL     OW36868   2.984   0.418   5.965 -0.7290  0.6547  0.3327
 8469SOL    HW136869   2.908   0.387   5.916 -0.0117 -0.9682  0.2384
 8469SOL    HW236870   2.951   0.507   5.980  1.3598  1.7843 -1.7190
 8470SOL     OW36871   0.141   3.581  14.446 -0.1985 -0.1625 -0.4244
 8470SOL    HW136872   0.200   3.640  14.494 -0.2989  1.8417 -2.7351
 8470SOL    HW236873   0.191   3.504  14.421  1.1923  0.6702 -0.2390
 8471SOL     OW36874   0.841   1.674  16.550 -0.1791 -0.3451  0.0451
 8471SOL    HW136875   0.770   1.682  16.613 -1.1468  0.1659 -1.0985
 8471SOL    HW236876   0.890   1.750  16.580 -0.4784 -0.9372  1.9903
 8472SOL     OW36877   3.581   4.144   2.361 -0.5112 -0.0437  0.0092
 8472SOL    HW136878   3.588   4.164   2.454  1.6900  1.6416 -0.4935
 8472SOL    HW236879   3.672   4.115   2.349 -0.5968 -0.7726  1.1536
 8473SOL     OW36880   4.098   3.645  12.310 -0.6382 -0.4073 -0.3133
 8473SOL    HW136881   4.157   3.632  12.385 -0.0537  0.3491 -0.6440
 8473SOL    HW236882   4.048   3.718  12.347 -0.9273 -0.2432 -1.0367
 8474SOL     OW36883   4.520   1.024   1.497  0.1593  0.0197 -1.0210
 8474SOL    HW136884   4.546   1.050   1.586  0.7192 -3.5490 -0.1502
 8474SOL    HW236885   4.425   1.024   1.503  0.2765 -3.6870  0.5327
 8475SOL     OW36886   3.710   1.626   7.183  0.5604  0.1596  0.0617
 8475SOL    HW136887   3.698   1.721   7.177  0.6255  0.2619  1.4181
 8475SOL    HW236888   3.628   1.596   7.143  2.3781 -2.2889 -1.7610
 8476SOL     OW36889   1.907   2.614  10.727 -0.4039  0.4882  0.0638
 8476SOL    HW136890   1.999   2.587  10.721 -0.6907  0.2107 -3.0783
 8476SOL    HW236891   1.876   2.536  10.773 -1.4145  1.4862  1.0889
 8477SOL     OW36892   0.666   0.058   8.687  0.3143 -0.2943  0.0075
 8477SOL    HW136893   0.571   0.069   8.680  0.4975  0.8507 -0.6157
 8477SOL    HW236894   0.685   0.055   8.593  2.1231 -0.3330  0.3919
 8478SOL     OW36895   4.634   0.436   2.410  0.5134  0.3631  0.3042
 8478SOL    HW136896   4.605   0.401   2.325  0.0206  0.9081  0.2498
 8478SOL    HW236897   0.004   0.417   2.416  0.9115  1.8536 -1.3356
 8479SOL     OW36898   0.421   0.375   8.839  0.1700  0.0264 -0.1587
 8479SOL    HW136899   0.446   0.463   8.864 -1.0310  0.1888  0.4968
 8479SOL    HW236900   0.498   0.321   8.822 -1.4284 -1.9374 -1.1862
 8480SOL     OW36901   2.292   2.016   5.898 -0.2563 -0.2779  0.0777
 8480SOL    HW136902   2.387   2.002   5.900  0.0658  1.8982 -0.2147
 8480SOL    HW236903   2.277   1.956   5.971  1.3143 -2.1262 -1.0809
 8481SOL     OW36904   4.703   3.307  12.009  0.1122 -0.3971 -0.6331
 8481SOL    HW136905   4.688   3.390  12.055  1.6556 -0.1628 -0.5462
 8481SOL    HW236906   4.721   3.239  12.074 -2.6704 -0.5113  0.0194
 8482SOL     OW36907   4.181   4.119   3.727  0.1938  0.0164 -0.6148
 8482SOL    HW136908   4.109   4.154   3.781 -1.1944 -1.0430 -1.7932
 8482SOL    HW236909   4.247   4.167   3.778  2.3503 -1.8810 -1.6737
 8483SOL     OW36910   0.878   1.224   4.785  0.6467  0.6602  0.3209
 8483SOL    HW136911   0.930   1.244   4.707  2.0886 -0.3808  1.0262
 8483SOL    HW236912   0.859   1.313   4.816 -0.4307  0.4700  0.1732
 8484SOL     OW36913   2.010   2.546  12.793  0.6160  0.5336  0.7746
 8484SOL    HW136914   2.103   2.538  12.772  0.5444  0.5141  0.4724
 8484SOL    HW236915   1.994   2.453  12.805  2.0443  0.1530 -0.3855
 8485SOL     OW36916   1.710   0.248   4.648 -0.1899 -0.0909 -0.4040
 8485SOL    HW136917   1.741   0.191   4.577 -2.3740 -0.0153 -1.4322
 8485SOL    HW236918   1.725   0.194   4.725 -0.0166  0.1614 -0.2613
 8486SOL     OW36919   4.689   2.696   1.676  0.7122  0.8177 -0.2701
 8486SOL    HW136920   0.025   2.727   1.608 -0.9123  3.6459 -0.4038
 8486SOL    HW236921   0.007   2.717   1.760 -0.6856  1.1082  0.3490
 8487SOL     OW36922   4.433   0.075   3.538  0.9339 -0.3837 -0.5526
 8487SOL    HW136923   4.499   0.129   3.495 -0.2662  3.7003  2.7485
 8487SOL    HW236924   4.430   0.000   3.478  1.8823 -1.2091  0.4282
 8488SOL     OW36925   1.528   0.270   6.059  0.3233 -0.1226  0.3191
 8488SOL    HW136926   1.471   0.344   6.040  1.1108  0.5741  0.6829
 8488SOL    HW236927   1.473   0.195   6.034 -0.7381  0.0694  2.0747
 8489SOL     OW36928   1.841   1.654   7.283 -0.2642  0.1386  0.2577
 8489SOL    HW136929   1.932   1.680   7.271 -0.5836 -0.0695 -2.4943
 8489SOL    HW236930   1.855   1.568   7.322  0.6803  1.2546  2.4152
 8490SOL     OW36931   2.624   3.364   1.517  0.2519 -0.9025  0.3966
 8490SOL    HW136932   2.695   3.341   1.577  2.7682  0.6934 -1.9563
 8490SOL    HW236933   2.606   3.278   1.479 -0.6970  0.2909 -1.8932
 8491SOL     OW36934   0.818   0.587   5.394  0.6067  0.2937  0.4003
 8491SOL    HW136935   0.805   0.678   5.422 -0.3032 -0.1772  1.5472
 8491SOL    HW236936   0.782   0.540   5.469  0.0698 -0.4541 -0.3284
 8492SOL     OW36937   3.847   0.288   0.304  0.7230  0.6140 -0.3929
 8492SOL    HW136938   3.927   0.311   0.351  0.0118 -2.7076  2.4440
 8492SOL    HW236939   3.796   0.235   0.366  1.6877 -0.1110 -0.2086
 8493SOL     OW36940   3.634   3.052   4.027  0.2061  0.2287 -0.1587
 8493SOL    HW136941   3.711   3.013   3.986 -0.0354 -2.0571  1.5854
 8493SOL    HW236942   3.618   2.980   4.087  0.9973 -0.6183 -0.9701
 8494SOL     OW36943   0.616   0.092   8.177 -0.3457  0.3708 -0.2315
 8494SOL    HW136944   0.527   0.114   8.152 -1.1615  0.0927  2.4527
 8494SOL    HW236945   0.619   4.722   8.158  2.2357  0.5420 -0.7517
 8495SOL     OW36946   0.387   3.358   3.839  0.3230  0.1670  0.4956
 8495SOL    HW136947   0.461   3.309   3.873  0.1166 -1.0879 -0.8668
 8495SOL    HW236948   0.333   3.288   3.800 -0.8764  0.8297  0.9711
 8496SOL     OW36949   0.146   0.942   9.020 -0.1984  0.3144  0.3671
 8496SOL    HW136950   0.152   1.037   9.026  0.7744  0.3162 -0.5585
 8496SOL    HW236951   0.127   0.926   9.112 -1.3047  0.6587  0.1966
 8497SOL     OW36952   4.717   0.532  14.274  0.4192 -0.2116  0.0860
 8497SOL    HW136953   4.674   0.490  14.199 -0.7801 -0.8551  1.1430
 8497SOL    HW236954   0.083   0.543  14.240 -0.2826 -0.4340 -1.8302
 8498SOL     OW36955   2.310   0.885   9.216 -0.3094  0.5529  1.2437
 8498SOL    HW136956   2.226   0.860   9.252 -0.0954 -1.3295  0.4396
 8498SOL    HW236957   2.301   0.978   9.192  0.1262 -0.1035 -1.4516
 8499SOL     OW36958   4.134   2.468  11.882  0.2266 -0.6288 -0.0427
 8499SOL    HW136959   4.094   2.396  11.834  0.8078 -0.5524 -0.6248
 8499SOL    HW236960   4.124   2.437  11.972 -0.0066 -1.7990 -0.4726
 8500SOL     OW36961   2.235   1.295  13.159  0.5718  0.2736 -0.5179
 8500SOL    HW136962   2.277   1.223  13.111  1.4314  0.2064  0.3194
 8500SOL    HW236963   2.314   1.324  13.205 -0.2023  4.9514 -2.1861
 8501SOL     OW36964   1.824   1.162  10.924  0.5792  0.0449 -0.3469
 8501SOL    HW136965   1.765   1.129  10.991  1.2311  0.2526  0.3385
 8501SOL    HW236966   1.839   1.082  10.874 -0.0976 -0.2565 -0.0692
 8502SOL     OW36967   1.604   2.140   3.282  0.2878 -0.0518  0.3089
 8502SOL    HW136968   1.629   2.211   3.341 -1.6562  0.6736  0.2607
 8502SOL    HW236969   1.603   2.066   3.343  2.1357  0.2472  0.7065
 8503SOL     OW36970   3.577   4.111   2.020 -0.6287  0.9223 -0.3109
 8503SOL    HW136971   3.516   4.180   2.046  0.2008  1.7118 -0.4398
 8503SOL    HW236972   3.529   4.036   2.056 -0.9158  0.1361 -2.3341
 8504SOL     OW36973   0.746   2.542   7.243 -0.2976 -0.1608  0.0345
 8504SOL    HW136974   0.789   2.620   7.276  0.7521 -0.6775 -0.1186
 8504SOL    HW236975   0.783   2.479   7.305 -0.8180 -1.0932 -0.6047
 8505SOL     OW36976   2.733   1.947   7.322 -0.9524  0.0219 -0.0922
 8505SOL    HW136977   2.696   1.945   7.411 -0.0408  0.6182  0.3014
 8505SOL    HW236978   2.652   1.963   7.274 -2.1218 -0.3406  1.7216
 8506SOL     OW36979   1.938   3.119   4.268 -0.2226  0.0913 -0.2630
 8506SOL    HW136980   1.977   3.049   4.215  0.1487  0.8602 -1.0134
 8506SOL    HW236981   1.864   3.073   4.307 -1.3949  1.8825 -0.3885
 8507SOL     OW36982   2.113   1.099   3.421  0.4170 -0.1367  0.5328
 8507SOL    HW136983   2.108   1.007   3.446  0.4508 -0.4509 -0.6043
 8507SOL    HW236984   2.099   1.142   3.505  0.1756  1.3110 -0.2561
 8508SOL     OW36985   2.905   1.577   3.363 -0.0318  0.3558  0.6548
 8508SOL    HW136986   2.876   1.560   3.452  0.7861 -2.9315  0.2854
 8508SOL    HW236987   2.945   1.664   3.368  0.1071  0.2969  0.5739
 8509SOL     OW36988   2.488   3.263   7.131  0.3276 -0.1021 -0.2045
 8509SOL    HW136989   2.534   3.179   7.138 -1.1539 -0.7546  1.6666
 8509SOL    HW236990   2.423   3.234   7.066  1.3025 -2.6596 -0.0460
 8510SOL     OW36991   0.707   2.327   2.542  0.8936 -0.9190 -0.3837
 8510SOL    HW136992   0.743   2.247   2.504  2.2247 -1.0055  1.1025
 8510SOL    HW236993   0.776   2.392   2.528 -1.3641  1.2402 -1.5108
 8511SOL     OW36994   2.774   0.326   4.616 -0.3743  0.5675  0.6291
 8511SOL    HW136995   2.848   0.286   4.572 -1.7687 -1.5143  0.1523
 8511SOL    HW236996   2.752   0.397   4.556  0.5850  1.8341  1.7856
 8512SOL     OW36997   3.542   3.326   7.376  0.0843  0.1202  0.3152
 8512SOL    HW136998   3.565   3.386   7.446  1.2058 -0.4029  0.3948
 8512SOL    HW236999   3.616   3.266   7.371  0.2778  0.1865  2.6323
 8513SOL     OW37000   1.564   1.612   0.874 -0.8560  0.0208 -0.1639
 8513SOL    HW137001   1.619   1.633   0.799  0.1152  1.0744  0.8396
 8513SOL    HW237002   1.490   1.570   0.830 -0.3674  0.7276 -1.6683
 8514SOL     OW37003   2.750   4.287   6.506 -0.2838  0.2034 -0.9452
 8514SOL    HW137004   2.770   4.241   6.425  0.5334 -0.5143 -0.3282
 8514SOL    HW237005   2.654   4.283   6.507 -0.2520 -0.0136  0.5328
 8515SOL     OW37006   0.115   0.862   9.275 -0.3038  0.1746 -0.0222
 8515SOL    HW137007   0.098   0.768   9.285  3.8463 -0.5212  0.4755
 8515SOL    HW237008   0.188   0.879   9.334  1.0368  0.3724 -1.7225
 8516SOL     OW37009   4.462   4.588  17.230  0.3575 -0.3932 -0.0874
 8516SOL    HW137010   4.455   4.510  17.176  1.6974  0.8619 -2.0576
 8516SOL    HW237011   4.397   4.642  17.185 -0.5255 -0.4969  1.0808
 8517SOL     OW37012   3.876   2.931  16.600 -0.4952  0.0847 -0.1085
 8517SOL    HW137013   3.810   2.878  16.646  0.1918 -1.2220 -0.6277
 8517SOL    HW237014   3.871   2.914  16.506  1.5344  1.8632 -0.5338
 8518SOL     OW37015   2.799   1.516  16.325  0.2212 -0.2234 -0.8610
 8518SOL    HW137016   2.833   1.606  16.319  2.5965 -0.8537  3.1904
 8518SOL    HW237017   2.878   1.462  16.330  0.0596 -0.4017 -0.2921
 8519SOL     OW37018   4.192   3.851   3.820 -0.0572  0.0823  0.1442
 8519SOL    HW137019   4.241   3.794   3.761 -0.0849  1.1842 -0.9296
 8519SOL    HW237020   4.200   3.935   3.776 -3.2780  0.0407 -0.4677
 8520SOL     OW37021   1.259   2.114   3.750  0.4360  0.2148  0.1585
 8520SOL    HW137022   1.191   2.091   3.813 -1.0732  0.5276 -1.3539
 8520SOL    HW237023   1.272   2.207   3.763  1.1595  0.2275 -0.6106
 8521SOL     OW37024   1.466   3.730   1.010  0.4132  0.0158  0.1394
 8521SOL    HW137025   1.434   3.721   0.920 -4.2677 -0.1337  1.8281
 8521SOL    HW237026   1.411   3.667   1.056 -0.7231  2.6791  2.4274
 8522SOL     OW37027   3.046   3.556   3.670 -0.1706 -0.2784 -0.5995
 8522SOL    HW137028   3.096   3.501   3.609  0.9044 -0.3181  0.3144
 8522SOL    HW237029   3.031   3.497   3.744 -0.7260 -0.8208 -1.1450
 8523SOL     OW37030   0.419   4.599   2.597  0.1904  0.4926 -0.0661
 8523SOL    HW137031   0.502   4.557   2.576  0.1252 -0.7103  2.1768
 8523SOL    HW237032   0.456   4.683   2.624  0.8561  0.6150 -1.3448
 8524SOL     OW37033   1.645   0.709   5.847  0.5512  0.5571  0.0500
 8524SOL    HW137034   1.560   0.751   5.832  1.0474  1.5663  0.1107
 8524SOL    HW237035   1.627   0.615   5.839 -2.0402  0.9350  1.5819
 8525SOL     OW37036   4.722   3.345   3.949 -0.2930 -0.4061 -0.2612
 8525SOL    HW137037   4.632   3.365   3.973 -0.1255  0.1762 -0.1023
 8525SOL    HW237038   4.710   3.290   3.872  0.2890  0.8184 -1.2380
 8526SOL     OW37039   1.960   1.619  15.388  0.0481  0.5378 -0.1288
 8526SOL    HW137040   1.973   1.544  15.330 -1.3081 -0.5320  0.9594
 8526SOL    HW237041   1.867   1.636  15.394  0.5000  3.2933 -0.9541
 8527SOL     OW37042   2.733   2.059  13.075  0.2743  0.4458  0.0667
 8527SOL    HW137043   2.782   2.113  13.136  1.6736 -1.0861  0.3148
 8527SOL    HW237044   2.795   1.986  13.069 -1.1674 -0.7574 -0.0849
 8528SOL     OW37045   2.010   2.207   7.441  0.1399  0.8768  0.0002
 8528SOL    HW137046   2.088   2.201   7.386  2.1253  2.3007  2.6590
 8528SOL    HW237047   2.041   2.171   7.524  1.2536  0.1446 -0.7249
 8529SOL     OW37048   0.744   3.320  13.128 -0.0489 -0.0922 -0.3161
 8529SOL    HW137049   0.687   3.295  13.201  0.3921  0.2512  0.1496
 8529SOL    HW237050   0.807   3.248  13.133 -0.0775 -0.0712  0.3575
 8530SOL     OW37051   2.847   1.957   2.434 -0.1111 -0.4540  0.0914
 8530SOL    HW137052   2.850   1.862   2.419 -2.5387 -0.6126  0.6976
 8530SOL    HW237053   2.840   1.976   2.340 -0.5445  0.5547  0.3328
 8531SOL     OW37054   0.370   4.341   6.612 -0.0647  0.1454  0.1579
 8531SOL    HW137055   0.380   4.432   6.640 -0.1165  0.0761  0.4027
 8531SOL    HW237056   0.276   4.327   6.607 -0.1272  0.0031  1.6660
 8532SOL     OW37057   0.072   3.309   0.853 -0.2316 -0.0119  0.0548
 8532SOL    HW137058   0.149   3.252   0.855 -0.3641 -0.1525  1.0631
 8532SOL    HW237059   0.076   3.313   0.757 -0.4659 -2.1544 -0.0579
 8533SOL     OW37060   2.651   1.663   8.608 -0.2442 -0.0276 -0.3650
 8533SOL    HW137061   2.610   1.721   8.672  3.6160 -1.3926  3.3613
 8533SOL    HW237062   2.739   1.699   8.595 -0.1213  0.0374  0.6318
 8534SOL     OW37063   0.531   3.067   8.637  0.0113 -0.3108  0.4177
 8534SOL    HW137064   0.515   3.072   8.543 -1.0283  1.5013  0.6927
 8534SOL    HW237065   0.453   3.101   8.682  1.0628 -0.2446  2.1785
 8535SOL     OW37066   2.895   2.549   7.357  0.2814  0.3430 -0.0449
 8535SOL    HW137067   2.966   2.512   7.410  0.7207  0.2684 -0.6746
 8535SOL    HW237068   2.901   2.643   7.373 -3.8721  0.9391 -1.9358
 8536SOL     OW37069   0.826   0.105   9.813 -0.5538  0.8945  0.2295
 8536SOL    HW137070   0.878   0.159   9.872 -2.1177  1.8128  0.7406
 8536SOL    HW237071   0.801   0.022   9.853 -2.9446  0.3504 -2.4103
 8537SOL     OW37072   2.204   4.272   5.873  0.1763 -0.8850 -0.0276
 8537SOL    HW137073   2.222   4.332   5.945 -0.6669  0.1643 -0.6935
 8537SOL    HW237074   2.198   4.334   5.801  0.6699 -1.5450 -0.6342
 8538SOL     OW37075   2.018   3.525  13.370  0.3769 -0.1989  0.6198
 8538SOL    HW137076   2.009   3.617  13.345 -1.6587 -1.3458 -2.7883
 8538SOL    HW237077   2.061   3.485  13.295 -0.5980 -1.5357  0.7945
 8539SOL     OW37078   1.411   2.236   4.739 -0.2080 -0.4243  0.0588
 8539SOL    HW137079   1.472   2.165   4.757 -0.5225 -0.7809 -0.2929
 8539SOL    HW237080   1.467   2.303   4.700 -0.8158 -1.1898 -2.1061
 8540SOL     OW37081   4.275   2.525   9.773 -0.7990 -0.5887 -0.0220
 8540SOL    HW137082   4.258   2.448   9.718  0.4320 -2.3406  2.0439
 8540SOL    HW237083   4.199   2.583   9.770 -1.2172 -1.1389 -0.1222
 8541SOL     OW37084   1.432   0.479   3.619 -0.2168  0.2439 -0.4531
 8541SOL    HW137085   1.511   0.427   3.632 -0.3264  0.2701  0.3514
 8541SOL    HW237086   1.427   0.461   3.526 -1.0739  3.4848 -1.0429
 8542SOL     OW37087   2.898   2.323   4.449 -0.0023 -0.2981 -0.4568
 8542SOL    HW137088   2.960   2.374   4.398  0.3053 -0.6143 -0.3999
 8542SOL    HW237089   2.934   2.234   4.449  1.0041  0.1126 -0.3001
 8543SOL     OW37090   2.753   1.660  10.027  0.0952  0.4297  0.1935
 8543SOL    HW137091   2.842   1.665   9.992  0.1137 -0.2571  0.1316
 8543SOL    HW237092   2.727   1.570  10.005 -0.7292  0.1652  2.2650
 8544SOL     OW37093   4.318   1.925   5.920  0.8855 -0.1839  0.4059
 8544SOL    HW137094   4.262   1.900   5.994  0.8129  1.9652  1.0750
 8544SOL    HW237095   4.277   2.005   5.886 -0.3824 -0.9100  0.2338
 8545SOL     OW37096   2.749   1.407   5.208  0.1776  0.9534  0.1370
 8545SOL    HW137097   2.698   1.413   5.288 -0.5484 -0.6842 -0.2069
 8545SOL    HW237098   2.771   1.314   5.208  1.0292  1.1484  2.4015
 8546SOL     OW37099   2.017   0.036   8.692 -0.1879  0.3310 -1.0784
 8546SOL    HW137100   1.958   0.105   8.721  0.3881  0.1732  0.4524
 8546SOL    HW237101   1.978   0.013   8.608 -1.8388  0.6138 -0.3834
 8547SOL     OW37102   3.258   1.358   4.869  0.2999 -0.2112  0.1269
 8547SOL    HW137103   3.226   1.443   4.900  0.7119 -0.3963  1.0493
 8547SOL    HW237104   3.183   1.336   4.813 -1.1925  1.2959  1.5392
 8548SOL     OW37105   2.956   1.223   6.005 -0.3582 -0.5249  0.1777
 8548SOL    HW137106   2.972   1.269   6.087 -0.4469  0.2739 -0.2568
 8548SOL    HW237107   2.950   1.294   5.942  3.4093  0.6372  1.1416
 8549SOL     OW37108   1.320   3.390   1.548  0.4587 -0.1004 -0.2304
 8549SOL    HW137109   1.262   3.332   1.598 -1.0423  2.2030  0.7294
 8549SOL    HW237110   1.374   3.422   1.620  1.1218 -0.6280 -0.4988
 8550SOL     OW37111   1.518   2.304   7.052  0.1303 -0.2585 -0.1233
 8550SOL    HW137112   1.471   2.346   6.979  1.6115  1.1449 -0.2717
 8550SOL    HW237113   1.526   2.219   7.010  1.7388  0.7228 -1.7987
 8551SOL     OW37114   3.324   0.069  11.887 -0.3535  0.5991  0.3598
 8551SOL    HW137115   3.338   4.701  11.863 -0.2875  0.4764  0.8706
 8551SOL    HW237116   3.273   0.099  11.812 -0.0426 -0.9021 -0.4605
 8552SOL     OW37117   0.184   4.245   6.039  0.0553 -0.1210  0.4876
 8552SOL    HW137118   0.166   4.160   5.999 -1.2847  0.8679 -1.0136
 8552SOL    HW237119   0.202   4.218   6.129 -1.4031 -1.1943  0.4565
 8553SOL     OW37120   1.456   2.566  10.409 -0.6302 -0.1592 -0.7433
 8553SOL    HW137121   1.494   2.653  10.393  2.8955 -1.3501  1.1352
 8553SOL    HW237122   1.516   2.534  10.477 -2.3349 -1.1757  0.2874
 8554SOL     OW37123   4.463   4.172   3.430  0.3207 -0.2921  0.1846
 8554SOL    HW137124   4.418   4.092   3.403 -0.3880  0.1108  0.1571
 8554SOL    HW237125   4.438   4.232   3.359  0.0289 -1.0354 -0.3315
 8555SOL     OW37126   4.448   0.097  13.412  0.1465  0.2338 -0.1244
 8555SOL    HW137127   4.381   0.086  13.479  1.3457 -0.9279  0.8921
 8555SOL    HW237128   4.472   0.190  13.414  0.2805  0.2239 -1.1886
 8556SOL     OW37129   2.387   1.853   1.063 -0.1660  0.3972 -0.1068
 8556SOL    HW137130   2.340   1.771   1.078  0.7226  0.2175  1.6713
 8556SOL    HW237131   2.445   1.861   1.139  2.3996 -2.5976 -1.7505
 8557SOL     OW37132   1.134   4.356   7.750  0.1829 -0.0014 -0.3414
 8557SOL    HW137133   1.125   4.420   7.821  1.7962 -0.4877  0.3110
 8557SOL    HW237134   1.044   4.326   7.743 -0.2647  1.5281 -1.1455
 8558SOL     OW37135   3.537   0.224   0.052  0.5124 -0.4778 -0.3978
 8558SOL    HW137136   3.498   0.150   0.005 -1.5167 -0.1121  0.7006
 8558SOL    HW237137   3.502   0.292  17.690  0.0186  0.4343  0.9665
 8559SOL     OW37138   3.752   3.089   6.145 -0.0025  0.3792  0.8344
 8559SOL    HW137139   3.750   3.030   6.070  1.0512  1.3062  0.0820
 8559SOL    HW237140   3.820   3.051   6.201 -0.4995 -1.5588  0.1184
 8560SOL     OW37141   3.446   3.421   2.467  0.1220  0.6454 -0.1332
 8560SOL    HW137142   3.420   3.330   2.481 -1.3197  1.2122  0.8705
 8560SOL    HW237143   3.436   3.434   2.373 -0.6713  1.7514  0.1019
 8561SOL     OW37144   3.801   3.744   6.533  0.2196 -0.2338  0.0465
 8561SOL    HW137145   3.775   3.797   6.609 -1.0443  2.4631 -2.2492
 8561SOL    HW237146   3.856   3.682   6.580  2.7308  0.9662 -1.2885
 8562SOL     OW37147   0.468   0.059   4.792 -0.0372  0.2708 -0.3022
 8562SOL    HW137148   0.482   0.132   4.852  0.0531 -1.1262  1.3716
 8562SOL    HW237149   0.376   0.039   4.809  0.8807 -0.7496  3.3579
 8563SOL     OW37150   4.125   1.003  12.571  0.0974 -0.4237  0.1313
 8563SOL    HW137151   4.203   1.058  12.578  0.4024 -0.6083 -2.0024
 8563SOL    HW237152   4.154   0.913  12.591  0.4102 -0.6153 -1.2200
 8564SOL     OW37153   1.799   3.399   8.332  0.1913 -0.1801  0.1535
 8564SOL    HW137154   1.717   3.442   8.356  0.0782  0.7822 -1.9038
 8564SOL    HW237155   1.817   3.353   8.414 -0.6412  1.8993  1.4815
 8565SOL     OW37156   0.419   0.739   0.189 -0.3449  0.0852 -0.0208
 8565SOL    HW137157   0.373   0.787   0.121 -0.4540  0.6498  0.4559
 8565SOL    HW237158   0.498   0.721   0.138 -1.0366 -0.9783 -0.7070
 8566SOL     OW37159   2.241   2.057   6.492 -0.0384 -0.4128  0.5297
 8566SOL    HW137160   2.310   2.040   6.557  2.7788  0.2937 -2.3348
 8566SOL    HW237161   2.160   2.033   6.538 -0.5619 -0.8488 -0.6142
 8567SOL     OW37162   2.605   2.933   9.773  0.3534  0.0741  0.0213
 8567SOL    HW137163   2.599   2.984   9.854 -0.0382  0.5040 -0.2761
 8567SOL    HW237164   2.692   2.963   9.749  0.5706 -1.5819 -1.1909
 8568SOL     OW37165   0.483   0.604  14.146  0.7881 -0.4946 -0.5912
 8568SOL    HW137166   0.491   0.635  14.055 -1.3700 -0.2664 -0.7102
 8568SOL    HW237167   0.572   0.617  14.178 -0.3175  2.9347  1.0834
 8569SOL     OW37168   1.007   0.899   7.130  0.2833  0.1304 -0.5266
 8569SOL    HW137169   0.939   0.933   7.187 -0.2829 -3.0658  0.7096
 8569SOL    HW237170   1.024   0.983   7.087 -2.4414  2.4400  2.9038
 8570SOL     OW37171   1.078   1.829   7.261 -0.9575 -0.2186 -0.4461
 8570SOL    HW137172   1.015   1.779   7.209  0.4373 -2.6722  0.2448
 8570SOL    HW237173   1.151   1.767   7.261 -0.5858  0.2186 -1.2637
 8571SOL     OW37174   1.898   4.231   5.573  0.0733  0.0014  0.5256
 8571SOL    HW137175   1.877   4.263   5.486  1.4935 -0.0104  0.1768
 8571SOL    HW237176   1.987   4.197   5.564 -0.5949 -1.2742 -1.2579
 8572SOL     OW37177   2.093   3.808   0.500 -0.1592  0.1143  0.4683
 8572SOL    HW137178   2.185   3.783   0.495 -0.6777 -1.6151 -0.3487
 8572SOL    HW237179   2.073   3.818   0.593  0.8656 -2.1694  0.9406
 8573SOL     OW37180   1.951   2.793   4.379  0.1841 -0.1515  0.2789
 8573SOL    HW137181   1.855   2.796   4.376  0.2665 -0.8541 -3.5731
 8573SOL    HW237182   1.969   2.820   4.289 -1.1578 -0.6216 -0.1273
 8574SOL     OW37183   0.075   3.236   5.780 -0.0101 -0.3568 -0.3639
 8574SOL    HW137184   0.068   3.182   5.859 -0.2155  2.2542  1.3973
 8574SOL    HW237185   0.165   3.225   5.749  0.2217 -0.7334  0.4357
 8575SOL     OW37186   0.261   3.774   6.436  0.0207 -0.1230 -0.0621
 8575SOL    HW137187   0.220   3.854   6.470 -1.1293 -0.9747  0.5865
 8575SOL    HW237188   0.287   3.734   6.519  0.9679 -1.8067 -1.1684
 8576SOL     OW37189   3.377   0.951   4.652 -0.5640 -0.0935 -0.0216
 8576SOL    HW137190   3.285   0.978   4.650 -1.1540 -2.0329  0.8819
 8576SOL    HW237191   3.395   0.915   4.566 -0.7828 -0.7173  0.1947
 8577SOL     OW37192   1.589   0.637   5.323 -0.4773 -0.0457 -0.0909
 8577SOL    HW137193   1.647   0.572   5.283  1.2544  1.9658 -0.8260
 8577SOL    HW237194   1.639   0.654   5.403 -0.3720  0.4608 -0.2662
 8578SOL     OW37195   3.498   1.657  17.649 -0.1418 -0.0431 -0.0279
 8578SOL    HW137196   3.403   1.653  17.643 -0.2285  2.3349 -0.2648
 8578SOL    HW237197   3.507   1.562  17.647  3.0824  0.2639  0.1740
 8579SOL     OW37198   3.027   0.018   9.109  0.2199  0.4191  0.6453
 8579SOL    HW137199   3.031   0.017   9.205  0.2583  1.1805  0.6574
 8579SOL    HW237200   2.951   4.684   9.099  2.7188 -2.7065 -0.0194
 8580SOL     OW37201   2.356   3.687   6.249 -0.4057 -0.2401  0.1505
 8580SOL    HW137202   2.326   3.763   6.299  0.1914  1.9144 -2.7804
 8580SOL    HW237203   2.440   3.661   6.286 -0.1469 -1.2334 -1.1387
 8581SOL     OW37204   2.684   4.400   1.590 -0.0105 -0.4392  0.4244
 8581SOL    HW137205   2.645   4.313   1.602 -0.2583 -0.1291  1.8368
 8581SOL    HW237206   2.700   4.429   1.680  1.3505 -1.1228  0.3958
 8582SOL     OW37207   1.882   1.593   7.978  0.6372 -0.5329  0.6623
 8582SOL    HW137208   1.972   1.579   7.948  0.6402 -0.6804  0.7340
 8582SOL    HW237209   1.870   1.686   7.960  1.2866 -0.3123  1.3661
 8583SOL     OW37210   2.161   3.443  10.991 -0.8722  0.5241  0.4064
 8583SOL    HW137211   2.137   3.375  11.053 -1.1869 -1.0116 -1.4133
 8583SOL    HW237212   2.235   3.408  10.941 -0.6415  0.5705  0.7143
 8584SOL     OW37213   4.262   2.593  10.824  0.1289  0.0846 -0.6565
 8584SOL    HW137214   4.309   2.554  10.898  2.0974 -0.1978 -2.0468
 8584SOL    HW237215   4.179   2.547  10.834  1.0940 -1.2160  1.3542
 8585SOL     OW37216   3.029   1.221   9.050 -0.0532  0.1429  0.1895
 8585SOL    HW137217   3.099   1.222   8.985 -0.8938 -0.0593 -0.7247
 8585SOL    HW237218   3.015   1.126   9.058  2.3874 -0.2757 -0.5355
 8586SOL     OW37219   2.262   0.219   6.585  0.3158  0.4017 -0.1000
 8586SOL    HW137220   2.277   0.236   6.678  0.7002 -0.2037 -0.0504
 8586SOL    HW237221   2.294   0.129   6.593  1.2676  0.5096 -2.6974
 8587SOL     OW37222   0.051   3.490   2.341  0.3492  0.1179  0.0287
 8587SOL    HW137223   0.018   3.580   2.348  1.8343  0.7220 -0.8067
 8587SOL    HW237224   0.145   3.504   2.330  0.3418 -1.1005 -1.5838
 8588SOL     OW37225   1.276   2.513   8.693 -0.4179  0.3697 -0.4585
 8588SOL    HW137226   1.237   2.500   8.779 -0.2154  0.7315 -0.3103
 8588SOL    HW237227   1.215   2.464   8.638 -0.7267  0.3791 -0.1172
 8589SOL     OW37228   2.467   3.911   6.668  0.0957 -0.6438 -0.6918
 8589SOL    HW137229   2.561   3.929   6.663 -0.1493  1.4835  2.1588
 8589SOL    HW237230   2.457   3.816   6.669  1.1503 -0.7763 -2.0512
 8590SOL     OW37231   0.418   4.013   8.282  0.1482  0.5022  0.4667
 8590SOL    HW137232   0.507   4.047   8.268  0.7706 -0.3481  2.3400
 8590SOL    HW237233   0.450   3.928   8.313 -1.6042 -0.4616 -0.4113
 8591SOL     OW37234   2.819   0.879  12.788  0.4831  0.3933  1.3179
 8591SOL    HW137235   2.753   0.946  12.769 -0.2136 -0.1344  1.8783
 8591SOL    HW237236   2.779   0.798  12.757  1.3220  1.9335 -3.6745
 8592SOL     OW37237   4.723   2.612   5.701 -1.0656 -0.0025  0.4619
 8592SOL    HW137238   0.080   2.579   5.740 -1.0723 -0.6887 -0.1102
 8592SOL    HW237239   4.708   2.683   5.764  1.1492  0.9162 -0.0367
 8593SOL     OW37240   2.435   1.446   0.638  0.2527  0.0831 -0.7279
 8593SOL    HW137241   2.530   1.455   0.649  0.3027  1.4314 -2.3006
 8593SOL    HW237242   2.416   1.529   0.595 -1.0874  0.1973  0.0956
 8594SOL     OW37243   2.108   0.891   4.304  0.5370 -0.2161 -0.3201
 8594SOL    HW137244   2.101   0.806   4.347  1.6158 -0.8071 -1.3405
 8594SOL    HW237245   2.026   0.936   4.328  0.1664  0.1055 -2.2052
 8595SOL     OW37246   4.589   2.618   5.442  0.0488  0.5782 -0.6198
 8595SOL    HW137247   4.644   2.560   5.389 -0.3966 -1.1278  0.8008
 8595SOL    HW237248   4.621   2.596   5.529 -3.7417  0.3175  0.7081
 8596SOL     OW37249   0.290   3.207  14.731 -0.4149 -0.1725 -0.4195
 8596SOL    HW137250   0.264   3.163  14.650 -0.7582 -1.0897  0.1924
 8596SOL    HW237251   0.338   3.281  14.693 -0.1882 -1.1012 -1.9707
 8597SOL     OW37252   1.848   3.881   6.456  0.1471 -0.0060 -0.4298
 8597SOL    HW137253   1.772   3.838   6.496  0.4153  0.2866  0.3908
 8597SOL    HW237254   1.819   3.881   6.364  0.1428 -0.6000 -0.4283
 8598SOL     OW37255   1.213   0.280   4.699 -0.0491  0.8783  0.0397
 8598SOL    HW137256   1.229   0.288   4.605 -2.2306  2.0818 -0.2284
 8598SOL    HW237257   1.124   0.315   4.695 -0.6643 -0.7266 -0.0802
 8599SOL     OW37258   3.821   1.311  17.649 -0.0859 -0.4412  0.4884
 8599SOL    HW137259   3.882   1.243  17.620  0.2637 -0.1575  0.5661
 8599SOL    HW237260   3.873   1.388  17.625 -2.7778  0.9238 -0.9235
 8600SOL     OW37261   0.314   0.115  16.513  0.4960  0.1938  0.1981
 8600SOL    HW137262   0.393   0.069  16.485  0.4099 -0.7927  1.6015
 8600SOL    HW237263   0.358   0.198  16.530 -0.0744  0.8699 -1.6192
 8601SOL     OW37264   1.129   1.370   8.329  0.4244 -0.1793  0.3184
 8601SOL    HW137265   1.115   1.431   8.256  2.8665  0.2033  0.1518
 8601SOL    HW237266   1.224   1.355   8.324  0.2133 -1.5460  0.2532
 8602SOL     OW37267   3.719   0.558   4.848  0.5636  0.0660 -0.4956
 8602SOL    HW137268   3.634   0.587   4.882  0.2565 -0.3928 -0.8824
 8602SOL    HW237269   3.687   0.477   4.810  1.6804 -0.1997 -0.8509
 8603SOL     OW37270   3.737   2.777   2.139 -0.0266 -0.3260 -0.3041
 8603SOL    HW137271   3.685   2.742   2.212 -2.4706  1.1054 -1.3510
 8603SOL    HW237272   3.671   2.779   2.070 -0.6057 -0.4269  0.2422
 8604SOL     OW37273   2.940   3.419  15.665  0.6968  0.1667  0.4498
 8604SOL    HW137274   2.994   3.340  15.660  0.6384  0.2276 -1.0251
 8604SOL    HW237275   2.996   3.476  15.611 -0.1062 -0.2043 -0.7588
 8605SOL     OW37276   3.045   3.436   4.284 -0.0760  0.0482 -0.1572
 8605SOL    HW137277   3.076   3.403   4.368 -1.0203  0.5676  0.3929
 8605SOL    HW237278   3.068   3.363   4.226 -0.6112  0.1500 -0.4993
 8606SOL     OW37279   0.914   0.848  13.089 -0.0626 -0.2164  0.0780
 8606SOL    HW137280   0.856   0.907  13.040  0.2639  0.3735  0.4120
 8606SOL    HW237281   0.989   0.842  13.031  0.4561 -0.2730  0.7557
 8607SOL     OW37282   4.030   1.322   5.159  0.3020  0.1772  0.3456
 8607SOL    HW137283   4.113   1.282   5.131 -0.7178 -1.5656 -0.1681
 8607SOL    HW237284   3.985   1.251   5.205  0.2295 -0.4309 -0.6649
 8608SOL     OW37285   4.357   2.159   2.312  0.3252 -0.2463 -0.1007
 8608SOL    HW137286   4.309   2.146   2.230  0.1579  3.0188 -0.5268
 8608SOL    HW237287   4.288   2.189   2.371 -1.0692 -2.3590 -0.6534
 8609SOL     OW37288   2.666   4.573   2.287 -0.2347  0.3379  0.5851
 8609SOL    HW137289   2.641   4.592   2.196  0.6347  0.2508  0.3323
 8609SOL    HW237290   2.630   4.643   2.341 -0.9405 -1.2608  2.1984
 8610SOL     OW37291   0.198   0.801   6.180 -0.2435  0.6651 -0.0850
 8610SOL    HW137292   0.167   0.890   6.167 -0.7117  0.5608  0.3207
 8610SOL    HW237293   0.287   0.817   6.148 -0.1424 -1.0068 -0.6601
 8611SOL     OW37294   0.340   1.204   0.146  0.1096 -0.0997  0.1181
 8611SOL    HW137295   0.345   1.258   0.225 -2.0591  0.2765 -0.0254
 8611SOL    HW237296   0.320   1.121   0.189  2.2715  0.3527  2.0027
 8612SOL     OW37297   2.008   4.645  11.022  0.0238  0.5822  0.3263
 8612SOL    HW137298   2.055   4.591  11.085 -3.3336 -1.4410  1.1066
 8612SOL    HW237299   2.068   4.659  10.949 -0.4764 -1.0379 -0.3990
 8613SOL     OW37300   4.418   3.754   2.785  0.3770  0.0451 -0.3405
 8613SOL    HW137301   4.472   3.746   2.707 -0.1546 -0.8679 -0.6121
 8613SOL    HW237302   4.335   3.746   2.739 -0.1964 -0.8140  0.8338
 8614SOL     OW37303   3.451   3.717   2.879  0.4373  0.2282 -0.2923
 8614SOL    HW137304   3.450   3.786   2.946  1.5507 -0.1858  0.1484
 8614SOL    HW237305   3.500   3.650   2.927 -0.5579  0.4928  1.0912
 8615SOL     OW37306   3.042   3.592   6.270 -0.3419 -0.2427 -0.2555
 8615SOL    HW137307   2.992   3.512   6.252 -0.3324 -0.7185  1.8461
 8615SOL    HW237308   3.109   3.565   6.332 -0.4978  0.8953  0.4092
 8616SOL     OW37309   1.012   4.248  10.924  0.6122  0.1257  0.6422
 8616SOL    HW137310   0.945   4.202  10.874  0.7823 -0.2235  0.7376
 8616SOL    HW237311   0.973   4.308  10.987  0.2733  0.0524  0.4984
 8617SOL     OW37312   0.440   0.265  14.255 -0.6105  0.3966 -0.3627
 8617SOL    HW137313   0.384   0.207  14.204 -0.7253  0.0978  0.1066
 8617SOL    HW237314   0.524   0.251  14.210  0.1728  0.4110  1.1230
 8618SOL     OW37315   4.553   4.445   6.525 -0.2452  0.9891 -0.6783
 8618SOL    HW137316   4.582   4.405   6.443 -0.1339 -0.0494 -0.1240
 8618SOL    HW237317   4.568   4.370   6.582  0.1180  0.1207 -1.9209
 8619SOL     OW37318   2.526   0.912  17.615 -0.3244 -0.2438  0.2068
 8619SOL    HW137319   2.615   0.911  17.651 -0.5813 -0.5364  0.8245
 8619SOL    HW237320   2.520   1.001  17.581  0.2147  0.1150  1.0584
 8620SOL     OW37321   1.470   0.282   9.260  0.6174 -0.1648 -0.1865
 8620SOL    HW137322   1.482   0.234   9.342  2.4028  1.9691  0.8021
 8620SOL    HW237323   1.378   0.296   9.237 -0.0836 -2.4884  1.2096
 8621SOL     OW37324   3.286   2.237   8.139 -0.1668 -0.4671 -0.4750
 8621SOL    HW137325   3.314   2.321   8.177  1.5995 -1.6487  0.8744
 8621SOL    HW237326   3.227   2.271   8.072  0.2589 -0.7830 -1.0072
 8622SOL     OW37327   1.030   2.655   4.926  0.4477 -0.2208 -0.0162
 8622SOL    HW137328   1.060   2.573   4.887  1.1782  0.9329 -1.8499
 8622SOL    HW237329   0.954   2.635   4.981  1.1765 -1.7554  0.4244
 8623SOL     OW37330   3.794   1.170   0.194 -0.4988  0.1925  0.6372
 8623SOL    HW137331   3.705   1.146   0.220 -1.1298 -0.0430 -1.7368
 8623SOL    HW237332   3.785   1.225   0.116  0.6588 -1.4795 -0.6823
 8624SOL     OW37333   4.132   2.743   6.544 -0.0235 -0.4649 -0.0945
 8624SOL    HW137334   4.159   2.651   6.555 -0.2770 -0.4267  0.8168
 8624SOL    HW237335   4.067   2.731   6.475 -0.1309  1.0184 -0.2543
 8625SOL     OW37336   1.046   2.697   5.399  0.1540  0.4607  0.4114
 8625SOL    HW137337   1.125   2.684   5.451  0.0109 -0.8195  0.3115
 8625SOL    HW237338   1.024   2.788   5.418  2.9446  0.8701  1.6614
 8626SOL     OW37339   3.910   0.403   3.431  0.1045  1.3620 -1.0434
 8626SOL    HW137340   3.875   0.403   3.520 -0.4017  2.6344 -1.2363
 8626SOL    HW237341   4.001   0.379   3.446  0.2205  1.7054 -1.1880
 8627SOL     OW37342   2.261   2.909   8.805  0.5340  0.1946  0.1222
 8627SOL    HW137343   2.210   2.974   8.853  0.6758  0.6376 -0.3320
 8627SOL    HW237344   2.199   2.837   8.822  1.3175 -0.3833  0.5420
 8628SOL     OW37345   2.940   4.252   3.267  0.0774 -0.1023  0.0054
 8628SOL    HW137346   2.954   4.344   3.288  0.1557 -0.1072 -0.0252
 8628SOL    HW237347   2.970   4.217   3.351 -0.9570  1.0478  0.8470
 8629SOL     OW37348   3.100   0.481   9.216 -0.0418  0.0693 -0.3231
 8629SOL    HW137349   3.195   0.479   9.218  0.0091  2.0346 -0.6496
 8629SOL    HW237350   3.078   0.495   9.309  2.9396  0.5174  0.3084
 8630SOL     OW37351   2.776   4.626   9.088 -0.7514 -0.2459 -0.0250
 8630SOL    HW137352   2.733   4.655   9.008  1.7058 -0.6167 -1.4721
 8630SOL    HW237353   2.747   4.536   9.103  0.9536 -0.3665  2.5367
 8631SOL     OW37354   0.672   4.084   5.100  0.6567 -0.0994 -0.9139
 8631SOL    HW137355   0.720   4.138   5.163 -1.7368  0.1462  0.6723
 8631SOL    HW237356   0.586   4.125   5.106  1.1741  0.5148  2.0168
 8632SOL     OW37357   3.155   4.042   9.252  0.0547  0.4808  0.4570
 8632SOL    HW137358   3.233   4.038   9.307 -0.0295  2.3351  0.6947
 8632SOL    HW237359   3.087   4.001   9.305  1.3962 -1.1001  0.9481
 8633SOL     OW37360   4.269   2.277   5.511 -0.1793  0.1847  0.1392
 8633SOL    HW137361   4.283   2.362   5.554 -0.0624 -0.1554  0.7618
 8633SOL    HW237362   4.354   2.263   5.470  0.0676 -0.2235  0.7972
 8634SOL     OW37363   3.597   2.877   2.396 -0.3140 -0.1681  0.1452
 8634SOL    HW137364   3.688   2.902   2.410  0.2422 -2.0336 -0.1733
 8634SOL    HW237365   3.557   2.961   2.374  2.0940  1.3217  1.5234
 8635SOL     OW37366   0.615   4.305   8.654  0.2923  0.1191  0.1532
 8635SOL    HW137367   0.631   4.299   8.748 -1.0250  3.0898  0.5680
 8635SOL    HW237368   0.584   4.217   8.634 -1.4306  0.9353 -0.7508
 8636SOL     OW37369   1.212   2.300   7.365  0.2402  0.1415 -0.3128
 8636SOL    HW137370   1.182   2.380   7.409  0.5853  0.3420 -0.4472
 8636SOL    HW237371   1.200   2.319   7.272  1.7182  1.2744 -0.2769
 8637SOL     OW37372   4.281   3.897  13.070 -0.0737 -0.6566  0.0080
 8637SOL    HW137373   4.245   3.909  12.982 -1.0107  0.3968  0.5177
 8637SOL    HW237374   4.370   3.866  13.056  0.3715  1.0063 -0.8535
 8638SOL     OW37375   1.141   3.676   1.212 -0.2825 -0.2432 -0.3630
 8638SOL    HW137376   1.207   3.693   1.280  0.2938  0.7701 -1.1804
 8638SOL    HW237377   1.174   3.617   1.144  0.9410 -0.1428  0.1455
 8639SOL     OW37378   4.256   3.736   1.795  0.5671  0.0343  0.4499
 8639SOL    HW137379   4.195   3.808   1.810 -0.0367 -0.1739 -1.0729
 8639SOL    HW237380   4.238   3.719   1.703  3.6696  0.9000 -0.3251
 8640SOL     OW37381   2.412   4.331  10.720 -0.2567  0.4693  0.2811
 8640SOL    HW137382   2.458   4.333  10.804 -3.3617  0.7236  1.9770
 8640SOL    HW237383   2.345   4.398  10.725  1.2769  2.2201 -2.4439
 8641SOL     OW37384   0.359   1.221   5.018  0.3932 -0.1350  0.4446
 8641SOL    HW137385   0.281   1.239   5.070 -0.9779 -0.9625 -1.3228
 8641SOL    HW237386   0.415   1.205   5.094  0.7059  0.4369  0.3355
 8642SOL     OW37387   3.930   1.171   8.535 -0.1727  0.5032  0.2299
 8642SOL    HW137388   3.898   1.253   8.497 -2.3525 -1.1799 -1.5787
 8642SOL    HW237389   3.933   1.113   8.459 -0.5425 -0.6643  1.1110
 8643SOL     OW37390   2.415   3.964   1.075  0.0615 -0.0634 -0.2865
 8643SOL    HW137391   2.408   3.986   1.167 -1.4209 -0.0448 -0.4033
 8643SOL    HW237392   2.416   4.048   1.029  0.6166  0.6693  1.0821
 8644SOL     OW37393   2.501   3.003   4.003 -0.0976  0.2606 -0.7040
 8644SOL    HW137394   2.523   3.047   4.085 -2.7951 -1.0374  0.7231
 8644SOL    HW237395   2.465   3.078   3.954  0.0477  1.2718  0.7279
 8645SOL     OW37396   3.840   0.475   8.286 -0.1554 -0.2582  0.1780
 8645SOL    HW137397   3.870   0.413   8.353 -0.7630  0.2756  0.9363
 8645SOL    HW237398   3.774   0.427   8.236  1.0896 -0.9487 -0.8130
 8646SOL     OW37399   3.147   1.535   3.589 -0.2092  0.3028 -0.2237
 8646SOL    HW137400   3.074   1.504   3.644 -0.4922 -0.8602 -1.2432
 8646SOL    HW237401   3.202   1.457   3.582 -0.4746  0.0741  0.2457
 8647SOL     OW37402   2.873   4.437   4.188 -0.5350  0.3880 -0.3951
 8647SOL    HW137403   2.882   4.513   4.245 -0.0319 -0.5878  0.8304
 8647SOL    HW237404   2.900   4.363   4.243  0.0010  0.7795 -0.1333
 8648SOL     OW37405   1.556   2.627  10.099 -0.0869  0.4194  0.3711
 8648SOL    HW137406   1.516   2.574  10.167  2.2891 -0.3265  1.1619
 8648SOL    HW237407   1.516   2.605  10.014 -2.8403  1.1703  1.4827
 8649SOL     OW37408   0.170   1.214   8.365 -0.2722  0.1928 -0.2531
 8649SOL    HW137409   0.092   1.242   8.317  1.8493  0.6844 -3.4519
 8649SOL    HW237410   0.152   1.122   8.381 -2.1439  0.4009 -1.1988
 8650SOL     OW37411   2.935   0.029   5.571  0.3172 -0.1093 -0.4970
 8650SOL    HW137412   2.910   0.001   5.659  1.8658  2.4730  0.7465
 8650SOL    HW237413   2.963   0.119   5.585 -0.2033 -0.0414  0.1338
 8651SOL     OW37414   0.379   2.141   5.211 -0.5272 -0.3840 -0.3149
 8651SOL    HW137415   0.345   2.136   5.122  0.5627 -3.0090 -0.5667
 8651SOL    HW237416   0.468   2.108   5.201  0.2734  1.4251  0.7652
 8652SOL     OW37417   4.204   3.257  11.649  0.1222  0.3753 -0.3467
 8652SOL    HW137418   4.225   3.350  11.640  1.9901  0.0828  1.0204
 8652SOL    HW237419   4.249   3.214  11.577 -0.3916 -0.7505  0.0119
 8653SOL     OW37420   0.730   1.403   7.116  0.0237 -0.2284  0.0762
 8653SOL    HW137421   0.775   1.471   7.166  0.6176 -1.4072  1.1422
 8653SOL    HW237422   0.729   1.332   7.180  0.7737 -0.2394  0.0767
 8654SOL     OW37423   1.571   1.098   7.172 -0.0176 -0.3856  0.5372
 8654SOL    HW137424   1.482   1.072   7.198 -1.0646 -0.0683 -2.7040
 8654SOL    HW237425   1.546   1.186   7.143  0.9413 -0.6061 -0.9469
 8655SOL     OW37426   0.143   0.281   5.939  0.3614 -0.0185  0.0924
 8655SOL    HW137427   0.193   0.213   5.893 -2.5386 -1.4230 -0.9996
 8655SOL    HW237428   0.093   0.230   6.003  1.0710 -1.0676 -0.1693
 8656SOL     OW37429   2.261   4.049   8.485 -0.1563 -0.3675  0.1858
 8656SOL    HW137430   2.254   4.143   8.497  1.3355 -0.2157 -0.1296
 8656SOL    HW237431   2.346   4.040   8.528 -0.3421 -1.0714  0.4062
 8657SOL     OW37432   1.429   1.145   4.942 -0.3842  0.0937 -0.1172
 8657SOL    HW137433   1.519   1.172   4.921 -1.1121  2.3937 -0.2150
 8657SOL    HW237434   1.445   1.075   5.005 -0.5832 -0.6177 -0.8419
 8658SOL     OW37435   0.233   4.617   3.793  0.1197  0.1472  0.1450
 8658SOL    HW137436   0.308   4.565   3.763  0.0869  0.8576 -1.1601
 8658SOL    HW237437   0.168   4.547   3.798  1.0495 -0.6111  1.8078
 8659SOL     OW37438   2.813   0.760   1.990  0.1876  0.0061 -0.0764
 8659SOL    HW137439   2.885   0.741   2.050 -1.1973  1.2788  2.0048
 8659SOL    HW237440   2.800   0.855   1.999  0.7787  0.1545 -0.8536
 8660SOL     OW37441   0.761   3.893   9.665 -0.1004  0.4483 -0.2786
 8660SOL    HW137442   0.734   3.807   9.697  2.4345 -0.1320  0.3420
 8660SOL    HW237443   0.679   3.940   9.682 -0.5434 -0.7059  0.7522
 8661SOL     OW37444   3.790   3.815   7.323 -0.2576 -0.1199  0.6323
 8661SOL    HW137445   3.820   3.873   7.254  2.3316  0.6940  2.4264
 8661SOL    HW237446   3.876   3.772   7.328  0.8570  2.1388  0.5418
 8662SOL     OW37447   3.311   1.664   2.080 -0.2609 -0.2139 -0.2751
 8662SOL    HW137448   3.350   1.621   2.004  1.8605  2.7090 -0.8258
 8662SOL    HW237449   3.377   1.709   2.133 -0.2785  1.0217 -1.3188
 8663SOL     OW37450   3.026   3.382   7.428 -0.1088 -0.1489  0.5535
 8663SOL    HW137451   3.048   3.422   7.512 -0.3632  0.6723  0.2354
 8663SOL    HW237452   3.109   3.341   7.405 -0.3985 -1.1697  1.3528
 8664SOL     OW37453   2.912   3.083  13.265  0.1511 -0.3450 -0.1277
 8664SOL    HW137454   2.952   3.103  13.350  1.0739  0.8414 -0.8492
 8664SOL    HW237455   2.866   3.005  13.295  1.7459 -1.1597  0.2159
 8665SOL     OW37456   2.672   2.701   1.661  0.0926 -0.2639  0.4352
 8665SOL    HW137457   2.707   2.616   1.688 -0.5039 -1.7567 -3.4795
 8665SOL    HW237458   2.583   2.669   1.646  0.7498 -1.4851 -0.8579
 8666SOL     OW37459   4.456   1.186   4.637 -0.3535  0.1440 -0.2174
 8666SOL    HW137460   4.490   1.244   4.705 -1.1646  1.0418 -0.5807
 8666SOL    HW237461   4.364   1.171   4.658  0.0600 -0.6882  1.0058
 8667SOL     OW37462   4.532   2.975   5.267 -0.0613 -0.2670 -0.7328
 8667SOL    HW137463   4.590   2.986   5.342 -2.0715 -2.4643  1.1166
 8667SOL    HW237464   4.496   3.064   5.271  0.2275 -0.2620  1.6588
 8668SOL     OW37465   1.983   4.581   8.897 -0.1682 -0.2104 -0.3221
 8668SOL    HW137466   2.078   4.584   8.908 -0.0954  0.6872 -1.1520
 8668SOL    HW237467   1.978   4.646   8.827 -1.4476 -1.8490 -1.7585
 8669SOL     OW37468   1.017   4.301  15.996  0.2401 -0.6303 -0.6452
 8669SOL    HW137469   1.045   4.330  16.083 -0.8741  0.6598 -0.7270
 8669SOL    HW237470   1.071   4.225  15.973  0.1377 -0.3355 -1.8491
 8670SOL     OW37471   1.386   4.074   4.061 -0.0969  0.3602  0.2845
 8670SOL    HW137472   1.438   4.146   4.024 -0.6033 -1.1491 -3.3543
 8670SOL    HW237473   1.335   4.114   4.131 -0.0192 -0.3728  0.7490
 8671SOL     OW37474   1.236   3.350   3.740  0.3012  0.4141  0.0197
 8671SOL    HW137475   1.312   3.338   3.796  0.1201 -0.8240  0.0134
 8671SOL    HW237476   1.248   3.443   3.721  1.8532  0.3363  0.7094
 8672SOL     OW37477   4.207   3.102  12.471  0.1891  0.2408 -0.5842
 8672SOL    HW137478   4.214   3.181  12.525 -0.0555 -1.5534  2.0695
 8672SOL    HW237479   4.288   3.061  12.501 -1.2555 -1.5596  0.8727
 8673SOL     OW37480   1.466   0.206   3.806 -0.0486 -0.5135 -0.1358
 8673SOL    HW137481   1.544   0.253   3.777 -0.0174 -1.4345 -1.5999
 8673SOL    HW237482   1.477   0.213   3.900  1.8514  1.9995 -0.5432
 8674SOL     OW37483   3.161   4.720   3.838 -0.0494  0.2819  0.1067
 8674SOL    HW137484   3.118   0.076   3.808  1.3998  0.6557 -0.9710
 8674SOL    HW237485   3.097   4.685   3.901 -0.1891 -0.5459 -0.4923
 8675SOL     OW37486   4.548   3.035   7.616 -0.3108 -0.1243 -0.3806
 8675SOL    HW137487   4.537   3.082   7.698  0.7895 -0.7624  0.1310
 8675SOL    HW237488   4.623   2.979   7.636 -2.5861 -1.9956  2.9122
 8676SOL     OW37489   4.529   4.279   6.282 -0.1763 -0.0037 -0.0989
 8676SOL    HW137490   4.435   4.267   6.300 -0.4390  1.6688 -0.3379
 8676SOL    HW237491   4.530   4.241   6.194 -2.7773  3.0002 -1.4350
 8677SOL     OW37492   1.841   1.797   4.396  0.6102 -1.0216  0.5760
 8677SOL    HW137493   1.795   1.841   4.468  0.2103 -0.3152 -0.1080
 8677SOL    HW237494   1.923   1.778   4.442  0.5686  0.6752  1.3469
 8678SOL     OW37495   0.158   3.987   5.923  0.4732  0.1679  0.2099
 8678SOL    HW137496   0.181   3.895   5.930  0.8684  0.3718  1.6533
 8678SOL    HW237497   0.069   3.988   5.959 -0.6141  0.3028 -2.4903
 8679SOL     OW37498   2.731   1.886   6.380  0.2313  0.1030  0.3667
 8679SOL    HW137499   2.783   1.900   6.459 -0.8460  1.6281  0.7944
 8679SOL    HW237500   2.738   1.975   6.346 -1.4706  0.5104  1.0934
 8680SOL     OW37501   4.625   3.481   7.531  0.0115 -0.1025 -0.0198
 8680SOL    HW137502   4.619   3.398   7.484 -1.4867  0.5761 -1.0222
 8680SOL    HW237503   4.718   3.486   7.556  0.4794 -1.3888 -1.5058
 8681SOL     OW37504   4.323   4.323   5.349 -0.3790 -0.1928 -0.0749
 8681SOL    HW137505   4.267   4.286   5.418 -1.9595  1.8281 -0.2542
 8681SOL    HW237506   4.406   4.277   5.344 -1.2574 -1.6697 -1.0599
 8682SOL     OW37507   4.193   2.551   7.978  0.9951  0.3412  0.6925
 8682SOL    HW137508   4.250   2.482   7.945  0.1833  0.1992 -0.4124
 8682SOL    HW237509   4.250   2.628   7.982  3.3660 -1.3802 -0.5424
 8683SOL     OW37510   3.407   3.583  11.593  0.3283  0.9359  0.4014
 8683SOL    HW137511   3.479   3.542  11.640  1.3141 -0.2356 -2.1238
 8683SOL    HW237512   3.409   3.529  11.514  0.1693  2.6570 -0.7763
 8684SOL     OW37513   2.554   4.715   5.511  0.4569 -0.0202  0.1285
 8684SOL    HW137514   2.627   4.654   5.520  0.7363  0.3707  0.4928
 8684SOL    HW237515   2.487   4.677   5.568  1.9783  0.1384  2.0332
 8685SOL     OW37516   1.874   3.614   6.711  0.2258 -0.1065  0.9325
 8685SOL    HW137517   1.951   3.641   6.661  1.5849  2.9989  4.7181
 8685SOL    HW237518   1.833   3.696   6.738 -1.1990  0.2033 -2.1150
 8686SOL     OW37519   0.743   4.649   3.386 -0.2505 -0.2148 -0.1504
 8686SOL    HW137520   0.792   4.568   3.368  0.1992  0.2002 -0.7612
 8686SOL    HW237521   0.714   4.675   3.299 -0.0335  0.5279  0.0003
 8687SOL     OW37522   2.418   3.558   8.168 -1.2921 -0.0208 -1.4765
 8687SOL    HW137523   2.428   3.644   8.210  2.1563 -0.7925 -0.7129
 8687SOL    HW237524   2.323   3.552   8.156 -1.4525 -0.3342 -0.0851
 8688SOL     OW37525   1.892   1.185   0.900 -0.2006 -0.2323 -0.2597
 8688SOL    HW137526   1.940   1.267   0.909  2.0980 -1.4284 -1.7321
 8688SOL    HW237527   1.903   1.146   0.987 -0.7779  1.2295  0.4659
 8689SOL     OW37528   3.972   0.360   3.050  0.0442  0.2525 -0.0042
 8689SOL    HW137529   4.061   0.394   3.056  0.0262  0.4085 -0.6333
 8689SOL    HW237530   3.977   0.331   2.959 -2.9314  0.1818 -0.1551
 8690SOL     OW37531   3.893   1.770   4.725 -0.0731  0.0398 -0.2840
 8690SOL    HW137532   3.859   1.699   4.671  2.3027 -1.4403  0.1746
 8690SOL    HW237533   3.894   1.737   4.815 -1.5697  1.4968  0.2876
 8691SOL     OW37534   1.010   3.592   2.994 -0.7130  0.2727 -0.7645
 8691SOL    HW137535   1.026   3.509   3.038 -2.4287  0.7437  0.7236
 8691SOL    HW237536   0.940   3.622   3.052  0.7572  0.3883  0.9520
 8692SOL     OW37537   1.234   3.144   1.761 -0.0573  0.0678  0.1425
 8692SOL    HW137538   1.216   3.105   1.846  0.6618 -0.2155  0.1600
 8692SOL    HW237539   1.148   3.145   1.719  0.6738 -0.7199 -1.3847
 8693SOL     OW37540   0.790   2.360   1.103 -0.3114  0.1591  0.1359
 8693SOL    HW137541   0.707   2.344   1.149 -1.3476  0.8588 -1.4989
 8693SOL    HW237542   0.853   2.378   1.173  1.7565 -1.0602 -1.4151
 8694SOL     OW37543   3.552   2.081   4.423  0.9031 -0.0742  0.0762
 8694SOL    HW137544   3.596   2.021   4.484 -0.5291 -1.1435  0.0620
 8694SOL    HW237545   3.616   2.095   4.354  0.7965 -0.3247 -0.0737
 8695SOL     OW37546   3.353   0.653   3.936  0.1367  0.5494 -0.6516
 8695SOL    HW137547   3.288   0.584   3.928  0.9569 -0.3548  0.4980
 8695SOL    HW237548   3.388   0.656   3.847  0.4181 -1.7630 -0.6239
 8696SOL     OW37549   2.808   0.371   2.559 -0.7736 -0.0636 -0.6360
 8696SOL    HW137550   2.716   0.393   2.546  0.0631  2.3350 -2.5962
 8696SOL    HW237551   2.818   0.391   2.652 -0.6333 -1.8831 -0.2676
 8697SOL     OW37552   4.709   0.487  17.459 -0.3729 -0.0196 -0.0731
 8697SOL    HW137553   4.685   0.553  17.394 -3.9543 -1.3370 -0.0774
 8697SOL    HW237554   4.627   0.479  17.508 -0.3267 -0.6467 -0.0935
 8698SOL     OW37555   2.664   2.813   5.382  0.0117 -0.4147  0.2227
 8698SOL    HW137556   2.623   2.852   5.304  1.3177  0.3773 -0.0744
 8698SOL    HW237557   2.586   2.791   5.432 -0.1117  0.8430  0.5976
 8699SOL     OW37558   3.408   1.124   3.936  0.3400 -0.0168  0.1949
 8699SOL    HW137559   3.407   1.217   3.913 -0.2330 -0.3916 -1.2901
 8699SOL    HW237560   3.481   1.113   3.997  0.8012  1.8138 -0.0165
 8700SOL     OW37561   4.080   3.840   8.216 -0.0653 -0.2955 -0.3068
 8700SOL    HW137562   4.028   3.795   8.151  0.7183 -1.6519 -0.0009
 8700SOL    HW237563   4.009   3.883   8.264  0.5432  1.3191 -0.8561
 8701SOL     OW37564   0.171   0.922  15.623  0.1435 -0.2162 -0.3492
 8701SOL    HW137565   0.201   0.923  15.532 -0.1235 -1.5780 -0.4440
 8701SOL    HW237566   0.080   0.951  15.614  0.5530  0.9504 -0.8200
 8702SOL     OW37567   4.120   1.540   7.212  0.3129  0.0099 -0.1196
 8702SOL    HW137568   4.061   1.580   7.148  1.3223  0.5527 -0.7080
 8702SOL    HW237569   4.178   1.478   7.167  1.5570  2.3493 -1.7984
 8703SOL     OW37570   2.724   2.275   4.663 -0.3810 -0.2143  0.5114
 8703SOL    HW137571   2.782   2.268   4.738  0.2721  0.9973  0.1329
 8703SOL    HW237572   2.781   2.318   4.598 -0.6921 -0.6832 -0.0688
 8704SOL     OW37573   4.146   3.745   1.236  0.4723 -0.2424  0.1347
 8704SOL    HW137574   4.068   3.782   1.194 -0.6191 -3.5874 -0.8340
 8704SOL    HW237575   4.186   3.680   1.178  0.4872 -1.4057  1.4372
 8705SOL     OW37576   2.164   3.165   2.890 -0.6171 -0.0741  0.3272
 8705SOL    HW137577   2.245   3.215   2.878 -0.4404  0.1415  2.3822
 8705SOL    HW237578   2.205   3.078   2.885 -1.2965 -0.3507 -0.3932
 8706SOL     OW37579   0.576   0.539   0.324 -0.4198 -0.5507 -0.2664
 8706SOL    HW137580   0.575   0.547   0.420 -0.7398  2.1142 -0.4955
 8706SOL    HW237581   0.551   0.630   0.307  0.8627  0.3869  2.8078
 8707SOL     OW37582   3.996   4.158   0.696  0.3996 -0.2997  0.1206
 8707SOL    HW137583   4.008   4.127   0.606 -0.4876  1.1125 -0.4856
 8707SOL    HW237584   4.085   4.146   0.729  0.4366 -2.6123 -0.8068
 8708SOL     OW37585   2.590   2.196   6.494 -0.7097 -0.0768 -0.1241
 8708SOL    HW137586   2.572   2.271   6.550  1.5512  0.5642 -0.2652
 8708SOL    HW237587   2.625   2.129   6.553 -0.7951  2.4404  2.7619
 8709SOL     OW37588   3.521   2.897   4.210  0.7278  0.3517  0.2700
 8709SOL    HW137589   3.437   2.938   4.233  0.5540 -0.2152  0.6365
 8709SOL    HW237590   3.504   2.806   4.234  1.3239  0.0601 -0.4118
 8710SOL     OW37591   0.572   1.835   2.303 -0.1188 -0.8314 -0.2530
 8710SOL    HW137592   0.495   1.829   2.359 -0.3672 -1.3586 -0.6439
 8710SOL    HW237593   0.534   1.801   2.222  0.4904  2.3414 -1.8903
 8711SOL     OW37594   0.322   4.483  10.465  0.2398  0.0390  0.3028
 8711SOL    HW137595   0.295   4.409  10.410  2.1583  0.9334 -1.8696
 8711SOL    HW237596   0.284   4.555  10.415 -0.3027 -0.8812 -0.6338
 8712SOL     OW37597   1.423   4.343   7.404 -0.3045  0.1529  0.1393
 8712SOL    HW137598   1.449   4.296   7.325  2.1371 -2.1201  2.3142
 8712SOL    HW237599   1.470   4.426   7.391 -0.5111  0.0431 -1.3052
 8713SOL     OW37600   3.897   1.260  10.251 -0.6016  0.7518  0.1312
 8713SOL    HW137601   3.894   1.298  10.338  1.1296 -1.9085  1.3347
 8713SOL    HW237602   3.896   1.168  10.276  0.6159  0.9494  0.8729
 8714SOL     OW37603   1.813   3.927   4.206 -0.6626  0.5508  0.0410
 8714SOL    HW137604   1.860   3.844   4.197 -0.7439  0.3904  1.0677
 8714SOL    HW237605   1.809   3.943   4.300  0.1589  1.3751 -0.0751
 8715SOL     OW37606   2.336   2.464   8.138  0.3257  0.0468 -0.0816
 8715SOL    HW137607   2.403   2.432   8.198 -0.3279 -1.6843 -0.2721
 8715SOL    HW237608   2.318   2.383   8.090  0.4108 -0.2395  0.3706
 8716SOL     OW37609   0.050   0.107   0.990  0.3521  0.2415 -0.3535
 8716SOL    HW137610   0.014   0.179   0.938 -0.7472  1.7325  2.4636
 8716SOL    HW237611   0.123   0.082   0.934 -0.4862 -1.7449 -0.5813
 8717SOL     OW37612   0.889   1.340  11.029  0.0383 -0.0180  0.2561
 8717SOL    HW137613   0.835   1.290  11.090  0.8695 -0.8527  0.3047
 8717SOL    HW237614   0.916   1.415  11.082  0.7997 -2.0234  2.6953
 8718SOL     OW37615   0.898   4.242   3.529 -0.5306 -0.2128  0.0856
 8718SOL    HW137616   0.914   4.335   3.544 -3.0063  0.5231 -1.7323
 8718SOL    HW237617   0.989   4.212   3.529  0.8318  3.8939  2.1398
 8719SOL     OW37618   1.789   2.218   5.810  0.3876  0.0891  0.3613
 8719SOL    HW137619   1.807   2.312   5.812 -1.5650  0.4985 -1.1482
 8719SOL    HW237620   1.755   2.211   5.721  2.5014  1.1205 -0.5092
 8720SOL     OW37621   3.617   3.158   5.805  0.2913  0.5152  0.3244
 8720SOL    HW137622   3.574   3.109   5.735  0.6782 -1.1980  1.2863
 8720SOL    HW237623   3.636   3.088   5.868  0.0206 -1.3471 -1.6795
 8721SOL     OW37624   0.411   0.600   9.051  0.0875 -0.3336 -0.4748
 8721SOL    HW137625   0.465   0.676   9.074  1.5714 -1.0905 -1.4547
 8721SOL    HW237626   0.357   0.632   8.979 -0.5442  0.7728  0.4949
 8722SOL     OW37627   4.505   3.283  13.905  0.1395 -0.3161 -0.4278
 8722SOL    HW137628   4.532   3.348  13.840 -0.8065 -1.6170 -2.1207
 8722SOL    HW237629   4.434   3.232  13.866  1.0040  0.8297 -3.4680
 8723SOL     OW37630   3.079   1.925  14.283  0.0368 -0.1414 -0.0080
 8723SOL    HW137631   3.000   1.980  14.276 -0.4958 -0.8632  0.3816
 8723SOL    HW237632   3.131   1.971  14.348  0.3452 -0.6030  0.0709
 8724SOL     OW37633   1.702   4.136   9.303 -0.7106  0.0783  0.1699
 8724SOL    HW137634   1.615   4.107   9.330 -0.9172  2.2344  1.7538
 8724SOL    HW237635   1.766   4.099   9.363 -1.1632 -0.4598  0.3246
 8725SOL     OW37636   1.984   1.085   6.374  0.0483 -0.0877 -1.0922
 8725SOL    HW137637   1.929   1.015   6.338  0.9815 -1.5319  0.2592
 8725SOL    HW237638   2.065   1.036   6.386 -0.0535  0.3924  1.6179
 8726SOL     OW37639   2.587   1.510   3.886  0.0302  0.3688  0.5061
 8726SOL    HW137640   2.660   1.571   3.879 -0.4112  0.9090  0.6986
 8726SOL    HW237641   2.562   1.531   3.976  0.1561 -1.1312  0.9096
 8727SOL     OW37642   4.376   0.167   8.923 -0.2515 -0.5923 -0.3649
 8727SOL    HW137643   4.439   0.096   8.920 -1.4297 -1.6068 -1.0598
 8727SOL    HW237644   4.429   0.240   8.956 -1.7783  1.4580 -2.3746
 8728SOL     OW37645   4.508   4.602  14.099 -0.0436  0.1793  0.2023
 8728SOL    HW137646   4.475   4.533  14.157  0.2822 -0.8078 -0.7856
 8728SOL    HW237647   4.484   4.682  14.146  0.7990  1.3422 -1.3428
 8729SOL     OW37648   2.711   0.632   7.332  0.6010  0.2987 -0.0251
 8729SOL    HW137649   2.743   0.680   7.408  0.7047  1.7709 -1.0057
 8729SOL    HW237650   2.750   0.682   7.260 -1.4436  3.2928  1.0006
 8730SOL     OW37651   1.906   2.229   2.429  0.4018 -0.0031 -0.0045
 8730SOL    HW137652   1.817   2.262   2.413  0.9208  2.6246  2.4588
 8730SOL    HW237653   1.934   2.270   2.511 -0.5925  0.1701  0.2584
 8731SOL     OW37654   1.494   3.469   4.108  0.2312 -0.5287 -0.0205
 8731SOL    HW137655   1.517   3.519   4.030 -0.6782 -0.5399 -0.2972
 8731SOL    HW237656   1.539   3.524   4.172 -0.2012 -1.8094  1.4122
 8732SOL     OW37657   4.717   1.607  17.265 -0.4151 -0.1421  0.1106
 8732SOL    HW137658   0.073   1.608  17.212 -0.7326 -2.4484 -0.4413
 8732SOL    HW237659   4.684   1.526  17.225 -0.5151  1.4307 -2.9987
 8733SOL     OW37660   4.184   2.290   0.314 -0.3389 -0.4556  0.6699
 8733SOL    HW137661   4.191   2.347   0.390 -1.7722  1.0699 -0.3351
 8733SOL    HW237662   4.273   2.265   0.288  0.1766  0.6425  1.3735
 8734SOL     OW37663   2.698   4.113   2.587 -0.2129 -0.2880  0.3179
 8734SOL    HW137664   2.672   4.175   2.519 -1.1684  0.9301  1.7860
 8734SOL    HW237665   2.630   4.046   2.574  1.2673 -1.3301 -2.0954
 8735SOL     OW37666   3.243   3.398  11.808  0.2049 -0.1600  0.1559
 8735SOL    HW137667   3.219   3.372  11.719 -2.0147 -0.9269  0.9780
 8735SOL    HW237668   3.287   3.320  11.839  1.7211  0.9894  0.8791
 8736SOL     OW37669   3.548   3.432   2.716 -0.1768 -0.0582  0.3983
 8736SOL    HW137670   3.565   3.339   2.733  0.3113 -0.3212 -1.5336
 8736SOL    HW237671   3.492   3.433   2.639  2.2726 -0.5014 -1.4061
 8737SOL     OW37672   1.287   0.057   8.507  0.4440  0.1798 -0.2047
 8737SOL    HW137673   1.347   0.114   8.461  1.8490 -1.2434 -0.1299
 8737SOL    HW237674   1.280   0.108   8.588 -1.9935 -0.2304 -0.1347
 8738SOL     OW37675   1.036   2.136  16.064  0.1660  0.1452 -0.0162
 8738SOL    HW137676   1.125   2.168  16.049  0.9473 -1.4934  1.2391
 8738SOL    HW237677   1.047   2.046  16.031  1.6871  0.2004  0.3269
 8739SOL     OW37678   3.986   1.198  15.823  0.2747 -0.0592  0.3746
 8739SOL    HW137679   3.899   1.190  15.784 -0.8595  0.0619  2.8336
 8739SOL    HW237680   4.049   1.150  15.770  0.9663  0.0296  1.1173
 8740SOL     OW37681   0.908   1.963   6.530 -0.0317  0.1981  0.0110
 8740SOL    HW137682   0.969   1.931   6.597  0.3232 -0.7609 -0.7624
 8740SOL    HW237683   0.964   1.974   6.453 -2.1629  3.3912 -1.1054
 8741SOL     OW37684   1.373   3.730   0.396  0.1375 -0.5909  0.0728
 8741SOL    HW137685   1.398   3.708   0.306 -0.4805 -2.2650  0.3124
 8741SOL    HW237686   1.304   3.794   0.385  1.7595  1.4377  1.7217
 8742SOL     OW37687   1.638   1.886   6.137 -0.3138  0.1707 -0.8858
 8742SOL    HW137688   1.709   1.943   6.105 -0.5247  0.6273 -0.5491
 8742SOL    HW237689   1.601   1.946   6.202 -1.1403 -0.9502 -0.3343
 8743SOL     OW37690   0.930   2.507   9.541  0.2758 -0.1429 -0.2093
 8743SOL    HW137691   0.873   2.433   9.563  0.9582 -0.8755 -0.9397
 8743SOL    HW237692   0.960   2.538   9.627  2.0040 -0.2185 -0.7859
 8744SOL     OW37693   4.425   1.487  13.116 -0.2945  0.3181  0.1750
 8744SOL    HW137694   4.507   1.501  13.068  0.2245 -1.8896  0.4348
 8744SOL    HW237695   4.416   1.394  13.094 -3.8732  0.3163  1.6559
 8745SOL     OW37696   0.809   0.630  11.452  0.2201 -0.0095  0.0909
 8745SOL    HW137697   0.850   0.670  11.376  0.6177  1.6771  1.1894
 8745SOL    HW237698   0.858   0.549  11.459 -0.0685 -0.2510 -0.7271
 8746SOL     OW37699   3.151   2.957   2.045  0.4541  0.1772 -0.1119
 8746SOL    HW137700   3.077   2.901   2.022  1.0966 -0.6682 -0.1306
 8746SOL    HW237701   3.130   2.974   2.137  1.2833  0.3495  0.0396
 8747SOL     OW37702   2.678   4.701  14.136 -0.1668  0.2730  0.2641
 8747SOL    HW137703   2.731   0.006  14.210  0.0351  0.7148 -0.0520
 8747SOL    HW237704   2.711   0.023  14.059  1.8638 -0.9168  0.4481
 8748SOL     OW37705   0.187   2.737  15.234 -0.3356  0.0351 -0.2014
 8748SOL    HW137706   0.112   2.684  15.262  0.3825 -0.9848 -0.2064
 8748SOL    HW237707   0.248   2.736  15.307 -0.2490 -0.5862 -0.2796
 8749SOL     OW37708   2.257   1.184   7.377 -0.2820  0.8695 -0.2388
 8749SOL    HW137709   2.288   1.142   7.296  1.1737  0.1851  0.6950
 8749SOL    HW237710   2.166   1.153   7.384 -0.7095  3.0037  3.4114
 8750SOL     OW37711   2.543   0.459   8.715  0.1609 -0.5536  0.4811
 8750SOL    HW137712   2.469   0.405   8.687 -2.0813  3.0311 -0.4997
 8750SOL    HW237713   2.521   0.493   8.802 -1.6352 -0.5543  0.0253
 8751SOL     OW37714   3.711   4.635  17.093  0.6794 -0.1794 -0.9181
 8751SOL    HW137715   3.746   4.548  17.071  0.0229 -1.1242  1.7821
 8751SOL    HW237716   3.685   4.691  17.020 -0.7313 -0.8583 -0.9421
 8752SOL     OW37717   4.171   0.093   5.991  0.5080  0.2282  1.0330
 8752SOL    HW137718   4.260   0.056   5.991  0.7459  0.7418 -3.1366
 8752SOL    HW237719   4.120   0.014   5.978 -0.5468  1.1891 -0.6681
 8753SOL     OW37720   0.441   1.417   7.033 -0.2671 -0.5287  0.4420
 8753SOL    HW137721   0.529   1.381   7.045  0.0656 -0.6543 -2.4345
 8753SOL    HW237722   0.383   1.362   7.085 -0.1414  0.2208  1.3764
 8754SOL     OW37723   4.665   0.272   0.287 -0.2057 -0.6381 -0.7128
 8754SOL    HW137724   4.591   0.328   0.263  1.6468  2.9779  2.0739
 8754SOL    HW237725   4.705   0.288   0.201  0.5818  3.0072  0.3438
 8755SOL     OW37726   4.195   3.538  11.344  0.1068 -0.0965  0.3013
 8755SOL    HW137727   4.167   3.584  11.424  1.9314  0.6949  0.4798
 8755SOL    HW237728   4.289   3.557  11.343 -0.1919  1.3602 -0.1649
 8756SOL     OW37729   1.238   4.088  10.619 -0.2574  0.2257  0.3079
 8756SOL    HW137730   1.258   4.140  10.541 -0.6739 -1.6600 -1.0640
 8756SOL    HW237731   1.333   4.084  10.632 -0.1307  2.6544  0.1775
 8757SOL     OW37732   3.652   1.608   6.453 -0.4913 -0.5470 -0.5917
 8757SOL    HW137733   3.688   1.606   6.542  0.6707 -0.9306 -1.0767
 8757SOL    HW237734   3.603   1.690   6.461  0.3594  0.0924 -2.2014
 8758SOL     OW37735   3.933   2.667   9.887 -0.2531  0.0367  0.0062
 8758SOL    HW137736   3.922   2.704   9.799 -0.1289  1.1190  0.4412
 8758SOL    HW237737   4.022   2.704   9.891  0.2175 -0.7364 -3.5113
 8759SOL     OW37738   0.435   3.271   3.030 -0.0892  0.1322  0.1377
 8759SOL    HW137739   0.430   3.226   2.945  0.3477  1.0271 -0.3633
 8759SOL    HW237740   0.513   3.326   3.022 -0.4080  1.1140  3.8107
 8760SOL     OW37741   1.048   4.551   9.334 -0.3635  0.3907 -0.3491
 8760SOL    HW137742   1.140   4.526   9.337  0.0248  2.0538  1.2561
 8760SOL    HW237743   1.046   4.617   9.403 -0.6871  1.4612 -1.3754
 8761SOL     OW37744   4.560   3.603   1.559 -0.5542  0.2712  0.3273
 8761SOL    HW137745   4.588   3.565   1.475 -1.1968 -1.4946  0.9168
 8761SOL    HW237746   4.510   3.680   1.531  0.4310 -0.5579 -3.7727
 8762SOL     OW37747   1.803   0.980   7.249 -0.3311  0.0252 -0.7492
 8762SOL    HW137748   1.792   0.886   7.238  2.0608 -0.3444  0.1418
 8762SOL    HW237749   1.712   1.011   7.243 -0.3407  0.1256 -0.1130
 8763SOL     OW37750   0.186   0.457  17.196 -0.2810 -0.1425  0.4061
 8763SOL    HW137751   0.189   0.518  17.122  1.4053  2.9031  2.9965
 8763SOL    HW237752   0.215   0.511  17.269 -0.5362  2.5447 -1.4857
 8764SOL     OW37753   1.177   3.078   7.776 -0.0127 -0.5509 -0.0918
 8764SOL    HW137754   1.161   3.089   7.682  0.2030  0.2677 -0.0318
 8764SOL    HW237755   1.222   3.158   7.802 -0.6224  0.4394 -2.1037
 8765SOL     OW37756   4.080   4.648  11.412 -0.1991  0.2218 -0.3340
 8765SOL    HW137757   4.156   4.695  11.378 -1.2999 -0.0898 -3.1688
 8765SOL    HW237758   4.081   4.669  11.506 -0.7140 -0.2349 -0.2242
 8766SOL     OW37759   2.919   3.336   8.040 -0.1958  0.3871  0.3525
 8766SOL    HW137760   2.878   3.299   7.962 -0.0244 -2.0162  1.4183
 8766SOL    HW237761   2.908   3.269   8.107  0.8204 -1.1501 -1.0250
 8767SOL     OW37762   1.867   4.385   2.589  0.3297 -0.3807 -0.0530
 8767SOL    HW137763   1.811   4.387   2.667  0.7953 -0.6048  0.2875
 8767SOL    HW237764   1.862   4.292   2.566  1.2505 -0.5416  0.4250
 8768SOL     OW37765   0.433   2.142   7.923  0.5821 -0.8023 -0.3116
 8768SOL    HW137766   0.447   2.220   7.977  2.3055  0.2064 -2.2436
 8768SOL    HW237767   0.524   2.115   7.908  0.1063 -0.4423 -3.6439
 8769SOL     OW37768   3.339   1.362   3.495  0.1787  0.0252  0.6072
 8769SOL    HW137769   3.326   1.292   3.431 -0.7692  0.1589  0.6532
 8769SOL    HW237770   3.392   1.311   3.556 -2.7942 -0.5618  2.7059
 8770SOL     OW37771   3.482   3.873   7.640 -0.1552 -0.3858 -0.1179
 8770SOL    HW137772   3.562   3.821   7.634 -0.3293 -0.6359 -0.2605
 8770SOL    HW237773   3.520   3.951   7.680 -0.3670  0.0535 -0.7880
 8771SOL     OW37774   0.552   3.551   9.467  0.5055 -0.3064  0.4434
 8771SOL    HW137775   0.624   3.524   9.523 -1.8704 -2.5513  2.3991
 8771SOL    HW237776   0.481   3.543   9.531 -0.7300 -0.5437 -0.9463
 8772SOL     OW37777   2.498   1.729   6.140  0.1800 -0.1942 -0.3896
 8772SOL    HW137778   2.447   1.688   6.070  0.6049  0.5335 -1.1202
 8772SOL    HW237779   2.528   1.808   6.096 -0.2906  1.6278  2.5628
 8773SOL     OW37780   3.292   1.369   1.504  0.3789 -0.3462  0.1142
 8773SOL    HW137781   3.349   1.309   1.552  2.3144 -1.1637 -3.1983
 8773SOL    HW237782   3.218   1.308   1.510 -0.6808  0.8824 -0.6542
 8774SOL     OW37783   2.688   0.251   0.511 -0.1425  0.0748  0.1327
 8774SOL    HW137784   2.762   0.280   0.457 -0.2150 -0.0027 -0.0060
 8774SOL    HW237785   2.694   0.311   0.586  0.2796 -2.5305  2.1752
 8775SOL     OW37786   3.997   2.360   5.680 -0.1621  0.5727  0.3541
 8775SOL    HW137787   3.960   2.447   5.692  1.1353  1.2218 -0.4755
 8775SOL    HW237788   4.003   2.349   5.585  0.4520  1.1061  0.3337
 8776SOL     OW37789   1.669   4.548  15.255 -0.0162  0.4627  0.4386
 8776SOL    HW137790   1.722   4.620  15.288 -1.3154  0.6983  1.9849
 8776SOL    HW237791   1.655   4.556  15.160 -2.2089 -2.0513  0.5544
 8777SOL     OW37792   0.988   1.145  16.315  0.2400  0.2156 -0.4970
 8777SOL    HW137793   0.947   1.130  16.230  1.6535 -2.2618 -0.7306
 8777SOL    HW237794   1.012   1.055  16.338  0.8454  0.5650  0.2356
 8778SOL     OW37795   4.191   1.857   2.464 -0.1029 -0.0649 -0.3758
 8778SOL    HW137796   4.123   1.811   2.513  0.2896 -2.4851 -2.0978
 8778SOL    HW237797   4.143   1.906   2.397 -3.3035 -2.4658  0.1615
 8779SOL     OW37798   3.734   3.932  13.126 -0.2472  0.0275 -0.5599
 8779SOL    HW137799   3.767   3.878  13.054 -0.7835 -0.2162 -0.6200
 8779SOL    HW237800   3.643   3.920  13.098 -0.4404  0.1841  0.0039
 8780SOL     OW37801   1.746   2.712   6.337 -0.2305  0.8783 -0.2729
 8780SOL    HW137802   1.789   2.715   6.251  0.8415  0.7384  0.2601
 8780SOL    HW237803   1.752   2.804   6.363  2.8312  0.7478 -0.4683
 8781SOL     OW37804   2.259   3.897  17.446  0.0388  0.2735  0.0482
 8781SOL    HW137805   2.257   3.875  17.539  1.5865  0.3494  0.1041
 8781SOL    HW237806   2.249   3.812  17.403 -1.4639  1.0456 -1.1192
 8782SOL     OW37807   4.320   2.046  13.269 -0.1128  0.0757 -0.2741
 8782SOL    HW137808   4.227   2.027  13.262  0.1572 -1.1138 -0.5805
 8782SOL    HW237809   4.347   1.955  13.255  0.8687  0.3990 -0.4813
 8783SOL     OW37810   1.418   2.788   2.307  0.1679 -0.3226  0.3288
 8783SOL    HW137811   1.488   2.796   2.243  0.6715  0.0987  0.9379
 8783SOL    HW237812   1.466   2.797   2.389 -0.9966  0.3717  0.9241
 8784SOL     OW37813   1.720   2.657   5.244  0.1611  0.2208 -0.1918
 8784SOL    HW137814   1.769   2.739   5.248  0.3489  0.0290  1.5363
 8784SOL    HW237815   1.791   2.604   5.208  1.5951  1.3345  0.9846
 8785SOL     OW37816   2.734   3.581  12.527 -0.2197  0.6739  0.0057
 8785SOL    HW137817   2.668   3.632  12.574 -0.5024  0.6313 -0.3382
 8785SOL    HW237818   2.744   3.500  12.577  0.6275  0.4789 -0.4858
 8786SOL     OW37819   3.794   0.907   6.572 -0.1038 -0.3246 -0.0508
 8786SOL    HW137820   3.831   0.978   6.520  1.7411  0.5154  2.3813
 8786SOL    HW237821   3.838   0.835   6.526 -0.1693  0.6495 -1.6529
 8787SOL     OW37822   0.801   1.956   9.759  0.7295 -0.3138  0.1644
 8787SOL    HW137823   0.877   1.913   9.797 -0.0364 -2.1234 -0.3823
 8787SOL    HW237824   0.763   1.874   9.727  1.0923 -0.6532  0.6064
 8788SOL     OW37825   0.824   2.744   8.483  0.0814 -0.4749  0.1102
 8788SOL    HW137826   0.766   2.716   8.554 -1.0142 -1.1282 -1.0359
 8788SOL    HW237827   0.777   2.719   8.403 -1.4265  1.6019  0.3419
 8789SOL     OW37828   0.423   1.533   9.544 -0.2262 -0.7480  0.0833
 8789SOL    HW137829   0.452   1.577   9.464  1.3568  0.8876  1.5556
 8789SOL    HW237830   0.407   1.599   9.611  0.5430  3.0896 -3.5025
 8790SOL     OW37831   2.139   1.060   4.068 -0.0397 -0.6427  0.4800
 8790SOL    HW137832   2.059   1.110   4.080 -0.6280 -1.1521 -1.2640
 8790SOL    HW237833   2.162   1.015   4.149 -2.1041  1.8998  2.4891
 8791SOL     OW37834   2.160   2.342  10.582 -0.3649  0.2930 -1.3640
 8791SOL    HW137835   2.100   2.315  10.651  0.2869 -0.4547 -1.0857
 8791SOL    HW237836   2.181   2.428  10.617 -0.8114 -1.1018  2.2969
 8792SOL     OW37837   4.577   2.380   5.061  0.3559  0.2180 -0.3737
 8792SOL    HW137838   4.512   2.327   5.107  0.5822  0.8184  0.6405
 8792SOL    HW237839   4.527   2.399   4.982 -1.2293  0.2250  0.6206
 8793SOL     OW37840   1.839   0.965   3.104 -0.0340 -0.4467 -0.1697
 8793SOL    HW137841   1.777   0.915   3.050 -0.4776 -0.0503 -0.0332
 8793SOL    HW237842   1.885   1.008   3.033  1.0888 -1.9677 -0.3459
 8794SOL     OW37843   4.319   1.348   2.246  0.5211 -0.7291  0.4628
 8794SOL    HW137844   4.289   1.413   2.183  0.6453 -0.9636  0.1583
 8794SOL    HW237845   4.242   1.339   2.301  0.4237 -1.2442  0.2466
 8795SOL     OW37846   2.712   1.005   7.139 -0.1944  0.1378 -0.5750
 8795SOL    HW137847   2.705   1.098   7.161  3.1209  0.6176 -1.5057
 8795SOL    HW237848   2.728   1.010   7.045 -0.0225  0.4016 -0.5336
 8796SOL     OW37849   3.389   1.543   3.980  0.6896  0.0010 -0.1964
 8796SOL    HW137850   3.370   1.562   4.072 -0.4322  1.8142 -0.7944
 8796SOL    HW237851   3.302   1.519   3.947  0.4201  0.3913  0.2308
 8797SOL     OW37852   0.718   3.482  16.743  0.5978  0.0434 -0.0237
 8797SOL    HW137853   0.807   3.464  16.714  0.2980 -1.0012 -0.2724
 8797SOL    HW237854   0.716   3.574  16.717 -0.2728 -0.0567 -0.3220
 8798SOL     OW37855   2.928   4.270   2.503 -0.2392 -0.2768  0.1951
 8798SOL    HW137856   2.971   4.347   2.466  0.9229 -0.4887  1.1089
 8798SOL    HW237857   2.837   4.301   2.501  0.1032  0.8159  1.4025
 8799SOL     OW37858   2.407   1.372   9.921  0.2820 -0.1499 -0.0887
 8799SOL    HW137859   2.327   1.361   9.870 -0.8096 -0.4627  1.6838
 8799SOL    HW237860   2.382   1.441   9.982  2.3928  0.7396 -0.2286
 8800SOL     OW37861   0.929   0.491   6.267  0.2618  0.0170  0.2490
 8800SOL    HW137862   0.837   0.504   6.243  0.9191  0.8949 -1.8104
 8800SOL    HW237863   0.942   0.558   6.334  2.0062 -0.4814  0.4176
 8801SOL     OW37864   3.359   4.690   0.221 -0.5674  0.1274  0.3818
 8801SOL    HW137865   3.386   4.606   0.185  0.0289  1.1162 -1.5164
 8801SOL    HW237866   3.439   0.016   0.205 -0.3894  0.3061  1.8045
 8802SOL     OW37867   3.144   0.857   9.407  0.0611  0.5513 -0.0988
 8802SOL    HW137868   3.177   0.823   9.491 -0.2695  1.0508  0.2329
 8802SOL    HW237869   3.058   0.815   9.410  0.2939  0.1025  0.4814
 8803SOL     OW37870   0.864   0.546   3.515 -0.3297 -0.4238  0.1707
 8803SOL    HW137871   0.883   0.589   3.598  0.2736 -0.1341 -0.1155
 8803SOL    HW237872   0.775   0.576   3.497  0.7061  1.7174 -1.4411
 8804SOL     OW37873   4.569   2.115   7.769 -0.0718 -0.1933  0.8817
 8804SOL    HW137874   4.536   2.043   7.823  0.4496 -1.1086 -0.0172
 8804SOL    HW237875   4.489   2.155   7.736  0.2536 -0.5944 -0.4255
 8805SOL     OW37876   3.372   0.830  15.718 -0.4412  0.0199  0.1040
 8805SOL    HW137877   3.336   0.741  15.729  1.1968 -0.5915  0.4785
 8805SOL    HW237878   3.433   0.818  15.646  0.2669  0.2784  0.6658
 8806SOL     OW37879   1.152   4.142   3.548 -0.0387  0.2976 -0.1735
 8806SOL    HW137880   1.169   4.145   3.454 -1.1747  1.3638 -0.3505
 8806SOL    HW237881   1.242   4.156   3.575  0.5980 -0.1027 -2.1165
 8807SOL     OW37882   0.134   0.351   6.652  0.0797 -0.3097  0.2437
 8807SOL    HW137883   0.040   0.371   6.653  0.2025  0.2604  0.3163
 8807SOL    HW237884   0.130   0.301   6.734 -0.3537 -0.1858  0.3002
 8808SOL     OW37885   1.500   3.445   5.582  0.4049 -0.1098 -0.0578
 8808SOL    HW137886   1.577   3.485   5.540  1.6990  0.8848  3.2271
 8808SOL    HW237887   1.474   3.504   5.652  1.5896 -1.3576  1.4329
 8809SOL     OW37888   4.596   0.226   8.087 -0.1146 -0.0217  0.1544
 8809SOL    HW137889   4.632   0.300   8.137  1.5173 -0.8450  0.2148
 8809SOL    HW237890   4.647   0.157   8.128 -0.5931 -0.8957 -0.7343
 8810SOL     OW37891   0.294   1.771  11.494  0.1051 -0.5942 -0.4056
 8810SOL    HW137892   0.268   1.732  11.577 -2.2771 -1.0601 -1.3601
 8810SOL    HW237893   0.343   1.851  11.511  1.0381 -1.1598 -0.4320
 8811SOL     OW37894   4.562   3.144   6.320 -0.0428  0.2822  0.1762
 8811SOL    HW137895   4.588   3.228   6.358 -0.4868  0.3548  0.3275
 8811SOL    HW237896   4.646   3.100   6.308  0.9389  2.2607 -0.1530
 8812SOL     OW37897   3.051   1.653   4.150  0.9434  0.3621  0.3633
 8812SOL    HW137898   3.010   1.573   4.118 -2.1282  1.5665  1.1854
 8812SOL    HW237899   3.043   1.715   4.077  0.0856  0.1301  0.2602
 8813SOL     OW37900   3.981   0.866   7.475  0.3987  0.0610  0.1633
 8813SOL    HW137901   3.997   0.917   7.555  1.4444 -1.1864  0.7498
 8813SOL    HW237902   3.981   0.778   7.514  1.0951 -0.5462 -1.2329
 8814SOL     OW37903   4.246   3.709  10.695  0.1926 -0.5382 -0.1979
 8814SOL    HW137904   4.270   3.773  10.763  0.3210 -0.5228 -0.2574
 8814SOL    HW237905   4.152   3.725  10.699  0.4904  0.6685  2.2710
 8815SOL     OW37906   4.436   4.639   7.121 -0.1932 -0.2331 -0.2382
 8815SOL    HW137907   4.445   4.564   7.062 -0.0526  0.6854 -1.3889
 8815SOL    HW237908   4.360   4.603   7.166  1.7624 -0.7281  2.6439
 8816SOL     OW37909   3.187   4.015   4.081  0.0983 -0.0141  0.0377
 8816SOL    HW137910   3.242   4.057   4.016 -0.5432  0.1919 -0.3741
 8816SOL    HW237911   3.197   4.079   4.151 -0.7562 -1.5908  1.6175
 8817SOL     OW37912   0.853   1.230  12.424  0.2725 -0.1775 -0.1923
 8817SOL    HW137913   0.929   1.286  12.443 -0.2007  0.4786 -0.2026
 8817SOL    HW237914   0.869   1.156  12.482 -2.9717 -1.1088 -0.5029
 8818SOL     OW37915   4.668   3.813   3.155  0.1425 -0.5051  0.2336
 8818SOL    HW137916   0.006   3.835   3.084 -1.2928  1.6576 -0.3729
 8818SOL    HW237917   0.007   3.785   3.221  1.3069  1.4902 -0.0143
 8819SOL     OW37918   3.486   2.208   2.487  0.1930 -0.2196 -0.4585
 8819SOL    HW137919   3.449   2.247   2.408  1.5298  1.1141 -0.4201
 8819SOL    HW237920   3.425   2.136   2.502 -0.1209 -0.1871 -1.6173
 8820SOL     OW37921   4.257   2.635  10.208  0.0023  0.1932 -0.3373
 8820SOL    HW137922   4.289   2.563  10.153  0.0472 -0.2766  0.3038
 8820SOL    HW237923   4.240   2.695  10.135 -0.3901  0.7440  0.2036
 8821SOL     OW37924   3.337   0.490   6.697 -0.3455  0.4263 -0.1317
 8821SOL    HW137925   3.243   0.503   6.688 -0.5241 -0.3592  0.5100
 8821SOL    HW237926   3.365   0.506   6.607  1.9450 -0.0638  0.4989
 8822SOL     OW37927   0.869   3.245   5.157 -0.1281 -0.4310 -0.0513
 8822SOL    HW137928   0.841   3.313   5.218 -0.1684 -0.3666 -0.1423
 8822SOL    HW237929   0.830   3.167   5.198  1.0163 -1.3395 -0.6708
 8823SOL     OW37930   1.004   1.433   5.145  0.2440 -0.3745 -0.0938
 8823SOL    HW137931   1.072   1.376   5.107  1.5152  0.4519  0.9678
 8823SOL    HW237932   1.052   1.509   5.176  1.2256 -1.3036  0.6535
 8824SOL     OW37933   1.027   1.101   4.968 -0.2980 -0.6473 -0.3031
 8824SOL    HW137934   1.066   1.015   4.954 -1.5855 -0.5279 -4.4602
 8824SOL    HW237935   1.000   1.126   4.880 -0.5166  0.4946  0.0860
 8825SOL     OW37936   4.477   1.139   1.134  0.1239  0.4198  0.0508
 8825SOL    HW137937   4.554   1.174   1.090 -0.5073  2.4601  0.5765
 8825SOL    HW237938   4.439   1.215   1.178  1.6724  1.7549 -0.9416
 8826SOL     OW37939   1.754   2.888   8.141  0.5575  0.2724  0.4718
 8826SOL    HW137940   1.759   2.842   8.056 -0.0014  1.8169 -0.3920
 8826SOL    HW237941   1.846   2.882   8.166  0.5221  1.5672  0.8783
 8827SOL     OW37942   2.068   1.001   9.048 -0.2640 -0.3698  0.1140
 8827SOL    HW137943   2.000   1.016   9.114 -0.2786 -0.7840  0.1909
 8827SOL    HW237944   2.071   1.089   9.010 -1.3144 -0.1283  0.5738
 8828SOL     OW37945   0.591   3.753   0.899  0.3837  0.3522  0.3162
 8828SOL    HW137946   0.678   3.791   0.913 -0.1435  2.3786 -1.8838
 8828SOL    HW237947   0.547   3.781   0.979 -1.4836 -1.6622  0.0022
 8829SOL     OW37948   3.177   0.509   2.349 -0.0729 -0.2673 -0.2371
 8829SOL    HW137949   3.154   0.462   2.429 -1.5767 -0.3401 -0.7216
 8829SOL    HW237950   3.272   0.494   2.348  0.0682  0.3272  3.1238
 8830SOL     OW37951   3.923   3.991   8.386  0.3172 -0.5244  0.0597
 8830SOL    HW137952   3.974   4.050   8.441  1.0885 -0.1707 -1.0378
 8830SOL    HW237953   3.929   3.909   8.435 -0.3268  0.2164  1.3830
 8831SOL     OW37954   1.758   3.993   4.754  0.5221  0.8337 -0.6143
 8831SOL    HW137955   1.748   3.951   4.840 -1.3098  2.6327  0.0505
 8831SOL    HW237956   1.691   4.061   4.760  0.5677  0.9049 -0.9552
 8832SOL     OW37957   0.702   1.082   6.154  0.5762 -0.4747 -0.3245
 8832SOL    HW137958   0.703   1.093   6.249  1.9820 -0.7309 -0.3033
 8832SOL    HW237959   0.787   1.121   6.134  0.0214  1.3976  1.0140
 8833SOL     OW37960   2.281   1.866  17.285 -0.0086 -0.3777  0.2842
 8833SOL    HW137961   2.364   1.833  17.249  0.0497 -2.6850  2.5145
 8833SOL    HW237962   2.246   1.921  17.215  2.8225  0.8005 -0.2248
 8834SOL     OW37963   4.515   3.863  15.224 -0.1202 -0.0846  0.0154
 8834SOL    HW137964   4.452   3.882  15.154 -1.1324  0.8832  1.1855
 8834SOL    HW237965   4.557   3.782  15.193  0.0179  0.0838 -0.2362
 8835SOL     OW37966   3.056   0.787   8.142  0.0728 -0.5124 -0.2401
 8835SOL    HW137967   3.061   0.845   8.218  1.4199  0.8385 -1.3263
 8835SOL    HW237968   3.052   0.701   8.184 -0.6369 -0.3007  0.1249
 8836SOL     OW37969   0.739   2.672  16.340  0.7320  0.1166 -0.0120
 8836SOL    HW137970   0.800   2.600  16.322  0.2004 -0.7490  1.7091
 8836SOL    HW237971   0.792   2.748  16.315 -0.1917  1.0090  0.7354
 8837SOL     OW37972   1.046   1.707   0.155  0.2086 -0.3815 -0.0117
 8837SOL    HW137973   1.126   1.699   0.102  0.2424 -0.0022 -0.0163
 8837SOL    HW237974   0.982   1.674   0.092 -2.1433  1.0274  1.6116
 8838SOL     OW37975   2.016   2.686   6.967  0.8573  0.5706 -0.4258
 8838SOL    HW137976   2.072   2.652   6.898 -0.3964 -0.7786 -0.7919
 8838SOL    HW237977   1.970   2.755   6.920  1.6229  1.7313  0.5250
 8839SOL     OW37978   3.974   4.156   2.654 -0.0467  0.3423  0.3702
 8839SOL    HW137979   3.908   4.087   2.643  0.7433 -0.5237  1.0499
 8839SOL    HW237980   3.973   4.200   2.569  1.1590 -1.9533 -0.8298
 8840SOL     OW37981   2.792   3.964  16.670  0.3286  0.3243 -0.1240
 8840SOL    HW137982   2.746   3.993  16.592 -0.6432  1.1216  0.7361
 8840SOL    HW237983   2.741   4.005  16.741  1.4105  0.9967  0.2608
 8841SOL     OW37984   0.080   0.815   2.037  0.2406  0.1265 -0.8629
 8841SOL    HW137985   0.024   0.763   1.980 -0.7067  0.5581 -0.3244
 8841SOL    HW237986   0.114   0.873   1.969  2.1220 -1.5637 -1.3559
 8842SOL     OW37987   1.920   1.485  15.000  0.2064 -0.1231 -0.4983
 8842SOL    HW137988   1.968   1.537  14.935 -0.2655 -1.6023 -2.0252
 8842SOL    HW237989   1.908   1.400  14.957 -1.4582 -0.9362  1.6179
 8843SOL     OW37990   2.501   1.226   9.691  0.6181  0.7040 -0.3831
 8843SOL    HW137991   2.471   1.261   9.775 -2.8022 -2.3738 -0.3017
 8843SOL    HW237992   2.565   1.293   9.666  0.6349  1.4843  1.7560
 8844SOL     OW37993   3.696   4.008   4.407 -0.0768  0.1639 -0.2775
 8844SOL    HW137994   3.682   3.942   4.474 -1.8518  0.8152 -0.0036
 8844SOL    HW237995   3.792   4.011   4.402  0.1123 -3.5301  2.0640
 8845SOL     OW37996   1.294   1.764   6.432  0.8753 -0.1862 -0.1217
 8845SOL    HW137997   1.383   1.764   6.465  0.6233  2.0628  0.5545
 8845SOL    HW237998   1.303   1.744   6.339 -1.2323 -0.6197 -0.2555
 8846SOL     OW37999   4.036   1.152   6.031  0.0015  0.4994 -0.2707
 8846SOL    HW138000   3.999   1.193   6.109 -0.2570  1.5353 -0.9300
 8846SOL    HW238001   4.017   1.213   5.959 -0.2566 -0.3999 -0.9788
 8847SOL     OW38002   4.615   0.753  16.465  0.4164  0.3871 -0.0802
 8847SOL    HW138003   4.618   0.822  16.531  0.5405 -1.0617  1.4094
 8847SOL    HW238004   4.530   0.717  16.491  1.4381 -1.2880  0.9693
 8848SOL     OW38005   2.480   3.822   5.780 -0.4396 -0.2582 -0.1565
 8848SOL    HW138006   2.441   3.768   5.849 -0.8405  1.3894  0.9018
 8848SOL    HW238007   2.415   3.893   5.774 -0.5267 -0.3535 -0.3417
 8849SOL     OW38008   1.568   3.489  11.477  0.0812 -0.1021  0.3373
 8849SOL    HW138009   1.646   3.454  11.435  1.2062  2.3789  0.3484
 8849SOL    HW238010   1.577   3.456  11.566 -0.2932 -0.0018  0.4140
 8850SOL     OW38011   1.210   4.584   3.447  0.2497  0.0216 -0.2679
 8850SOL    HW138012   1.285   4.561   3.502 -0.2926  1.4021  1.0665
 8850SOL    HW238013   1.202   4.677   3.470 -0.4969  0.0668 -0.7242
 8851SOL     OW38014   1.126   0.607   9.398  0.6438 -0.2389 -0.3486
 8851SOL    HW138015   1.216   0.578   9.415  1.1335 -0.0473 -2.5289
 8851SOL    HW238016   1.085   0.602   9.484  2.6557  1.8347  0.7488
 8852SOL     OW38017   1.426   2.485   6.442 -0.0606 -0.4335  0.7808
 8852SOL    HW138018   1.363   2.416   6.460  0.4716 -0.8704  0.9635
 8852SOL    HW238019   1.393   2.518   6.358 -0.1309  0.5511  1.1987
 8853SOL     OW38020   0.845   4.363   0.300  0.6384 -0.0828  0.0797
 8853SOL    HW138021   0.805   4.379   0.215  0.7689  1.0625  0.2308
 8853SOL    HW238022   0.766   4.372   0.354  0.7428 -0.1782  0.2472
 8854SOL     OW38023   0.129   2.725   2.281 -0.2417  0.5595 -0.0080
 8854SOL    HW138024   0.115   2.785   2.208  0.8445  1.4497  0.5179
 8854SOL    HW238025   0.218   2.748   2.308 -0.4087  1.4714 -0.2394
 8855SOL     OW38026   4.162   0.252  17.193 -0.1957 -0.3605  0.1532
 8855SOL    HW138027   4.194   0.296  17.272 -0.9622 -1.8630  1.3116
 8855SOL    HW238028   4.084   0.207  17.228 -1.0558  1.3997  0.4911
 8856SOL     OW38029   1.280   4.600   7.043 -0.2933  0.2118  0.0909
 8856SOL    HW138030   1.210   4.591   7.108  1.1029  0.0704  1.5911
 8856SOL    HW238031   1.338   4.666   7.082 -0.5760  0.6810 -0.2985
 8857SOL     OW38032   0.209   1.877  17.550 -0.2736  0.3665  0.4099
 8857SOL    HW138033   0.120   1.878  17.585 -0.2828  1.0610  0.3630
 8857SOL    HW238034   0.245   1.810  17.607 -1.5246 -0.2639  0.4563
 8858SOL     OW38035   1.895   2.100   6.863  0.0410 -0.6963 -0.2240
 8858SOL    HW138036   1.863   2.173   6.810  0.3625 -0.3185  0.0963
 8858SOL    HW238037   1.912   2.045   6.786 -0.3833  0.1250 -0.9127
 8859SOL     OW38038   1.164   1.238   4.067  0.2710  0.5267 -0.1457
 8859SOL    HW138039   1.112   1.253   3.988  1.9144  0.2774 -1.2883
 8859SOL    HW238040   1.170   1.143   4.057  2.0142  0.5884  0.1598
 8860SOL     OW38041   4.016   4.047  12.302 -0.2261 -0.0265  0.7854
 8860SOL    HW138042   4.012   4.105  12.378 -1.7542  0.4872  0.3142
 8860SOL    HW238043   3.927   4.010  12.299  0.0082 -0.3920 -1.3667
 8861SOL     OW38044   1.452   3.056   8.053 -0.4288  0.8328 -0.8095
 8861SOL    HW138045   1.489   3.096   8.132  0.0455  0.7849 -1.0070
 8861SOL    HW238046   1.515   3.088   7.989  0.4425 -1.4809 -1.1123
 8862SOL     OW38047   2.175   2.436   6.595 -0.2887 -0.2386 -0.3085
 8862SOL    HW138048   2.105   2.376   6.571 -0.6527  0.2395 -0.4506
 8862SOL    HW238049   2.231   2.434   6.517  0.6598 -1.9079  0.4047
 8863SOL     OW38050   0.725   1.601   3.743  0.2283 -0.5179 -0.0853
 8863SOL    HW138051   0.782   1.592   3.667  0.8498  1.6714  0.1347
 8863SOL    HW238052   0.765   1.680   3.779 -0.9838  0.9343 -1.8655
 8864SOL     OW38053   1.021   4.119   0.293  0.1011 -0.3001  0.1927
 8864SOL    HW138054   0.986   4.208   0.290  0.6436 -0.1007 -0.1095
 8864SOL    HW238055   1.111   4.125   0.261  0.1278 -0.8971  0.1602
 8865SOL     OW38056   0.455   0.371   3.500 -0.2826  0.3582 -0.0194
 8865SOL    HW138057   0.477   0.333   3.415 -1.0666  1.5075 -0.7450
 8865SOL    HW238058   0.512   0.321   3.558 -1.9709  2.3945  3.3836
 8866SOL     OW38059   1.996   4.438   8.063 -0.4367 -0.3519 -0.1354
 8866SOL    HW138060   1.962   4.439   8.152  2.2179 -0.1448  0.8647
 8866SOL    HW238061   2.002   4.530   8.036 -0.4627  0.3850  2.4249
 8867SOL     OW38062   1.078   4.364   2.604 -0.2376  0.3364 -0.1653
 8867SOL    HW138063   1.016   4.309   2.651  0.7454  1.5187  2.5638
 8867SOL    HW238064   1.146   4.305   2.572  1.3373  1.1613  1.6340
 8868SOL     OW38065   3.182   0.375   4.949 -0.0920 -0.1384 -0.5995
 8868SOL    HW138066   3.096   0.406   4.921 -0.5145  1.0661  1.9973
 8868SOL    HW238067   3.204   0.425   5.028 -2.3687  1.0132 -0.7132
 8869SOL     OW38068   1.157   1.669   4.498  0.2006 -0.3756 -0.0980
 8869SOL    HW138069   1.252   1.680   4.508  0.2339 -1.3921  0.7134
 8869SOL    HW238070   1.136   1.735   4.433 -0.7858 -1.5280 -0.9532
 8870SOL     OW38071   3.472   3.221  12.108 -0.2270  0.1998  0.0908
 8870SOL    HW138072   3.418   3.229  12.029 -0.0862  1.8431  0.1486
 8870SOL    HW238073   3.425   3.278  12.169  0.4468  1.1487 -0.2691
 8871SOL     OW38074   0.723   4.718  13.544  0.0735 -0.5384 -0.7660
 8871SOL    HW138075   0.632   0.007  13.518 -0.1701 -0.3941  0.1332
 8871SOL    HW238076   0.712   4.643  13.604  2.2324  0.8364  1.3374
 8872SOL     OW38077   3.412   3.854  11.888 -0.2595 -0.4669 -0.5959
 8872SOL    HW138078   3.337   3.797  11.870 -0.1589 -1.3399  1.7472
 8872SOL    HW238079   3.435   3.890  11.802  1.2707 -2.8252 -1.1648
 8873SOL     OW38080   1.658   1.048   9.496  0.2658 -0.0742  0.1606
 8873SOL    HW138081   1.733   1.028   9.439 -0.8636  0.6668 -1.5566
 8873SOL    HW238082   1.687   1.050   9.587  1.3810  0.0876 -0.1976
 8874SOL     OW38083   4.487   2.350  11.638  0.8190 -0.1540  0.0490
 8874SOL    HW138084   4.450   2.266  11.611  1.4716 -1.5934  3.5861
 8874SOL    HW238085   4.542   2.370  11.562  1.4852  1.4579  0.9452
 8875SOL     OW38086   2.558   3.729   7.425 -0.2165  0.4324  0.0097
 8875SOL    HW138087   2.519   3.793   7.485  0.5218  0.7890  0.0991
 8875SOL    HW238088   2.503   3.651   7.432 -1.2626  1.1365 -0.3082
 8876SOL     OW38089   4.466   3.342   3.024 -0.3389 -0.4544  0.0719
 8876SOL    HW138090   4.459   3.438   3.021  0.5482 -0.3451  2.0275
 8876SOL    HW238091   4.386   3.299   3.056  0.9004 -1.8589  1.2548
 8877SOL     OW38092   1.842   4.598   5.346 -0.1089 -0.2238 -0.4344
 8877SOL    HW138093   1.770   4.571   5.289 -0.6195  0.2158 -0.0023
 8877SOL    HW238094   1.797   4.647   5.415 -0.4603 -0.1753 -0.6978
 8878SOL     OW38095   0.062   4.715   6.027 -0.5657 -0.1598 -0.4612
 8878SOL    HW138096   0.135   4.695   6.086 -0.2417 -1.5181 -1.3237
 8878SOL    HW238097   0.026   4.631   5.997  1.2472 -1.9079  2.2444
 8879SOL     OW38098   4.321   2.636  15.419 -0.3292 -0.7360  0.1483
 8879SOL    HW138099   4.286   2.547  15.425  0.8934 -1.0069  3.4336
 8879SOL    HW238100   4.358   2.638  15.507 -0.3884 -0.1640  0.1597
 8880SOL     OW38101   0.603   1.017   2.133 -0.1586 -0.2788  0.8200
 8880SOL    HW138102   0.611   1.096   2.186 -1.1711  0.2440  0.2121
 8880SOL    HW238103   0.667   0.964   2.180 -0.1609 -1.0387 -0.0463
 8881SOL     OW38104   0.939   3.446   4.261 -0.4032  0.6295 -0.0648
 8881SOL    HW138105   0.996   3.487   4.195 -0.1220  2.4266  1.3109
 8881SOL    HW238106   0.888   3.518   4.298 -1.9149  0.4744 -1.8314
 8882SOL     OW38107   0.504   4.357   7.333  0.6274 -0.0396  0.0687
 8882SOL    HW138108   0.579   4.340   7.390  0.9153 -0.1481 -0.3392
 8882SOL    HW238109   0.532   4.419   7.265  0.3691 -0.2701 -0.2439
 8883SOL     OW38110   2.514   0.454   4.193 -0.4722  0.4379  0.1430
 8883SOL    HW138111   2.458   0.512   4.245  0.4924  2.4790 -1.0502
 8883SOL    HW238112   2.462   0.426   4.118  1.5460 -2.1889 -0.2864
 8884SOL     OW38113   3.354   1.204  12.986  0.4098  0.0396  0.8824
 8884SOL    HW138114   3.318   1.206  12.897 -1.8493  4.0825  1.9246
 8884SOL    HW238115   3.448   1.200  12.972 -0.0289 -3.9257 -1.1057
 8885SOL     OW38116   1.564   1.739   6.463  0.2666  0.0008  0.7630
 8885SOL    HW138117   1.560   1.805   6.532 -0.2425 -0.4913  1.2026
 8885SOL    HW238118   1.637   1.774   6.413  0.5281 -1.2709  0.2589
 8886SOL     OW38119   1.124   2.958  15.300 -0.1069  0.4390  0.1301
 8886SOL    HW138120   1.142   2.866  15.282  1.0656  0.8854 -1.0148
 8886SOL    HW238121   1.207   2.996  15.330  0.2430 -0.5983  0.5019
 8887SOL     OW38122   3.073   3.612  10.886 -0.2426 -0.5401 -0.1549
 8887SOL    HW138123   3.027   3.694  10.904  1.1537  0.0222  0.8464
 8887SOL    HW238124   3.122   3.632  10.806  0.0733 -0.8841 -0.0461
 8888SOL     OW38125   4.532   1.534   5.077 -0.6522 -0.0401  0.7269
 8888SOL    HW138126   4.581   1.580   5.008 -0.6285  1.0219  1.4530
 8888SOL    HW238127   4.485   1.607   5.117  0.2425  1.2994 -0.6528
 8889SOL     OW38128   1.497   2.277  14.743  0.0929 -0.2867  0.3493
 8889SOL    HW138129   1.493   2.182  14.731  1.2670 -0.5851  2.4875
 8889SOL    HW238130   1.528   2.293  14.832 -0.8297 -0.9597  0.7920
 8890SOL     OW38131   2.089   0.033  10.477  0.5619 -0.1767  0.7241
 8890SOL    HW138132   2.101   0.127  10.490 -2.9635  0.4581 -0.7381
 8890SOL    HW238133   2.148   0.001  10.546  2.6191  0.9923 -0.4744
 8891SOL     OW38134   0.940   3.822   6.983 -0.5839 -0.1602 -0.0424
 8891SOL    HW138135   0.882   3.898   6.978  0.8678  0.7875 -2.8781
 8891SOL    HW238136   1.021   3.852   6.941  0.7266 -1.7927  1.2869
 8892SOL     OW38137   0.781   4.015   9.133 -0.0298  0.5335 -0.1399
 8892SOL    HW138138   0.797   4.012   9.038  3.3710  0.3591  0.4284
 8892SOL    HW238139   0.686   4.004   9.135  0.3675 -2.2502  3.5535
 8893SOL     OW38140   4.041   4.703  16.931  0.6218  0.0885  0.3186
 8893SOL    HW138141   4.042   4.618  16.889  1.5013  0.4287 -0.3405
 8893SOL    HW238142   4.058   0.029  16.851 -0.0040  0.9430  0.7104
 8894SOL     OW38143   1.191   2.431   4.840 -0.3262 -0.0114  0.1150
 8894SOL    HW138144   1.268   2.375   4.849 -0.5997 -0.5053 -0.5930
 8894SOL    HW238145   1.145   2.385   4.769  0.1180  0.9107 -0.7652
 8895SOL     OW38146   2.322   2.349   3.510  0.0141 -0.8251 -0.0213
 8895SOL    HW138147   2.374   2.301   3.446  0.1210 -1.0868  0.2635
 8895SOL    HW238148   2.363   2.319   3.590 -0.9057  1.4133  1.3134
 8896SOL     OW38149   0.287   4.235  14.122 -0.7359  0.2552  0.7555
 8896SOL    HW138150   0.351   4.252  14.053  1.1278 -0.5537  2.3102
 8896SOL    HW238151   0.309   4.298  14.191  1.9476  0.2610 -0.1339
 8897SOL     OW38152   3.518   4.024   8.690 -0.4772  0.3889 -0.4963
 8897SOL    HW138153   3.448   3.984   8.639  0.5192 -1.9691  0.0185
 8897SOL    HW238154   3.570   3.947   8.712 -0.1069  0.6107 -0.6027
 8898SOL     OW38155   3.879   3.903   5.405  0.0051 -0.2539  0.0958
 8898SOL    HW138156   3.809   3.854   5.450  0.6197 -1.9344 -0.7692
 8898SOL    HW238157   3.832   3.921   5.324  2.0003 -4.1200 -1.8816
 8899SOL     OW38158   0.232   2.342   5.780 -0.2902  0.4719  0.5007
 8899SOL    HW138159   0.245   2.290   5.700  1.4772 -1.9692  2.3449
 8899SOL    HW238160   0.208   2.273   5.842  0.3816 -0.0988  0.1401
 8900SOL     OW38161   3.534   1.325  10.834 -0.1833  0.1606 -0.3899
 8900SOL    HW138162   3.579   1.269  10.897 -0.9569  1.3457  1.2323
 8900SOL    HW238163   3.537   1.276  10.752  0.3175  0.2024 -0.3964
 8901SOL     OW38164   3.989   2.718   0.779  0.3640  0.4688  0.3051
 8901SOL    HW138165   3.903   2.676   0.788  0.3171  0.4554 -0.2196
 8901SOL    HW238166   3.976   2.800   0.827  0.3221  0.9605 -0.5585
 8902SOL     OW38167   2.696   0.328   7.095  0.0250  0.1105 -0.5655
 8902SOL    HW138168   2.729   0.342   7.184 -0.2872  1.0110 -0.5933
 8902SOL    HW238169   2.773   0.339   7.039 -1.4506  1.0646 -2.4054
 8903SOL     OW38170   1.273   3.341   7.820 -0.0556  0.6801  0.1659
 8903SOL    HW138171   1.285   3.435   7.833  2.0163  0.3521  0.7118
 8903SOL    HW238172   1.361   3.320   7.789 -0.6857 -0.7400 -0.6355
 8904SOL     OW38173   0.738   3.332   3.093 -0.2215 -0.0828 -0.8225
 8904SOL    HW138174   0.685   3.402   3.131  1.0525  0.5739 -0.2648
 8904SOL    HW238175   0.825   3.373   3.093  0.0781 -0.7110 -2.6697
 8905SOL     OW38176   1.098   3.610   7.473 -0.2890 -0.2374  0.2435
 8905SOL    HW138177   1.087   3.695   7.430  3.6399  0.8722  1.4323
 8905SOL    HW238178   1.174   3.570   7.431  0.1327 -0.8627  1.5997
 8906SOL     OW38179   4.182   3.553   6.704  1.0015  0.2666  0.4064
 8906SOL    HW138180   4.273   3.566   6.728  0.6477  1.5801  1.0571
 8906SOL    HW238181   4.187   3.567   6.610  3.7137  0.8721  0.6599
 8907SOL     OW38182   0.216   4.563   2.795  0.7581 -0.1628  0.0182
 8907SOL    HW138183   0.290   4.534   2.741  0.9608 -0.8380  0.6471
 8907SOL    HW238184   0.213   4.657   2.777  1.6557 -0.1473 -0.0399
 8908SOL     OW38185   2.929   0.963  13.023 -0.2601  0.4316  0.2895
 8908SOL    HW138186   2.898   0.935  12.937 -0.0407  4.3896 -1.0913
 8908SOL    HW238187   2.888   0.891  13.070 -0.4331  0.1843 -0.2408
 8909SOL     OW38188   0.126   0.703   6.881 -0.0555  0.2569 -0.2218
 8909SOL    HW138189   0.043   0.692   6.833 -0.3637 -0.2306  0.4268
 8909SOL    HW238190   0.094   0.657   6.958  1.3572  1.5522  1.1262
 8910SOL     OW38191   3.533   0.041  15.600 -0.6487 -0.4972 -0.2241
 8910SOL    HW138192   3.561   0.051  15.510 -1.0564  0.3765 -0.2619
 8910SOL    HW238193   3.566   4.675  15.599  1.7005  0.4309 -2.9846
 8911SOL     OW38194   3.822   4.507   2.538 -0.0875 -0.5298 -0.2271
 8911SOL    HW138195   3.789   4.505   2.449  0.1730 -1.6829 -0.3003
 8911SOL    HW238196   3.774   4.430   2.570  0.4957  0.0715  2.1238
 8912SOL     OW38197   1.087   0.002   9.552  0.3392  0.2796 -0.3373
 8912SOL    HW138198   1.115   0.020   9.642  4.5517  0.9545 -1.7634
 8912SOL    HW238199   1.009   0.057   9.553  1.8204  2.3228  1.4287
 8913SOL     OW38200   2.724   0.945  10.014 -0.5268 -0.6695 -0.2914
 8913SOL    HW138201   2.738   1.035   9.985  0.7526 -0.3961  1.1478
 8913SOL    HW238202   2.655   0.921   9.953 -0.4171 -1.4014 -0.1374
 8914SOL     OW38203   0.748   1.566   5.023  0.6903 -0.4163  0.0030
 8914SOL    HW138204   0.685   1.544   5.091  0.8321  0.7501  0.5183
 8914SOL    HW238205   0.804   1.488   5.022 -1.1291 -1.7260 -0.3104
 8915SOL     OW38206   1.441   0.199   2.417 -0.1544 -0.2341  0.2143
 8915SOL    HW138207   1.498   0.259   2.368  1.1241 -2.4609 -1.0041
 8915SOL    HW238208   1.484   0.114   2.413 -0.2694 -0.3430  1.3403
 8916SOL     OW38209   4.142   2.877   4.043 -0.0276  0.2002  0.3863
 8916SOL    HW138210   4.114   2.930   4.117  2.8370  1.7290  0.3532
 8916SOL    HW238211   4.106   2.796   4.080 -0.2484  1.0357  1.9865
 8917SOL     OW38212   0.561   3.392  14.284 -0.0252 -0.1095  0.0817
 8917SOL    HW138213   0.619   3.431  14.350 -0.0346 -1.4856  0.9013
 8917SOL    HW238214   0.617   3.324  14.247 -2.7993 -3.8148  2.6093
 8918SOL     OW38215   1.392   4.525   5.538  0.6004 -0.0036  0.2928
 8918SOL    HW138216   1.398   4.490   5.627 -1.9241  2.2610  1.3434
 8918SOL    HW238217   1.316   4.581   5.552 -0.8412 -1.3664 -1.8456
 8919SOL     OW38218   2.359   0.538   4.434  0.1940 -0.5513  0.0081
 8919SOL    HW138219   2.345   0.627   4.465 -1.0643 -1.2777  1.4954
 8919SOL    HW238220   2.405   0.506   4.512 -0.8326 -2.5528 -0.2006
 8920SOL     OW38221   3.602   1.338   9.092 -0.3842  0.3569  0.1189
 8920SOL    HW138222   3.556   1.265   9.134  0.7109 -0.9029 -0.8633
 8920SOL    HW238223   3.602   1.398   9.167  2.4346 -2.1528  2.1112
 8921SOL     OW38224   2.163   3.417  11.974  0.4259  0.4519  0.3684
 8921SOL    HW138225   2.185   3.434  11.882 -1.7619  0.2496 -0.1760
 8921SOL    HW238226   2.166   3.322  11.969 -2.2386  0.3832  0.3331
 8922SOL     OW38227   0.875   1.486  14.187 -0.2601  0.2908  0.2961
 8922SOL    HW138228   0.823   1.428  14.131 -0.1362  0.4013  0.0665
 8922SOL    HW238229   0.954   1.434  14.205 -1.3293 -0.9855  1.2559
 8923SOL     OW38230   1.550   4.155   0.256 -0.2266  0.1705 -0.2163
 8923SOL    HW138231   1.489   4.227   0.272  1.7357  2.3880 -2.7449
 8923SOL    HW238232   1.618   4.188   0.198 -1.3506  0.4751 -1.3501
 8924SOL     OW38233   2.082   3.621  15.561 -0.2386  0.4925  0.3086
 8924SOL    HW138234   2.126   3.655  15.483 -0.1165 -1.7671 -0.6127
 8924SOL    HW238235   1.998   3.666  15.555  1.0235  2.7211 -0.8513
 8925SOL     OW38236   0.066   2.548   7.606 -0.1107  0.5771 -0.5106
 8925SOL    HW138237   4.699   2.522   7.620  0.5637  0.2312  3.1390
 8925SOL    HW238238   0.083   2.604   7.681  0.3647 -1.5511  0.9630
 8926SOL     OW38239   2.526   2.697   3.147  0.1013  0.2187  0.4461
 8926SOL    HW138240   2.511   2.640   3.222 -1.5220  0.7748  0.5565
 8926SOL    HW238241   2.620   2.692   3.134 -0.2211 -1.5015 -1.0512
 8927SOL     OW38242   1.034   1.786   5.678 -0.5494  0.5853  0.9146
 8927SOL    HW138243   1.123   1.784   5.643 -1.2801 -0.7738 -0.8513
 8927SOL    HW238244   1.022   1.872   5.717  0.8388  1.2430 -0.1065
 8928SOL     OW38245   0.355   3.630  17.484 -0.4360  0.3092  0.0346
 8928SOL    HW138246   0.355   3.659  17.393 -2.9440  0.4164  0.0705
 8928SOL    HW238247   0.321   3.704  17.534 -1.0638  0.4252 -0.5498
 8929SOL     OW38248   4.215   4.183   8.962 -0.3129  0.0685 -0.2150
 8929SOL    HW138249   4.127   4.219   8.974 -0.3266 -0.0553  0.0721
 8929SOL    HW238250   4.212   4.176   8.867  2.7686 -3.5142 -0.0266
 8930SOL     OW38251   0.579   0.157  12.291  0.2851  0.3111 -0.2632
 8930SOL    HW138252   0.493   0.186  12.321  1.0643  1.1183  1.1601
 8930SOL    HW238253   0.548   0.139  12.202 -0.5643 -0.8017  0.2572
 8931SOL     OW38254   4.650   1.639  12.988 -0.0824 -0.3473 -0.3733
 8931SOL    HW138255   4.720   1.679  12.935 -0.7408  1.7733  0.3660
 8931SOL    HW238256   4.660   1.691  13.067 -1.5625  0.6682 -0.8585
 8932SOL     OW38257   2.936   0.333   6.989  0.1259  0.2129 -0.7452
 8932SOL    HW138258   3.003   0.299   6.929 -1.8898 -1.2873 -2.1191
 8932SOL    HW238259   2.988   0.350   7.068  0.5634 -1.6199 -0.6447
 8933SOL     OW38260   2.631   4.257   6.196 -0.0951  0.1262 -0.1505
 8933SOL    HW138261   2.707   4.205   6.221  1.0799  0.6543 -2.6860
 8933SOL    HW238262   2.599   4.208   6.121 -0.9223 -0.4085  0.5596
 8934SOL     OW38263   1.943   4.575   0.826  0.3274  0.4312  0.5395
 8934SOL    HW138264   1.944   4.573   0.731  1.0836  2.2560  0.5046
 8934SOL    HW238265   1.919   4.485   0.849  0.3103  0.3579  0.2318
 8935SOL     OW38266   3.906   0.376   8.750 -0.2094  0.8410 -0.1595
 8935SOL    HW138267   3.811   0.363   8.749 -0.1368  0.3483 -0.2592
 8935SOL    HW238268   3.927   0.306   8.812 -1.4167 -0.4817 -1.2654
 8936SOL     OW38269   3.594   0.261   4.694 -0.1023  0.4786 -0.1576
 8936SOL    HW138270   3.665   0.197   4.696 -0.6038  0.0067  1.9028
 8936SOL    HW238271   3.573   0.264   4.600 -1.0658 -0.9926  0.0220
 8937SOL     OW38272   4.380   1.063  12.833 -0.1943  0.0131 -0.0518
 8937SOL    HW138273   4.297   1.099  12.802 -0.4662  0.2436  0.9414
 8937SOL    HW238274   4.420   1.032  12.752 -1.7005 -0.3147 -0.6796
 8938SOL     OW38275   4.321   4.035   0.345  0.0390 -0.1450 -0.2102
 8938SOL    HW138276   4.280   3.956   0.309 -1.1221  0.7213 -0.7603
 8938SOL    HW238277   4.328   4.101   0.276 -2.1392  0.6777  0.3682
 8939SOL     OW38278   3.055   3.424   5.113  0.1969  0.1750 -0.0336
 8939SOL    HW138279   3.021   3.354   5.167 -0.5102 -0.7425 -1.6766
 8939SOL    HW238280   3.148   3.403   5.124  0.0382  0.5172  1.9685
 8940SOL     OW38281   1.290   1.753   5.617  0.5536  0.0852 -0.4400
 8940SOL    HW138282   1.277   1.704   5.536 -0.9973  2.2833 -1.5254
 8940SOL    HW238283   1.351   1.693   5.661 -0.2571  1.0273  2.0105
 8941SOL     OW38284   3.480   1.054  17.606 -0.0023  0.7887 -0.6149
 8941SOL    HW138285   3.562   1.004  17.606  0.1800  1.1103  1.7022
 8941SOL    HW238286   3.439   1.040  17.521 -1.7737 -0.1672  0.3990
 8942SOL     OW38287   1.570   4.579   8.589 -0.5316  0.3013 -0.2399
 8942SOL    HW138288   1.584   4.634   8.666 -2.2333  1.3840 -0.6956
 8942SOL    HW238289   1.487   4.539   8.615 -0.4959  0.8705  0.7361
 8943SOL     OW38290   0.594   2.919  17.156  0.3232  0.1359 -0.2180
 8943SOL    HW138291   0.635   2.834  17.143  2.0265  1.0819 -0.9424
 8943SOL    HW238292   0.618   2.938  17.247 -1.6032  1.9339 -0.0825
 8944SOL     OW38293   2.989   1.328  10.183 -0.2823  0.5190 -0.1671
 8944SOL    HW138294   3.013   1.307  10.093  2.4786  1.3671  0.3650
 8944SOL    HW238295   3.026   1.250  10.225  2.0881  2.1460  0.7528
 8945SOL     OW38296   3.898   1.520   8.797  0.1719  0.6812  0.4911
 8945SOL    HW138297   3.953   1.597   8.787  2.4252 -1.1055 -0.8486
 8945SOL    HW238298   3.959   1.450   8.774 -0.7759  0.2491 -0.7067
 8946SOL     OW38299   0.770   2.601   6.968  0.0133 -0.0156  0.2748
 8946SOL    HW138300   0.809   2.554   7.042 -0.4670  0.3976  0.7888
 8946SOL    HW238301   0.678   2.575   6.966  0.2701 -0.7988 -1.1083
 8947SOL     OW38302   1.091   2.767  16.170  0.2757 -0.2290  0.4621
 8947SOL    HW138303   1.088   2.819  16.090 -1.2507 -1.1727 -0.0988
 8947SOL    HW238304   1.097   2.679  16.132  1.1207 -0.5831  1.4087
 8948SOL     OW38305   4.368   0.334   1.939 -0.1379  0.2491 -0.1095
 8948SOL    HW138306   4.293   0.276   1.928  1.1050 -1.8490  2.2147
 8948SOL    HW238307   4.424   0.294   1.873  0.5767 -0.1275  0.7195
 8949SOL     OW38308   3.064   1.682   9.993 -0.1854 -0.1378  0.6344
 8949SOL    HW138309   3.057   1.720  10.080 -1.1066  0.1180  0.4438
 8949SOL    HW238310   3.156   1.656   9.985 -0.0671 -0.1294  1.9857
 8950SOL     OW38311   4.562   4.010  14.162 -0.4158 -0.5650  0.1615
 8950SOL    HW138312   4.590   4.065  14.235  4.2796  1.9098 -3.4894
 8950SOL    HW238313   4.625   3.938  14.160  0.1343 -0.0935  0.4213
 8951SOL     OW38314   3.960   1.758   4.095  0.0240  0.3164  0.1333
 8951SOL    HW138315   4.019   1.832   4.078 -1.5129  1.3534 -0.7065
 8951SOL    HW238316   3.875   1.801   4.089  0.0628  0.2703 -0.8582
 8952SOL     OW38317   3.238   0.907   3.962  0.1865 -0.1705 -0.3494
 8952SOL    HW138318   3.273   0.990   3.994 -2.0414 -0.2500  2.2640
 8952SOL    HW238319   3.307   0.842   3.972 -0.0313 -0.0820  1.7083
 8953SOL     OW38320   2.840   2.978  17.406  0.4136  0.1917 -0.4582
 8953SOL    HW138321   2.924   3.011  17.374  0.0297  1.5844 -0.0547
 8953SOL    HW238322   2.771   3.024  17.358 -0.4780 -0.8251 -0.1298
 8954SOL     OW38323   3.137   3.201  12.848 -0.4179  0.2531 -0.2573
 8954SOL    HW138324   3.056   3.165  12.883  0.0011  0.1566  0.6138
 8954SOL    HW238325   3.204   3.152  12.896 -1.4921  0.2786  1.2722
 8955SOL     OW38326   1.371   0.957  11.338  0.1293  0.2025 -0.6182
 8955SOL    HW138327   1.318   0.879  11.319  0.5743 -0.5370  1.2445
 8955SOL    HW238328   1.449   0.950  11.283  2.0641 -1.5258  2.3987
 8956SOL     OW38329   2.764   1.168   9.236  0.1968  0.1680 -0.1968
 8956SOL    HW138330   2.772   1.176   9.141  2.2867 -0.7281 -0.0837
 8956SOL    HW238331   2.684   1.219   9.248  0.7382  0.6904  1.1203
 8957SOL     OW38332   2.214   1.494  14.187  0.5284 -0.2347  0.4627
 8957SOL    HW138333   2.188   1.406  14.162 -2.4598  1.7935 -3.6564
 8957SOL    HW238334   2.171   1.497  14.272 -0.4931 -2.0918  0.0025
 8958SOL     OW38335   4.219   0.459   3.043  0.2782 -0.1686  0.4844
 8958SOL    HW138336   4.268   0.477   2.962 -0.7994 -1.9942 -0.5843
 8958SOL    HW238337   4.285   0.480   3.109  1.0478 -0.2376 -0.2520
 8959SOL     OW38338   2.982   1.518   7.649 -0.4379  0.4290  0.3614
 8959SOL    HW138339   2.893   1.490   7.668 -0.1500 -0.0454  1.0100
 8959SOL    HW238340   2.971   1.613   7.641  0.2248  0.6014  1.4206
 8960SOL     OW38341   1.133   1.493   0.506  0.5944  0.2992 -0.1385
 8960SOL    HW138342   1.181   1.424   0.460 -0.6966 -0.4045 -0.4237
 8960SOL    HW238343   1.121   1.468   0.598  3.0607  0.0245  0.1144
 8961SOL     OW38344   3.170   0.799   1.990 -0.6372  0.1469  0.2036
 8961SOL    HW138345   3.210   0.847   1.918 -1.1622  1.9719  1.1224
 8961SOL    HW238346   3.243   0.740   2.011 -0.8392  0.5260  1.9523
 8962SOL     OW38347   4.124   1.773   7.382  0.4978  0.0361  0.0938
 8962SOL    HW138348   4.160   1.721   7.311  0.4513 -0.4149  0.4029
 8962SOL    HW238349   4.041   1.728   7.397  1.3539 -1.2402  1.0126
 8963SOL     OW38350   3.017   2.255   5.998 -0.1444 -0.7007 -0.0656
 8963SOL    HW138351   2.933   2.299   5.999 -1.2183 -2.7391  0.4718
 8963SOL    HW238352   3.010   2.200   6.077 -1.0615  0.7474  0.8598
 8964SOL     OW38353   2.124   4.435   4.358 -0.3893 -0.3671  0.3636
 8964SOL    HW138354   2.102   4.528   4.351 -0.9156 -0.5230 -0.1151
 8964SOL    HW238355   2.067   4.398   4.425  0.8139 -2.3122  0.3322
 8965SOL     OW38356   2.732   2.125   5.351  0.5125 -0.4467  0.1120
 8965SOL    HW138357   2.738   2.116   5.446 -0.3354 -1.9406  0.0262
 8965SOL    HW238358   2.816   2.162   5.326 -0.2405  1.0253 -0.2746
 8966SOL     OW38359   2.569   3.743   3.869  0.2228 -0.6443 -0.1151
 8966SOL    HW138360   2.482   3.703   3.881 -0.4652  0.9300  0.1378
 8966SOL    HW238361   2.574   3.787   3.953  1.5872  1.1949 -1.1702
 8967SOL     OW38362   1.465   2.326   9.007 -0.0889  0.0972 -0.2433
 8967SOL    HW138363   1.544   2.292   8.966 -0.7002 -0.5429 -0.8774
 8967SOL    HW238364   1.403   2.254   8.997  0.4154 -0.5107  0.9798
 8968SOL     OW38365   2.335   1.661   5.884  0.4804 -0.4360  0.7788
 8968SOL    HW138366   2.350   1.645   5.791 -1.4974  1.6086  0.1209
 8968SOL    HW238367   2.249   1.619   5.888 -0.0046  0.9206  4.6845
 8969SOL     OW38368   2.323   3.844  14.323  0.3598  0.0588  0.6037
 8969SOL    HW138369   2.415   3.850  14.347  1.3813 -2.2716 -2.6692
 8969SOL    HW238370   2.301   3.757  14.358 -2.7025  0.5898  0.0455
 8970SOL     OW38371   3.284   1.708  11.386 -0.0680  0.3423  0.4250
 8970SOL    HW138372   3.222   1.766  11.341 -1.6194 -1.2029  0.5449
 8970SOL    HW238373   3.292   1.642  11.317  0.2430 -0.2204  0.9967
 8971SOL     OW38374   2.944   1.595   9.768  0.0957  0.0472 -0.3610
 8971SOL    HW138375   2.909   1.683   9.753 -1.8329 -0.3734  1.4757
 8971SOL    HW238376   3.006   1.616   9.837 -0.2706 -2.8365  0.8560
 8972SOL     OW38377   1.391   3.348   3.345 -0.0956 -0.5835  0.0235
 8972SOL    HW138378   1.400   3.408   3.419 -0.9932 -0.5102  0.0685
 8972SOL    HW238379   1.353   3.270   3.386  1.1762 -1.8864 -1.2654
 8973SOL     OW38380   3.105   4.156   7.462  0.0128 -0.1483  0.9389
 8973SOL    HW138381   3.139   4.139   7.550 -0.2521  2.3167  1.5095
 8973SOL    HW238382   3.164   4.111   7.401 -1.8101 -1.5132  0.1989
 8974SOL     OW38383   1.437   3.369  13.756  0.5641  0.1595 -0.2999
 8974SOL    HW138384   1.520   3.414  13.768  1.0504 -0.9050  0.3661
 8974SOL    HW238385   1.443   3.347  13.663 -0.8547  1.4227 -0.6760
 8975SOL     OW38386   1.399   4.665  17.267 -0.1651  0.1918  0.6752
 8975SOL    HW138387   1.438   4.705  17.346  0.5018 -0.9134  0.9040
 8975SOL    HW238388   1.357   4.592  17.312  3.5093 -1.7899  0.8835
 8976SOL     OW38389   3.930   3.581   1.961 -0.0533 -0.5395 -0.4645
 8976SOL    HW138390   3.940   3.546   1.873  1.3049  0.0791 -0.5576
 8976SOL    HW238391   4.000   3.647   1.965 -2.4248  1.9233  0.4150
 8977SOL     OW38392   0.641   3.992  10.089  0.1756  0.9055 -0.1271
 8977SOL    HW138393   0.732   3.969  10.072 -0.1658 -0.9877  0.6325
 8977SOL    HW238394   0.649   4.087  10.098  0.4621  0.6347  2.3872
 8978SOL     OW38395   2.989   1.199   5.625  0.3161  0.2813  0.3340
 8978SOL    HW138396   3.063   1.226   5.570 -0.1490 -1.0402 -0.9523
 8978SOL    HW238397   3.030   1.158   5.701  0.5139  0.3603  0.2696
 8979SOL     OW38398   0.952   2.715   5.760  0.7767  0.1582 -0.1152
 8979SOL    HW138399   0.998   2.699   5.678  0.2671  0.9392 -0.5564
 8979SOL    HW238400   1.029   2.695   5.813  3.0692  0.8977 -3.2057
 8980SOL     OW38401   4.291   3.701   9.224  0.1128 -0.5751  0.5621
 8980SOL    HW138402   4.361   3.753   9.265 -1.6501  2.1726  0.0543
 8980SOL    HW238403   4.320   3.609   9.227  0.0690 -0.5473  1.7935
 8981SOL     OW38404   2.704   1.138  13.010  0.5525 -0.1610  0.5682
 8981SOL    HW138405   2.683   1.135  13.104 -1.6123  0.7558  0.1278
 8981SOL    HW238406   2.789   1.094  13.010  1.4720  1.6225 -2.6774
 8982SOL     OW38407   0.359   3.783  12.091  0.1718 -0.4220  0.1935
 8982SOL    HW138408   0.289   3.832  12.132  1.0108  0.4568  0.5635
 8982SOL    HW238409   0.308   3.717  12.043 -0.4684  1.5974 -1.9156
 8983SOL     OW38410   4.580   0.101   6.875 -0.0794 -0.0857 -0.0804
 8983SOL    HW138411   4.576   0.149   6.793  0.2867 -0.7734 -0.5010
 8983SOL    HW238412   4.523   0.026   6.857  0.4761 -0.0204 -2.1448
 8984SOL     OW38413   2.703   4.666   3.851  0.0040 -0.2011  0.2675
 8984SOL    HW138414   2.608   4.672   3.862  0.0210 -1.5092  1.0700
 8984SOL    HW238415   2.730   0.032   3.831 -0.3834 -0.4582 -1.4259
 8985SOL     OW38416   1.042   3.949   2.499 -0.0871 -0.6792  0.4377
 8985SOL    HW138417   1.060   3.976   2.409  0.5250  0.0387  0.7764
 8985SOL    HW238418   1.025   3.855   2.490 -2.6957 -0.4867  3.3621
 8986SOL     OW38419   0.465   2.097  14.963 -0.1383 -0.8459  0.6742
 8986SOL    HW138420   0.498   2.186  14.976 -0.9086 -0.4800  0.0837
 8986SOL    HW238421   0.388   2.127  14.915  0.6530 -0.6236 -0.4281
 8987SOL     OW38422   3.756   0.954   4.471 -0.2781  0.0723 -0.2201
 8987SOL    HW138423   3.726   1.040   4.498 -1.1318 -0.1738 -0.3764
 8987SOL    HW238424   3.740   0.902   4.550 -0.2022 -1.2841 -1.1008
 8988SOL     OW38425   2.172   2.208  15.759  0.0183 -0.2295 -0.2124
 8988SOL    HW138426   2.243   2.153  15.792  2.1049  3.2235  1.0545
 8988SOL    HW238427   2.184   2.217  15.665 -1.8411 -1.2200 -0.5554
 8989SOL     OW38428   1.281   3.773   9.338 -0.3302  0.1375  0.4618
 8989SOL    HW138429   1.209   3.729   9.383 -0.8620 -0.7985 -1.2848
 8989SOL    HW238430   1.358   3.740   9.384 -0.8291 -0.2866  0.9999
 8990SOL     OW38431   0.396   3.616   4.911 -0.2123 -0.9669 -0.6987
 8990SOL    HW138432   0.415   3.604   4.818 -1.0108  1.4942 -1.1970
 8990SOL    HW238433   0.300   3.615   4.916 -0.2009 -1.0045 -0.4816
 8991SOL     OW38434   4.653   0.855   0.445 -0.1985 -0.1714 -0.3409
 8991SOL    HW138435   4.707   0.805   0.506 -2.1826 -1.7384  0.1339
 8991SOL    HW238436   4.605   0.909   0.507 -0.0490 -0.7518  0.2771
 8992SOL     OW38437   3.403   3.099   2.098  0.2772 -0.2344 -0.0467
 8992SOL    HW138438   3.387   3.081   2.190  1.3244 -0.3368  0.1192
 8992SOL    HW238439   3.340   3.167   2.074  1.6006  0.9268 -0.2410
 8993SOL     OW38440   3.097   2.428   7.511  0.3087 -0.2025 -0.8732
 8993SOL    HW138441   3.077   2.342   7.547  0.8159 -0.2310 -0.6525
 8993SOL    HW238442   3.141   2.400   7.431 -1.8359  1.1909 -2.5193
 8994SOL     OW38443   2.678   2.198   7.131  0.1152  0.5280  0.7513
 8994SOL    HW138444   2.633   2.266   7.181 -2.7787 -0.5280 -0.4014
 8994SOL    HW238445   2.610   2.131   7.125  0.9450 -0.1806 -0.8640
 8995SOL     OW38446   1.054   3.041   3.350 -0.3106 -0.0096  0.3274
 8995SOL    HW138447   1.130   3.066   3.403 -0.6172  2.4274 -0.3708
 8995SOL    HW238448   0.983   3.069   3.409  0.0175  0.1955  0.6254
 8996SOL     OW38449   3.832   0.583   1.760  0.2483  0.0532  0.4827
 8996SOL    HW138450   3.776   0.650   1.721 -1.1393 -1.2719  0.1769
 8996SOL    HW238451   3.766   0.519   1.788  0.4972 -0.9562 -1.2535
 8997SOL     OW38452   4.224   4.230   4.316 -0.3086  0.3502 -0.5083
 8997SOL    HW138453   4.270   4.147   4.328  0.8783  1.0866  0.0967
 8997SOL    HW238454   4.166   4.204   4.244  0.2956 -0.3138 -0.7562
 8998SOL     OW38455   1.129   3.206   2.514 -0.0227 -0.1140  0.3897
 8998SOL    HW138456   1.216   3.188   2.479  0.1651  1.1283  0.2532
 8998SOL    HW238457   1.133   3.141   2.585  0.3997  1.1606  1.5148
 8999SOL     OW38458   0.593   0.604  14.432 -0.1047  0.1084  0.0537
 8999SOL    HW138459   0.506   0.563  14.437 -0.4771  0.7321 -1.6247
 8999SOL    HW238460   0.611   0.675  14.493 -3.1406  1.2316 -0.3472
 9000SOL     OW38461   0.569   0.096   2.601 -0.4779 -0.0452  0.2260
 9000SOL    HW138462   0.657   0.096   2.563 -1.0100  0.2647 -0.9783
 9000SOL    HW238463   0.554   0.189   2.618  1.4182  0.4712 -0.9459
 9001SOL     OW38464   3.804   3.552   2.344  0.4567 -0.1382  0.2598
 9001SOL    HW138465   3.899   3.562   2.354  0.5461 -1.9106  1.2189
 9001SOL    HW238466   3.773   3.601   2.420  0.1914 -0.1153  0.1379
 9002SOL     OW38467   4.706   2.719  14.157 -0.5970  0.2481  0.1910
 9002SOL    HW138468   4.694   2.625  14.146 -0.9922  0.3512 -0.2766
 9002SOL    HW238469   4.634   2.749  14.102 -0.3143  0.2555 -0.1699
 9003SOL     OW38470   2.395   0.869   3.742 -0.0849  0.1780 -0.6961
 9003SOL    HW138471   2.398   0.964   3.727  1.3529 -0.2184 -2.9550
 9003SOL    HW238472   2.376   0.838   3.653 -1.2639 -2.0000  0.2917
 9004SOL     OW38473   0.502   2.844   4.826  0.3001  0.4788  0.0205
 9004SOL    HW138474   0.457   2.840   4.911  0.9216  0.7631  0.3648
 9004SOL    HW238475   0.555   2.923   4.832 -0.4294  1.0442 -0.9865
 9005SOL     OW38476   1.373   0.962   2.811 -0.2813 -0.1995 -0.2881
 9005SOL    HW138477   1.342   0.899   2.746  0.8988 -1.7323  0.6555
 9005SOL    HW238478   1.450   0.994   2.763  0.3856 -1.4151 -0.0074
 9006SOL     OW38479   1.710   4.579   5.822 -0.1302  0.5754 -0.0767
 9006SOL    HW138480   1.744   4.491   5.805  1.2511  1.0969  0.0177
 9006SOL    HW238481   1.626   4.582   5.776  1.2184  0.0980 -2.5772
 9007SOL     OW38482   4.113   0.067   0.519  0.0844 -0.1325 -0.5600
 9007SOL    HW138483   4.040   0.120   0.553  1.1092  1.1644 -0.3694
 9007SOL    HW238484   4.076   4.702   0.516  2.7516 -1.2745  0.7326
 9008SOL     OW38485   0.653   1.344  14.412 -0.0326  0.1128  0.1302
 9008SOL    HW138486   0.651   1.337  14.316 -1.8588 -0.8234  0.2419
 9008SOL    HW238487   0.649   1.439  14.423  1.6892  0.1401  0.5170
 9009SOL     OW38488   4.293   1.146   1.841 -0.0252  0.8655 -0.0314
 9009SOL    HW138489   4.382   1.115   1.827 -0.5945 -1.4343  1.4684
 9009SOL    HW238490   4.274   1.180   1.753  1.0629 -1.2034 -1.0478
 9010SOL     OW38491   3.079   1.808   5.402 -0.3768 -0.3187  0.3159
 9010SOL    HW138492   3.157   1.796   5.349 -0.1248 -0.5859  0.7527
 9010SOL    HW238493   3.097   1.754   5.478 -0.6959  1.5291  1.7007
 9011SOL     OW38494   3.226   2.096   2.539  0.0013  0.0794 -0.0926
 9011SOL    HW138495   3.255   2.101   2.630  0.2641 -0.3670 -0.1528
 9011SOL    HW238496   3.178   2.177   2.523 -0.2516 -0.0378  0.0561
 9012SOL     OW38497   2.287   1.807   5.087  0.4146  0.3941 -0.4127
 9012SOL    HW138498   2.226   1.878   5.071  1.3903  1.4661  0.6481
 9012SOL    HW238499   2.362   1.857   5.118 -1.4446  1.4984  2.2570
 9013SOL     OW38500   2.197   4.545   3.645  0.5112 -0.5862 -0.1163
 9013SOL    HW138501   2.141   4.561   3.721 -0.6400  1.1360 -1.3525
 9013SOL    HW238502   2.202   4.637   3.619 -2.1709 -0.3509  0.2380
 9014SOL     OW38503   3.406   3.895   5.956 -0.3594 -0.0220 -0.1651
 9014SOL    HW138504   3.462   3.943   6.018  0.0120 -0.8863  0.1629
 9014SOL    HW238505   3.327   3.947   5.941  0.2559  0.8331 -0.4608
 9015SOL     OW38506   1.434   3.370   2.601  0.1081  0.1678 -0.6917
 9015SOL    HW138507   1.468   3.444   2.551 -0.5130  1.3059  0.5485
 9015SOL    HW238508   1.437   3.293   2.544  0.6017  0.3024 -0.8440
 9016SOL     OW38509   1.853   4.330   9.530 -0.0894  0.0308 -0.4141
 9016SOL    HW138510   1.908   4.254   9.550  1.5693  0.7854 -2.0993
 9016SOL    HW238511   1.795   4.285   9.468 -1.7208 -0.9865  1.8528
 9017SOL     OW38512   0.329   1.495   6.473  0.5757  0.1834  0.1457
 9017SOL    HW138513   0.328   1.533   6.385  2.3522  0.9042  0.4254
 9017SOL    HW238514   0.409   1.537   6.504 -0.2747  1.3710  0.7383
 9018SOL     OW38515   4.464   0.290  12.290 -0.4515 -0.0736 -0.1004
 9018SOL    HW138516   4.555   0.260  12.287 -0.3911 -0.0862  1.6434
 9018SOL    HW238517   4.419   0.208  12.311 -0.4027  0.2748  1.4158
 9019SOL     OW38518   3.847   2.901   3.966 -0.0361 -0.7725  0.1331
 9019SOL    HW138519   3.869   2.840   4.037  0.3792 -0.1616  0.5212
 9019SOL    HW238520   3.934   2.937   3.949 -0.1071 -0.5972  0.1452
 9020SOL     OW38521   3.512   2.907   8.466  0.2392 -0.3981  0.3470
 9020SOL    HW138522   3.505   2.934   8.557 -2.9261 -0.3315  0.0729
 9020SOL    HW238523   3.528   2.990   8.421  1.8586 -0.4078  0.9001
 9021SOL     OW38524   1.114   1.517   2.271 -0.5258  0.1647  0.8294
 9021SOL    HW138525   1.187   1.476   2.318  1.5573  1.2753 -1.4853
 9021SOL    HW238526   1.155   1.602   2.255 -0.0243 -0.1741  0.3463
 9022SOL     OW38527   0.764   1.651   3.055 -0.3602  0.4642  0.1305
 9022SOL    HW138528   0.783   1.676   2.964  0.8467  1.0479  0.5422
 9022SOL    HW238529   0.669   1.657   3.054 -0.4827 -1.2066  1.4703
 9023SOL     OW38530   3.245   0.253  11.232  0.1843 -0.3055 -0.1792
 9023SOL    HW138531   3.187   0.210  11.294  0.2012  0.6652  0.5004
 9023SOL    HW238532   3.256   0.191  11.159 -0.6264 -0.4461 -0.1857
 9024SOL     OW38533   4.269   2.168  13.520  0.3925  0.1344 -0.7638
 9024SOL    HW138534   4.319   2.169  13.439  1.6334 -1.1462  0.0007
 9024SOL    HW238535   4.290   2.087  13.567 -0.8827  3.5601  5.7868
 9025SOL     OW38536   0.050   3.453   0.414 -0.4213  0.8688 -0.0870
 9025SOL    HW138537   4.706   3.474   0.479  0.6819 -0.5328  1.5186
 9025SOL    HW238538   0.100   3.378   0.447 -0.8058  0.6967  0.1101
 9026SOL     OW38539   4.452   0.999   8.988  1.2333 -0.5294 -0.4669
 9026SOL    HW138540   4.391   0.949   8.934  1.8508 -1.0461 -0.6914
 9026SOL    HW238541   4.481   0.936   9.054 -3.8289 -0.3821  1.8619
 9027SOL     OW38542   2.347   2.201   7.271  1.0139 -0.2698 -0.3027
 9027SOL    HW138543   2.272   2.235   7.222  1.1656 -0.1201 -0.4276
 9027SOL    HW238544   2.382   2.283   7.304 -1.1035  1.4538 -2.3762
 9028SOL     OW38545   1.475   3.685   6.721  0.0850  0.0187  0.0004
 9028SOL    HW138546   1.422   3.610   6.749  1.3374 -0.4995  1.0032
 9028SOL    HW238547   1.465   3.737   6.801 -1.1661 -0.0883 -0.0949
 9029SOL     OW38548   1.035   3.840  10.801  0.0837  0.1445 -0.4208
 9029SOL    HW138549   1.106   3.778  10.783  0.3712 -0.2964  2.1604
 9029SOL    HW238550   1.070   3.889  10.875 -0.8615  1.4561 -0.8552
 9030SOL     OW38551   4.686   3.200   4.972 -0.5385  0.3956 -0.1983
 9030SOL    HW138552   4.605   3.240   4.944  0.4837  1.4876 -1.5673
 9030SOL    HW238553   4.672   3.149   5.052  1.9370 -1.0522 -0.6758
 9031SOL     OW38554   0.859   4.556   8.527 -0.1821 -0.2741  0.2831
 9031SOL    HW138555   0.950   4.554   8.499 -0.9010  2.1802 -2.2331
 9031SOL    HW238556   0.836   4.643   8.561  1.1977  0.5503 -0.8807
 9032SOL     OW38557   4.069   4.463  17.297 -0.0984  0.6612  0.5077
 9032SOL    HW138558   4.165   4.462  17.301 -0.1611 -1.5236  1.4573
 9032SOL    HW238559   4.048   4.556  17.287  1.4232  0.8336 -1.1555
 9033SOL     OW38560   2.760   4.395  17.553  0.0032  0.2160 -0.3069
 9033SOL    HW138561   2.851   4.399  17.583 -0.9634  2.0251  2.3644
 9033SOL    HW238562   2.777   4.463  17.488 -0.0539  1.6522  1.2103
 9034SOL     OW38563   1.028   1.953  12.784 -0.0768 -0.4610  0.0139
 9034SOL    HW138564   0.988   2.039  12.766 -1.4766 -1.3424 -1.1583
 9034SOL    HW238565   1.035   1.955  12.879  1.4933  3.2675 -0.1688
 9035SOL     OW38566   0.073   2.383  15.917 -0.0070  0.2436 -0.0268
 9035SOL    HW138567   0.144   2.367  15.854 -0.0825 -1.7743  0.4189
 9035SOL    HW238568   0.120   2.356  15.996  1.5834 -0.5305 -1.2335
 9036SOL     OW38569   0.048   0.481   4.377  0.0037 -0.0222  0.2839
 9036SOL    HW138570   0.122   0.437   4.420  2.3500  3.0597 -0.5707
 9036SOL    HW238571   0.094   0.542   4.319  1.1179 -2.5314 -1.4922
 9037SOL     OW38572   0.759   0.837   5.478 -0.1831 -0.1491  0.2335
 9037SOL    HW138573   0.678   0.815   5.525 -1.1120  0.8117 -0.9355
 9037SOL    HW238574   0.734   0.920   5.438 -0.0152  0.2693  0.9846
 9038SOL     OW38575   2.332   3.196  16.636  0.2720 -0.3215 -0.1784
 9038SOL    HW138576   2.300   3.242  16.558 -0.9324 -1.6188 -0.4360
 9038SOL    HW238577   2.418   3.167  16.605 -0.0435  1.0410 -2.3639
 9039SOL     OW38578   2.851   0.409   3.403 -0.3516 -0.1555 -0.1213
 9039SOL    HW138579   2.845   0.400   3.308 -1.5064  0.7248 -0.1325
 9039SOL    HW238580   2.918   0.477   3.412 -2.1849  1.7392 -0.7355
 9040SOL     OW38581   3.919   2.854  15.817 -0.4533  0.5072 -0.2201
 9040SOL    HW138582   3.852   2.786  15.827  1.2323 -1.1692 -0.5044
 9040SOL    HW238583   3.862   2.919  15.776 -0.2201  0.2407 -0.9520
 9041SOL     OW38584   0.310   4.474   3.052 -0.1882 -0.2515 -0.0900
 9041SOL    HW138585   0.329   4.487   2.959 -1.0394  0.1481 -0.2105
 9041SOL    HW238586   0.227   4.426   3.054 -0.5637  0.3945 -0.3705
 9042SOL     OW38587   4.330   3.038   0.783 -0.5878  0.5995  0.1439
 9042SOL    HW138588   4.413   3.053   0.827 -1.1249  0.8876  1.0531
 9042SOL    HW238589   4.356   2.952   0.749 -1.4160  0.3375  0.1739
 9043SOL     OW38590   1.782   4.029   3.814 -0.0225  0.5748 -0.1173
 9043SOL    HW138591   1.733   3.962   3.862 -0.8556  0.3983 -1.2180
 9043SOL    HW238592   1.745   4.007   3.728  0.4250 -0.3008 -0.0816
 9044SOL     OW38593   3.225   3.701   2.183  0.0209  0.1444 -0.4340
 9044SOL    HW138594   3.240   3.795   2.191  1.8262 -0.1892  0.1228
 9044SOL    HW238595   3.142   3.694   2.230 -0.3406 -1.5879 -1.3304
 9045SOL     OW38596   3.639   2.387   0.607 -0.0635  0.2669  0.8069
 9045SOL    HW138597   3.624   2.437   0.527 -0.4161 -0.1723  0.5941
 9045SOL    HW238598   3.690   2.311   0.579  0.0439  1.0353 -1.0641
 9046SOL     OW38599   4.170   1.679   6.853 -0.1246  0.1319 -0.1900
 9046SOL    HW138600   4.142   1.698   6.764 -3.2104  1.1338  0.9762
 9046SOL    HW238601   4.089   1.654   6.897 -0.9924  1.5758 -0.9531
 9047SOL     OW38602   1.308   1.355   0.344 -0.1686 -0.1681 -0.4826
 9047SOL    HW138603   1.402   1.342   0.359 -0.2280 -1.4674 -1.2590
 9047SOL    HW238604   1.309   1.313   0.258 -0.9314 -1.1246 -0.0161
 9048SOL     OW38605   0.138   1.834   2.071 -0.4882  0.1149 -0.2100
 9048SOL    HW138606   0.091   1.755   2.097 -1.6947  0.4927 -1.2933
 9048SOL    HW238607   0.121   1.827   1.977  1.7826 -0.3917 -0.5923
 9049SOL     OW38608   1.937   2.186   3.071 -0.2764 -0.0353  0.8649
 9049SOL    HW138609   1.915   2.251   3.137 -1.0774  1.1566 -0.5724
 9049SOL    HW238610   2.028   2.171   3.096  0.0062  2.3469  1.2074
 9050SOL     OW38611   3.311   1.296   7.465 -0.2604  0.5983  0.6507
 9050SOL    HW138612   3.329   1.351   7.388  0.5446  1.0206  1.1370
 9050SOL    HW238613   3.397   1.255   7.475  0.8160  2.6674  0.0003
 9051SOL     OW38614   0.787   0.670  17.012  0.4960  0.2606  0.1849
 9051SOL    HW138615   0.808   0.758  16.982 -0.1954  0.1087 -0.7353
 9051SOL    HW238616   0.853   0.619  16.966  0.3566 -0.9338  1.2881
 9052SOL     OW38617   0.962   1.928  16.612  0.2543  0.2316 -0.4502
 9052SOL    HW138618   0.984   1.989  16.682 -2.4923 -0.9681  1.4695
 9052SOL    HW238619   1.047   1.915  16.571  0.4428  0.6212 -0.1843
 9053SOL     OW38620   4.526   2.351  17.261  0.3934  0.2510  0.4251
 9053SOL    HW138621   4.499   2.381  17.174 -0.1427  0.2965  0.6049
 9053SOL    HW238622   4.559   2.262  17.246 -0.0511 -0.0044  0.9666
 9054SOL     OW38623   4.253   1.982   4.926  0.3536  0.5821 -0.4225
 9054SOL    HW138624   4.226   1.943   5.009 -0.0800 -0.5940 -1.1233
 9054SOL    HW238625   4.202   2.063   4.927 -2.2843 -1.0653 -1.9074
 9055SOL     OW38626   4.588   4.352   5.086  0.8484  0.0197 -0.3140
 9055SOL    HW138627   4.573   4.425   5.146 -2.7881 -0.7554 -0.2935
 9055SOL    HW238628   4.595   4.276   5.143 -2.6753  0.1353  0.2701
 9056SOL     OW38629   3.330   4.263   9.480  0.7110 -0.0900  0.0741
 9056SOL    HW138630   3.256   4.305   9.436  1.6760  1.1506 -0.3734
 9056SOL    HW238631   3.323   4.168   9.468 -0.7235  0.0697 -0.2505
 9057SOL     OW38632   4.389   2.601   8.720  0.2021  0.1474 -0.4016
 9057SOL    HW138633   4.347   2.680   8.688 -0.6407 -0.0432  0.2348
 9057SOL    HW238634   4.465   2.590   8.662  1.2407 -0.8889  1.1232
 9058SOL     OW38635   0.179   1.746   8.480 -0.7831 -0.6952 -0.8987
 9058SOL    HW138636   0.189   1.655   8.454  1.0452 -0.6657 -0.2715
 9058SOL    HW238637   0.092   1.764   8.445 -0.8234 -2.3540 -1.6606
 9059SOL     OW38638   3.428   0.558   8.563 -0.5185 -0.0363 -0.5908
 9059SOL    HW138639   3.484   0.494   8.608 -0.5264  0.6366  0.3684
 9059SOL    HW238640   3.388   0.514   8.488  1.2358 -0.5698 -1.2283
 9060SOL     OW38641   1.840   2.400   3.257 -0.1059  0.3554  0.5597
 9060SOL    HW138642   1.804   2.361   3.336 -1.4676 -0.9001 -0.6878
 9060SOL    HW238643   1.888   2.464   3.309  0.4285  0.5783 -0.2015
 9061SOL     OW38644   2.663   4.439   2.711 -0.1469  0.4625 -0.6521
 9061SOL    HW138645   2.685   4.532   2.714 -0.4053  0.5809 -2.5020
 9061SOL    HW238646   2.568   4.433   2.702 -0.2493 -0.6366  1.1559
 9062SOL     OW38647   0.134   1.936  15.181 -0.0734 -0.3132  0.0469
 9062SOL    HW138648   0.228   1.942  15.167 -0.0228  1.4297  1.1325
 9062SOL    HW238649   0.135   1.917  15.275  1.5439  0.8349  0.2623
 9063SOL     OW38650   1.246   1.529  13.562  0.3108 -0.1908 -0.0797
 9063SOL    HW138651   1.304   1.458  13.533 -0.2059 -1.9171  3.1120
 9063SOL    HW238652   1.309   1.580  13.612  1.0106 -0.9528 -0.1778
 9064SOL     OW38653   1.403   3.704  11.410  0.2009 -0.4720 -0.1656
 9064SOL    HW138654   1.457   3.626  11.426  1.4349  0.1491 -1.2246
 9064SOL    HW238655   1.353   3.663  11.339  0.8639 -2.3895  0.4761
 9065SOL     OW38656   0.181   0.970   5.039 -0.1291  0.5854 -0.7496
 9065SOL    HW138657   0.262   0.965   5.090 -1.3456  1.3735  1.2664
 9065SOL    HW238658   0.113   0.993   5.102 -0.7751 -3.7794  0.1835
 9066SOL     OW38659   2.820   4.632   3.100 -0.5692 -0.4615 -0.2562
 9066SOL    HW138660   2.889   4.605   3.160  0.9420 -0.5007 -2.0115
 9066SOL    HW238661   2.780   4.550   3.071  0.6108 -1.0210 -0.3112
 9067SOL     OW38662   1.121   3.841   2.233  0.1624  0.2635 -0.0908
 9067SOL    HW138663   1.189   3.900   2.201  0.4027  0.4575  0.7885
 9067SOL    HW238664   1.176   3.790   2.292  1.6124  2.2111  0.2185
 9068SOL     OW38665   0.086   0.699  10.203 -0.2049 -0.0174 -0.6537
 9068SOL    HW138666   0.168   0.655  10.226 -0.2183 -0.3974 -1.3160
 9068SOL    HW238667   0.094   0.785  10.245  2.6428 -0.3867 -0.3994
 9069SOL     OW38668   1.849   2.211   7.119 -0.1003 -0.0739  0.6154
 9069SOL    HW138669   1.876   2.177   7.034  2.2472 -0.7783  1.6538
 9069SOL    HW238670   1.828   2.133   7.171 -2.2032  0.6660  0.8841
 9070SOL     OW38671   3.725   2.985  12.602  0.4544 -0.1861 -0.2871
 9070SOL    HW138672   3.820   2.975  12.598  0.6237  0.7915  0.9586
 9070SOL    HW238673   3.713   3.017  12.513 -0.0794  0.1254 -0.1008
 9071SOL     OW38674   3.011   0.366  16.141  0.0716 -0.3885  0.0554
 9071SOL    HW138675   2.959   0.316  16.204  0.3893  1.3416  1.7041
 9071SOL    HW238676   2.966   0.451  16.135  1.8599  0.5056 -0.5364
 9072SOL     OW38677   3.791   1.598   4.553  0.1669  0.3109  1.0533
 9072SOL    HW138678   3.849   1.588   4.477 -0.4360  1.2779  0.4568
 9072SOL    HW238679   3.735   1.660   4.506  1.8105  1.0798  0.1096
 9073SOL     OW38680   1.819   3.316  14.088  0.4877  0.4443  0.1367
 9073SOL    HW138681   1.908   3.312  14.121 -0.1767  1.3260  2.0522
 9073SOL    HW238682   1.771   3.334  14.170  0.9132  2.0333  0.0380
 9074SOL     OW38683   0.134   3.787   7.041  0.4987 -1.3844  0.3860
 9074SOL    HW138684   0.093   3.746   7.118 -0.4805  2.9213  2.1815
 9074SOL    HW238685   0.193   3.835   7.100 -1.2504  0.2119  0.8685
 9075SOL     OW38686   3.993   0.649   6.106  0.0154  0.4606  0.3725
 9075SOL    HW138687   4.028   0.590   6.173 -0.2508  0.0118  0.1189
 9075SOL    HW238688   3.898   0.640   6.116 -0.1345  1.4984 -0.1431
 9076SOL     OW38689   2.603   2.400  13.189  0.3686 -0.1775 -0.6757
 9076SOL    HW138690   2.677   2.346  13.162  2.3521  0.6576  3.0029
 9076SOL    HW238691   2.649   2.466  13.241  0.0162  0.0371 -0.6416
 9077SOL     OW38692   2.662   1.809   2.171  0.1113 -0.5357  0.6250
 9077SOL    HW138693   2.744   1.788   2.216  0.3461 -1.6843 -0.3464
 9077SOL    HW238694   2.605   1.826   2.247 -0.7863  0.0195 -0.1789
 9078SOL     OW38695   2.694   4.480   7.744  0.5906 -0.7185  0.0776
 9078SOL    HW138696   2.614   4.490   7.692  1.6787 -3.6327 -2.1807
 9078SOL    HW238697   2.706   4.561   7.793 -1.3375  0.0071 -0.6551
 9079SOL     OW38698   2.916   3.425   9.066  0.5064 -0.1099 -0.4774
 9079SOL    HW138699   2.895   3.427   9.160 -0.3250 -2.2600 -0.6239
 9079SOL    HW238700   2.976   3.351   9.070 -2.1441 -2.2397 -0.6125
 9080SOL     OW38701   1.647   2.799  17.422 -0.8862 -0.3556  0.4188
 9080SOL    HW138702   1.660   2.873  17.363 -0.4880  0.3023  1.3336
 9080SOL    HW238703   1.559   2.819  17.452 -0.4765 -0.0701  1.4118
 9081SOL     OW38704   0.976   2.311   3.843 -0.2396 -0.2577  0.3867
 9081SOL    HW138705   0.892   2.348   3.816  1.4991  2.0697 -1.9112
 9081SOL    HW238706   0.979   2.228   3.794 -0.0955 -0.7832  1.2937
 9082SOL     OW38707   1.890   1.398   1.152  0.1619 -0.0189  0.0560
 9082SOL    HW138708   1.934   1.382   1.068 -0.6070  0.3705 -0.4128
 9082SOL    HW238709   1.959   1.432   1.210  2.9080 -0.7715 -2.7514
 9083SOL     OW38710   3.998   3.655   5.352 -0.5617 -0.5460 -0.8426
 9083SOL    HW138711   4.031   3.627   5.438  0.1889  1.4236 -0.4855
 9083SOL    HW238712   3.968   3.744   5.371 -0.1916 -0.9198  1.4711
 9084SOL     OW38713   1.292   3.646   7.830 -0.2341 -0.3194  0.4057
 9084SOL    HW138714   1.225   3.698   7.786 -0.5760  0.8488  2.3284
 9084SOL    HW238715   1.254   3.633   7.917 -1.8605  1.8742  0.0293
 9085SOL     OW38716   1.828   3.362   6.053 -0.5968 -0.1193 -0.0317
 9085SOL    HW138717   1.737   3.380   6.074 -0.2840  1.2973  0.1001
 9085SOL    HW238718   1.862   3.325   6.135 -3.1866 -1.5144  0.4017
 9086SOL     OW38719   3.894   0.702   9.959  0.4675  0.0447 -0.2440
 9086SOL    HW138720   3.874   0.643   9.886  2.5489 -0.5571 -0.3227
 9086SOL    HW238721   3.977   0.663   9.986 -0.2592 -0.4056  1.3035
 9087SOL     OW38722   2.899   4.647   4.328 -0.1372 -0.1663 -0.2413
 9087SOL    HW138723   2.862   4.636   4.416  1.0873 -1.4947  0.1029
 9087SOL    HW238724   2.897   0.019   4.320  1.7884 -0.0583  0.5540
 9088SOL     OW38725   4.175   2.387   5.068 -0.7312  0.2263 -0.2730
 9088SOL    HW138726   4.226   2.466   5.089 -1.5586  0.4127  1.0468
 9088SOL    HW238727   4.228   2.322   5.114 -0.9064  0.6889  0.5814
 9089SOL     OW38728   4.442   4.617   6.709  0.1863  0.6006  0.0271
 9089SOL    HW138729   4.414   4.673   6.637  2.0569 -0.9728 -1.9210
 9089SOL    HW238730   4.497   4.554   6.662 -0.0178 -0.2362  0.9247
 9090SOL     OW38731   4.343   2.291   7.110 -0.5185 -0.3589  0.5377
 9090SOL    HW138732   4.347   2.353   7.182  2.0260 -1.1476  1.0732
 9090SOL    HW238733   4.381   2.342   7.039 -2.8668 -1.5522 -1.6135
 9091SOL     OW38734   0.153   4.037   2.687 -0.0805 -0.1141  0.0327
 9091SOL    HW138735   0.111   4.108   2.639 -0.6261 -0.0780  0.5734
 9091SOL    HW238736   0.202   4.003   2.611  1.2339  1.0581  0.3546
 9092SOL     OW38737   3.402   4.684  15.283 -0.4641 -0.0651  0.1958
 9092SOL    HW138738   3.490   4.713  15.307 -0.0678  0.1383 -1.5113
 9092SOL    HW238739   3.369   4.631  15.356 -0.2440  1.2183  1.2336
 9093SOL     OW38740   2.636   4.376   3.424 -0.3828  0.2108  0.0796
 9093SOL    HW138741   2.613   4.340   3.338 -1.4329 -3.3334  1.8777
 9093SOL    HW238742   2.584   4.323   3.484  2.1364 -1.0789  1.1389
 9094SOL     OW38743   2.250   4.539   0.023  0.0277 -0.4427 -0.5479
 9094SOL    HW138744   2.227   4.531   0.115  0.5607  1.0353 -0.3041
 9094SOL    HW238745   2.344   4.556   0.033 -0.5259  1.4474  1.3629
 9095SOL     OW38746   1.354   1.334   7.498  0.0133  0.5171 -0.1523
 9095SOL    HW138747   1.401   1.265   7.545 -2.2796 -2.2293 -1.9226
 9095SOL    HW238748   1.340   1.290   7.414 -1.3478  2.7686 -1.0793
 9096SOL     OW38749   1.971   2.812  10.393 -0.2421 -0.0174 -0.3831
 9096SOL    HW138750   2.062   2.830  10.369  0.2016 -1.7641 -0.0624
 9096SOL    HW238751   1.978   2.808  10.489  0.3199 -0.7066 -0.4520
 9097SOL     OW38752   3.451   0.341   4.910  0.3119 -0.2261  0.2133
 9097SOL    HW138753   3.357   0.324   4.903  0.1636  0.3032  0.8939
 9097SOL    HW238754   3.490   0.319   4.826  0.9709 -0.0216  0.4709
 9098SOL     OW38755   1.434   2.759   0.667 -0.1120 -0.4479  0.3466
 9098SOL    HW138756   1.506   2.730   0.723  0.5767  0.7808  0.1029
 9098SOL    HW238757   1.475   2.826   0.611 -0.8798  0.0095  0.3330
 9099SOL     OW38758   4.076   3.792   6.430 -0.3199  0.4369 -0.7942
 9099SOL    HW138759   3.982   3.773   6.440 -0.0647  0.6450  1.9816
 9099SOL    HW238760   4.110   3.703   6.429  0.7215  0.8576 -1.6341
 9100SOL     OW38761   2.120   2.006  17.101 -0.3950 -0.2305 -0.0640
 9100SOL    HW138762   2.087   2.087  17.139 -3.5480 -1.6355  0.1373
 9100SOL    HW238763   2.037   1.964  17.078  0.5893 -2.0564 -0.3461
 9101SOL     OW38764   0.971   3.502  15.947 -0.0373  0.1831 -0.1201
 9101SOL    HW138765   0.907   3.453  15.896  1.3897 -0.7681 -0.9827
 9101SOL    HW238766   1.022   3.441  16.000 -0.6744  0.3075  0.6376
 9102SOL     OW38767   3.915   2.735   6.382 -0.0853 -0.0758 -0.0211
 9102SOL    HW138768   3.830   2.741   6.426  0.6310  0.6784  1.2611
 9102SOL    HW238769   3.891   2.662   6.325 -2.1005 -0.3117  1.1059
 9103SOL     OW38770   1.543   4.590   7.484  0.0131 -0.1593  0.3861
 9103SOL    HW138771   1.570   4.591   7.575 -0.5752 -0.6069  0.5675
 9103SOL    HW238772   1.460   4.637   7.495 -0.2478 -0.4720 -0.1897
 9104SOL     OW38773   1.790   2.048   1.772  0.1601 -0.0799 -0.6421
 9104SOL    HW138774   1.755   2.069   1.685 -0.6348  0.4145 -0.2056
 9104SOL    HW238775   1.769   2.132   1.813 -0.3504  0.0526 -1.1602
 9105SOL     OW38776   1.614   1.082   5.311  0.1140 -0.1270  0.2053
 9105SOL    HW138777   1.542   1.114   5.365  0.8920 -0.1596  1.2767
 9105SOL    HW238778   1.673   1.062   5.384 -0.1837 -2.2271 -0.1382
 9106SOL     OW38779   3.238   3.556  10.205 -0.1040  0.3175  0.2187
 9106SOL    HW138780   3.196   3.473  10.179  1.2954  0.3585 -2.1096
 9106SOL    HW238781   3.158   3.609  10.210 -1.2816 -1.2499 -1.7788
 9107SOL     OW38782   4.348   0.293   6.085 -0.2289 -0.2058  0.2009
 9107SOL    HW138783   4.299   0.215   6.061 -0.9636 -0.1705  1.6295
 9107SOL    HW238784   4.428   0.253   6.119 -0.4627 -0.2077  0.7464
 9108SOL     OW38785   4.042   2.737   9.631  0.4372 -0.1602  0.1695
 9108SOL    HW138786   4.109   2.702   9.572  0.7674 -1.3314  1.2312
 9108SOL    HW238787   4.064   2.830   9.631 -0.8713  0.1653  3.0028
 9109SOL     OW38788   2.460   2.503  17.459  0.7975 -0.3546 -0.3753
 9109SOL    HW138789   2.531   2.456  17.503 -1.1260  0.2567  3.4507
 9109SOL    HW238790   2.439   2.441  17.389 -2.3313 -0.9619  1.0885
 9110SOL     OW38791   2.896   1.570   2.003  0.4435  0.3998 -0.0484
 9110SOL    HW138792   2.827   1.526   2.053  0.0210  2.6174  1.3395
 9110SOL    HW238793   2.967   1.539   2.058  1.2037 -0.4874 -1.5236
 9111SOL     OW38794   4.260   4.110   0.760  0.1255 -0.5985 -0.4574
 9111SOL    HW138795   4.242   4.016   0.766  2.1760 -1.0134 -1.0617
 9111SOL    HW238796   4.312   4.112   0.680  0.4131  1.7036 -0.2180
 9112SOL     OW38797   1.482   3.978  16.202 -0.0051 -0.1299 -0.1796
 9112SOL    HW138798   1.498   3.915  16.131  0.0082  1.1508 -1.3156
 9112SOL    HW238799   1.439   4.054  16.163 -0.4135 -0.9033 -1.2242
 9113SOL     OW38800   0.097   0.511  15.518  0.6410 -0.0882  0.4655
 9113SOL    HW138801   0.097   0.587  15.460  0.8842 -0.1215  0.4244
 9113SOL    HW238802   0.051   0.545  15.595  1.0014 -1.0733  1.1191
 9114SOL     OW38803   0.943   1.793  16.943  0.1564 -0.3287  0.2685
 9114SOL    HW138804   0.935   1.749  16.858 -0.2780  1.7695 -0.8049
 9114SOL    HW238805   0.997   1.868  16.919 -0.4103  0.6053  1.9308
 9115SOL     OW38806   3.751   0.195  16.534  0.3415  0.0606  0.1763
 9115SOL    HW138807   3.680   0.170  16.593 -1.2455 -1.8908 -2.5248
 9115SOL    HW238808   3.751   0.126  16.468 -0.2628  0.7301 -0.5308
 9116SOL     OW38809   0.829   3.597   7.827  0.0685  0.0259  0.1832
 9116SOL    HW138810   0.883   3.667   7.862 -0.6385  1.3236 -1.3255
 9116SOL    HW238811   0.888   3.571   7.755  1.2477 -3.1703  2.2938
 9117SOL     OW38812   2.362   0.478  11.376 -0.1532  0.3489 -0.3016
 9117SOL    HW138813   2.383   0.387  11.398 -1.1658  0.0787 -0.4246
 9117SOL    HW238814   2.290   0.501  11.435 -0.2320 -0.9817  0.1152
 9118SOL     OW38815   3.951   3.856   4.359  0.1999 -0.0715 -0.3412
 9118SOL    HW138816   3.944   3.839   4.453 -0.0683 -1.4933 -0.6185
 9118SOL    HW238817   4.046   3.862   4.353 -0.1435  0.7072 -4.8065
 9119SOL     OW38818   2.951   3.307   7.752 -0.1440  0.3294 -0.0115
 9119SOL    HW138819   2.906   3.390   7.732 -0.4812  0.2001  0.2021
 9119SOL    HW238820   2.887   3.237   7.743  1.9479 -1.4223 -1.0816
 9120SOL     OW38821   2.304   2.760   4.231 -0.0653 -0.2576  0.0413
 9120SOL    HW138822   2.229   2.723   4.185  0.2100  1.5902 -1.8797
 9120SOL    HW238823   2.374   2.704   4.196 -0.0396  1.2082 -2.2414
 9121SOL     OW38824   4.230   1.434   5.514  0.2570 -0.2582  0.1639
 9121SOL    HW138825   4.284   1.505   5.549 -0.7178 -0.0521  1.2714
 9121SOL    HW238826   4.271   1.356   5.553 -2.1248 -1.2683  0.6754
 9122SOL     OW38827   2.527   2.889   5.081  0.3241  0.3939  0.5864
 9122SOL    HW138828   2.560   2.802   5.058  1.8612  1.4521 -1.2392
 9122SOL    HW238829   2.606   2.932   5.115  0.2677  0.4293  0.6729
 9123SOL     OW38830   2.173   3.570   7.393 -0.5828  0.7494  0.1535
 9123SOL    HW138831   2.247   3.561   7.333 -0.1277  0.6652  0.7230
 9123SOL    HW238832   2.168   3.478   7.419  1.5207  0.9764  1.3957
 9124SOL     OW38833   2.309   3.376   8.963 -0.1973 -0.2331  0.1212
 9124SOL    HW138834   2.274   3.301   9.012  0.8351 -2.6111 -2.8017
 9124SOL    HW238835   2.347   3.327   8.890 -0.5189  0.4406 -0.4923
 9125SOL     OW38836   2.899   4.206   1.551 -0.4459  0.1255  0.3241
 9125SOL    HW138837   2.897   4.146   1.476  1.6875 -0.7062  0.9404
 9125SOL    HW238838   2.820   4.256   1.528 -1.3381 -1.2555  0.3241
 9126SOL     OW38839   1.954   1.030   8.119 -0.1274 -0.3352 -0.0666
 9126SOL    HW138840   1.996   1.017   8.205  2.4242  2.8364 -0.8439
 9126SOL    HW238841   1.868   1.058   8.149 -0.7714 -1.4599 -0.8435
 9127SOL     OW38842   2.449   3.641   6.662 -0.2493  0.1803 -0.1842
 9127SOL    HW138843   2.488   3.589   6.592 -0.8602 -0.2472 -0.2097
 9127SOL    HW238844   2.442   3.569   6.724  2.7055 -1.3684 -1.6785
 9128SOL     OW38845   1.346   0.733   5.253  0.0301  0.1942  0.3770
 9128SOL    HW138846   1.423   0.682   5.280 -0.5658 -0.8201  0.1791
 9128SOL    HW238847   1.271   0.673   5.258 -0.3984  0.8029  1.2399
 9129SOL     OW38848   1.586   0.282   2.637  0.1609 -0.0468  0.0958
 9129SOL    HW138849   1.571   0.375   2.623  0.8364 -0.0384 -0.5732
 9129SOL    HW238850   1.516   0.246   2.583  0.0648 -0.9556  0.8125
 9130SOL     OW38851   2.947   2.269   8.933 -0.1989 -0.2784 -0.0876
 9130SOL    HW138852   2.917   2.269   9.024  0.9782 -2.5355  0.3143
 9130SOL    HW238853   2.903   2.339   8.886 -0.5012  0.5169  1.3769
 9131SOL     OW38854   2.546   2.419   7.232 -0.0701 -0.8146  0.0146
 9131SOL    HW138855   2.526   2.436   7.324  0.3905 -1.3046  0.2027
 9131SOL    HW238856   2.593   2.500   7.213 -0.7299 -0.3062  0.5479
 9132SOL     OW38857   1.585   3.967   1.090 -0.2082 -0.0520 -0.8524
 9132SOL    HW138858   1.534   3.891   1.060 -2.5609  1.0127  0.4774
 9132SOL    HW238859   1.532   3.993   1.166 -1.3760 -3.1395 -0.5994
 9133SOL     OW38860   2.686   4.367   9.084  0.1713  0.3072  0.0809
 9133SOL    HW138861   2.709   4.281   9.047 -1.4636  0.8032 -2.0853
 9133SOL    HW238862   2.592   4.361   9.098  0.6127 -1.4646  2.3296
 9134SOL     OW38863   2.752   1.378  14.130 -0.0180  0.0897  0.1973
 9134SOL    HW138864   2.786   1.349  14.215  2.6220 -1.7855 -1.5041
 9134SOL    HW238865   2.668   1.418  14.153  0.1152  0.7245 -0.4310
 9135SOL     OW38866   3.446   0.792   3.388  0.1214 -0.3008  0.3791
 9135SOL    HW138867   3.525   0.835   3.418 -0.2336  0.3801  0.3402
 9135SOL    HW238868   3.470   0.757   3.302 -0.1784  1.2948 -0.3648
 9136SOL     OW38869   0.979   1.536   7.861  0.3273 -0.1671  0.2534
 9136SOL    HW138870   1.005   1.552   7.952 -0.3313  0.3980  0.3416
 9136SOL    HW238871   1.026   1.454   7.844 -1.4758 -1.4342  1.3368
 9137SOL     OW38872   0.865   4.047   5.729  0.2170 -0.0247  0.2876
 9137SOL    HW138873   0.818   3.968   5.756 -1.3087  1.3352  1.5764
 9137SOL    HW238874   0.802   4.102   5.683 -0.2632  0.2825  1.3177
 9138SOL     OW38875   2.988   1.829   9.056 -0.4160  0.3528  0.4513
 9138SOL    HW138876   2.989   1.894   9.126 -0.3851 -0.3457  1.0966
 9138SOL    HW238877   2.997   1.885   8.979 -0.1318  0.8687  0.8577
 9139SOL     OW38878   1.883   1.733   2.156 -0.7170 -0.0421 -0.1400
 9139SOL    HW138879   1.862   1.745   2.063  1.6312 -1.1400 -0.8071
 9139SOL    HW238880   1.874   1.639   2.171 -0.9807 -0.1877 -1.2124
 9140SOL     OW38881   3.378   2.098   9.181  0.4238  0.3557  0.0233
 9140SOL    HW138882   3.369   2.174   9.123  1.5848 -0.2921 -1.0047
 9140SOL    HW238883   3.469   2.115   9.207  0.9200 -3.1215  0.4899
 9141SOL     OW38884   4.576   2.936   8.489 -0.4312 -0.4825  0.4053
 9141SOL    HW138885   4.637   2.888   8.545  1.7343  1.5601 -0.2379
 9141SOL    HW238886   4.593   2.895   8.404  0.6045  2.1724 -0.6612
 9142SOL     OW38887   4.150   1.127   1.369 -0.3582  0.2653  0.0828
 9142SOL    HW138888   4.085   1.108   1.300 -0.3556 -0.2319  0.2171
 9142SOL    HW238889   4.154   1.040   1.407 -2.1035  0.9008  1.7570
 9143SOL     OW38890   3.787   4.042  12.491  0.3236  0.0648 -0.2888
 9143SOL    HW138891   3.822   4.131  12.499 -1.0838  0.1581  4.5014
 9143SOL    HW238892   3.706   4.054  12.441  0.1111 -0.0452  0.0286
 9144SOL     OW38893   4.607   2.941   2.771 -0.1797  0.3427  0.4716
 9144SOL    HW138894   4.521   2.977   2.789 -1.2519 -1.1804 -1.5696
 9144SOL    HW238895   4.653   3.006   2.717 -2.1738  2.4259  1.2561
 9145SOL     OW38896   1.737   0.684   5.533  0.1723 -0.0190 -0.0196
 9145SOL    HW138897   1.789   0.649   5.605 -0.2136  0.7258  0.6197
 9145SOL    HW238898   1.650   0.686   5.573 -0.6539 -0.5957 -1.7727
 9146SOL     OW38899   3.877   3.073   6.809  0.3290  0.2407 -0.4680
 9146SOL    HW138900   3.891   3.126   6.731 -0.5446  0.7792 -0.2593
 9146SOL    HW238901   3.782   3.080   6.796  0.1627  0.0278  0.6658
 9147SOL     OW38902   4.660   1.472   2.338  0.1345  0.0631  0.4031
 9147SOL    HW138903   4.672   1.377   2.339  2.6601  0.3782  2.3251
 9147SOL    HW238904   4.604   1.494   2.412  0.1126 -1.0613  0.7184
 9148SOL     OW38905   3.645   0.970   3.089 -0.3991 -0.2761 -0.1689
 9148SOL    HW138906   3.599   0.887   3.101  0.5300 -0.8303 -0.4232
 9148SOL    HW238907   3.676   0.990   3.177 -1.4765 -0.1831  0.1895
 9149SOL     OW38908   0.727   1.049   6.457  0.1865  0.2055 -0.3506
 9149SOL    HW138909   0.763   1.123   6.507 -0.5677 -0.0293  0.5420
 9149SOL    HW238910   0.733   0.987   6.529 -0.1874 -0.2063 -0.6707
 9150SOL     OW38911   2.629   0.587  13.135 -0.3818  0.2531  0.0648
 9150SOL    HW138912   2.614   0.552  13.047 -2.5317 -0.8626  0.8555
 9150SOL    HW238913   2.614   0.512  13.193 -2.2340  1.0338  0.6088
 9151SOL     OW38914   2.211   2.878  11.860  0.0400 -0.1683  0.0287
 9151SOL    HW138915   2.285   2.851  11.914  0.3376 -2.8001 -1.7477
 9151SOL    HW238916   2.253   2.880  11.774 -0.9086  0.1955 -0.4253
 9152SOL     OW38917   2.621   4.660  12.112  0.1942  0.3139 -0.2187
 9152SOL    HW138918   2.706   4.702  12.126  0.6725 -1.5382  2.3472
 9152SOL    HW238919   2.630   4.590  12.176  0.5132  2.5619  2.2228
 9153SOL     OW38920   4.200   0.443   5.069 -0.2660  0.2666  0.0432
 9153SOL    HW138921   4.282   0.469   5.026  0.4387  0.2618  1.3816
 9153SOL    HW238922   4.231   0.417   5.156 -1.2188  2.5583  1.0694
 9154SOL     OW38923   4.152   3.443  13.608 -0.2296  0.2259  0.1202
 9154SOL    HW138924   4.247   3.459  13.607 -0.2882  0.7271  2.1009
 9154SOL    HW238925   4.132   3.453  13.701  0.2930  0.0327  0.2571
 9155SOL     OW38926   3.081   2.371   7.955  0.3183 -0.6575  0.2772
 9155SOL    HW138927   3.057   2.439   7.893  2.0178  0.9678  1.3970
 9155SOL    HW238928   3.030   2.406   8.028  0.4753  0.1709 -0.0179
 9156SOL     OW38929   0.436   0.795   2.426 -0.2755 -0.1004  0.2615
 9156SOL    HW138930   0.515   0.780   2.477  0.0551  0.6513 -0.0230
 9156SOL    HW238931   0.428   0.889   2.444 -1.5750 -0.1544 -0.0505
 9157SOL     OW38932   0.405   2.548  17.059 -0.2971  0.3403 -0.5280
 9157SOL    HW138933   0.351   2.532  16.982  2.1901 -0.5185 -2.0809
 9157SOL    HW238934   0.466   2.475  17.063  0.8591  1.2321 -2.0267
 9158SOL     OW38935   3.712   3.431  12.136  0.5672 -0.1743  0.0018
 9158SOL    HW138936   3.633   3.433  12.081 -0.3570  0.9843  1.3633
 9158SOL    HW238937   3.679   3.485  12.207 -2.3193  1.5004 -2.6240
 9159SOL     OW38938   0.820   0.451   1.384  0.4026  0.1687 -0.1349
 9159SOL    HW138939   0.766   0.458   1.306  1.6560  0.3190 -0.9880
 9159SOL    HW238940   0.897   0.411   1.343  1.7180  2.3458  0.1680
 9160SOL     OW38941   4.653   0.963  16.620  0.6133 -0.1222 -0.4212
 9160SOL    HW138942   4.580   1.024  16.611 -0.2315 -0.4939  3.7950
 9160SOL    HW238943   4.700   0.996  16.697  1.4789 -1.5172 -0.3525
 9161SOL     OW38944   1.527   2.503   5.129 -0.1968 -0.1202  0.3691
 9161SOL    HW138945   1.459   2.562   5.161  0.5255  1.4953 -1.0627
 9161SOL    HW238946   1.604   2.552   5.159 -0.0400 -0.3957  0.4132
 9162SOL     OW38947   0.514   0.820  13.364 -0.6729 -0.5065  0.1006
 9162SOL    HW138948   0.551   0.763  13.296 -0.6621 -0.8862  0.4284
 9162SOL    HW238949   0.422   0.838  13.343 -0.0794  0.3889 -1.8006
 9163SOL     OW38950   2.862   0.258  16.953  0.4339  0.5547 -0.0386
 9163SOL    HW138951   2.915   0.264  16.874  0.6318 -0.6236  0.0108
 9163SOL    HW238952   2.807   0.336  16.944  1.9284  1.4573 -1.3383
 9164SOL     OW38953   2.177   3.306   8.645 -0.0368  0.4553 -0.4312
 9164SOL    HW138954   2.164   3.285   8.738 -1.0776 -1.5071 -1.0355
 9164SOL    HW238955   2.135   3.392   8.638  0.5882  0.8983  1.0455
 9165SOL     OW38956   0.288   3.900  17.546  0.8788  0.3277  0.3494
 9165SOL    HW138957   0.322   3.922  17.459 -0.3296 -1.6461 -0.6370
 9165SOL    HW238958   0.195   3.895  17.524  1.2279  1.5696 -1.3794
 9166SOL     OW38959   2.876   3.694   7.859  0.2688  0.1540  0.2331
 9166SOL    HW138960   2.814   3.759   7.825 -1.7198 -1.4530  0.8039
 9166SOL    HW238961   2.830   3.666   7.938  0.1233  0.6921  0.3390
 9167SOL     OW38962   3.616   1.517   5.650  0.6827  0.1399  0.0725
 9167SOL    HW138963   3.539   1.528   5.594  1.1650  1.9144 -0.2563
 9167SOL    HW238964   3.679   1.581   5.615 -0.1105  0.3654 -0.9474
 9168SOL     OW38965   2.632   3.691   8.409  0.9009  0.0822  0.1519
 9168SOL    HW138966   2.683   3.616   8.441 -1.3375 -0.8098  1.6387
 9168SOL    HW238967   2.623   3.653   8.321  2.9290  0.6817 -0.3301
 9169SOL     OW38968   1.495   3.102   9.625 -0.2010  0.5157  0.2302
 9169SOL    HW138969   1.475   3.185   9.666  0.5633  0.8659 -0.1093
 9169SOL    HW238970   1.489   3.039   9.697  0.1909  0.6261  0.3609
 9170SOL     OW38971   4.629   3.009   9.636  0.0366 -0.0301 -0.1782
 9170SOL    HW138972   4.582   2.926   9.636 -0.1372  0.0705 -0.8060
 9170SOL    HW238973   4.557   3.067   9.611  0.2793  1.2625  2.0721
 9171SOL     OW38974   3.915   1.495  16.656 -0.1800 -0.3255 -0.4455
 9171SOL    HW138975   3.892   1.515  16.565  1.1614 -0.1856 -0.7566
 9171SOL    HW238976   3.834   1.518  16.702 -0.2385  0.8396 -1.1467
 9172SOL     OW38977   1.833   0.052  14.857 -0.5272  0.7697 -0.4336
 9172SOL    HW138978   1.860   0.115  14.790  1.4216  1.3467  0.8946
 9172SOL    HW238979   1.901   4.708  14.853 -1.1433  0.0694  1.0921
 9173SOL     OW38980   1.343   1.903   3.628  0.2650  1.1641 -0.3358
 9173SOL    HW138981   1.372   1.881   3.716 -0.8173  0.8512 -0.0607
 9173SOL    HW238982   1.290   1.980   3.650  1.1908  1.3224  1.3658
 9174SOL     OW38983   4.046   2.854   0.117  0.2692  0.0154 -0.5142
 9174SOL    HW138984   4.015   2.930   0.165 -0.7284  0.8974 -2.5374
 9174SOL    HW238985   3.982   2.847   0.046 -1.2061 -0.9478  0.9079
 9175SOL     OW38986   3.506   4.410   3.022 -0.9117  0.1227  0.0548
 9175SOL    HW138987   3.571   4.372   3.081 -0.5660 -1.0034 -1.0659
 9175SOL    HW238988   3.544   4.498   3.013  1.5471 -0.6793  2.7558
 9176SOL     OW38989   4.062   3.309  13.399 -0.6050 -0.2763 -0.4769
 9176SOL    HW138990   4.105   3.321  13.484 -0.7375  0.2570 -0.4836
 9176SOL    HW238991   3.970   3.296  13.424 -0.9641  1.3243 -0.9501
 9177SOL     OW38992   3.303   1.245   8.998 -0.2064 -0.4261 -0.2364
 9177SOL    HW138993   3.277   1.322   9.048 -0.1894 -0.0459 -0.8203
 9177SOL    HW238994   3.384   1.209   9.035  0.2250  1.8973  1.0327
 9178SOL     OW38995   1.215   0.767  11.206  0.2668  0.2444  0.6905
 9178SOL    HW138996   1.127   0.767  11.243  0.5924 -3.3875  1.5198
 9178SOL    HW238997   1.209   0.833  11.137  2.0863 -0.9455 -0.6000
 9179SOL     OW38998   1.677   4.606   3.658  0.5296  0.0580 -0.3775
 9179SOL    HW138999   1.665   4.576   3.748  0.4497 -0.1221 -0.4469
 9179SOL    HW239000   1.720   4.690   3.671 -1.2419  0.8950 -0.0065
 9180SOL     OW39001   3.268   2.168  15.449 -0.3729 -0.2242 -0.8568
 9180SOL    HW139002   3.248   2.217  15.369  0.0980  2.0131  0.3859
 9180SOL    HW239003   3.362   2.176  15.462 -0.4012 -0.7179 -0.3380
 9181SOL     OW39004   0.917   3.502   9.371 -0.4018 -0.4636 -0.3036
 9181SOL    HW139005   0.977   3.558   9.421  1.0980  0.1769 -2.8530
 9181SOL    HW239006   0.862   3.473   9.444  1.3701 -0.8723  0.8578
 9182SOL     OW39007   3.938   4.228   3.837 -0.2689  0.5155  0.5845
 9182SOL    HW139008   3.847   4.199   3.845  0.2497 -1.5882 -1.1544
 9182SOL    HW239009   3.923   4.319   3.812  1.3258  1.3043  2.4654
 9183SOL     OW39010   0.058   3.461  13.839  0.1572 -0.7479  0.1435
 9183SOL    HW139011   0.072   3.448  13.933 -1.3103  1.8915  0.7095
 9183SOL    HW239012   4.722   3.536  13.835 -1.0229 -1.6825  0.0495
 9184SOL     OW39013   3.964   0.021   2.095 -0.3782 -0.0215  0.1359
 9184SOL    HW139014   3.891   0.042   2.037  1.3328 -1.8714 -2.7397
 9184SOL    HW239015   3.938   0.044   2.183  0.2864 -0.7276  0.5192
 9185SOL     OW39016   3.824   3.775   8.529 -0.0711 -0.0054  0.1550
 9185SOL    HW139017   3.770   3.800   8.604  2.2852  0.0008  1.8465
 9185SOL    HW239018   3.909   3.809   8.559 -0.0008  0.1997 -0.2684
 9186SOL     OW39019   2.982   3.788   9.343 -0.1240 -0.0328  0.0371
 9186SOL    HW139020   2.904   3.766   9.293  0.2255  1.0197 -0.9773
 9186SOL    HW239021   2.939   3.865   9.380 -0.7561 -0.8937  1.1013
 9187SOL     OW39022   0.786   2.277   3.140 -0.2971  0.1378  0.6569
 9187SOL    HW139023   0.780   2.182   3.129 -1.1373  0.7687 -4.0490
 9187SOL    HW239024   0.696   2.290   3.172  0.0374  0.9101  1.2879
 9188SOL     OW39025   1.696   3.714   2.035 -0.1366 -0.0560 -0.6953
 9188SOL    HW139026   1.732   3.719   1.946 -0.3308  0.6845 -0.7333
 9188SOL    HW239027   1.619   3.767   2.015  0.2292  1.5405  2.2167
 9189SOL     OW39028   1.797   3.755   9.527 -0.0759  0.6707 -0.5044
 9189SOL    HW139029   1.744   3.713   9.459  0.5815 -2.0219  0.6344
 9189SOL    HW239030   1.734   3.810   9.572  0.2343 -0.5794  1.4464
 9190SOL     OW39031   2.033   1.741   2.439 -0.2115  0.0918  0.3077
 9190SOL    HW139032   2.072   1.725   2.524  0.0976  2.9207  0.7108
 9190SOL    HW239033   1.941   1.726   2.460 -0.4539  1.1760  0.0420
 9191SOL     OW39034   3.197   1.469  14.808 -0.4719 -0.0659 -0.1596
 9191SOL    HW139035   3.228   1.415  14.735 -0.8209 -1.3461  0.6544
 9191SOL    HW239036   3.118   1.497  14.761  1.5257 -1.0189 -4.1168
 9192SOL     OW39037   2.021   1.319  10.013  0.4224 -0.1868 -0.2437
 9192SOL    HW139038   2.089   1.306   9.946  0.9135 -0.3304  0.2861
 9192SOL    HW239039   1.944   1.291   9.964 -0.3314  0.1096  0.7850
 9193SOL     OW39040   2.504   4.030  16.265  0.2990 -0.7498 -0.6006
 9193SOL    HW139041   2.444   4.091  16.222  1.1867  0.4999 -0.0579
 9193SOL    HW239042   2.442   3.978  16.315  0.2815 -0.9367 -0.8175
 9194SOL     OW39043   4.714   3.826   6.714  0.3697 -0.2279  0.2769
 9194SOL    HW139044   4.627   3.846   6.678  1.2922  0.3132 -1.6609
 9194SOL    HW239045   0.037   3.879   6.649  0.8061  0.7510  1.3777
 9195SOL     OW39046   1.604   2.195   7.315  0.6412 -0.4545  0.1732
 9195SOL    HW139047   1.529   2.140   7.293 -0.8839  1.2033  1.1977
 9195SOL    HW239048   1.643   2.151   7.391  1.6736 -0.7580 -0.5277
 9196SOL     OW39049   1.421   1.508   4.307 -0.1716 -0.0754 -0.5854
 9196SOL    HW139050   1.456   1.583   4.356  1.5670 -2.0159  1.1275
 9196SOL    HW239051   1.388   1.467   4.387  1.5566 -1.7728 -0.7540
 9197SOL     OW39052   3.128   3.817   6.109  0.1892 -0.3838  0.5167
 9197SOL    HW139053   3.068   3.749   6.078  0.4900 -0.8115  0.8771
 9197SOL    HW239054   3.122   3.801   6.203 -2.1382  1.0308  0.6281
 9198SOL     OW39055   4.028   1.759   5.742 -0.4023  0.2422  0.5110
 9198SOL    HW139056   3.969   1.743   5.816  1.1439 -3.1403  0.9938
 9198SOL    HW239057   3.990   1.841   5.711  0.8406  1.7224  2.9725
 9199SOL     OW39058   0.904   3.366   6.311 -0.2975  0.0421  0.0231
 9199SOL    HW139059   0.824   3.374   6.259 -0.0835 -0.8905 -0.4368
 9199SOL    HW239060   0.915   3.458   6.335  0.5381 -0.9269  3.2808
 9200SOL     OW39061   0.963   1.073   2.952  0.0537  0.7374 -0.0529
 9200SOL    HW139062   0.872   1.087   2.925 -0.4572 -0.1842  1.2099
 9200SOL    HW239063   0.965   1.121   3.035  1.1276  2.1498 -0.8911
 9201SOL     OW39064   1.204   3.569   3.513  0.5105 -0.2893  0.3095
 9201SOL    HW139065   1.287   3.580   3.558  0.9439 -1.0813 -0.2909
 9201SOL    HW239066   1.155   3.650   3.526  2.8766  0.7803  2.4839
 9202SOL     OW39067   0.148   2.403   2.501 -0.2434  0.1822  0.6174
 9202SOL    HW139068   0.101   2.392   2.418  0.4228 -2.3776  0.5575
 9202SOL    HW239069   0.070   2.396   2.556 -1.6838 -0.2335 -1.4711
 9203SOL     OW39070   0.922   0.842  15.638  0.1310 -0.1923 -0.2427
 9203SOL    HW139071   0.966   0.916  15.680  0.8879 -1.0458  0.4616
 9203SOL    HW239072   0.830   0.861  15.657  0.6452  0.9580  1.0777
 9204SOL     OW39073   3.241   3.752   4.023 -0.6512  0.1416  0.6136
 9204SOL    HW139074   3.303   3.742   4.095  0.1416  0.5423 -0.0168
 9204SOL    HW239075   3.202   3.836   4.050  0.4814  0.9248 -0.1754
 9205SOL     OW39076   4.017   1.542   5.375  0.0590 -0.3831  0.1705
 9205SOL    HW139077   4.079   1.516   5.444  1.1849 -0.7258 -0.9654
 9205SOL    HW239078   4.060   1.494   5.304  0.9828 -0.2232  0.6140
 9206SOL     OW39079   2.692   0.453   4.387 -0.1981 -0.2732  0.3549
 9206SOL    HW139080   2.644   0.454   4.305  1.6540 -0.4304 -0.7372
 9206SOL    HW239081   2.674   0.543   4.411 -0.9219 -0.6534  1.2522
 9207SOL     OW39082   0.064   2.632  12.730  0.4562  0.3184 -0.7927
 9207SOL    HW139083   0.141   2.688  12.731  2.2658 -2.1639 -0.4978
 9207SOL    HW239084   0.090   2.578  12.805 -1.3970  0.2317 -0.1920
 9208SOL     OW39085   1.852   0.167   9.638  0.7233 -0.7284 -0.1767
 9208SOL    HW139086   1.811   0.081   9.646 -0.6724 -0.1001 -0.4971
 9208SOL    HW239087   1.894   0.186   9.721  0.8634  1.5483 -0.7680
 9209SOL     OW39088   0.846   0.218   7.558  0.1394 -0.4302 -0.2288
 9209SOL    HW139089   0.879   0.137   7.520  0.9799 -0.0554 -0.2997
 9209SOL    HW239090   0.779   0.184   7.617 -0.1339  1.3067  0.4470
 9210SOL     OW39091   0.613   3.978   7.629 -0.1605  0.2518 -0.1143
 9210SOL    HW139092   0.537   3.940   7.672 -1.1161 -0.8209 -2.7312
 9210SOL    HW239093   0.669   3.904   7.604 -0.0400  0.5388 -0.6861
 9211SOL     OW39094   2.247   2.789   1.708 -0.0616 -0.3124 -0.8314
 9211SOL    HW139095   2.175   2.845   1.738  1.9345  2.6411 -1.5294
 9211SOL    HW239096   2.232   2.781   1.614 -3.1372 -0.6382 -0.2888
 9212SOL     OW39097   4.123   1.386   8.564  0.0932  0.2652 -0.2574
 9212SOL    HW139098   4.201   1.349   8.606  0.8537  3.0239  0.7816
 9212SOL    HW239099   4.168   1.447   8.504  0.7428 -0.2652 -0.3074
 9213SOL     OW39100   2.907   0.813   3.314 -0.5268  0.6394 -1.0577
 9213SOL    HW139101   2.953   0.896   3.303 -0.8425  0.7953 -1.2010
 9213SOL    HW239102   2.880   0.822   3.405  1.8952 -1.5740 -0.1116
 9214SOL     OW39103   2.675   2.758   3.982 -0.1143  0.2445 -0.1588
 9214SOL    HW139104   2.650   2.851   3.980  0.9110  0.4629 -2.4761
 9214SOL    HW239105   2.595   2.706   3.995 -0.2561  0.7019  0.8686
 9215SOL     OW39106   3.555   3.033   8.068  0.4654  0.4369  0.2534
 9215SOL    HW139107   3.641   2.996   8.044  1.4079  1.4692  2.0410
 9215SOL    HW239108   3.581   3.077   8.148 -0.1801 -1.1945  1.3520
 9216SOL     OW39109   3.801   3.332   4.055  0.1982 -0.6862 -0.0900
 9216SOL    HW139110   3.745   3.268   4.012 -0.4098  0.0847 -0.4521
 9216SOL    HW239111   3.751   3.340   4.137  0.2648  1.7509 -0.2924
 9217SOL     OW39112   4.284   3.880   4.350  0.5178 -0.1074  0.4990
 9217SOL    HW139113   4.311   3.875   4.258  1.6628 -1.2586  0.8979
 9217SOL    HW239114   4.307   3.792   4.381 -0.3190 -0.4798  0.0797
 9218SOL     OW39115   0.457   2.722   7.213 -0.0834 -0.3669 -0.4125
 9218SOL    HW139116   0.433   2.680   7.296 -1.9898 -0.8206 -1.1847
 9218SOL    HW239117   0.541   2.762   7.236 -0.8956  2.6989 -2.8361
 9219SOL     OW39118   2.696   0.483  17.062  0.4544 -0.2596  0.2832
 9219SOL    HW139119   2.654   0.499  17.147  0.1593 -0.1156  0.1110
 9219SOL    HW239120   2.781   0.527  17.071  1.4559 -2.0599 -0.3465
 9220SOL     OW39121   2.223   4.173   7.058  0.5556 -0.3006 -0.1571
 9220SOL    HW139122   2.279   4.120   7.001 -0.5245 -2.9300  1.2389
 9220SOL    HW239123   2.283   4.238   7.094 -0.7428  0.6341  0.3003
 9221SOL     OW39124   3.360   0.867   1.629 -0.5321  0.3745  0.0748
 9221SOL    HW139125   3.266   0.880   1.627 -0.5120  0.5793  0.3784
 9221SOL    HW239126   3.368   0.772   1.619  2.1091  0.5082  0.8832
 9222SOL     OW39127   3.227   3.540  11.081 -0.1331 -0.4505  0.2319
 9222SOL    HW139128   3.157   3.574  11.025 -0.8195 -0.6823  0.9445
 9222SOL    HW239129   3.280   3.502  11.011 -1.9542  0.1603 -1.4755
 9223SOL     OW39130   1.666   2.329   8.410  0.6226 -0.3326  0.0468
 9223SOL    HW139131   1.711   2.404   8.372  0.0030 -0.6208 -1.2436
 9223SOL    HW239132   1.684   2.350   8.502  1.3119 -0.8813  0.0338
 9224SOL     OW39133   2.894   0.993   3.023 -0.0903 -0.7584 -0.2270
 9224SOL    HW139134   2.960   0.981   3.091 -0.4787  4.6499  1.0996
 9224SOL    HW239135   2.824   1.023   3.081  1.5294  0.4133  1.1207
 9225SOL     OW39136   0.487   0.602   2.185 -0.2012 -0.3247  0.0072
 9225SOL    HW139137   0.466   0.672   2.247 -0.9939 -0.6621  0.1213
 9225SOL    HW239138   0.509   0.650   2.105 -2.7428  1.8208  0.5961
 9226SOL     OW39139   3.947   3.874   0.177  0.3246 -0.1226  0.6014
 9226SOL    HW139140   4.000   3.866   0.098  0.9961 -2.2264  1.2815
 9226SOL    HW239141   3.869   3.915   0.138 -0.1236 -0.3315  1.2763
 9227SOL     OW39142   0.616   0.750  17.209 -0.1945 -0.3288 -0.3849
 9227SOL    HW139143   0.652   0.712  17.129  1.8745 -1.3312  1.0079
 9227SOL    HW239144   0.679   0.822  17.216 -0.2017 -0.6176  2.6934
 9228SOL     OW39145   3.534   2.151   1.827  0.2609 -0.0338  0.0432
 9228SOL    HW139146   3.571   2.198   1.752 -0.2194 -2.2134 -1.5685
 9228SOL    HW239147   3.439   2.149   1.816  0.5038  1.2970 -2.4638
 9229SOL     OW39148   1.145   4.634   2.936  0.3916  0.0965 -0.0306
 9229SOL    HW139149   1.134   4.562   2.997 -0.3422  0.8423  0.7057
 9229SOL    HW239150   1.084   4.607   2.867  1.4165  2.0229 -1.7218
 9230SOL     OW39151   0.947   3.897   0.147 -0.2749 -0.5349 -0.4825
 9230SOL    HW139152   0.968   3.946   0.227 -0.3479  0.8047 -1.2931
 9230SOL    HW239153   1.036   3.864   0.134  0.0932 -0.1026  0.8821
 9231SOL     OW39154   0.011   3.040   3.118  0.2214  0.5462  0.4914
 9231SOL    HW139155   4.686   3.113   3.156  0.5439  0.4242  1.1248
 9231SOL    HW239156   0.025   3.075   3.030 -1.5777  1.1851  0.4556
 9232SOL     OW39157   3.396   1.204   8.232  1.0554 -0.5135  0.5971
 9232SOL    HW139158   3.376   1.225   8.141 -2.0131 -1.4284  1.0630
 9232SOL    HW239159   3.312   1.224   8.274  0.4625 -2.6709  0.4054
 9233SOL     OW39160   3.509   3.544  12.846 -0.1080  0.2608 -0.4453
 9233SOL    HW139161   3.537   3.604  12.915 -1.5377 -0.8702  1.1256
 9233SOL    HW239162   3.565   3.559  12.770  0.6912  0.3423  0.1620
 9234SOL     OW39163   2.822   3.421  17.563 -0.4322 -0.3434  0.0164
 9234SOL    HW139164   2.770   3.467  17.628  1.4093  3.2033 -1.0175
 9234SOL    HW239165   2.912   3.415  17.598 -0.0841 -1.6146 -1.1045
 9235SOL     OW39166   4.090   0.621   1.866 -0.1236 -0.0552  0.2325
 9235SOL    HW139167   4.010   0.614   1.814 -0.8902 -1.0493  1.5382
 9235SOL    HW239168   4.099   0.716   1.875 -4.5944  0.4850 -1.1801
 9236SOL     OW39169   0.313   3.171   5.622  0.0773 -0.5204 -0.1038
 9236SOL    HW139170   0.308   3.232   5.549  1.7589  0.2304  0.4168
 9236SOL    HW239171   0.309   3.087   5.577  0.6392 -1.4657  1.5802
 9237SOL     OW39172   2.548   4.250  13.171  0.0503  0.4625  0.4736
 9237SOL    HW139173   2.551   4.346  13.170  1.8774  0.4325  2.9587
 9237SOL    HW239174   2.459   4.223  13.150  0.2540  0.7462 -0.7669
 9238SOL     OW39175   1.169   1.805   9.613 -0.0873  0.7506 -0.1265
 9238SOL    HW139176   1.108   1.798   9.540 -1.6135 -1.8866  1.4119
 9238SOL    HW239177   1.129   1.741   9.672  0.3439 -0.9208 -1.6533
 9239SOL     OW39178   4.345   3.313   7.663  0.8443  0.0157 -0.6260
 9239SOL    HW139179   4.261   3.358   7.657  1.3758  1.0841 -0.0588
 9239SOL    HW239180   4.400   3.370   7.717  0.2411 -0.0900  0.0941
 9240SOL     OW39181   0.410   2.650  12.994  0.0656 -0.1320 -0.2860
 9240SOL    HW139182   0.339   2.713  12.992 -1.0169 -1.3293  0.1528
 9240SOL    HW239183   0.412   2.635  13.089  0.4252  1.3402 -0.0735
 9241SOL     OW39184   2.300   3.707   2.526 -0.6797  0.4173 -0.0954
 9241SOL    HW139185   2.321   3.615   2.545 -0.4493  0.6609  0.8335
 9241SOL    HW239186   2.377   3.731   2.474  0.5437 -0.3944  1.3342
 9242SOL     OW39187   4.482   2.180   1.958 -0.1045  0.4152 -0.0043
 9242SOL    HW139188   4.489   2.263   2.005 -0.2012  0.8842 -0.8307
 9242SOL    HW239189   4.387   2.188   1.966 -0.0908  1.4098 -0.8365
 9243SOL     OW39190   0.417   2.293   7.370  0.3450 -0.3026  0.6457
 9243SOL    HW139191   0.445   2.203   7.385  1.7625  0.3654  2.0715
 9243SOL    HW239192   0.349   2.293   7.437 -0.7010  1.5339 -0.4082
 9244SOL     OW39193   1.247   0.910   8.458 -0.0224  0.2284  0.4781
 9244SOL    HW139194   1.230   0.881   8.548  0.7731  0.7101  0.7797
 9244SOL    HW239195   1.179   0.975   8.443 -2.0819 -2.5238 -2.1726
 9245SOL     OW39196   3.144   0.754   6.345  0.1376  0.0657 -0.1641
 9245SOL    HW139197   3.115   0.669   6.312 -2.4312  1.9572 -2.7749
 9245SOL    HW239198   3.157   0.796   6.260 -1.3842  1.8371  0.4662
 9246SOL     OW39199   0.330   4.046   7.945  0.8027  0.0102 -0.1417
 9246SOL    HW139200   0.273   4.058   7.869  2.5831  3.8706 -0.8746
 9246SOL    HW239201   0.339   4.132   7.987  1.0608 -0.6760  1.2186
 9247SOL     OW39202   3.212   1.622   4.889 -0.0048 -0.0249  0.2598
 9247SOL    HW139203   3.254   1.663   4.814  1.0325 -0.1561  0.7623
 9247SOL    HW239204   3.121   1.645   4.871 -0.1148 -0.8647 -0.2850
 9248SOL     OW39205   3.627   3.134  12.373  0.2021  0.0548 -0.5693
 9248SOL    HW139206   3.570   3.169  12.305 -0.9836 -1.2447 -0.2420
 9248SOL    HW239207   3.716   3.155  12.344  0.5308 -0.7046 -0.1012
 9249SOL     OW39208   4.314   0.527   4.143  0.2744 -0.0785 -0.4584
 9249SOL    HW139209   4.246   0.530   4.211  0.4926  0.9479 -0.2780
 9249SOL    HW239210   4.391   0.562   4.187  0.7847 -1.2249 -0.4410
 9250SOL     OW39211   1.432   3.054   0.781  0.3277  0.4858 -0.1282
 9250SOL    HW139212   1.521   3.077   0.808  0.6025  1.5717 -1.9228
 9250SOL    HW239213   1.457   2.996   0.709 -0.4734  1.0860 -0.8961
 9251SOL     OW39214   0.735   0.305   3.576  0.0393  0.1345  0.0447
 9251SOL    HW139215   0.769   0.278   3.491  0.7760 -1.2983  0.7833
 9251SOL    HW239216   0.788   0.381   3.599 -1.7411  1.1110  0.9677
 9252SOL     OW39217   2.933   1.628   5.133 -0.0100  0.3583 -0.5145
 9252SOL    HW139218   2.893   1.551   5.173  0.4246  0.0776 -0.6194
 9252SOL    HW239219   3.023   1.624   5.163 -0.9163  0.2354  2.1423
 9253SOL     OW39220   0.332   0.985   9.391  0.6787 -0.3973 -0.4497
 9253SOL    HW139221   0.270   1.056   9.376 -1.0022 -2.1267 -1.6682
 9253SOL    HW239222   0.379   1.025   9.464  2.6510 -0.6059 -1.5969
 9254SOL     OW39223   4.425   4.594   8.855  0.0381 -0.0498  0.1497
 9254SOL    HW139224   4.409   4.546   8.937  2.8668  2.6289  2.2603
 9254SOL    HW239225   4.354   4.560   8.800  1.2505 -1.1830 -0.6881
 9255SOL     OW39226   1.641   1.621  10.826 -1.0381  0.0246 -0.7035
 9255SOL    HW139227   1.573   1.563  10.859 -0.7392  0.5565  0.8505
 9255SOL    HW239228   1.721   1.574  10.848 -0.5022  0.4666 -1.7142
 9256SOL     OW39229   3.921   3.216  13.082 -0.2512 -0.2793  0.4640
 9256SOL    HW139230   4.005   3.208  13.128  0.3004  1.8171 -0.2119
 9256SOL    HW239231   3.865   3.221  13.159 -2.4042  3.0032 -1.3417
 9257SOL     OW39232   1.908   2.635   6.613 -0.3406  0.1233 -0.2823
 9257SOL    HW139233   1.934   2.725   6.634 -3.2704  0.8437  0.3256
 9257SOL    HW239234   1.950   2.586   6.683  2.0805  3.8561  0.8706
 9258SOL     OW39235   3.851   4.461   5.517 -1.1660 -0.4765  0.5847
 9258SOL    HW139236   3.922   4.422   5.568 -1.3118 -1.4146  0.0619
 9258SOL    HW239237   3.827   4.542   5.562 -0.2034 -0.1623  0.5342
 9259SOL     OW39238   4.571   3.726   7.816  0.4983 -0.1900 -0.0739
 9259SOL    HW139239   4.631   3.757   7.884 -0.7783  0.4348  0.7808
 9259SOL    HW239240   4.488   3.770   7.836 -1.0342 -2.5304 -1.2779
 9260SOL     OW39241   4.127   2.569   8.765 -0.2103 -0.6472  0.4594
 9260SOL    HW139242   4.210   2.523   8.753  1.4342  2.9970 -2.3930
 9260SOL    HW239243   4.126   2.624   8.686  1.3214 -0.5984  0.4698
 9261SOL     OW39244   2.292   2.278   9.620 -0.6977 -0.2388 -0.0788
 9261SOL    HW139245   2.201   2.268   9.649 -0.6130  0.0605  0.2871
 9261SOL    HW239246   2.286   2.346   9.552 -0.0360 -0.1320 -0.0305
 9262SOL     OW39247   4.368   0.226   5.761 -0.0391 -0.1476  0.7857
 9262SOL    HW139248   4.395   0.183   5.842 -1.3218 -3.3008 -0.4690
 9262SOL    HW239249   4.393   0.316   5.781 -2.3155  1.0824 -1.9497
 9263SOL     OW39250   1.699   4.295   5.760 -0.0776  0.0985  0.1552
 9263SOL    HW139251   1.757   4.290   5.684  0.3243 -0.5084  0.5049
 9263SOL    HW239252   1.760   4.270   5.830 -0.8989  0.9720  1.1893
 9264SOL     OW39253   1.525   0.834   6.522 -0.1524  0.0246 -0.2483
 9264SOL    HW139254   1.436   0.867   6.506  0.0558  1.7147  1.9669
 9264SOL    HW239255   1.573   0.905   6.480 -1.2881  0.7318 -0.3548
 9265SOL     OW39256   0.402   1.105   5.689  0.0683 -0.1513 -0.0523
 9265SOL    HW139257   0.480   1.152   5.718 -0.0638  1.2254 -1.9354
 9265SOL    HW239258   0.342   1.179   5.683  2.5026  1.7817 -0.6877
 9266SOL     OW39259   4.205   0.701   7.137  0.1950 -0.2140  0.6526
 9266SOL    HW139260   4.153   0.631   7.177 -0.7838  1.5556  2.4427
 9266SOL    HW239261   4.234   0.749   7.215 -1.6777 -0.0927  1.2616
 9267SOL     OW39262   1.263   1.065   0.423 -0.2969 -0.2656  0.5357
 9267SOL    HW139263   1.301   1.147   0.391  0.7171  0.2027  2.8923
 9267SOL    HW239264   1.202   1.099   0.488 -0.3007 -0.4302  0.6190
 9268SOL     OW39265   0.360   2.469   6.036 -0.5079 -0.1600 -0.2309
 9268SOL    HW139266   0.379   2.431   6.121  0.1462  0.9372  0.1216
 9268SOL    HW239267   0.323   2.395   5.987  2.2217 -0.7588 -1.3782
 9269SOL     OW39268   2.815   1.179   9.882 -0.6535  0.6495 -0.2553
 9269SOL    HW139269   2.794   1.139   9.797 -3.0482  1.1004  0.1277
 9269SOL    HW239270   2.900   1.223   9.870  0.8918 -2.0569  0.8703
 9270SOL     OW39271   0.172   3.603   1.980 -0.0008  0.2131  0.1634
 9270SOL    HW139272   0.261   3.584   2.008  0.2787  0.8692 -0.2736
 9270SOL    HW239273   0.177   3.699   1.979 -1.4485  0.2919 -0.6842
 9271SOL     OW39274   2.131   0.761   8.927  0.0070  0.5909  0.1344
 9271SOL    HW139275   2.098   0.847   8.954  0.5940  0.8732 -0.0527
 9271SOL    HW239276   2.101   0.716   9.005  2.0692 -2.3515 -0.7927
 9272SOL     OW39277   0.785   2.614   5.079 -0.4811  0.0328 -0.5876
 9272SOL    HW139278   0.698   2.611   5.041 -2.0696 -0.1454  3.0567
 9272SOL    HW239279   0.797   2.525   5.114 -0.5881  0.0147 -0.5988
 9273SOL     OW39280   3.765   0.029   8.209 -0.4639 -0.1195 -0.1525
 9273SOL    HW139281   3.699   4.720   8.270 -1.4598  2.9899  0.3725
 9273SOL    HW239282   3.836   4.703   8.249 -1.9857 -1.3520  1.0534
 9274SOL     OW39283   3.012   1.302   2.552 -0.2584  0.5577 -0.3079
 9274SOL    HW139284   3.090   1.269   2.596  0.3706 -0.0096 -1.8304
 9274SOL    HW239285   2.973   1.226   2.509  0.1952  1.4611 -2.3012
 9275SOL     OW39286   2.758   0.907  15.835  0.4062 -0.7611  0.0174
 9275SOL    HW139287   2.690   0.945  15.892  1.1767  0.5362  0.0922
 9275SOL    HW239288   2.761   0.979  15.772  0.1551 -1.7769 -1.1239
 9276SOL     OW39289   1.206   4.064  10.920 -0.0735 -0.0264  0.6121
 9276SOL    HW139290   1.196   4.083  10.827 -1.0213 -1.3009  0.4542
 9276SOL    HW239291   1.175   4.144  10.960 -1.5031 -0.2392 -0.0828
 9277SOL     OW39292   3.463   2.859   7.067  0.0199 -0.2600  0.1547
 9277SOL    HW139293   3.507   2.817   7.141 -0.4011 -2.6064 -0.9123
 9277SOL    HW239294   3.479   2.951   7.086  0.9066 -0.0185 -1.7242
 9278SOL     OW39295   0.145   0.035   2.338 -0.0907  0.2819 -0.2529
 9278SOL    HW139296   0.226   0.012   2.293 -1.6957 -2.6194 -1.6454
 9278SOL    HW239297   0.136   4.696   2.410 -0.7605  1.8518  1.0442
 9279SOL     OW39298   4.215   4.554   7.202 -0.1123  0.3880 -0.0814
 9279SOL    HW139299   4.167   4.471   7.205  0.1848  0.2950  2.3907
 9279SOL    HW239300   4.209   4.587   7.292 -5.1955 -0.7168 -0.0181
 9280SOL     OW39301   2.592   0.382   7.891  0.7638 -0.2213  0.1230
 9280SOL    HW139302   2.535   0.415   7.821  3.5513  0.3710 -1.8841
 9280SOL    HW239303   2.596   0.454   7.954  1.4586 -1.6110  1.6649
 9281SOL     OW39304   4.692   0.643   4.578 -0.6575 -0.3740  0.0289
 9281SOL    HW139305   4.634   0.712   4.548  0.3716 -0.1761 -1.4689
 9281SOL    HW239306   4.688   0.591   4.498  0.5151 -2.4601  1.2957
 9282SOL     OW39307   0.194   3.633   0.296  0.1145  0.0463  0.4109
 9282SOL    HW139308   0.149   3.561   0.340  0.3235 -0.9395 -1.0088
 9282SOL    HW239309   0.261   3.649   0.362  1.5597 -0.7638 -0.8850
 9283SOL     OW39310   0.579   1.409  17.508  0.0395 -0.1752  0.6884
 9283SOL    HW139311   0.493   1.371  17.525 -0.4778  0.6138 -0.1922
 9283SOL    HW239312   0.556   1.492  17.549  0.9494 -0.0283  0.9140
 9284SOL     OW39313   2.479   1.966   7.201 -0.1215  0.0767 -0.2658
 9284SOL    HW139314   2.417   1.909   7.156 -2.2038  0.3251  2.3115
 9284SOL    HW239315   2.425   2.045   7.204 -2.0653 -1.2495 -0.6560
 9285SOL     OW39316   4.542   0.745   8.636  0.3588 -0.1075  0.8710
 9285SOL    HW139317   4.531   0.657   8.674  1.1805 -1.5820 -2.2770
 9285SOL    HW239318   4.624   0.775   8.674 -0.4049  0.1496  2.3437
 9286SOL     OW39319   3.327   4.143   9.027  0.6108 -0.3348 -0.0200
 9286SOL    HW139320   3.272   4.119   9.102 -0.3797 -0.9814 -0.9353
 9286SOL    HW239321   3.380   4.213   9.064 -0.2502  0.6416 -0.5978
 9287SOL     OW39322   4.294   2.597  14.210 -0.1145 -0.0959  0.1171
 9287SOL    HW139323   4.209   2.582  14.169 -0.8407 -0.4581  1.7927
 9287SOL    HW239324   4.282   2.669  14.272 -0.5229 -1.3726  1.5163
 9288SOL     OW39325   4.284   2.089   0.648  0.1989  0.3702  0.2487
 9288SOL    HW139326   4.256   2.040   0.724 -2.3163  0.5909 -0.5528
 9288SOL    HW239327   4.212   2.086   0.585  0.1365 -0.9128  0.3972
 9289SOL     OW39328   4.290   3.834   5.109 -0.1978  0.3702  0.1978
 9289SOL    HW139329   4.223   3.898   5.133 -2.1214 -1.7662  0.5373
 9289SOL    HW239330   4.229   3.784   5.054 -0.4090  0.4244  0.3805
 9290SOL     OW39331   1.235   1.123   3.528 -0.3040 -0.6243  0.3385
 9290SOL    HW139332   1.307   1.183   3.510  0.0326 -0.7773  1.1471
 9290SOL    HW239333   1.154   1.170   3.506 -1.5375 -1.9083  2.1630
 9291SOL     OW39334   2.225   3.528   6.538 -0.6614  0.0365 -0.2179
 9291SOL    HW139335   2.156   3.594   6.534 -0.3826  0.0872 -3.6648
 9291SOL    HW239336   2.283   3.574   6.599 -2.2051  0.7693  0.6949
 9292SOL     OW39337   1.661   4.649  15.002  0.1617 -0.1817 -0.1161
 9292SOL    HW139338   1.586   4.704  14.981  0.5335  0.0391 -0.8718
 9292SOL    HW239339   1.724   4.695  14.946 -1.8103  1.0059 -1.3121
 9293SOL     OW39340   2.196   1.716   5.435 -0.0264 -0.4775 -0.0233
 9293SOL    HW139341   2.198   1.679   5.347 -1.3932 -1.6938  0.4557
 9293SOL    HW239342   2.162   1.804   5.414  1.4338 -0.1623 -1.0586
 9294SOL     OW39343   3.418   0.031   5.516  0.1083 -0.2282  0.2780
 9294SOL    HW139344   3.465   0.008   5.436  0.4777  0.8929  0.1794
 9294SOL    HW239345   3.329   0.007   5.489 -0.1322  0.3587  0.5510
 9295SOL     OW39346   4.667   0.326   0.596  0.2107 -0.6209 -0.3606
 9295SOL    HW139347   4.641   0.393   0.533 -1.8941 -2.2894 -1.2583
 9295SOL    HW239348   4.667   0.262   0.525  0.7791 -0.7689 -0.2298
 9296SOL     OW39349   4.485   1.394   7.265  0.0732  0.0680 -0.2386
 9296SOL    HW139350   4.549   1.430   7.327 -0.1109  1.6989 -0.9810
 9296SOL    HW239351   4.513   1.303   7.264 -0.3465 -0.0765  0.7071
 9297SOL     OW39352   0.453   0.278   6.900  0.1052  0.5716  0.6748
 9297SOL    HW139353   0.528   0.337   6.905 -0.9225  1.7944  1.5264
 9297SOL    HW239354   0.386   0.338   6.932  0.3309  1.1911 -0.0191
 9298SOL     OW39355   4.377   2.511   5.924  0.0799 -0.6369 -0.1189
 9298SOL    HW139356   4.384   2.605   5.908 -0.0480 -1.4668 -4.9459
 9298SOL    HW239357   4.312   2.506   5.994  0.8619 -0.8456  0.5909
 9299SOL     OW39358   2.567   3.661  16.069 -0.3288 -0.1086  0.3568
 9299SOL    HW139359   2.576   3.747  16.028  0.7816  0.6383  2.1623
 9299SOL    HW239360   2.490   3.631  16.020 -1.2709  0.1413  1.6836
 9300SOL     OW39361   0.990   2.146  15.669  0.3758 -0.0279  0.5319
 9300SOL    HW139362   1.030   2.063  15.696 -0.0003 -0.3512  0.1046
 9300SOL    HW239363   0.947   2.128  15.585 -0.2145  1.6153  0.4965
 9301SOL     OW39364   4.412   3.898   7.287  0.5850 -0.0294 -0.1815
 9301SOL    HW139365   4.475   3.917   7.217 -0.9864  2.0183 -1.0413
 9301SOL    HW239366   4.445   3.822   7.335  0.2716  0.1861  0.3710
 9302SOL     OW39367   2.188   2.605   8.971  0.5214  0.2104  0.3813
 9302SOL    HW139368   2.233   2.676   9.018  0.2413  1.5382 -1.3143
 9302SOL    HW239369   2.224   2.602   8.882 -1.2430  0.1659 -0.3188
 9303SOL     OW39370   3.153   2.784   2.488 -0.0246 -0.2013 -0.2771
 9303SOL    HW139371   3.171   2.702   2.443 -3.1325 -0.9487 -0.1283
 9303SOL    HW239372   3.173   2.760   2.579 -1.1736  1.4235  0.4138
 9304SOL     OW39373   1.691   3.931  13.331 -0.2443  0.0275  0.2837
 9304SOL    HW139374   1.610   3.939  13.282  0.4500  1.2502 -0.6755
 9304SOL    HW239375   1.738   3.992  13.274  0.7629 -0.8352  0.1919
 9305SOL     OW39376   3.782   4.322   6.820 -0.3589 -0.0053  0.1115
 9305SOL    HW139377   3.687   4.322   6.828 -0.3232 -0.1426  0.5459
 9305SOL    HW239378   3.807   4.269   6.896  1.8502 -1.2464 -1.4827
 9306SOL     OW39379   0.236   1.722  15.958 -0.8486  0.5173 -0.1981
 9306SOL    HW139380   0.212   1.760  15.873  0.3401  0.5709 -0.5106
 9306SOL    HW239381   0.149   1.683  15.970 -1.6183  2.5187  0.8330
 9307SOL     OW39382   4.237   0.861  11.863 -0.0706 -0.2657 -0.7380
 9307SOL    HW139383   4.142   0.854  11.872 -0.0975  0.3220 -0.5975
 9307SOL    HW239384   4.244   0.838  11.770  2.4903 -2.7333  0.0507
 9308SOL     OW39385   3.573   4.403   8.841 -0.1143  0.0920 -0.1677
 9308SOL    HW139386   3.519   4.349   8.783 -1.6436  1.7308 -0.2691
 9308SOL    HW239387   3.653   4.350   8.840  1.7261  2.8502  0.7450
 9309SOL     OW39388   3.865   1.314   6.494  0.6035 -0.2229  0.3634
 9309SOL    HW139389   3.853   1.407   6.513 -2.3128 -0.3106 -0.9834
 9309SOL    HW239390   3.960   1.306   6.489  0.6809 -0.3790  2.0198
 9310SOL     OW39391   1.190   2.633  13.571 -0.4264 -0.6591 -0.7070
 9310SOL    HW139392   1.126   2.613  13.639  0.1856  0.6377  0.2539
 9310SOL    HW239393   1.128   2.674  13.511 -0.8159 -0.7727 -0.3772
 9311SOL     OW39394   2.200   3.721  11.125  0.0060 -1.1073 -0.1231
 9311SOL    HW139395   2.293   3.730  11.148  0.6239 -4.2962 -1.3233
 9311SOL    HW239396   2.175   3.673  11.204 -0.6222 -2.3328 -1.0761
 9312SOL     OW39397   2.737   1.111   5.655 -0.0496  0.5882  0.7174
 9312SOL    HW139398   2.821   1.145   5.624 -0.7050  2.1584  0.6673
 9312SOL    HW239399   2.677   1.161   5.599  0.2132 -0.9159 -0.9206
 9313SOL     OW39400   3.220   2.540   5.531  0.1500  0.3613  0.5589
 9313SOL    HW139401   3.261   2.467   5.577  0.1028  0.5042  0.8281
 9313SOL    HW239402   3.145   2.564   5.586 -1.4859 -1.1975 -0.9850
 9314SOL     OW39403   3.941   3.213   5.359 -0.1163  0.5103 -0.4488
 9314SOL    HW139404   3.986   3.275   5.416 -1.2520 -0.8309  1.9129
 9314SOL    HW239405   3.870   3.266   5.323  2.6896  2.2262 -3.4197
 9315SOL     OW39406   2.901   0.860   1.452  0.7423 -0.1572 -0.4251
 9315SOL    HW139407   2.948   0.943   1.442 -2.1142  1.5708  0.4420
 9315SOL    HW239408   2.900   0.850   1.547 -2.1949  1.4568 -0.2782
 9316SOL     OW39409   2.974   2.996   7.824 -0.1262 -0.9082 -0.2088
 9316SOL    HW139410   2.925   3.022   7.745  1.7249  1.6127 -0.5060
 9316SOL    HW239411   3.065   2.998   7.795  0.2138 -0.2215  0.9344
 9317SOL     OW39412   2.874   2.286   6.629  0.2525 -0.2405  0.1595
 9317SOL    HW139413   2.946   2.241   6.671 -0.7323 -1.5297  0.4803
 9317SOL    HW239414   2.849   2.357   6.689  0.2101 -0.6098  0.5706
 9318SOL     OW39415   3.308   4.459   7.879 -0.4368 -0.0246 -0.3359
 9318SOL    HW139416   3.397   4.494   7.871 -0.2793 -0.6767 -1.4114
 9318SOL    HW239417   3.317   4.376   7.925  1.7846  0.8732  0.8281
 9319SOL     OW39418   4.016   2.858   4.626  0.4791  0.1280 -0.1907
 9319SOL    HW139419   3.971   2.792   4.573 -1.0258 -0.5193  1.8949
 9319SOL    HW239420   3.942   2.910   4.657  0.4766  0.0025  0.0117
 9320SOL     OW39421   1.471   0.237   8.389 -0.4425  0.4036 -0.8446
 9320SOL    HW139422   1.474   0.322   8.433 -0.7267 -0.7861  1.4791
 9320SOL    HW239423   1.413   0.258   8.315  1.1724  1.8988 -1.6823
 9321SOL     OW39424   0.123   0.508   8.733  0.7195  0.5743 -0.0795
 9321SOL    HW139425   0.112   0.464   8.649  0.6696  1.5413 -0.5682
 9321SOL    HW239426   0.034   0.497   8.767  1.1400 -0.7274  0.6383
 9322SOL     OW39427   0.438   3.210   6.539 -0.0805  0.0211 -0.2203
 9322SOL    HW139428   0.480   3.185   6.622  0.2930  1.8950  0.1501
 9322SOL    HW239429   0.474   3.144   6.480  0.3275 -0.7755  0.9184
 9323SOL     OW39430   1.913   1.655   5.360 -0.4229  0.0412  0.0401
 9323SOL    HW139431   1.972   1.597   5.313  0.3827  0.4632  0.5170
 9323SOL    HW239432   1.928   1.739   5.317  1.2237  0.3337  1.1543
 9324SOL     OW39433   1.148   2.161   1.987  0.4427 -0.1529  0.7717
 9324SOL    HW139434   1.133   2.089   1.927 -0.7262  0.1363  0.7134
 9324SOL    HW239435   1.192   2.118   2.060  1.0138 -1.7239 -0.5160
 9325SOL     OW39436   3.574   2.592   1.531 -0.4710 -0.3106  0.0483
 9325SOL    HW139437   3.640   2.525   1.552  0.8400  1.2795  1.0262
 9325SOL    HW239438   3.551   2.623   1.619  0.7578  1.5258 -0.2876
 9326SOL     OW39439   4.364   2.816   1.734  0.0067  0.3103  0.1713
 9326SOL    HW139440   4.299   2.854   1.794  0.0734 -1.0189  1.0882
 9326SOL    HW239441   4.359   2.876   1.660  0.4959  0.9037  0.6251
 9327SOL     OW39442   0.926   1.548  14.865  0.2669 -0.3724 -0.1476
 9327SOL    HW139443   0.977   1.546  14.784  1.1105 -0.6202  0.3829
 9327SOL    HW239444   0.845   1.582  14.828  0.3013 -0.2220 -0.0854
 9328SOL     OW39445   2.577   0.362  11.197  0.6341  0.2596  0.4519
 9328SOL    HW139446   2.516   0.313  11.252 -0.5239  0.0238 -1.0198
 9328SOL    HW239447   2.519   0.396  11.128  1.9929  2.1748  0.2479
 9329SOL     OW39448   3.472   2.617  15.337  0.0341 -0.0769  0.1662
 9329SOL    HW139449   3.545   2.633  15.277 -0.1939 -2.7249 -0.7855
 9329SOL    HW239450   3.502   2.542  15.388  0.0576  1.2266  2.0517
 9330SOL     OW39451   0.999   3.936   3.142  0.0413 -0.3026  0.0391
 9330SOL    HW139452   1.085   3.973   3.121 -0.5048  0.8170 -0.2329
 9330SOL    HW239453   0.952   4.014   3.173 -1.6699 -1.3684  0.0837
 9331SOL     OW39454   0.187   4.079  14.992 -0.1335  0.4403 -0.0519
 9331SOL    HW139455   0.111   4.124  15.029 -0.1229 -0.1312  0.6485
 9331SOL    HW239456   0.218   4.030  15.068 -3.6820  1.8330  2.3408
 9332SOL     OW39457   1.109   3.864   8.259 -0.2897 -0.4538 -0.8491
 9332SOL    HW139458   1.140   3.825   8.341 -0.5447  0.6411 -0.2303
 9332SOL    HW239459   1.187   3.867   8.203 -0.2288 -1.4929 -0.8301
 9333SOL     OW39460   1.072   0.232   7.051 -0.0145  0.5470 -0.7795
 9333SOL    HW139461   1.007   0.285   7.006  0.1769  0.9990 -0.5306
 9333SOL    HW239462   1.082   0.156   6.994  0.8799 -1.0834  1.5101
 9334SOL     OW39463   3.265   2.798  14.788 -0.4800 -0.2146  0.0936
 9334SOL    HW139464   3.170   2.802  14.798 -0.6354  0.2143 -1.6140
 9334SOL    HW239465   3.287   2.888  14.764  0.8593 -0.9253 -1.3709
 9335SOL     OW39466   3.044   0.163   2.719  1.1768  0.4309  0.6493
 9335SOL    HW139467   3.099   0.085   2.709  0.6286  0.2338 -0.7658
 9335SOL    HW239468   2.986   0.137   2.791  1.2744 -1.0841  0.1702
 9336SOL     OW39469   3.556   1.881   0.092 -0.7432  0.2665  0.5385
 9336SOL    HW139470   3.548   1.800   0.042  1.9150  1.2248 -1.3969
 9336SOL    HW239471   3.645   1.879   0.128 -0.8944  3.1112  1.0127
 9337SOL     OW39472   0.211   1.364   0.728 -0.0522 -0.1408 -0.1431
 9337SOL    HW139473   0.163   1.315   0.795  1.9294  1.5295  2.5411
 9337SOL    HW239474   0.169   1.340   0.646 -3.7506  2.6915  0.9561
 9338SOL     OW39475   2.101   4.577  17.399  0.5433  0.2573  0.0344
 9338SOL    HW139476   2.099   4.500  17.456  0.1699  0.0893 -0.2068
 9338SOL    HW239477   2.132   4.545  17.314 -0.8850 -0.7950 -0.0901
 9339SOL     OW39478   4.649   0.997  13.223  0.2205  0.4872  1.1294
 9339SOL    HW139479   4.717   1.063  13.239  1.2912 -0.2027 -0.5785
 9339SOL    HW239480   4.673   0.957  13.140  0.8541 -0.5645  1.8151
 9340SOL     OW39481   1.205   4.327   5.833 -0.0501  0.3307  0.1359
 9340SOL    HW139482   1.178   4.255   5.890 -2.6519  2.9672  2.2366
 9340SOL    HW239483   1.124   4.325   5.782  1.0920  1.8314 -1.7215
 9341SOL     OW39484   1.070   2.981   4.030 -0.2694 -0.1546 -0.0610
 9341SOL    HW139485   1.051   3.042   3.958 -2.7293 -2.1179 -1.0688
 9341SOL    HW239486   1.096   3.041   4.101  0.3505  0.0081 -0.4271
 9342SOL     OW39487   0.161   2.645  16.002  0.3207 -0.0921 -0.5138
 9342SOL    HW139488   0.096   2.696  15.954  0.2465 -2.0683 -2.4776
 9342SOL    HW239489   0.100   2.608  16.066  1.8380 -0.1884  0.8826
 9343SOL     OW39490   0.342   0.629   7.792  0.3906  0.1937 -0.1454
 9343SOL    HW139491   0.345   0.666   7.880 -1.9189  1.8254 -0.7729
 9343SOL    HW239492   0.312   0.540   7.809 -0.6308  0.7052  0.7137
 9344SOL     OW39493   4.185   3.521   7.384 -0.4827  0.2114  0.4986
 9344SOL    HW139494   4.210   3.429   7.385 -1.0941  0.0167 -1.2638
 9344SOL    HW239495   4.266   3.568   7.402  0.4231 -1.4298  0.7297
 9345SOL     OW39496   2.880   3.710  16.814  0.4351  0.4259 -0.1643
 9345SOL    HW139497   2.897   3.763  16.736  2.3505  1.0822  0.6996
 9345SOL    HW239498   2.941   3.640  16.792 -0.2580  0.0429 -0.8658
 9346SOL     OW39499   4.247   3.280   6.773  0.2891  0.0026 -0.2476
 9346SOL    HW139500   4.197   3.358   6.748 -1.7043 -1.1841  0.0028
 9346SOL    HW239501   4.333   3.291   6.734 -0.2592 -0.6078 -1.6203
 9347SOL     OW39502   2.218   0.255  17.291  0.1059  0.1749 -0.7650
 9347SOL    HW139503   2.238   0.241  17.383  1.7286  1.9226 -0.8475
 9347SOL    HW239504   2.306   0.280  17.261  0.7323 -0.3362  0.6542
 9348SOL     OW39505   0.003   2.234   4.881  0.5553 -0.2673 -0.5233
 9348SOL    HW139506   0.017   2.309   4.824 -0.0390 -0.5444 -1.0349
 9348SOL    HW239507   4.642   2.262   4.914  2.4183  2.4646  1.8816
 9349SOL     OW39508   3.442   2.018   6.329  0.0761  0.1159 -0.1967
 9349SOL    HW139509   3.439   2.113   6.327  0.7922  0.1520  0.8963
 9349SOL    HW239510   3.351   2.010   6.358  0.7772 -1.4870  1.5040
 9350SOL     OW39511   4.655   4.414   6.005 -0.0476 -0.6527 -0.3829
 9350SOL    HW139512   4.583   4.350   5.998 -1.3286  0.6976  0.3821
 9350SOL    HW239513   0.005   4.353   5.999  1.3361  0.9599  0.3386
 9351SOL     OW39514   3.425   0.906   4.402  0.4432  0.2911 -0.0513
 9351SOL    HW139515   3.361   0.874   4.338 -0.0180  0.5226  0.2967
 9351SOL    HW239516   3.512   0.882   4.369 -0.0556 -2.0114  0.2815
 9352SOL     OW39517   0.130   4.635   4.247 -0.4374 -0.1705 -0.1180
 9352SOL    HW139518   0.072   4.605   4.176 -1.6256  0.4309  0.5969
 9352SOL    HW239519   0.210   4.616   4.197  0.2533  2.0116  0.1691
 9353SOL     OW39520   0.482   2.707  13.586 -0.0420 -0.0955 -0.1525
 9353SOL    HW139521   0.403   2.760  13.593  1.1485  1.6907 -0.2177
 9353SOL    HW239522   0.470   2.662  13.670 -0.7113 -2.0585 -1.3202
 9354SOL     OW39523   3.280   0.972  17.167 -0.5547 -0.8611 -0.2753
 9354SOL    HW139524   3.312   1.027  17.096 -0.2249 -0.0332  0.5123
 9354SOL    HW239525   3.302   1.028  17.242 -2.1765 -2.8525  1.6844
 9355SOL     OW39526   0.298   2.297   4.068 -0.5192 -0.0763 -0.0098
 9355SOL    HW139527   0.273   2.205   4.060 -1.6966  0.4263 -2.0983
 9355SOL    HW239528   0.284   2.300   4.163 -0.3121  0.4070  0.0088
 9356SOL     OW39529   1.847   0.576   3.070  0.1189 -0.2617  0.5534
 9356SOL    HW139530   1.925   0.603   3.021 -0.1267 -0.4844  0.0362
 9356SOL    HW239531   1.797   0.519   3.012  0.4721 -0.7608  0.7455
 9357SOL     OW39532   2.116   0.225   4.127  0.4244 -0.4122  0.3630
 9357SOL    HW139533   2.147   0.270   4.206  0.7355  0.3022 -0.1743
 9357SOL    HW239534   2.034   0.269   4.103  0.7561 -1.9945 -3.5509
 9358SOL     OW39535   1.674   1.053  16.459 -0.5171 -0.6859 -0.2190
 9358SOL    HW139536   1.714   1.027  16.376  1.1727 -4.3105  1.7176
 9358SOL    HW239537   1.719   1.007  16.530  1.0273  1.3593  0.1167
 9359SOL     OW39538   1.980   1.298   6.199 -0.6372  0.0397 -0.2979
 9359SOL    HW139539   1.961   1.222   6.253 -0.6001  1.7570  2.1423
 9359SOL    HW239540   2.073   1.314   6.215 -0.8590  0.6944  0.3303
 9360SOL     OW39541   1.861   3.657   4.274  0.4183 -0.0723  0.1277
 9360SOL    HW139542   1.863   3.689   4.364  0.6511 -1.5308  0.6458
 9360SOL    HW239543   1.772   3.625   4.260 -0.5150  2.1670  1.0578
 9361SOL     OW39544   1.332   3.678   6.177  0.0405 -0.0967  0.0334
 9361SOL    HW139545   1.305   3.612   6.113 -1.8769 -1.2724  2.0746
 9361SOL    HW239546   1.246   3.699   6.211 -0.4015 -1.3911 -0.2975
 9362SOL     OW39547   4.601   1.805   8.285 -0.3334 -0.1073 -0.3199
 9362SOL    HW139548   4.613   1.781   8.193  1.1262 -1.2634  0.1710
 9362SOL    HW239549   4.631   1.896   8.280 -1.6361  0.2332 -2.2321
 9363SOL     OW39550   3.437   1.213   4.564  0.1484 -0.1165  0.4726
 9363SOL    HW139551   3.471   1.255   4.643  2.7788 -0.1200 -0.6643
 9363SOL    HW239552   3.426   1.123   4.595 -1.8090  0.1093  0.4724
 9364SOL     OW39553   3.884   1.198   7.745 -0.0464 -0.6307 -0.2334
 9364SOL    HW139554   3.935   1.232   7.819 -0.1889 -1.7766  0.3827
 9364SOL    HW239555   3.848   1.286   7.729 -1.1202 -0.7414  1.5635
 9365SOL     OW39556   3.633   0.006   6.126  0.3359  0.4822 -0.5332
 9365SOL    HW139557   3.717   0.027   6.167  0.0605 -0.3088  0.4285
 9365SOL    HW239558   3.663   4.660   6.067  0.5785 -1.6624  2.1421
 9366SOL     OW39559   1.035   0.879   5.389 -0.3362  0.2772 -0.3162
 9366SOL    HW139560   1.009   0.864   5.298 -1.2117 -2.0741  0.3448
 9366SOL    HW239561   0.955   0.863   5.438  0.8959 -0.2713  1.5145
 9367SOL     OW39562   2.508   1.975  16.527 -0.1021  0.1653  0.6036
 9367SOL    HW139563   2.453   1.941  16.457  1.2246  0.1700 -0.4440
 9367SOL    HW239564   2.510   2.069  16.509  0.7776  0.3001  1.3821
 9368SOL     OW39565   0.989   3.461  11.648 -0.6104  0.3596 -0.6154
 9368SOL    HW139566   1.067   3.497  11.608 -0.8454  1.8423  0.2772
 9368SOL    HW239567   0.931   3.537  11.645 -0.3660  0.6833  2.3382
 9369SOL     OW39568   2.367   0.537   9.614  0.2183  0.2713 -0.2591
 9369SOL    HW139569   2.397   0.624   9.588  0.6145  1.3573  3.8008
 9369SOL    HW239570   2.444   0.508   9.662  1.0558  0.2089 -1.6293
 9370SOL     OW39571   1.880   2.878  10.698  0.3370 -0.3538  0.4306
 9370SOL    HW139572   1.866   2.787  10.722  1.7616 -0.9745 -1.0796
 9370SOL    HW239573   1.960   2.895  10.747  0.3879  0.8757 -0.0613
 9371SOL     OW39574   0.579   0.578   8.034  0.4818 -0.8300 -0.4057
 9371SOL    HW139575   0.487   0.588   8.058  0.2300 -1.3395 -1.1815
 9371SOL    HW239576   0.597   0.500   8.087 -0.0603 -0.3385  0.5092
 9372SOL     OW39577   4.573   0.214  17.060  0.1518  0.0379  0.2572
 9372SOL    HW139578   4.570   0.217  16.964 -2.4973  0.7566  0.3541
 9372SOL    HW239579   4.482   0.232  17.083  0.4829 -0.3223  1.8246
 9373SOL     OW39580   0.975   2.180  11.147 -0.3763  0.0261  0.2119
 9373SOL    HW139581   0.946   2.263  11.186  0.6236 -0.0431  1.1167
 9373SOL    HW239582   0.929   2.198  11.065  0.5794 -0.4981 -0.4418
 9374SOL     OW39583   1.249   3.610   3.825  0.3054 -0.9441 -0.0145
 9374SOL    HW139584   1.344   3.598   3.817  0.6247 -0.6190  3.3781
 9374SOL    HW239585   1.241   3.705   3.836 -0.0548 -0.8605 -1.0194
 9375SOL     OW39586   4.342   3.851  12.770  0.0867 -0.2835  0.8376
 9375SOL    HW139587   4.431   3.881  12.790 -0.2758  0.5610  1.1603
 9375SOL    HW239588   4.305   3.909  12.704  1.6674 -0.9175 -0.6105
 9376SOL     OW39589   0.592   4.674   9.258  0.2841  0.0280 -0.1421
 9376SOL    HW139590   0.507   4.665   9.215 -0.9212  0.5778  2.1253
 9376SOL    HW239591   0.627   0.028   9.215 -0.7230  0.3290 -0.4030
 9377SOL     OW39592   2.367   4.319   5.105  0.1076  0.0710  0.0279
 9377SOL    HW139593   2.386   4.410   5.084 -0.4715  0.1422 -0.1884
 9377SOL    HW239594   2.306   4.330   5.178 -2.1839 -1.7851 -1.5823
 9378SOL     OW39595   3.549   4.702  15.909  0.7513 -0.1772 -0.1033
 9378SOL    HW139596   3.547   4.709  15.813 -3.3605  0.3141  0.0148
 9378SOL    HW239597   3.499   0.055  15.937 -2.8489 -2.1448 -1.2383
 9379SOL     OW39598   0.654   4.309   6.133 -0.2927 -0.1331 -0.3554
 9379SOL    HW139599   0.580   4.315   6.194  1.1163 -0.3886  1.3912
 9379SOL    HW239600   0.723   4.337   6.193  0.5714  0.0968 -1.4702
 9380SOL     OW39601   2.798   4.328   9.327 -0.1628  0.2701 -0.1212
 9380SOL    HW139602   2.780   4.339   9.234 -2.3816 -0.5062  0.2074
 9380SOL    HW239603   2.736   4.259   9.351  1.0802 -1.0972 -0.8518
 9381SOL     OW39604   3.516   4.586   4.510  0.2105  0.4384 -0.2164
 9381SOL    HW139605   3.472   4.629   4.583 -0.1514  0.8955 -0.7101
 9381SOL    HW239606   3.460   4.613   4.437 -2.4610 -0.6433  1.4361
 9382SOL     OW39607   0.072   0.321   8.534 -0.1931  0.3596 -0.4383
 9382SOL    HW139608   0.104   0.290   8.449 -0.1653  0.0695 -0.3212
 9382SOL    HW239609   0.007   0.253   8.553 -0.2529  0.6662  0.4502
 9383SOL     OW39610   3.658   4.524  14.067  0.2089 -0.1219  0.2209
 9383SOL    HW139611   3.609   4.451  14.028  0.1244  0.4380 -0.7227
 9383SOL    HW239612   3.747   4.490  14.059 -1.2348 -4.0522  0.3451
 9384SOL     OW39613   4.519   3.587  14.154  0.3838 -0.0786 -0.8702
 9384SOL    HW139614   4.525   3.506  14.206 -2.6602  1.0398  1.2969
 9384SOL    HW239615   4.603   3.632  14.161 -0.7234  1.8151  0.3224
 9385SOL     OW39616   2.725   2.465   3.815 -0.0788  0.1502 -0.1564
 9385SOL    HW139617   2.660   2.422   3.870  1.0562 -0.9600  0.3251
 9385SOL    HW239618   2.669   2.535   3.781  0.0166 -0.0704 -0.7540
 9386SOL     OW39619   4.309   2.357  15.392  0.3178  0.0956 -0.3122
 9386SOL    HW139620   4.342   2.275  15.356  1.4549 -0.4284  1.8728
 9386SOL    HW239621   4.217   2.333  15.394  0.6658 -1.0250  2.8138
 9387SOL     OW39622   2.004   1.395  15.229  0.6598 -0.8170 -0.6479
 9387SOL    HW139623   1.964   1.424  15.147  1.8530  1.1006 -0.5483
 9387SOL    HW239624   2.065   1.322  15.215  0.7173 -0.7669 -0.6588
 9388SOL     OW39625   2.548   0.916   9.054 -0.2205 -0.1292 -0.1747
 9388SOL    HW139626   2.545   1.010   9.035 -1.5281  0.0585  0.9518
 9388SOL    HW239627   2.459   0.904   9.086 -0.2879 -0.6579 -0.5569
 9389SOL     OW39628   2.851   3.083   6.183  0.8384  0.0716  0.2783
 9389SOL    HW139629   2.822   3.076   6.092  0.5112  0.0658  0.3852
 9389SOL    HW239630   2.944   3.101   6.169  0.6090  0.0333 -1.3566
 9390SOL     OW39631   3.432   1.277   4.161 -0.1465  0.5364 -0.2183
 9390SOL    HW139632   3.471   1.333   4.229 -0.0923 -1.2927  1.2704
 9390SOL    HW239633   3.503   1.213   4.156 -2.1802 -1.8390  1.4996
 9391SOL     OW39634   3.454   0.822   7.643  0.8962 -0.4215 -0.2598
 9391SOL    HW139635   3.542   0.840   7.675  0.1918  0.7261  1.0069
 9391SOL    HW239636   3.448   0.874   7.563  0.3947  0.4284  0.3328
 9392SOL     OW39637   4.514   4.476   3.599  0.2708 -0.2397  0.5326
 9392SOL    HW139638   4.596   4.461   3.551  1.3257 -1.6319  2.7372
 9392SOL    HW239639   4.455   4.490   3.525 -0.3304  0.0582  1.0737
 9393SOL     OW39640   3.551   3.954  14.234 -0.0853  0.2839  0.5345
 9393SOL    HW139641   3.527   3.862  14.231 -1.4266  0.7184 -1.8414
 9393SOL    HW239642   3.634   3.953  14.283  0.0708  0.0145  0.2640
 9394SOL     OW39643   1.624   2.034   2.553 -0.0857  0.0378  0.6182
 9394SOL    HW139644   1.595   2.111   2.603  1.0461 -0.3912  1.9101
 9394SOL    HW239645   1.625   1.971   2.625 -0.6316 -2.1934 -1.3185
 9395SOL     OW39646   4.421   1.207   3.487 -0.0978 -0.8178 -0.0456
 9395SOL    HW139647   4.497   1.262   3.471  0.2861 -0.7848  1.8181
 9395SOL    HW239648   4.424   1.184   3.580 -1.0728  1.9544  0.6631
 9396SOL     OW39649   1.983   1.869  16.865  0.2566  0.4942  0.1205
 9396SOL    HW139650   1.963   1.962  16.856 -2.7424 -0.1320  0.3416
 9396SOL    HW239651   2.078   1.862  16.855  0.5597  2.6675  1.5202
 9397SOL     OW39652   4.693   0.502   5.257  0.2350 -0.1078 -0.4297
 9397SOL    HW139653   0.028   0.567   5.218  0.7399 -0.6627 -0.5952
 9397SOL    HW239654   4.618   0.561   5.254  0.0912 -0.2894 -0.3821
 9398SOL     OW39655   1.832   3.196   3.801  0.4510  0.1691  0.0978
 9398SOL    HW139656   1.859   3.188   3.709 -1.3494 -0.2511 -0.3884
 9398SOL    HW239657   1.898   3.257   3.835  1.2615 -0.8290  0.2985
 9399SOL     OW39658   4.638   3.857  14.434  0.3959  0.0181  0.0179
 9399SOL    HW139659   4.550   3.876  14.467  1.1529  1.1292  1.3707
 9399SOL    HW239660   4.680   3.940  14.457  1.7844 -0.0362 -2.2762
 9400SOL     OW39661   2.075   4.240   3.167  0.2156  0.0310  0.8856
 9400SOL    HW139662   2.007   4.307   3.157 -1.8290 -2.0031  0.9803
 9400SOL    HW239663   2.132   4.259   3.093 -2.3850  0.3405 -1.0322
 9401SOL     OW39664   3.798   0.282  17.210 -0.6179 -0.0172  0.1685
 9401SOL    HW139665   3.840   0.196  17.223 -0.2565  0.4094  1.8011
 9401SOL    HW239666   3.863   0.326  17.155  0.6976 -0.6541  1.2227
 9402SOL     OW39667   3.262   2.515   2.415  0.6286 -0.3577  0.0935
 9402SOL    HW139668   3.173   2.490   2.441  0.7415 -0.2735  0.5602
 9402SOL    HW239669   3.287   2.445   2.354 -1.0166  0.7548 -1.8491
 9403SOL     OW39670   2.443   0.350  17.007 -0.1012 -0.2939  0.7033
 9403SOL    HW139671   2.431   0.357  17.102 -2.4624  0.2592  0.3566
 9403SOL    HW239672   2.535   0.374  16.997  0.3388 -1.7433  1.2225
 9404SOL     OW39673   1.657   3.481  13.868  0.4524  0.0009  0.0224
 9404SOL    HW139674   1.674   3.531  13.947 -0.6128  2.6513 -1.4465
 9404SOL    HW239675   1.732   3.422  13.864 -0.5064 -1.2432  0.0108
 9405SOL     OW39676   2.297   2.689  13.523  0.2219  0.6608 -0.1020
 9405SOL    HW139677   2.239   2.714  13.594  0.3030 -1.3706  0.6986
 9405SOL    HW239678   2.246   2.723  13.450 -4.0425  0.0753  2.6297
 9406SOL     OW39679   3.326   0.153  10.137  0.0725 -0.2952 -0.8931
 9406SOL    HW139680   3.332   0.082  10.073 -0.5502 -3.0079  2.0536
 9406SOL    HW239681   3.408   0.138  10.185 -0.0207  1.4273 -0.2046
 9407SOL     OW39682   1.979   3.384   3.035  0.1115  0.1818 -0.3975
 9407SOL    HW139683   1.902   3.382   2.978  0.0578  0.7816 -0.3396
 9407SOL    HW239684   2.040   3.327   2.987 -0.3842  0.7095 -1.6694
 9408SOL     OW39685   3.872   2.855  10.282 -0.1077 -0.2221  0.3305
 9408SOL    HW139686   3.919   2.773  10.295  2.1550  0.7378 -1.6368
 9408SOL    HW239687   3.941   2.913  10.248 -1.6012  1.2683 -0.1620
 9409SOL     OW39688   3.201   1.832   6.734 -0.2356  0.2054 -0.3885
 9409SOL    HW139689   3.193   1.738   6.753 -2.1139  0.1769 -1.2721
 9409SOL    HW239690   3.122   1.862   6.779  0.8694 -1.0257  2.4190
 9410SOL     OW39691   4.549   4.530   8.560  0.3299 -0.2078  0.7022
 9410SOL    HW139692   4.594   4.469   8.618  1.5805 -1.4074 -1.5480
 9410SOL    HW239693   4.463   4.488   8.554  0.1648  0.0961  0.9489
 9411SOL     OW39694   0.338   0.886   0.407  0.0996 -0.0112  0.0305
 9411SOL    HW139695   0.306   0.810   0.456  1.6012  0.0651  1.1294
 9411SOL    HW239696   0.374   0.840   0.331  0.7474  2.3037 -1.0562
 9412SOL     OW39697   4.645   0.614  11.320  0.5390  0.0615  0.1896
 9412SOL    HW139698   4.702   0.540  11.298 -0.1965 -0.2501 -0.6734
 9412SOL    HW239699   4.653   0.616  11.415 -1.5877  1.4899  0.3295
 9413SOL     OW39700   2.526   0.683  12.794 -0.1160  0.6670 -0.3284
 9413SOL    HW139701   2.495   0.772  12.779 -1.2870  0.0065 -1.8648
 9413SOL    HW239702   2.602   0.667  12.738  0.1667  0.9321 -0.0193
 9414SOL     OW39703   4.429   0.865  11.467 -0.3163 -0.3280 -0.7034
 9414SOL    HW139704   4.430   0.805  11.392 -1.7364  0.4461 -1.3501
 9414SOL    HW239705   4.426   0.952  11.427 -2.5046 -0.7083 -1.3692
 9415SOL     OW39706   1.939   2.497   7.685  0.5272  0.5111 -0.8964
 9415SOL    HW139707   1.969   2.563   7.622  2.2372 -0.8346 -1.5007
 9415SOL    HW239708   1.850   2.471   7.661  0.3666 -2.1291  2.6187
 9416SOL     OW39709   4.466   0.358  10.786  0.5028  0.3876  0.0826
 9416SOL    HW139710   4.378   0.394  10.778  1.7835  3.1943 -1.2092
 9416SOL    HW239711   4.478   0.297  10.713 -1.2563  1.6946 -1.3149
 9417SOL     OW39712   0.351   3.696   2.868  0.3223  0.8493  0.0072
 9417SOL    HW139713   0.410   3.768   2.888 -0.9906  1.5831  1.3034
 9417SOL    HW239714   0.392   3.624   2.916 -1.9414 -0.9889 -0.8035
 9418SOL     OW39715   2.577   0.545   4.915  0.2536 -0.0725 -0.0895
 9418SOL    HW139716   2.579   0.454   4.942  1.0539 -0.1130 -0.2880
 9418SOL    HW239717   2.668   0.570   4.933  0.6898 -2.3303  0.7866
 9419SOL     OW39718   0.949   1.019   2.089 -0.4079  0.4170  0.7014
 9419SOL    HW139719   1.041   0.997   2.105 -0.9307 -1.9628  0.5583
 9419SOL    HW239720   0.946   1.113   2.102  0.9303  0.4074  1.0586
 9420SOL     OW39721   2.860   3.068  12.679  0.7011  0.2165  0.1071
 9420SOL    HW139722   2.894   3.060  12.767 -0.5357  0.9757  0.6672
 9420SOL    HW239723   2.800   2.994  12.670  0.1138  0.8466 -1.2906
 9421SOL     OW39724   2.640   3.731   3.608 -0.4222  0.2459 -0.3401
 9421SOL    HW139725   2.564   3.744   3.551 -0.5298  0.0566 -0.2379
 9421SOL    HW239726   2.592   3.723   3.691  0.4477  1.6052  0.3032
 9422SOL     OW39727   0.413   3.895   0.319 -0.0554  0.1655  0.4118
 9422SOL    HW139728   0.353   3.887   0.245 -1.8719  0.1124  1.8883
 9422SOL    HW239729   0.370   3.970   0.360 -0.3906  0.2994 -0.1827
 9423SOL     OW39730   3.906   2.024   5.028  0.2613  0.0850 -0.5038
 9423SOL    HW139731   3.943   1.997   5.112  0.5302  1.3290 -0.2249
 9423SOL    HW239732   3.905   1.942   4.979 -0.2753 -0.8855  1.1213
 9424SOL     OW39733   2.096   3.199  10.117  0.4605  0.1624 -0.0872
 9424SOL    HW139734   2.028   3.154  10.167 -1.4972  0.5977 -2.3814
 9424SOL    HW239735   2.077   3.292  10.128 -0.4356 -0.0268 -0.0503
 9425SOL     OW39736   1.408   3.162   2.428 -0.9074  0.1567 -0.2799
 9425SOL    HW139737   1.463   3.176   2.351  1.7560 -0.5664  1.4859
 9425SOL    HW239738   1.396   3.067   2.426 -1.8245  0.2871 -0.9595
 9426SOL     OW39739   1.821   2.373   1.445 -0.4053 -0.1690  0.2317
 9426SOL    HW139740   1.786   2.312   1.511 -0.8968  0.4449  0.5463
 9426SOL    HW239741   1.825   2.329   1.360  0.3685  0.9358 -0.2884
 9427SOL     OW39742   1.643   0.476   7.104  0.3197 -0.1533  0.0284
 9427SOL    HW139743   1.683   0.561   7.084 -1.3161  0.4833 -0.4816
 9427SOL    HW239744   1.707   0.463   7.174  0.6108 -0.7203 -0.3382
 9428SOL     OW39745   1.483   4.386  13.578 -0.8906  0.4401 -0.0541
 9428SOL    HW139746   1.403   4.438  13.588 -1.2536 -0.2880  0.8103
 9428SOL    HW239747   1.534   4.448  13.526  0.0745 -0.7007 -0.4755
 9429SOL     OW39748   0.062   2.981   6.242 -0.8337  0.3079  0.0671
 9429SOL    HW139749   0.119   3.008   6.313 -2.0525  1.6612  0.5330
 9429SOL    HW239750   0.046   2.889   6.265  1.3262 -0.1065 -0.1037
 9430SOL     OW39751   0.654   2.589   5.762 -0.3595 -0.2400  0.4928
 9430SOL    HW139752   0.618   2.529   5.697  0.1010 -0.0437  0.0516
 9430SOL    HW239753   0.736   2.611   5.718 -0.8352  0.2730 -0.1333
 9431SOL     OW39754   1.321   1.199  11.862  0.0656 -0.2858 -0.0173
 9431SOL    HW139755   1.409   1.170  11.837  0.5350 -1.1967  2.7003
 9431SOL    HW239756   1.273   1.125  11.824  0.3236 -0.9379  0.9286
 9432SOL     OW39757   0.020   3.105   2.318 -0.3060  0.2361 -0.0603
 9432SOL    HW139758   4.663   3.068   2.282  0.5088  0.4596 -2.0730
 9432SOL    HW239759   0.093   3.068   2.268  0.4379 -0.2916  1.4037
 9433SOL     OW39760   0.792   3.626   1.607 -0.3414 -0.0980 -0.1881
 9433SOL    HW139761   0.732   3.669   1.545  2.8906  1.2374 -2.4002
 9433SOL    HW239762   0.821   3.704   1.655 -4.9766  0.3371  1.9810
 9434SOL     OW39763   2.491   0.687   7.895 -0.4967 -0.3256 -0.2215
 9434SOL    HW139764   2.478   0.755   7.961  0.9341 -1.8006  1.5821
 9434SOL    HW239765   2.442   0.725   7.822  2.8245  2.0320 -1.2111
 9435SOL     OW39766   2.237   1.961   8.985 -0.1621  0.0574 -0.2507
 9435SOL    HW139767   2.159   1.968   9.041  0.0267  0.7196 -0.0709
 9435SOL    HW239768   2.285   1.888   9.025 -1.8765 -0.7302  0.4049
 9436SOL     OW39769   3.241   0.629   1.018  0.3303 -0.1484  0.2737
 9436SOL    HW139770   3.208   0.541   1.039  1.3893  0.0244  2.7287
 9436SOL    HW239771   3.202   0.682   1.088  2.0773 -0.5003  1.5037
 9437SOL     OW39772   3.250   1.613  10.725  0.3546 -0.3207 -0.1441
 9437SOL    HW139773   3.207   1.697  10.735  2.2160  0.4282  1.6378
 9437SOL    HW239774   3.178   1.550  10.717  0.4162 -0.4757  0.5213
 9438SOL     OW39775   3.803   0.395  14.934  0.1530  0.6732  0.5337
 9438SOL    HW139776   3.891   0.382  14.968 -0.5225 -1.2608  1.5623
 9438SOL    HW239777   3.760   0.422  15.015 -1.9344 -0.8233 -0.0709
 9439SOL     OW39778   3.245   1.703  14.633 -0.1641  0.2135  0.5133
 9439SOL    HW139779   3.312   1.771  14.625 -0.5795  0.6076  0.4086
 9439SOL    HW239780   3.282   1.631  14.685 -0.0995 -0.7810 -0.8878
 9440SOL     OW39781   0.874   4.151  14.118 -0.1479 -0.4753  0.2979
 9440SOL    HW139782   0.902   4.239  14.094  0.2160 -0.3875  1.0598
 9440SOL    HW239783   0.780   4.147  14.098 -0.0421 -1.7352  0.0807
 9441SOL     OW39784   2.906   2.947   4.715 -0.4060  0.3232  0.4717
 9441SOL    HW139785   2.973   3.003   4.675 -0.1846  0.5059  1.1062
 9441SOL    HW239786   2.830   3.001   4.694 -0.9280 -0.6657 -0.1535
 9442SOL     OW39787   0.450   3.396   8.647 -0.3887  0.0050  0.0999
 9442SOL    HW139788   0.383   3.374   8.583 -0.1566 -0.1680 -0.0861
 9442SOL    HW239789   0.529   3.402   8.593  0.9835 -1.2767  1.9602
 9443SOL     OW39790   1.455   4.467   9.366  0.5282 -0.6639 -0.1117
 9443SOL    HW139791   1.434   4.481   9.458  0.6813 -2.2032  0.1616
 9443SOL    HW239792   1.436   4.373   9.356  0.7410 -0.6768 -0.4071
 9444SOL     OW39793   1.733   0.158   0.852 -0.2434 -0.8158  0.2592
 9444SOL    HW139794   1.754   0.066   0.836 -1.0372 -0.6367 -1.8080
 9444SOL    HW239795   1.797   0.173   0.922  0.8741  0.1526 -0.9756
 9445SOL     OW39796   1.359   1.476   1.117 -0.8376  0.5661 -0.3713
 9445SOL    HW139797   1.418   1.404   1.097 -0.4625  0.7297  0.1477
 9445SOL    HW239798   1.339   1.507   1.029 -0.7387 -0.0113 -0.5910
 9446SOL     OW39799   4.148   0.955  17.695  0.1529 -0.3370  0.0015
 9446SOL    HW139800   4.170   0.962  17.602  0.3418 -0.2439  0.0527
 9446SOL    HW239801   4.141   0.859   0.005 -0.1704 -0.2020  1.6933
 9447SOL     OW39802   0.482   3.842   3.802  0.4576  0.1034 -0.3806
 9447SOL    HW139803   0.546   3.860   3.733  1.2267  0.0640  0.3210
 9447SOL    HW239804   0.409   3.888   3.760  0.1695 -1.5019 -1.6323
 9448SOL     OW39805   2.831   1.333   2.195  0.5022 -0.6017  0.2688
 9448SOL    HW139806   2.738   1.325   2.174  1.1085 -2.6498 -1.7140
 9448SOL    HW239807   2.831   1.373   2.282 -3.2992 -0.7930  0.3458
 9449SOL     OW39808   2.192   0.643   8.552  0.2035 -0.3432  0.0760
 9449SOL    HW139809   2.119   0.625   8.611 -1.4857 -0.0824 -1.9271
 9449SOL    HW239810   2.234   0.715   8.599 -1.1259 -0.2841  1.1710
 9450SOL     OW39811   3.306   1.337  10.430  0.1284 -0.3223  0.3158
 9450SOL    HW139812   3.247   1.284  10.376 -0.2241 -0.0972  0.4845
 9450SOL    HW239813   3.238   1.398  10.458 -1.0127 -1.8272  0.8283
 9451SOL     OW39814   2.954   1.976   8.470  0.2713 -0.0754 -0.0210
 9451SOL    HW139815   2.893   1.956   8.400  0.9745 -1.2748 -0.2979
 9451SOL    HW239816   3.024   2.018   8.420  0.1409 -0.6916 -0.7147
 9452SOL     OW39817   0.436   1.553   1.162 -0.3541 -0.0955 -0.3646
 9452SOL    HW139818   0.449   1.601   1.080  1.8538 -1.5319 -0.8489
 9452SOL    HW239819   0.514   1.497   1.155  1.1555  1.9731 -0.0240
 9453SOL     OW39820   2.158   3.477  13.807  0.5727  0.4274 -0.2073
 9453SOL    HW139821   2.201   3.563  13.806 -1.0706  1.2611 -0.1293
 9453SOL    HW239822   2.181   3.442  13.892  1.7871 -0.4811 -0.9221
 9454SOL     OW39823   0.074   4.528  15.891  0.3081  0.0569 -0.0114
 9454SOL    HW139824   0.083   4.452  15.834 -1.4437  0.9464 -1.4893
 9454SOL    HW239825   0.165   4.533  15.919  0.5832  1.5787 -1.1775
 9455SOL     OW39826   0.145   4.009   6.536  0.6711  0.0659 -0.6414
 9455SOL    HW139827   0.141   4.096   6.498 -0.2011  1.0871  1.7772
 9455SOL    HW239828   0.173   4.029   6.626  2.5618 -0.2556 -1.1545
 9456SOL     OW39829   0.838   2.623   1.036 -0.0775  0.5919 -0.1449
 9456SOL    HW139830   0.917   2.612   0.982 -0.3038  0.0644 -0.3695
 9456SOL    HW239831   0.816   2.530   1.037 -1.0269  0.7857 -2.0909
 9457SOL     OW39832   3.444   0.694  17.350  0.1867  0.2515  0.1759
 9457SOL    HW139833   3.376   0.747  17.392 -0.4875 -1.6014  1.4520
 9457SOL    HW239834   3.411   0.608  17.376 -1.9686  0.9271 -0.2723
 9458SOL     OW39835   0.264   4.657   6.210  1.1474  0.2163 -0.1248
 9458SOL    HW139836   0.274   0.005   6.274 -2.2848  2.0155 -1.6017
 9458SOL    HW239837   0.355   4.647   6.183  1.6889  1.9219  1.0278
 9459SOL     OW39838   0.436   2.849   2.551 -0.1258  0.3175 -0.8408
 9459SOL    HW139839   0.394   2.764   2.540  1.2501 -0.4850  0.1487
 9459SOL    HW239840   0.362   2.898   2.587 -1.6864 -1.6648 -1.3301
 9460SOL     OW39841   2.988   1.388   6.734 -0.1980  0.0941 -0.0264
 9460SOL    HW139842   3.062   1.441   6.762 -1.1152  1.0735  0.5815
 9460SOL    HW239843   2.919   1.446   6.768 -1.4710 -1.7486  0.5488
 9461SOL     OW39844   3.161   4.525   8.692  0.0169 -0.2760  0.3542
 9461SOL    HW139845   3.120   4.494   8.773  0.7627  0.5550  1.0501
 9461SOL    HW239846   3.235   4.465   8.692 -0.2014 -0.5453  0.3335
 9462SOL     OW39847   0.757   0.926   4.944  0.5710  0.6918 -0.4949
 9462SOL    HW139848   0.803   0.902   5.025 -0.5095  0.0861 -0.0509
 9462SOL    HW239849   0.835   0.913   4.891  0.9285  1.3579 -0.1345
 9463SOL     OW39850   0.396   2.838   8.719 -0.7353 -0.2403 -0.0331
 9463SOL    HW139851   0.455   2.888   8.663 -1.4710 -0.0294 -0.6207
 9463SOL    HW239852   0.367   2.911   8.773  1.9832  1.0125 -0.2746
 9464SOL     OW39853   3.928   4.658   0.693 -0.0262 -0.4409 -0.5640
 9464SOL    HW139854   3.951   4.675   0.784 -1.6619 -1.6445  0.0708
 9464SOL    HW239855   3.890   4.571   0.702  1.2399 -1.0771 -1.3045
 9465SOL     OW39856   0.826   1.515   5.376  0.7369  0.4095  1.1072
 9465SOL    HW139857   0.858   1.603   5.397 -0.0246  0.9234  0.1318
 9465SOL    HW239858   0.876   1.499   5.295 -0.2432 -0.6436  0.7210
 9466SOL     OW39859   0.784   4.483  13.255 -0.1496  0.0417 -0.2284
 9466SOL    HW139860   0.879   4.478  13.263 -0.0947  2.1173  0.3858
 9466SOL    HW239861   0.753   4.397  13.282  0.0940  0.1925  0.5163
 9467SOL     OW39862   4.291   0.302   4.429 -0.7634  0.2030  0.0434
 9467SOL    HW139863   4.386   0.292   4.432 -0.6444  1.7176  1.4000
 9467SOL    HW239864   4.276   0.394   4.451  1.7947  0.7806 -0.6120
 9468SOL     OW39865   3.205   3.990   3.143  0.0167 -0.5508 -0.6324
 9468SOL    HW139866   3.156   3.940   3.078 -0.1434 -1.5586  0.2651
 9468SOL    HW239867   3.230   4.071   3.098  0.8693 -0.9678 -0.9042
 9469SOL     OW39868   4.667   2.523   2.275  0.3948 -0.4108  0.2539
 9469SOL    HW139869   0.019   2.582   2.274  0.9970 -1.2198 -2.2616
 9469SOL    HW239870   4.601   2.575   2.230  0.1802 -0.8114  0.1072
 9470SOL     OW39871   1.160   0.498   5.233 -0.2434 -0.6071 -0.2461
 9470SOL    HW139872   1.119   0.463   5.312 -0.1741  3.1284  1.4245
 9470SOL    HW239873   1.250   0.468   5.241 -0.2854 -0.4884  0.6483
 9471SOL     OW39874   2.033   3.109   8.257  0.2335  0.3556  0.1959
 9471SOL    HW139875   2.024   3.018   8.285 -1.1532  0.1941 -0.7890
 9471SOL    HW239876   2.018   3.160   8.336 -0.5024 -1.0131  0.9352
 9472SOL     OW39877   3.019   1.038  15.804  0.2376 -0.1760  0.2720
 9472SOL    HW139878   2.957   1.108  15.782  0.3176 -0.1474  0.1406
 9472SOL    HW239879   2.975   0.997  15.879  0.8642 -1.3996 -0.0345
 9473SOL     OW39880   2.454   1.788   4.535 -0.1658 -0.1713  0.5764
 9473SOL    HW139881   2.486   1.698   4.528  2.9818  1.0935 -1.2860
 9473SOL    HW239882   2.534   1.840   4.527  0.8707 -1.6901  1.0766
 9474SOL     OW39883   0.476   0.163   3.763  0.1937  0.3864 -0.2750
 9474SOL    HW139884   0.494   0.079   3.804 -1.4219  0.9874  1.6975
 9474SOL    HW239885   0.477   0.140   3.671  0.2402 -1.0376  0.0808
 9475SOL     OW39886   1.079   0.905   9.404 -0.4602  0.3838  0.9065
 9475SOL    HW139887   1.118   0.895   9.317  1.0420  2.0707  1.3842
 9475SOL    HW239888   1.081   0.815   9.435  0.6020  1.1687  3.1343
 9476SOL     OW39889   3.161   0.232   0.299  0.5092  0.0222  0.4842
 9476SOL    HW139890   3.176   0.144   0.265  0.5734  0.1255  0.2436
 9476SOL    HW239891   3.251   0.258   0.317  0.4844 -1.0160  2.0610
 9477SOL     OW39892   3.818   4.548   3.946  0.1578 -0.0345 -0.3714
 9477SOL    HW139893   3.831   4.526   3.854 -3.0745  0.5229 -0.9718
 9477SOL    HW239894   3.908   4.577   3.958  0.9961 -2.3167 -1.2138
 9478SOL     OW39895   4.486   3.325   2.749 -0.3823  0.1294 -0.1898
 9478SOL    HW139896   4.435   3.247   2.725 -1.2691  0.9776 -1.0661
 9478SOL    HW239897   4.492   3.319   2.844  1.7825  2.3164 -0.1981
 9479SOL     OW39898   0.273   2.612   5.730 -0.0941  0.2141 -0.0186
 9479SOL    HW139899   0.269   2.524   5.768  1.4541  0.4042  0.5882
 9479SOL    HW239900   0.347   2.640   5.783 -0.0080  3.1103 -1.6777
 9480SOL     OW39901   2.147   3.888   3.036  0.4907  0.7635 -0.2844
 9480SOL    HW139902   2.076   3.828   3.013  1.9642 -1.3305  0.5978
 9480SOL    HW239903   2.210   3.870   2.966  2.0932  0.6825  1.1551
 9481SOL     OW39904   2.396   0.398   9.072 -0.6717 -0.3017  0.6006
 9481SOL    HW139905   2.326   0.434   9.017  0.0623 -0.4508 -0.4395
 9481SOL    HW239906   2.413   0.475   9.126 -3.1543  0.6749 -0.0260
 9482SOL     OW39907   3.442   2.664   8.381  0.3284 -0.4528 -0.5265
 9482SOL    HW139908   3.454   2.748   8.425 -0.0167 -2.2206  2.9192
 9482SOL    HW239909   3.461   2.619   8.463 -1.9394 -2.7423 -1.2646
 9483SOL     OW39910   2.762   3.068  14.622  0.5744  0.4625  0.1584
 9483SOL    HW139911   2.821   2.999  14.592  0.5517  0.5831 -0.1633
 9483SOL    HW239912   2.675   3.029  14.623  1.5005 -1.5922  0.7265
 9484SOL     OW39913   0.984   0.564  16.248 -0.0576  0.4686  0.6208
 9484SOL    HW139914   1.007   0.560  16.341 -0.6685 -1.5719  0.6819
 9484SOL    HW239915   0.970   0.471  16.232  0.4422  0.6914 -1.1380
 9485SOL     OW39916   2.105   0.417   9.249  0.3997  0.1758  0.0633
 9485SOL    HW139917   2.083   0.375   9.333 -2.9333  1.7900 -0.0038
 9485SOL    HW239918   2.114   0.338   9.196 -4.5726  0.5145 -1.2967
 9486SOL     OW39919   0.231   1.810   6.662  0.1776 -0.6905 -0.2918
 9486SOL    HW139920   0.319   1.808   6.624  0.8695 -1.4192  1.3331
 9486SOL    HW239921   0.243   1.803   6.757  0.9902 -0.3571 -0.3670
 9487SOL     OW39922   4.074   2.734   3.550  0.4142 -0.2658 -0.4807
 9487SOL    HW139923   4.098   2.658   3.602  2.2990  1.3912  1.0392
 9487SOL    HW239924   4.079   2.690   3.465 -1.0913  0.8547 -1.1408
 9488SOL     OW39925   0.816   0.666   3.759 -0.4071 -0.2872  0.0097
 9488SOL    HW139926   0.822   0.758   3.734 -0.9608 -0.0816  0.6578
 9488SOL    HW239927   0.835   0.677   3.852 -1.8804  0.4449  0.2283
 9489SOL     OW39928   1.556   3.106   3.482 -0.4672  0.4902 -0.1252
 9489SOL    HW139929   1.544   3.051   3.404  0.0890  0.0219  0.1192
 9489SOL    HW239930   1.465   3.122   3.505  0.3507  0.0390  3.3035
 9490SOL     OW39931   3.784   3.073  15.731 -0.0022 -0.3562  0.4657
 9490SOL    HW139932   3.728   3.089  15.656 -3.2483  3.0382  3.5984
 9490SOL    HW239933   3.858   3.126  15.702 -0.9069 -0.5132 -2.0737
 9491SOL     OW39934   0.180   3.062  11.198  0.4024 -0.1698 -0.4095
 9491SOL    HW139935   0.153   3.059  11.290  0.9599  1.0275 -0.1978
 9491SOL    HW239936   0.212   2.972  11.197  1.7970  0.3175 -0.4458
 9492SOL     OW39937   1.268   1.836  15.270 -0.8231  0.6947 -0.3608
 9492SOL    HW139938   1.348   1.886  15.252  0.5517 -1.6587 -0.7564
 9492SOL    HW239939   1.219   1.850  15.189  0.1906  0.4692 -1.0195
 9493SOL     OW39940   0.792   1.819   5.002  0.2514  0.7974 -0.1994
 9493SOL    HW139941   0.804   1.725   5.006 -0.6276  0.7277  0.7093
 9493SOL    HW239942   0.712   1.821   4.949  0.1506  1.0066 -0.0375
 9494SOL     OW39943   4.201   2.495   6.529  0.4379 -0.4725  0.4974
 9494SOL    HW139944   4.266   2.468   6.593  1.2532  1.4165  0.4443
 9494SOL    HW239945   4.142   2.422   6.548 -1.5607  0.8464 -0.6114
 9495SOL     OW39946   3.360   1.799   6.119  0.4117 -0.2012 -1.0515
 9495SOL    HW139947   3.316   1.842   6.192  0.5139  1.0483 -1.7366
 9495SOL    HW239948   3.383   1.712   6.154  1.2342 -0.3654 -2.0131
 9496SOL     OW39949   1.604   0.239   3.063 -0.1440  0.0073 -0.3541
 9496SOL    HW139950   1.668   0.285   3.116 -1.1652 -1.9760  2.5721
 9496SOL    HW239951   1.549   0.192   3.125 -1.1574  0.1247 -1.1584
 9497SOL     OW39952   4.272   2.238   3.246 -0.1821  0.4873 -0.4980
 9497SOL    HW139953   4.264   2.275   3.334  0.4658 -1.1788  0.2705
 9497SOL    HW239954   4.361   2.203   3.253 -0.2359  0.5209  0.3073
 9498SOL     OW39955   1.740   3.209  11.618  0.4473  0.5785  0.1399
 9498SOL    HW139956   1.785   3.254  11.689  1.6196  0.7379 -0.6933
 9498SOL    HW239957   1.749   3.115  11.637 -0.2394  0.1010 -1.9186
 9499SOL     OW39958   2.085   2.092   9.184  0.9094  0.1996 -0.6436
 9499SOL    HW139959   2.049   2.018   9.233  2.4526  0.6801  1.1939
 9499SOL    HW239960   2.026   2.164   9.207 -0.1744 -1.2017  0.9171
 9500SOL     OW39961   1.572   2.426   4.601  0.2315  0.1604 -0.3407
 9500SOL    HW139962   1.649   2.425   4.544  0.5952 -0.3656  0.1551
 9500SOL    HW239963   1.588   2.496   4.665  0.0049  0.0257 -0.1384
 9501SOL     OW39964   1.099   0.532   2.196 -0.4755 -0.5933 -0.4933
 9501SOL    HW139965   1.159   0.605   2.211 -1.7538 -0.2980  3.3370
 9501SOL    HW239966   1.160   0.459   2.206  0.4562  0.3662  0.8236
 9502SOL     OW39967   1.470   3.280   4.318 -0.2073 -0.0537 -0.1701
 9502SOL    HW139968   1.382   3.304   4.345 -0.5267 -2.2023  0.7284
 9502SOL    HW239969   1.479   3.328   4.236 -0.2319  0.8515  0.3615
 9503SOL     OW39970   2.481   0.767   5.349 -0.6868  0.1940  1.2751
 9503SOL    HW139971   2.465   0.672   5.353 -0.1490  0.0445  0.1674
 9503SOL    HW239972   2.451   0.776   5.259  0.5370 -0.4585  0.7880
 9504SOL     OW39973   4.214   1.579  11.375  0.2526 -0.2191 -0.7047
 9504SOL    HW139974   4.219   1.500  11.322  1.0505 -0.2364 -0.6052
 9504SOL    HW239975   4.283   1.640  11.348  2.0688  0.0400  4.5417
 9505SOL     OW39976   0.492   3.154   4.134 -0.1433  0.7362 -0.1284
 9505SOL    HW139977   0.427   3.119   4.073 -2.1772  1.2815  1.7129
 9505SOL    HW239978   0.543   3.077   4.160 -0.5703 -0.1357 -1.8693
 9506SOL     OW39979   4.607   2.528   8.572  0.2262  0.2215  0.6375
 9506SOL    HW139980   4.649   2.512   8.487  1.0801 -0.3469  1.1647
 9506SOL    HW239981   4.558   2.447   8.587  0.6748 -0.5826 -2.2159
 9507SOL     OW39982   3.573   1.005  15.574 -0.6171  0.2472 -0.4772
 9507SOL    HW139983   3.576   0.910  15.565 -1.1650  0.1648  0.2751
 9507SOL    HW239984   3.484   1.036  15.556 -0.7142  0.3033  0.0946
 9508SOL     OW39985   1.786   1.342   1.413  0.0755  0.2510  0.7030
 9508SOL    HW139986   1.801   1.358   1.320  0.7368  2.0789  1.1262
 9508SOL    HW239987   1.875   1.361   1.442  0.3637 -0.1435  0.0705
 9509SOL     OW39988   3.975   3.703  10.680 -0.1268 -0.4230  0.3613
 9509SOL    HW139989   3.908   3.692  10.747  1.3826  2.2876  2.3225
 9509SOL    HW239990   3.942   3.782  10.638  0.5679 -0.8416 -0.9739
 9510SOL     OW39991   4.308   4.389  12.885  0.9038  0.1175  0.0485
 9510SOL    HW139992   4.331   4.458  12.947  1.2527  0.1344 -0.0970
 9510SOL    HW239993   4.331   4.307  12.929 -0.9291 -0.6394 -0.3941
 9511SOL     OW39994   0.695   1.360   4.131  0.2163  0.1050  0.2338
 9511SOL    HW139995   0.729   1.295   4.070 -2.0232 -0.3338 -0.5324
 9511SOL    HW239996   0.638   1.409   4.072  0.7462  1.9113  1.2384
 9512SOL     OW39997   0.971   2.765  10.859 -0.2989  0.0759 -0.0919
 9512SOL    HW139998   0.957   2.688  10.916 -1.4715  0.6793  0.4459
 9512SOL    HW239999   1.064   2.757  10.839 -0.2198 -1.1787  0.7356
 9513SOL     OW40000   4.335   1.761  10.324 -0.5890 -0.1151  0.5264
 9513SOL    HW140001   4.424   1.796  10.316 -1.8806  2.5298 -2.2250
 9513SOL    HW240002   4.289   1.839  10.292  0.3943  0.6998  1.0997
 9514SOL     OW40003   0.290   1.202   2.134 -0.5945  0.3249  0.6836
 9514SOL    HW140004   0.363   1.224   2.076 -1.2520  0.5124 -0.0607
 9514SOL    HW240005   0.312   1.110   2.149  0.0513  0.1525 -1.3657
 9515SOL     OW40006   0.362   0.239   3.104 -0.1928  0.5532  0.1385
 9515SOL    HW140007   0.308   0.160   3.094  1.0338 -0.0902 -1.4527
 9515SOL    HW240008   0.397   0.237   3.015 -0.2656 -3.7259  0.1938
 9516SOL     OW40009   3.588   1.340   5.055  0.0115  0.4122 -0.5790
 9516SOL    HW140010   3.573   1.253   5.094  5.9821  0.3754  1.6004
 9516SOL    HW240011   3.676   1.367   5.078 -0.6063  1.6629  0.2807
 9517SOL     OW40012   1.539   2.903   9.199 -0.3355 -0.1018  0.2028
 9517SOL    HW140013   1.471   2.932   9.138  0.5873  0.7126 -0.4460
 9517SOL    HW240014   1.488   2.848   9.258 -0.4666  0.6996  0.8341
 9518SOL     OW40015   2.830   1.063   0.718  0.1457  0.3057  0.0822
 9518SOL    HW140016   2.745   1.054   0.675  0.2545 -2.1958  0.3802
 9518SOL    HW240017   2.834   0.997   0.787  0.3277 -1.3954 -1.5656
 9519SOL     OW40018   1.482   2.379  10.658 -0.0425 -0.0933  0.1109
 9519SOL    HW140019   1.479   2.325  10.580 -2.3786 -0.7059  0.6508
 9519SOL    HW240020   1.392   2.389  10.689 -1.2298  0.0472 -3.4516
 9520SOL     OW40021   4.162   2.286  16.231 -0.4221 -0.8352  0.1960
 9520SOL    HW140022   4.148   2.296  16.137 -0.6224 -0.0364  0.3077
 9520SOL    HW240023   4.255   2.307  16.236 -0.7934  0.6505  1.1346
 9521SOL     OW40024   2.223   1.540  15.412 -0.0969  0.3953  0.2416
 9521SOL    HW140025   2.172   1.497  15.481 -2.0828 -0.5674 -1.8561
 9521SOL    HW240026   2.161   1.598  15.370 -0.2168  1.1241  1.4097
 9522SOL     OW40027   4.586   2.938   9.292 -0.0607 -0.0134  0.4966
 9522SOL    HW140028   4.592   2.896   9.207  0.1084  0.7594  0.1255
 9522SOL    HW240029   4.678   2.962   9.304  0.3928 -0.8975 -1.3279
 9523SOL     OW40030   0.028   4.295  13.973  0.0725 -0.6978 -0.2535
 9523SOL    HW140031   0.110   4.344  13.971 -1.0627  1.2016  0.3704
 9523SOL    HW240032   0.066   4.209  13.994  1.5452  0.2482  0.9543
 9524SOL     OW40033   1.228   2.263   8.138 -0.4968 -0.3328 -0.2659
 9524SOL    HW140034   1.209   2.170   8.141 -0.2917 -0.3193  1.3436
 9524SOL    HW240035   1.296   2.272   8.204 -2.9311  2.6755  1.8223
 9525SOL     OW40036   3.908   0.792   1.141  0.1796  0.6661 -0.2019
 9525SOL    HW140037   3.885   0.882   1.160  0.7270  0.5012  1.2463
 9525SOL    HW240038   3.889   0.790   1.047 -0.6685  0.7723 -0.0356
 9526SOL     OW40039   2.599   3.483  13.954  0.0783  0.2650 -0.0134
 9526SOL    HW140040   2.549   3.532  13.890 -0.0219  0.8274  0.4973
 9526SOL    HW240041   2.528   3.448  14.008 -1.6185  0.4510 -2.1509
 9527SOL     OW40042   0.886   3.035   8.898  0.1936  0.8481 -0.3071
 9527SOL    HW140043   0.883   3.083   8.981 -1.1893 -0.0171  0.1353
 9527SOL    HW240044   0.816   2.973   8.916  0.8829  0.0475 -0.3765
 9528SOL     OW40045   3.510   3.149   8.353  0.2923  0.2469 -0.2777
 9528SOL    HW140046   3.471   3.218   8.407  0.7007  1.2124 -1.2174
 9528SOL    HW240047   3.597   3.184   8.331 -0.0893  0.9206 -0.7333
 9529SOL     OW40048   4.504   0.989   6.693 -0.5444 -0.7340  0.0499
 9529SOL    HW140049   4.426   0.952   6.652 -3.3446  1.2674  3.5573
 9529SOL    HW240050   4.546   1.038   6.624  0.4625 -1.3496  0.2243
 9530SOL     OW40051   1.124   2.208  10.674  0.2544 -0.0565  0.4161
 9530SOL    HW140052   1.163   2.284  10.717  2.7405 -1.3822  0.4874
 9530SOL    HW240053   1.049   2.258  10.642  0.2583  0.0536  0.5777
 9531SOL     OW40054   1.911   3.475  10.808 -0.1200  0.3100  0.0846
 9531SOL    HW140055   1.980   3.432  10.757  2.0540  0.6557  2.7271
 9531SOL    HW240056   1.834   3.439  10.764  0.1997 -1.0768  0.6715
 9532SOL     OW40057   2.635   0.529   1.325  0.8204 -0.4820 -0.1460
 9532SOL    HW140058   2.671   0.456   1.275  1.7735  0.0477 -0.2287
 9532SOL    HW240059   2.580   0.477   1.384  2.6129 -0.3161  1.6608
 9533SOL     OW40060   3.422   0.631   6.891 -0.0202  0.0102 -0.2204
 9533SOL    HW140061   3.474   0.705   6.860  0.9170  0.0869  1.5074
 9533SOL    HW240062   3.386   0.597   6.809 -1.7665 -2.0339  1.3877
 9534SOL     OW40063   4.569   2.851   1.919 -0.2588 -0.5652  0.4587
 9534SOL    HW140064   4.578   2.933   1.870 -0.4895 -2.2627 -2.4115
 9534SOL    HW240065   4.516   2.798   1.860 -1.6177 -0.3474  1.4729
 9535SOL     OW40066   1.044   4.089   6.619  0.0227 -0.4912  0.3240
 9535SOL    HW140067   0.960   4.097   6.573 -0.1437  3.3410  1.2787
 9535SOL    HW240068   1.114   4.116   6.561 -0.0997  0.5129  0.6457
 9536SOL     OW40069   1.373   2.833   7.928  0.3787  0.2158  0.1837
 9536SOL    HW140070   1.417   2.916   7.946  1.0995 -0.7201  2.6320
 9536SOL    HW240071   1.316   2.856   7.854  0.6907 -1.5378 -0.5910
 9537SOL     OW40072   3.227   3.108   3.921 -0.6511 -0.3273 -0.4092
 9537SOL    HW140073   3.151   3.066   3.961  0.6290 -2.0996  0.1638
 9537SOL    HW240074   3.210   3.200   3.942 -1.5109 -0.1978 -1.6110
 9538SOL     OW40075   2.756   1.281   3.871 -0.4368 -0.0916 -0.7355
 9538SOL    HW140076   2.678   1.330   3.845 -1.5751 -1.4392  0.1538
 9538SOL    HW240077   2.716   1.212   3.923  2.5612  0.7603  2.6697
 9539SOL     OW40078   2.650   0.728   5.582 -0.2721 -0.2447  0.2899
 9539SOL    HW140079   2.603   0.732   5.499 -0.4468 -1.3935  0.3395
 9539SOL    HW240080   2.722   0.786   5.557  0.3027 -0.8667  0.5060
 9540SOL     OW40081   1.444   2.202   2.401  0.3994  0.3702 -0.2274
 9540SOL    HW140082   1.489   2.153   2.469  0.5751  1.8237  0.6940
 9540SOL    HW240083   1.356   2.216   2.437  0.3097 -0.2209 -0.2246
 9541SOL     OW40084   3.793   1.637  10.465 -0.0568 -0.0097 -0.7788
 9541SOL    HW140085   3.749   1.581  10.401 -1.3259 -0.5396  0.5332
 9541SOL    HW240086   3.710   1.664  10.506 -0.8207 -3.4495 -0.0193
 9542SOL     OW40087   0.121   3.831   7.706 -0.2837 -0.1749 -0.0783
 9542SOL    HW140088   0.087   3.793   7.787 -0.7309 -0.5654 -0.4523
 9542SOL    HW240089   0.178   3.760   7.676  2.0607  0.0362  3.9027
 9543SOL     OW40090   1.550   2.468   8.672  0.3476 -0.1684  0.0382
 9543SOL    HW140091   1.460   2.494   8.689  0.7965  1.4283  0.0221
 9543SOL    HW240092   1.574   2.547   8.623  0.0756 -0.3007 -0.3090
 9544SOL     OW40093   1.907   0.754   6.536  0.3015  0.1696  0.2478
 9544SOL    HW140094   1.961   0.819   6.580  1.1551  0.6072 -1.4238
 9544SOL    HW240095   1.916   0.770   6.442 -0.4454 -2.1305 -0.2016
 9545SOL     OW40096   2.642   1.819  12.446  0.5834  0.5607  0.2717
 9545SOL    HW140097   2.605   1.755  12.386 -1.9684  0.6863  1.7181
 9545SOL    HW240098   2.727   1.784  12.474 -0.4947 -1.6773  0.7648
 9546SOL     OW40099   4.590   1.579   3.681  0.1429 -0.3324  0.1765
 9546SOL    HW140100   4.510   1.629   3.662  1.0456  1.3543  0.7863
 9546SOL    HW240101   4.625   1.623   3.759  2.5933 -2.2102  0.1278
 9547SOL     OW40102   3.245   1.575  11.157 -0.1929  0.4736 -0.2683
 9547SOL    HW140103   3.159   1.586  11.116  0.0767 -0.0568 -0.9751
 9547SOL    HW240104   3.274   1.499  11.106 -2.8456 -0.8060  0.1256
 9548SOL     OW40105   3.319   0.092  14.934  0.3847 -0.5769 -0.0066
 9548SOL    HW140106   3.379   0.039  14.881  0.8198 -0.4802  0.3943
 9548SOL    HW240107   3.310   0.172  14.883 -0.4019 -0.6090  0.0848
 9549SOL     OW40108   0.248   0.965  10.593 -0.3500 -0.1235 -0.2956
 9549SOL    HW140109   0.237   0.871  10.611  0.9559 -0.2655 -0.1976
 9549SOL    HW240110   0.207   0.967  10.507 -0.9965 -0.3469  0.0053
 9550SOL     OW40111   4.183   1.059  15.690 -0.6928 -0.0036  0.7443
 9550SOL    HW140112   4.158   0.971  15.661  0.7095 -0.1782  0.1187
 9550SOL    HW240113   4.223   1.102  15.615  1.4937 -2.1637  0.6711
 9551SOL     OW40114   0.777   3.308   4.866  0.0257 -0.0317 -0.3974
 9551SOL    HW140115   0.826   3.296   4.947  1.9942  0.0783 -1.5859
 9551SOL    HW240116   0.739   3.395   4.880  2.0092  0.4951  1.7179
 9552SOL     OW40117   3.668   4.480  14.667  0.5807 -0.1885 -0.0627
 9552SOL    HW140118   3.684   4.500  14.574 -1.4876 -1.8227 -0.7948
 9552SOL    HW240119   3.673   4.385  14.675  3.6866 -0.0852 -0.7994
 9553SOL     OW40120   4.228   3.260   2.250 -0.8423  0.4381 -0.2169
 9553SOL    HW140121   4.166   3.293   2.185 -1.0217 -0.8345 -0.7007
 9553SOL    HW240122   4.204   3.167   2.254 -0.4472  0.3802  0.7117
 9554SOL     OW40123   3.188   3.388   7.839  0.1047 -0.1523  0.4714
 9554SOL    HW140124   3.202   3.309   7.891  0.0089  0.0484  0.7995
 9554SOL    HW240125   3.101   3.372   7.804  0.6200 -1.9276 -0.0095
 9555SOL     OW40126   2.838   2.461   6.843  0.1828 -0.2216  0.8043
 9555SOL    HW140127   2.821   2.551   6.815 -0.4309 -0.3424  0.7798
 9555SOL    HW240128   2.930   2.474   6.862  0.5976 -0.6121 -0.9368
 9556SOL     OW40129   4.679   2.683   3.584  0.0037 -0.0381  0.4724
 9556SOL    HW140130   4.716   2.690   3.672 -2.3276  1.7886  1.3087
 9556SOL    HW240131   0.019   2.626   3.541  1.2550  0.7190  1.2975
 9557SOL     OW40132   2.266   1.048   3.155  0.0380  0.0471 -0.4698
 9557SOL    HW140133   2.249   1.045   3.250  1.7643 -0.2874 -0.1843
 9557SOL    HW240134   2.258   0.956   3.130 -0.0147  0.4825 -2.0271
 9558SOL     OW40135   4.228   0.263   7.428  0.1755  0.5051  0.4073
 9558SOL    HW140136   4.251   0.311   7.348 -3.0357 -2.1168 -2.0911
 9558SOL    HW240137   4.311   0.222   7.452  0.5893  0.8223 -0.4863
 9559SOL     OW40138   3.538   0.215   8.885 -0.2114  0.2697 -0.3169
 9559SOL    HW140139   3.572   0.133   8.919 -0.1072  0.1649 -0.6719
 9559SOL    HW240140   3.576   0.223   8.797  0.4218  1.1548  0.0336
 9560SOL     OW40141   1.573   4.198   7.706  0.3085  0.0467  0.1587
 9560SOL    HW140142   1.529   4.272   7.747  2.3009  0.7907  0.9778
 9560SOL    HW240143   1.606   4.239   7.625 -0.6122 -0.3846 -0.4346
 9561SOL     OW40144   3.489   2.753  13.033  0.1450 -0.0309 -0.3140
 9561SOL    HW140145   3.508   2.754  12.939  1.4707 -1.2416 -0.0657
 9561SOL    HW240146   3.509   2.660  13.045  2.4594  0.4426 -0.4276
 9562SOL     OW40147   0.541   4.285   9.139  0.6917  0.1092 -0.1067
 9562SOL    HW140148   0.447   4.289   9.158  0.9236  1.0766  0.8284
 9562SOL    HW240149   0.546   4.195   9.109 -0.2952 -0.1690  0.5634
 9563SOL     OW40150   0.065   3.222   0.591  0.0930 -0.1978 -0.4984
 9563SOL    HW140151   0.121   3.153   0.627  2.5680  2.4060  0.5770
 9563SOL    HW240152   0.052   3.193   0.501 -2.2904 -1.5378  0.2594
 9564SOL     OW40153   0.702   1.747   5.687 -0.0190 -0.2165  0.0353
 9564SOL    HW140154   0.775   1.776   5.741  0.4327 -2.1572  0.4870
 9564SOL    HW240155   0.711   1.797   5.605 -1.4988  1.6498  1.0357
 9565SOL     OW40156   2.388   2.021  14.290 -0.2193  0.4711  0.9268
 9565SOL    HW140157   2.435   2.023  14.373 -0.1982 -0.7291  0.9415
 9565SOL    HW240158   2.317   2.081  14.312 -1.7109 -1.2879  0.9585
 9566SOL     OW40159   2.727   3.507   6.085  0.6515 -0.1620  0.1059
 9566SOL    HW140160   2.750   3.473   5.998 -1.9960  1.1852 -1.1339
 9566SOL    HW240161   2.720   3.595   6.048  1.8366  0.3641  1.1176
 9567SOL     OW40162   2.472   1.532   3.039 -0.5293  0.0319 -0.2648
 9567SOL    HW140163   2.565   1.544   3.058 -0.5224  1.9875 -1.5581
 9567SOL    HW240164   2.480   1.446   2.996 -3.2514 -0.8939  1.0576
 9568SOL     OW40165   4.344   3.038  15.693 -0.0955 -0.3715  0.3747
 9568SOL    HW140166   4.307   2.996  15.615 -1.2770  0.4386  0.5080
 9568SOL    HW240167   4.373   3.118  15.648 -0.5917 -0.7334 -0.5998
   4.72353   4.72353  17.69592
