Membrane in water
40167
    1TCq1    O1    1   1.805   4.088  11.191  0.4095 -0.2436  0.2598
    1TCq1    C1    2   1.757   4.043  11.075  0.8184 -0.0184  0.4545
    1TCq1    O2    3   1.783   4.088  10.962 -0.8627 -0.0872  0.0792
    1TCq1    C2    4   1.688   3.912  11.088 -0.6353 -0.3456 -0.5106
    1TCq1    C3    5   1.595   3.892  10.990  0.0777 -0.4734 -0.8481
    1TCq1    C4    6   1.498   3.795  11.021  0.6868  0.1041  0.3375
    1TCq1    C5    7   1.513   3.706  11.121 -0.6862 -0.0515 -0.2548
    1TCq1    C6    8   1.617   3.721  11.212  0.4155  0.0656  0.0434
    1TCq1    C7    9   1.712   3.826  11.191 -0.4568  0.2976 -0.2118
    1TCq1    C8   10   1.621   3.645  11.332 -0.2161 -0.3937 -0.4065
    1TCq1    O4   11   1.670   3.700  11.427  0.4335 -0.3390  0.1930
    1TCq1    C9   12   1.386   3.798  10.934  0.8259 -0.0456 -0.0623
    1TCq1    O5   13   1.284   3.727  10.968  0.8160 -0.3605  0.6825
    1TCq1    O6   14   1.405   3.859  10.822 -0.8206  0.8629 -0.1800
    1TCq1    H1   15   1.762   4.049  11.271 -1.4823  0.7876 -0.2370
    1TCq1    H2   16   1.586   3.966  10.911  0.1107 -0.2262 -0.6190
    1TCq1    H3   17   1.430   3.639  11.140  0.6291 -1.3378  0.8925
    1TCq1    H4   18   1.792   3.843  11.262 -0.2763  2.4492 -0.9160
    2MPD2     C   19   1.566   3.199  11.576 -0.1034  0.3327 -0.7001
    2MPD2    C1   20   1.576   3.329  11.627 -0.4389 -0.1613 -0.4440
    2MPD2    C2   21   1.585   3.436  11.538 -0.3467  0.1662 -0.7681
    2MPD2    C3   22   1.587   3.412  11.396 -0.1113 -0.1371 -0.0348
    2MPD2    C4   23   1.577   3.279  11.347  0.0538  0.8437 -0.3020
    2MPD2    C5   24   1.569   3.175  11.439  0.2123 -0.2929 -0.0455
    2MPD2     H   25   1.588   3.533  11.586 -0.3594  0.3140 -1.0673
    2MPD2    H1   26   1.571   3.266  11.240  4.0759 -1.0399 -0.2929
    2MPD2    H2   27   1.560   3.115  11.644  0.4120 -0.3370 -1.4865
    2MPD2    H3   28   1.552   3.072  11.407  2.0244 -0.8092  0.6377
    2MPD2     N   29   1.594   3.517  11.301 -0.4915 -0.3323 -0.2042
    2MPD2    H5   30   1.587   3.483  11.205 -0.5360  1.8297 -0.9548
    2MPD2    N1   31   1.571   3.373  11.756  0.3855 -0.1562 -0.5677
    2MPD2    H7   32   1.588   3.472  11.776 -1.8889  0.7910 -3.3144
    3TCq1    O1   33   1.080   0.064  10.401 -0.1328  0.4077 -0.3545
    3TCq1    C1   34   1.157   0.164  10.438 -0.3870  0.0051  0.7555
    3TCq1    O2   35   1.279   0.167  10.422  0.0460 -0.1019 -0.1470
    3TCq1    C2   36   1.075   0.278  10.472  0.2614  0.0868 -0.3212
    3TCq1    C3   37   1.133   0.405  10.466 -0.3070 -1.0627 -0.1457
    3TCq1    C4   38   1.056   0.509  10.508  0.4373  0.1563  0.1094
    3TCq1    C5   39   0.926   0.494  10.542 -0.5081  0.0536  0.2562
    3TCq1    C6   40   0.872   0.368  10.549 -0.3241 -0.1220  0.7076
    3TCq1    C7   41   0.946   0.256  10.508 -0.3274 -0.4913 -0.1477
    3TCq1    C8   42   0.761   0.336  10.635 -0.0969 -0.7095 -0.4875
    3TCq1    O4   43   0.726   0.217  10.634 -0.0376 -0.3128 -0.5237
    3TCq1    C9   44   1.120   0.632  10.519 -0.3990  0.5254 -0.6713
    3TCq1    O5   45   1.246   0.628  10.544 -0.1855  0.0752  0.5261
    3TCq1    O6   46   1.043   0.732  10.532  0.5268 -0.2426  0.4298
    3TCq1    H1   47   0.993   0.069  10.446 -1.2208  1.7161 -2.6554
    3TCq1    H2   48   1.238   0.416  10.445  0.4556 -0.0781  4.2467
    3TCq1    H3   49   0.868   0.584  10.557  0.3465  0.6430  0.0678
    3TCq1    H4   50   0.909   0.157  10.534 -1.6202  0.0431  0.0614
    4MPD2     C   51   0.401   0.497  10.990 -0.6337  0.5509 -0.3543
    4MPD2    C1   52   0.478   0.607  10.946 -0.2440  0.0959 -0.6906
    4MPD2    C2   53   0.581   0.584  10.858  0.2302  0.3895 -0.2039
    4MPD2    C3   54   0.614   0.461  10.799 -0.0059 -0.0140  0.4700
    4MPD2    C4   55   0.535   0.352  10.837 -0.0984 -0.0794  0.1875
    4MPD2    C5   56   0.427   0.375  10.925  0.5896 -0.5266  1.0677
    4MPD2     H   57   0.642   0.671  10.836 -0.6578  1.6604  2.3708
    4MPD2    H1   58   0.538   0.252  10.794  0.7708 -0.0956  0.2808
    4MPD2    H2   59   0.322   0.516  11.062  1.2339  0.9087  1.6043
    4MPD2    H3   60   0.355   0.297  10.945 -2.2399  1.2176 -2.2546
    4MPD2     N   61   0.724   0.448  10.710 -0.2134 -0.8673 -0.2391
    4MPD2    H5   62   0.782   0.532  10.702 -0.4708 -0.6461  0.1994
    4MPD2    N1   63   0.457   0.739  10.984 -0.4257 -0.1444 -0.4148
    4MPD2    H7   64   0.526   0.809  10.956  0.2923 -0.1846  1.2498
    5TCq1    O1   65   2.510   1.633  11.829  0.2236  0.0375  0.2939
    5TCq1    C1   66   2.431   1.686  11.735 -0.2398 -0.4255 -0.4296
    5TCq1    O2   67   2.446   1.669  11.613 -0.1334 -0.5475 -0.0034
    5TCq1    C2   68   2.301   1.734  11.786  0.2520 -0.0728  0.2111
    5TCq1    C3   69   2.297   1.776  11.913 -0.3892  0.7403 -0.2685
    5TCq1    C4   70   2.174   1.794  11.972 -0.2374  1.4839 -1.0208
    5TCq1    C5   71   2.055   1.784  11.905  0.6020 -0.2797 -0.0890
    5TCq1    C6   72   2.067   1.738  11.774  0.4232  0.4431  0.5150
    5TCq1    C7   73   2.187   1.708  11.711  0.1298  0.4910 -0.0952
    5TCq1    C8   74   1.949   1.757  11.689  0.4331  0.0501  0.1825
    5TCq1    O4   75   1.849   1.815  11.735 -0.0776 -0.2751  0.1701
    5TCq1    C9   76   2.167   1.849  12.102  0.1378 -0.0726  0.1732
    5TCq1    O5   77   2.052   1.873  12.153 -0.3825  0.1815 -0.0124
    5TCq1    O6   78   2.278   1.864  12.158  0.4526  0.0932 -0.0702
    5TCq1    H1   79   2.454   1.619  11.908 -1.7633  0.9448 -0.9542
    5TCq1    H2   80   2.387   1.794  11.971 -0.4721  0.8822 -0.1844
    5TCq1    H3   81   1.966   1.825  11.952  1.2890  0.2326  0.7580
    5TCq1    H4   82   2.208   1.679  11.609  1.1310  1.2481 -0.1095
    6MPD2     C   83   1.794   1.820  11.450 -0.4432 -0.0912 -0.2692
    6MPD2    C1   84   1.879   1.708  11.457 -0.3340  0.1171  0.2045
    6MPD2    C2   85   1.889   1.620  11.350  0.6612  0.5493 -0.2954
    6MPD2    C3   86   1.805   1.645  11.238 -0.0807 -0.1996  0.5663
    6MPD2    C4   87   1.735   1.762  11.231  0.0260  0.1731 -0.3912
    6MPD2    C5   88   1.723   1.846  11.334 -0.0237  0.9318  0.0367
    6MPD2     H   89   1.945   1.527  11.349  0.4323  0.4476 -3.4010
    6MPD2    H1   90   1.672   1.790  11.148 -0.4481  1.3700  0.3599
    6MPD2    H2   91   1.793   1.896  11.528 -1.7355 -0.4860  0.0998
    6MPD2    H3   92   1.652   1.928  11.335  1.8277  2.5515  0.4607
    6MPD2     N   93   1.816   1.559  11.127  0.2952  0.1466  0.2623
    6MPD2    H5   94   1.867   1.472  11.136 -0.0312  0.0402  1.0260
    6MPD2    N1   95   1.960   1.691  11.569 -0.6595  0.5942  0.5881
    6MPD2    H7   96   2.031   1.620  11.565 -1.1655  0.1452 -0.3085
    7TCq1    O1   97   2.779   1.453  12.895 -0.4922  0.0276 -0.3146
    7TCq1    C1   98   2.838   1.452  13.017  0.3675 -0.2410 -0.3011
    7TCq1    O2   99   2.802   1.395  13.121 -0.5297 -0.0971  0.7976
    7TCq1    C2  100   2.977   1.466  12.994 -0.1704 -0.1444  0.1885
    7TCq1    C3  101   3.031   1.527  12.881  0.8655  0.2317 -0.2888
    7TCq1    C4  102   3.161   1.510  12.871  0.2529 -0.9764 -0.0712
    7TCq1    C5  103   3.245   1.438  12.948 -0.3431  0.1195  0.2471
    7TCq1    C6  104   3.196   1.396  13.066 -0.3764  0.3168 -0.8971
    7TCq1    C7  105   3.056   1.402  13.090  0.2878  0.2013  0.7163
    7TCq1    C8  106   3.265   1.300  13.150 -0.5105 -0.1970 -0.5688
    7TCq1    O4  107   3.206   1.216  13.210  0.2962  0.1894 -0.4873
    7TCq1    C9  108   3.222   1.561  12.751  0.0828  0.3325 -0.1327
    7TCq1    O5  109   3.321   1.499  12.704 -0.3342 -0.3916  0.3318
    7TCq1    O6  110   3.170   1.668  12.710 -0.6992  0.2811  0.1241
    7TCq1    H1  111   2.826   1.506  12.827  0.3412 -1.3506 -0.8072
    7TCq1    H2  112   2.977   1.599  12.821  0.1894 -0.0691 -0.0431
    7TCq1    H3  113   3.347   1.422  12.917 -0.6012 -0.6761 -0.1763
    7TCq1    H4  114   3.027   1.369  13.189  2.3026  1.4532  1.7155
    8MPD2     C  115   3.717   1.142  13.337 -1.4024 -0.6689  0.5250
    8MPD2    C1  116   3.591   1.083  13.336  0.0857  0.2117 -0.3664
    8MPD2    C2  117   3.483   1.157  13.288 -0.3153  0.9752  0.4231
    8MPD2    C3  118   3.493   1.284  13.237 -0.2926 -0.6790 -0.7136
    8MPD2    C4  119   3.622   1.336  13.242  0.0557  0.2101 -0.1066
    8MPD2    C5  120   3.731   1.266  13.280 -0.0206  0.6154  0.7236
    8MPD2     H  121   3.385   1.110  13.289  0.0670  0.1345 -1.1773
    8MPD2    H1  122   3.640   1.436  13.206 -0.2477  0.5355  0.6400
    8MPD2    H2  123   3.801   1.097  13.390 -0.8389 -0.3196 -0.0621
    8MPD2    H3  124   3.827   1.316  13.286  0.5873 -0.2097 -1.8152
    8MPD2     N  125   3.389   1.347  13.171  0.0881  0.3876 -0.2617
    8MPD2    H5  126   3.409   1.435  13.124  2.7580  0.3197  0.7502
    8MPD2    N1  127   3.582   0.960  13.408 -0.0673  0.1986  0.1736
    8MPD2    H7  128   3.652   0.929  13.474  0.6499 -1.5878 -1.4512
    9TCq1    O1  129   1.474   0.614  10.971 -0.6902  0.1689  0.1378
    9TCq1    C1  130   1.420   0.525  11.062  0.9823 -0.2715  0.3142
    9TCq1    O2  131   1.488   0.430  11.105 -0.3657  0.4322  0.4618
    9TCq1    C2  132   1.309   0.590  11.129  0.3861  0.2508  0.0366
    9TCq1    C3  133   1.272   0.721  11.118  0.4804 -0.8508  0.2602
    9TCq1    C4  134   1.162   0.759  11.180 -0.0601  0.1217 -0.0884
    9TCq1    C5  135   1.072   0.667  11.230  0.3703 -0.6252  0.7896
    9TCq1    C6  136   1.112   0.537  11.244 -0.6161  1.0907  0.0452
    9TCq1    C7  137   1.231   0.492  11.197  0.6203 -0.2607  0.7186
    9TCq1    C8  138   1.050   0.457  11.345  0.5286  0.0441  0.2568
    9TCq1    O4  139   0.934   0.479  11.375 -0.0804 -0.3980  0.1112
    9TCq1    C9  140   1.117   0.894  11.180  0.1179  0.0796 -0.0548
    9TCq1    O5  141   1.201   0.974  11.138  0.3439 -0.3871 -0.1085
    9TCq1    O6  142   1.001   0.912  11.221 -0.1876 -0.0477 -0.3339
    9TCq1    H1  143   1.400   0.666  10.931  0.5996  1.4295 -0.6254
    9TCq1    H2  144   1.340   0.795  11.078 -1.0097 -0.0377 -0.7702
    9TCq1    H3  145   0.972   0.695  11.261  0.9696 -1.4660  3.5150
    9TCq1    H4  146   1.251   0.386  11.184 -0.1411 -0.0088 -2.7002
   10MPD2     C  147   0.968   0.285  11.572 -0.3141  1.1204  0.2863
   10MPD2    C1  148   1.095   0.279  11.513  0.8573  0.2114  0.2164
   10MPD2    C2  149   1.189   0.189  11.559  0.3578 -0.6268  0.6253
   10MPD2    C3  150   1.161   0.095  11.658 -0.6116 -0.1921  0.2967
   10MPD2    C4  151   1.033   0.099  11.718  0.2350 -0.1478 -0.7054
   10MPD2    C5  152   0.942   0.195  11.670  0.4917 -0.0861  0.4584
   10MPD2     H  153   1.290   0.186  11.518  0.3736 -0.3425  0.6399
   10MPD2    H1  154   1.005   0.032  11.799 -0.1444  1.2345  0.3123
   10MPD2    H2  155   0.880   0.344  11.550 -1.2323 -0.9944 -1.8163
   10MPD2    H3  156   0.843   0.208  11.712  0.5935  1.7649  0.1146
   10MPD2     N  157   1.253   0.004  11.705  0.0543 -0.2420 -0.1349
   10MPD2    H5  158   1.236   4.672  11.787  0.5496 -1.3979 -0.8453
   10MPD2    N1  159   1.133   0.366  11.406 -0.0530 -0.8131 -0.3069
   10MPD2    H7  160   1.226   0.366  11.365  1.5926 -2.6562  3.4041
   11TCq1    O1  161   2.485   0.446  14.518  0.5491  0.1685 -0.5505
   11TCq1    C1  162   2.417   0.350  14.585 -0.5071 -0.0337 -0.0632
   11TCq1    O2  163   2.421   0.341  14.709 -0.2128  0.4250  0.3213
   11TCq1    C2  164   2.310   0.294  14.498 -0.4097  0.3270  0.2926
   11TCq1    C3  165   2.329   0.285  14.365 -0.2243  0.6905  0.0639
   11TCq1    C4  166   2.243   0.212  14.289  0.0387  0.0335 -0.0315
   11TCq1    C5  167   2.140   0.150  14.352  0.2867 -0.6075  0.4399
   11TCq1    C6  168   2.124   0.167  14.485  0.3714 -0.1787  0.1298
   11TCq1    C7  169   2.194   0.250  14.557 -0.6405 -0.0751 -0.0513
   11TCq1    C8  170   2.007   0.101  14.543 -0.0470  0.3495 -0.1916
   11TCq1    O4  171   1.965   0.147  14.646 -0.1088  0.5382  0.4301
   11TCq1    C9  172   2.284   0.188  14.154 -0.2035  0.0376  1.5985
   11TCq1    O5  173   2.226   0.096  14.094 -0.2459  0.4487 -0.3006
   11TCq1    O6  174   2.355   0.278  14.110  0.0106  0.2329  0.5303
   11TCq1    H1  175   2.430   0.450  14.437  0.1276  2.8075 -0.1377
   11TCq1    H2  176   2.425   0.308  14.320 -1.1081  1.3153 -1.4824
   11TCq1    H3  177   2.087   0.083  14.285  0.9442 -0.9324  0.2547
   11TCq1    H4  178   2.188   0.263  14.664  3.2860  0.4197  0.1270
   12MPD2     C  179   1.744   4.696  14.585 -0.5303  0.2959  0.3710
   12MPD2    C1  180   1.839   4.663  14.484  0.3268 -0.2578  0.0303
   12MPD2    C2  181   1.802   4.573  14.389  0.1974 -0.2016  0.2850
   12MPD2    C3  182   1.680   4.517  14.390  0.3759 -0.1391 -0.1408
   12MPD2    C4  183   1.588   4.550  14.482 -0.1613 -0.7115 -0.4441
   12MPD2    C5  184   1.621   4.633  14.587 -0.5931  0.2525  0.5286
   12MPD2     H  185   1.868   4.541  14.310 -0.4538  1.0194 -0.7428
   12MPD2    H1  186   1.487   4.511  14.484 -0.4033 -0.0708 -0.2825
   12MPD2    H2  187   1.765   0.045  14.661 -2.3865  0.6125  0.5709
   12MPD2    H3  188   1.548   4.664  14.662 -1.0033 -0.8627  0.5904
   12MPD2     N  189   1.655   4.424  14.283  0.1389 -0.5626  0.4338
   12MPD2    H5  190   1.729   4.377  14.232  1.2121  2.0278 -0.3719
   12MPD2    N1  191   1.968   4.712  14.477 -0.1093 -0.7694 -1.2100
   12MPD2    H7  192   2.031   4.678  14.406  0.7626 -1.4649 -0.1020
   13TCq1    O1  193   2.164   0.083  11.878 -0.0669 -0.4274 -0.7009
   13TCq1    C1  194   2.254   0.089  11.782  0.2020  0.2880  0.7032
   13TCq1    O2  195   2.371   0.073  11.795 -0.1478  0.0992 -0.2095
   13TCq1    C2  196   2.195   0.140  11.661  0.2025  0.2357  0.9592
   13TCq1    C3  197   2.297   0.186  11.575  0.6212 -0.4639  0.0334
   13TCq1    C4  198   2.251   0.211  11.445  0.2836  0.6069 -0.3411
   13TCq1    C5  199   2.125   0.200  11.401 -0.1490  0.8561 -0.2575
   13TCq1    C6  200   2.029   0.161  11.498  0.1494  0.2037  0.2503
   13TCq1    C7  201   2.064   0.120  11.627  0.6005 -0.0807  0.7954
   13TCq1    C8  202   1.910   0.105  11.442  0.1692 -0.7839  0.6817
   13TCq1    O4  203   1.816   0.099  11.516  0.3590  0.6835 -0.4018
   13TCq1    C9  204   2.344   0.284  11.364  0.2384  0.5813  0.3318
   13TCq1    O5  205   2.328   0.281  11.239  0.8886  0.0186  0.1005
   13TCq1    O6  206   2.431   0.349  11.431 -0.4524  0.3681  0.1700
   13TCq1    H1  207   2.084   0.135  11.857  0.3674  1.1180  1.4736
   13TCq1    H2  208   2.399   0.192  11.610  1.1443  1.3970 -1.8058
   13TCq1    H3  209   2.104   0.230  11.299  0.7929 -0.1305 -0.7466
   13TCq1    H4  210   2.002   0.061  11.693  0.8254  1.2499  2.1967
   14MPD2     C  211   1.890   4.534  11.231 -0.5443  0.0140  0.6584
   14MPD2    C1  212   1.846   4.643  11.305  0.0997  0.6134 -0.3344
   14MPD2    C2  213   1.710   4.648  11.329 -0.2329  0.0578 -0.1424
   14MPD2    C3  214   1.619   4.543  11.299 -0.5838 -0.9819 -0.4519
   14MPD2    C4  215   1.674   4.437  11.227  0.0083  0.7136  0.0024
   14MPD2    C5  216   1.804   4.429  11.197  0.5275 -0.6110 -0.0105
   14MPD2     H  217   1.666   0.011  11.376  0.2590 -0.1465  0.7044
   14MPD2    H1  218   1.608   4.358  11.193  1.0241  0.8451 -2.2226
   14MPD2    H2  219   1.995   4.526  11.204 -0.9147 -1.8090 -0.2795
   14MPD2    H3  220   1.850   4.342  11.151  0.6786  0.1655 -1.3311
   14MPD2     N  221   1.480   4.561  11.327  0.1525 -0.5892 -0.1704
   14MPD2    H5  222   1.446   4.646  11.369  0.4746 -1.2778  1.4667
   14MPD2    N1  223   1.939   0.012  11.351 -0.6191 -0.0609  0.2524
   14MPD2    H7  224   2.033   0.002  11.313 -0.4085 -1.8158  1.2408
   15TCq1    O1  225   2.842   4.007   1.998  0.7754  0.2290 -0.2296
   15TCq1    C1  226   2.721   4.006   1.940  0.7334 -0.6392  0.4047
   15TCq1    O2  227   2.692   4.052   1.833  0.1616 -0.3688  0.6145
   15TCq1    C2  228   2.685   3.872   1.961  0.4399  0.0716  0.4745
   15TCq1    C3  229   2.699   3.827   2.088  0.0937  0.5198 -0.0030
   15TCq1    C4  230   2.680   3.697   2.116  0.0759 -0.2888 -0.2828
   15TCq1    C5  231   2.647   3.617   2.011 -0.0129 -0.4999 -0.0917
   15TCq1    C6  232   2.638   3.662   1.884  0.5839  0.9454  0.9293
   15TCq1    C7  233   2.646   3.794   1.853  0.2691  0.0222  0.4306
   15TCq1    C8  234   2.622   3.551   1.792  0.1852  0.2435  0.7729
   15TCq1    O4  235   2.614   3.438   1.838  0.8356  0.2274 -0.0162
   15TCq1    C9  236   2.681   3.652   2.251  1.1377 -0.1325  1.0072
   15TCq1    O5  237   2.719   3.532   2.271  0.1573 -0.5633 -0.4349
   15TCq1    O6  238   2.677   3.742   2.336 -0.1931 -0.8402 -0.4471
   15TCq1    H1  239   2.846   3.945   2.074  0.4775  0.9207  0.3498
   15TCq1    H2  240   2.711   3.897   2.169 -0.1805 -1.8917  2.1272
   15TCq1    H3  241   2.621   3.516   2.041 -0.0783 -0.6190 -0.5542
   15TCq1    H4  242   2.662   3.838   1.755 -1.4133 -1.5605 -0.5665
   16MPD2     C  243   2.513   3.590   1.444 -0.0483 -0.1751 -0.3831
   16MPD2    C1  244   2.550   3.527   1.557 -0.0417  0.6291  0.0826
   16MPD2    C2  245   2.580   3.392   1.548 -0.7465 -0.1177 -0.0592
   16MPD2    C3  246   2.572   3.332   1.424 -0.7350 -0.2247  0.6914
   16MPD2    C4  247   2.543   3.408   1.311 -0.0029 -0.1209 -0.1930
   16MPD2    C5  248   2.508   3.536   1.319 -0.1897  0.0776 -0.4127
   16MPD2     H  249   2.625   3.340   1.632  0.7261  0.8824 -0.2287
   16MPD2    H1  250   2.528   3.369   1.211  1.6859 -0.4961 -0.3035
   16MPD2    H2  251   2.491   3.694   1.465 -1.6911 -0.4350 -0.7623
   16MPD2    H3  252   2.497   3.598   1.231  0.5971  0.2017 -0.4289
   16MPD2     N  253   2.609   3.200   1.413  0.0234  0.5598 -0.1154
   16MPD2    H5  254   2.643   3.150   1.494  0.7530  0.1812 -0.6647
   16MPD2    N1  255   2.579   3.605   1.673  0.2353  0.4632 -0.3175
   16MPD2    H7  256   2.558   3.704   1.669  0.2559  0.4679 -0.3123
   17TCq1    O1  257   1.040   3.241  10.876 -0.3129  0.0473 -0.2754
   17TCq1    C1  258   1.156   3.263  10.938 -0.3532  0.2564  0.5806
   17TCq1    O2  259   1.163   3.294  11.055  0.6431  0.1975  0.2263
   17TCq1    C2  260   1.268   3.281  10.851 -0.9656  0.6116 -0.0356
   17TCq1    C3  261   1.302   3.177  10.763 -0.3967  0.1787 -1.3349
   17TCq1    C4  262   1.421   3.185  10.707 -0.4113  0.3635  0.3393
   17TCq1    C5  263   1.516   3.281  10.738  0.6876 -0.1928 -1.3101
   17TCq1    C6  264   1.492   3.368  10.843  0.1375  0.9006  0.3631
   17TCq1    C7  265   1.366   3.363  10.899 -0.3831  1.1353  0.1172
   17TCq1    C8  266   1.609   3.411  10.932  0.2448 -0.6173 -0.1132
   17TCq1    O4  267   1.588   3.383  11.047  0.7295  0.5851  0.3019
   17TCq1    C9  268   1.453   3.093  10.610 -0.0644  0.0632  0.6124
   17TCq1    O5  269   1.374   2.998  10.589 -0.3740  0.1204  0.4735
   17TCq1    O6  270   1.551   3.118  10.533 -0.0382 -0.1817  0.2283
   17TCq1    H1  271   1.054   3.258  10.780 -1.9043  1.2951 -0.3019
   17TCq1    H2  272   1.227   3.104  10.735 -1.3019  0.8786 -0.6937
   17TCq1    H3  273   1.616   3.268  10.698  1.4750 -2.3745  1.3578
   17TCq1    H4  274   1.350   3.438  10.976  0.5102 -0.2210  1.6136
   18MPD2     C  275   1.845   3.510  11.068 -0.4929  0.0532 -0.5385
   18MPD2    C1  276   1.812   3.548  10.934  0.0803  0.9293 -0.2439
   18MPD2    C2  277   1.877   3.653  10.878  0.6504  0.6152  0.1058
   18MPD2    C3  278   1.987   3.710  10.939  0.4976 -0.0323  1.0613
   18MPD2    C4  279   2.004   3.684  11.071 -0.5194 -0.2673 -0.1077
   18MPD2    C5  280   1.936   3.587  11.135 -0.8388 -0.5244 -0.3692
   18MPD2     H  281   1.848   3.675  10.775  0.8484 -2.8653 -0.6670
   18MPD2    H1  282   2.086   3.717  11.134  0.9680 -1.9445 -1.1752
   18MPD2    H2  283   1.808   3.423  11.121 -1.3637 -0.6005 -2.1881
   18MPD2    H3  284   1.962   3.576  11.240  1.0124  0.0864 -0.7610
   18MPD2     N  285   2.084   3.783  10.872  0.4584  0.0467  0.1524
   18MPD2    H5  286   2.164   3.815  10.925  0.6457 -0.9006  0.4299
   18MPD2    N1  287   1.701   3.490  10.866  0.5689 -0.5264  0.8372
   18MPD2    H7  288   1.670   3.516  10.773  0.0929  1.7229  1.6197
   19TMC2    C1  289   2.908   4.264  13.581 -0.0582  0.3236 -0.6393
   19TMC2    C2  290   2.838   4.349  13.507 -0.3899 -0.3077  0.2157
   19TMC2    C3  291   2.698   4.351  13.522 -0.4968  0.5245  0.9749
   19TMC2    C4  292   2.849   4.190  13.677 -0.4916 -0.0169 -0.5457
   19TMC2    C5  293   2.713   4.195  13.697 -0.3796 -0.4570  0.8149
   19TMC2    C6  294   2.632   4.272  13.611  0.0064  0.6965 -0.3033
   19TMC2     C  295   3.056   4.288  13.594  0.1836 -0.4345  0.0815
   19TMC2     O  296   3.107   4.350  13.505 -0.3572 -0.1925 -0.0228
   19TMC2     H  297   2.891   4.410  13.436 -0.1545 -1.4026 -0.5470
   19TMC2    H1  298   2.901   4.117  13.737 -1.3160 -1.0426 -1.0722
   19TMC2    H2  299   2.527   4.290  13.633 -0.1646  1.6033 -1.8521
   19TMC2    C7  300   2.649   4.141  13.822 -0.4547 -0.0183 -0.6029
   19TMC2    C8  301   2.629   4.447  13.442  0.0213  0.5014 -0.4665
   19TMC2    O1  302   2.531   4.111  13.829  0.7141  0.6312  0.5296
   19TMC2    O2  303   2.678   4.545  13.384  0.3874  0.1760 -0.1991
   19TMC2    O5  304   2.507   4.399  13.415  0.2985  0.0996 -0.5330
   19TMC2    H5  305   2.477   4.315  13.456 -0.6543  0.1350 -1.1492
   20MPD2     C  306   3.336   4.296  13.691 -0.2322  0.1526 -0.2405
   20MPD2    C1  307   3.226   4.260  13.767 -0.2566 -0.6725 -0.1750
   20MPD2    C2  308   3.243   4.237  13.899 -0.1433 -0.1017 -0.4874
   20MPD2    C3  309   3.366   4.267  13.962  0.2137  0.2114 -0.4379
   20MPD2    C4  310   3.468   4.307  13.888  0.6846  0.1649  0.2951
   20MPD2    C5  311   3.450   4.325  13.755  0.1632 -0.1636  0.0999
   20MPD2     H  312   3.156   4.217  13.960 -0.0542 -2.8919 -1.2752
   20MPD2    H1  313   3.570   4.328  13.921  0.8618 -0.9260  0.4230
   20MPD2    H2  314   3.331   4.317  13.584  0.5366  2.7800  0.2606
   20MPD2    H3  315   3.535   4.367  13.702 -1.5373  0.4729 -2.1502
   20MPD2     N  316   3.375   4.261  14.099 -0.5037 -0.2924 -0.3329
   20MPD2    H5  317   3.465   4.273  14.145 -0.5713 -0.8934 -0.0338
   20MPD2    N1  318   3.096   4.257  13.717  0.3359  0.7974  0.3121
   20MPD2    H7  319   3.019   4.241  13.781 -0.2869  0.5362 -0.5023
   21MPD2     C  320   0.453   0.078  14.216  0.4395  0.2973  0.1907
   21MPD2    C1  321   0.533   0.029  14.319 -0.9927 -0.4524  0.5891
   21MPD2    C2  322   0.489   0.024  14.450 -0.5570 -0.4700 -0.0735
   21MPD2    C3  323   0.366   0.068  14.482 -0.9640 -0.4744 -0.3771
   21MPD2    C4  324   0.276   0.115  14.385  0.5540  0.0400  0.8173
   21MPD2    C5  325   0.325   0.118  14.259 -0.0870  0.5098  0.8457
   21MPD2     H  326   0.557   4.711  14.525  0.7732  2.9565  0.4723
   21MPD2    H1  327   0.176   0.146  14.412  0.4796  0.5129 -0.0229
   21MPD2    H2  328   0.483   0.095  14.114  0.4210  1.9187  0.4475
   21MPD2    H3  329   0.253   0.154  14.187  0.7221 -1.3314 -0.8749
   21MPD2     N  330   0.314   0.071  14.612 -0.1613  0.3541  0.0546
   21MPD2    H5  331   0.220   0.108  14.618  0.0727  0.8670  0.5946
   21MPD2    N1  332   0.664   4.702  14.300 -0.0424  0.0285  0.2417
   21MPD2    H7  333   0.707   4.670  14.386  2.6108  2.2438 -0.2696
   22TCq2    C1  334   0.374   0.011  14.721  0.4485 -0.3798 -0.3304
   22TCq2    O2  335   0.467   4.653  14.716  0.0244  0.8446 -0.4851
   22TCq2    C2  336   0.290   0.026  14.838 -0.1684 -0.3426  0.0915
   22TCq2    C3  337   0.317   4.673  14.943 -0.1826 -0.5089  0.1750
   22TCq2    C4  338   0.293   4.715  15.070 -1.1503 -1.0817 -0.1505
   22TCq2    C5  339   0.220   0.103  15.087  0.4539  0.2124 -0.0683
   22TCq2    C6  340   0.182   0.178  14.983 -0.4877  0.7557  0.2821
   22TCq2    C7  341   0.218   0.146  14.854  0.0249 -0.0273  0.8984
   22TCq2    C8  342   0.134   0.306  15.025  0.1810 -0.4795  0.1739
   22TCq2    O4  343   0.118   0.321  15.149  0.0706  0.5187 -0.1612
   22TCq2    C9  344   0.337   4.632  15.186 -0.0180 -0.4087 -0.7175
   22TCq2    O5  345   0.381   4.518  15.151 -0.0990 -0.1965 -0.3557
   22TCq2    O6  346   0.324   4.670  15.304 -0.3748  0.0012 -0.0995
   22TCq2    H2  347   0.380   4.587  14.925  0.6347  0.6017 -2.2162
   22TCq2    H3  348   0.192   0.118  15.190  1.6838 -2.4927  0.6384
   22TCq2    H4  349   0.199   0.214  14.772  0.5949 -0.9335  0.0178
   23MPD2     C  350   2.488   1.152  15.054 -0.1330 -0.0686  0.0068
   23MPD2    C1  351   2.380   1.103  15.117 -0.5119 -0.0593  0.2518
   23MPD2    C2  352   2.257   1.140  15.064 -0.4794 -1.3497 -0.1370
   23MPD2    C3  353   2.247   1.215  14.949  0.3585  0.0066  0.3857
   23MPD2    C4  354   2.362   1.258  14.885 -0.3375  0.0994 -0.0666
   23MPD2    C5  355   2.483   1.224  14.942  0.3228 -0.4021 -0.1400
   23MPD2     H  356   2.166   1.102  15.109  0.7949 -2.9792  1.0544
   23MPD2    H1  357   2.360   1.300  14.785  0.3024 -0.4695 -0.3230
   23MPD2    H2  358   2.589   1.130  15.088 -0.3355  2.1454  2.0018
   23MPD2    H3  359   2.577   1.263  14.904  0.0918 -0.5165 -0.8197
   23MPD2     N  360   2.123   1.235  14.884  0.0990 -0.6264  0.1635
   23MPD2    H5  361   2.120   1.259  14.785 -0.2821 -0.5884  0.1842
   23MPD2    N1  362   2.378   1.032  15.241 -0.2238  0.1659 -0.3080
   23MPD2    H7  363   2.291   0.986  15.266  0.8634 -1.3546  0.6908
   24TCq2    C1  364   1.995   1.218  14.940  0.0401 -0.4300 -0.1214
   24TCq2    O2  365   1.968   1.193  15.058  0.7011 -0.0547 -0.5490
   24TCq2    C2  366   1.890   1.244  14.839 -0.4028 -0.9497  0.5921
   24TCq2    C3  367   1.899   1.331  14.735  0.7855 -0.5288  0.1529
   24TCq2    C4  368   1.799   1.342  14.643 -0.1404 -0.1212 -0.2572
   24TCq2    C5  369   1.689   1.265  14.646  0.5604 -0.4491 -0.4600
   24TCq2    C6  370   1.686   1.168  14.755  0.0101 -0.2528 -0.7847
   24TCq2    C7  371   1.788   1.150  14.844 -0.5085 -0.4180  0.6091
   24TCq2    C8  372   1.572   1.073  14.758  0.0334 -0.4251  0.1978
   24TCq2    O4  373   1.595   0.959  14.799  0.2796  0.2938 -0.4414
   24TCq2    C9  374   1.804   1.441  14.539  0.6734  0.4592  0.5076
   24TCq2    O5  375   1.705   1.476  14.472 -0.0809 -0.6989 -0.1380
   24TCq2    O6  376   1.907   1.513  14.535 -0.3943 -0.5846  0.3586
   24TCq2    H2  377   1.980   1.403  14.730  1.9011 -1.6275  2.4220
   24TCq2    H3  378   1.613   1.273  14.569  0.2864 -0.4528 -0.1921
   24TCq2    H4  379   1.788   1.070  14.917  0.9238  1.3243  2.4970
   25TMC2    C1  380   1.253   3.100  11.351  0.7253 -0.1414  0.2462
   25TMC2    C2  381   1.275   3.229  11.312 -0.1007 -0.6635  0.1002
   25TMC2    C3  382   1.253   3.329  11.403 -0.0072 -0.1500  1.0079
   25TMC2    C4  383   1.219   3.074  11.482 -0.1866  0.2800 -0.0200
   25TMC2    C5  384   1.187   3.181  11.561 -0.2462 -0.3165 -1.0998
   25TMC2    C6  385   1.211   3.311  11.525  0.4457 -0.1254 -0.0566
   25TMC2     C  386   1.308   2.995  11.267 -0.5449 -0.4964 -0.2367
   25TMC2     O  387   1.401   3.018  11.196 -0.0537 -0.3779 -0.1164
   25TMC2     H  388   1.325   3.257  11.220  0.5926  1.0216  0.9815
   25TMC2    H1  389   1.188   2.975  11.513  0.6764  0.3080  0.9334
   25TMC2    H2  390   1.200   3.393  11.595  0.2629  0.9166 -1.3009
   25TMC2    C7  391   1.078   3.160  11.658 -0.0336  0.1071 -0.0309
   25TMC2    C8  392   1.273   3.469  11.364  0.1609  0.1009 -0.4589
   25TMC2    O1  393   1.097   3.227  11.761  0.2818  0.4317  0.2199
   25TMC2    O2  394   1.290   3.559  11.443 -0.1559  0.0366  0.0016
   25TMC2    O5  395   1.234   3.481  11.233  0.2392  0.0078  0.1331
   25TMC2    H5  396   1.222   3.396  11.187  1.8595 -0.9129  1.4076
   26MPD2     C  397   1.295   2.513  11.084 -0.5156 -0.6109 -0.2855
   26MPD2    C1  398   1.164   2.559  11.101 -0.1062 -0.3497 -0.0940
   26MPD2    C2  399   1.141   2.684  11.167 -0.1077  0.0992  0.0383
   26MPD2    C3  400   1.249   2.765  11.193  0.4126 -0.9014 -0.5644
   26MPD2    C4  401   1.377   2.721  11.162  0.5112  0.3317 -0.3819
   26MPD2    C5  402   1.397   2.593  11.123  0.1879 -0.1951  0.6812
   26MPD2     H  403   1.043   2.725  11.186 -0.2739 -0.5817  0.6697
   26MPD2    H1  404   1.466   2.781  11.175 -0.4550  1.1640  2.5391
   26MPD2    H2  405   1.319   2.412  11.052 -0.1892 -0.4560 -0.5289
   26MPD2    H3  406   1.499   2.559  11.126  1.1140  2.3176 -2.8721
   26MPD2     N  407   1.223   2.886  11.265 -0.0656 -0.0643  0.4189
   26MPD2    H5  408   1.126   2.908  11.286 -0.5847 -1.7944 -0.2267
   26MPD2    N1  409   1.058   2.476  11.063 -0.0102  0.1088  0.4421
   26MPD2    H7  410   1.083   2.385  11.025  0.6171  0.5284 -0.1548
   27TMC2    C1  411   4.698   0.648  11.994 -0.5070 -0.5498  0.2161
   27TMC2    C2  412   0.013   0.681  11.868  0.2064  0.0191 -0.7737
   27TMC2    C3  413   0.073   0.804  11.862 -0.2294 -0.2544  0.6035
   27TMC2    C4  414   4.719   0.730  12.103  0.8238  0.8542 -0.5342
   27TMC2    C5  415   0.081   0.837  12.092  0.3332 -0.4059 -0.4289
   27TMC2    C6  416   0.110   0.886  11.965  0.1203 -0.7219  0.2737
   27TMC2     C  417   4.632   0.524  12.008 -0.4004  0.2072 -0.0672
   27TMC2     O  418   4.653   0.434  11.931  0.0272  1.2581  0.2464
   27TMC2     H  419   0.012   0.612  11.785  0.9176  1.5115 -2.0380
   27TMC2    H1  420   4.689   0.699  12.202 -0.6148 -0.5219 -1.4096
   27TMC2    H2  421   0.174   0.973  11.952 -1.9426  0.4643 -2.0863
   27TMC2    C7  422   0.101   0.919  12.210 -0.1629 -0.0394  0.3090
   27TMC2    C8  423   0.111   0.850  11.728  0.1319  0.1846 -0.5748
   27TMC2    O1  424   0.117   0.855  12.317 -0.3214 -0.0401  0.1358
   27TMC2    O2  425   0.165   0.960  11.718 -0.3289 -0.2165  0.0854
   27TMC2    O5  426   0.014   0.815  11.639  0.0438 -0.0039 -0.0886
   27TMC2    H5  427   4.674   0.750  11.671  0.0302 -1.1875 -2.5200
   28MPD2     C  428   4.291   0.241  12.271  0.1957  0.1375  0.2909
   28MPD2    C1  429   4.276   0.376  12.293 -0.1117  0.1370  0.7127
   28MPD2    C2  430   4.353   0.467  12.231 -0.0454  0.8614 -0.1912
   28MPD2    C3  431   4.459   0.425  12.155 -0.0122  0.3983 -0.7102
   28MPD2    C4  432   4.481   0.292  12.130  0.3616 -0.7663 -0.2683
   28MPD2    C5  433   4.392   0.199  12.184 -0.3005 -0.1602 -0.2720
   28MPD2     H  434   4.348   0.571  12.260 -1.8256  1.3625 -2.3245
   28MPD2    H1  435   4.569   0.259  12.075 -0.4040 -1.4663 -1.0831
   28MPD2    H2  436   4.236   0.167  12.327  1.0373  1.0341  2.3011
   28MPD2    H3  437   4.402   0.094  12.162 -1.6124 -0.2912 -0.2592
   28MPD2     N  438   4.547   0.526  12.110  0.2007 -0.3513  0.3021
   28MPD2    H5  439   4.530   0.619  12.147  1.5112 -0.2720  0.7314
   28MPD2    N1  440   4.169   0.406  12.385 -0.6573 -0.5097 -0.2285
   28MPD2    H7  441   4.137   0.327  12.440 -3.1702 -1.0424 -2.4575
   29MPD2     C  442   3.759   2.896  13.956  0.2387  0.6553  0.9664
   29MPD2    C1  443   3.870   2.873  14.041  0.0838 -0.3582 -0.1063
   29MPD2    C2  444   3.932   2.984  14.105 -0.2813 -0.6243 -0.1110
   29MPD2    C3  445   3.867   3.106  14.105 -0.9044 -0.2231 -0.3243
   29MPD2    C4  446   3.753   3.120  14.026 -0.1984 -0.2220  0.2416
   29MPD2    C5  447   3.702   3.018  13.951 -0.3609 -0.2847 -0.0407
   29MPD2     H  448   4.018   2.964  14.167  1.8644  1.0118 -2.5214
   29MPD2    H1  449   3.698   3.214  14.027  2.4066  1.2940  0.9101
   29MPD2    H2  450   3.724   2.818  13.889  0.9279  1.4446 -0.3247
   29MPD2    H3  451   3.623   3.037  13.880 -1.3880  1.7620  1.6306
   29MPD2     N  452   3.916   3.215  14.178 -0.0279 -0.5905 -0.0755
   29MPD2    H5  453   3.866   3.303  14.192  2.0477  0.4456  0.7607
   29MPD2    N1  454   3.928   2.746  14.060 -0.1654 -0.4690 -0.0104
   29MPD2    H7  455   4.003   2.735  14.127 -1.3026  1.1230  1.5010
   30TCq2    C1  456   4.034   3.226  14.248 -0.5587 -0.1673 -0.4469
   30TCq2    O2  457   4.135   3.160  14.239  0.1926 -0.0657  0.2129
   30TCq2    C2  458   4.034   3.347  14.336  0.3815  0.0755 -0.1189
   30TCq2    C3  459   3.919   3.367  14.411  0.5375  0.2129  0.4547
   30TCq2    C4  460   3.924   3.475  14.491 -0.0693 -0.2453  0.5389
   30TCq2    C5  461   4.031   3.564  14.495 -0.2738 -0.1209 -0.0176
   30TCq2    C6  462   4.128   3.546  14.403  0.1463 -0.2958 -0.4554
   30TCq2    C7  463   4.128   3.440  14.323  0.0869  0.0092 -0.5251
   30TCq2    C8  464   4.228   3.642  14.393  0.6261 -0.2404 -0.3902
   30TCq2    O4  465   4.269   3.659  14.284  0.5301  0.0861 -0.0538
   30TCq2    C9  466   3.803   3.497  14.564 -0.2135 -0.6024  0.3391
   30TCq2    O5  467   3.707   3.422  14.530 -0.6784 -0.5158  0.3680
   30TCq2    O6  468   3.793   3.598  14.638 -0.4653  0.0501  0.3185
   30TCq2    H2  469   3.840   3.293  14.416  1.9762 -1.3302  0.3285
   30TCq2    H3  470   4.025   3.646  14.566  0.3858 -0.2448  0.1809
   30TCq2    H4  471   4.214   3.426  14.259  0.9154  1.5822  0.2287
   31MPD2     C  472   2.228   2.104  14.714  0.8220 -0.5522 -0.1459
   31MPD2    C1  473   2.115   2.089  14.637 -0.3033 -0.4437 -0.5645
   31MPD2    C2  474   2.035   1.976  14.666 -0.4345  0.4300  0.6555
   31MPD2    C3  475   2.066   1.877  14.766 -0.4125  0.8880 -0.1033
   31MPD2    C4  476   2.184   1.897  14.833  0.0990 -0.6303  0.8851
   31MPD2    C5  477   2.257   2.010  14.804 -0.4001  0.7333 -0.3049
   31MPD2     H  478   1.947   1.950  14.609 -0.7857  4.3538 -0.5952
   31MPD2    H1  479   2.221   1.826  14.907  1.9250 -0.0931  0.4758
   31MPD2    H2  480   2.300   2.182  14.695 -1.0469  1.4149  0.8972
   31MPD2    H3  481   2.355   2.016  14.850 -0.9750 -3.7574  1.6132
   31MPD2     N  482   1.985   1.768  14.802 -0.3777  0.2106  0.4300
   31MPD2    H5  483   2.028   1.701  14.866  1.2861  0.2806 -0.6071
   31MPD2    N1  484   2.089   2.191  14.543  0.4765 -0.1827  0.1790
   31MPD2    H7  485   2.161   2.260  14.523 -1.4950  1.9628  0.4993
   32TCq2    C1  486   1.851   1.759  14.767 -0.2516  0.4776 -0.2831
   32TCq2    O2  487   1.785   1.825  14.685  0.3891 -0.1299 -0.0110
   32TCq2    C2  488   1.775   1.667  14.851  0.9260 -0.1662  0.1023
   32TCq2    C3  489   1.662   1.612  14.797  0.2939  0.0831 -0.4586
   32TCq2    C4  490   1.586   1.523  14.872  0.5726 -0.1268  1.1961
   32TCq2    C5  491   1.633   1.483  14.994  0.3177 -0.6201 -0.3734
   32TCq2    C6  492   1.754   1.537  15.042 -0.4756 -1.2235  0.0822
   32TCq2    C7  493   1.829   1.628  14.975  0.2612 -0.4732 -0.0699
   32TCq2    C8  494   1.758   1.520  15.192  0.2539  0.5767  0.4903
   32TCq2    O4  495   1.701   1.422  15.242  0.1488  0.0446  0.1037
   32TCq2    C9  496   1.459   1.478  14.821  0.1190  0.2045 -1.1228
   32TCq2    O5  497   1.395   1.393  14.888 -0.9808 -0.0094 -0.0811
   32TCq2    O6  498   1.449   1.501  14.695 -0.1023 -0.0087  0.5925
   32TCq2    H2  499   1.632   1.642  14.697 -1.6242 -1.5511 -0.3729
   32TCq2    H3  500   1.577   1.417  15.059 -0.5034  1.0611  0.6240
   32TCq2    H4  501   1.927   1.660  15.006  2.3444 -3.4675 -3.5427
   33MPD2     C  502   2.555   4.179  10.167  0.0890  0.2969  0.1822
   33MPD2    C1  503   2.436   4.104  10.178  0.0923  0.0765 -0.3481
   33MPD2    C2  504   2.352   4.104  10.073 -0.0867  0.1188 -0.1716
   33MPD2    C3  505   2.383   4.169   9.953  0.2298  0.1869  0.6187
   33MPD2    C4  506   2.495   4.249   9.947  0.4369 -0.2993  0.1795
   33MPD2    C5  507   2.579   4.260  10.057 -0.1542  0.6373 -0.2322
   33MPD2     H  508   2.257   4.053  10.087 -0.3046  0.3475 -0.8469
   33MPD2    H1  509   2.512   4.302   9.854  0.9214  1.3177  1.1944
   33MPD2    H2  510   2.628   4.192  10.245  0.7162 -3.0117  0.1488
   33MPD2    H3  511   2.668   4.323  10.052  0.1074  0.3817  1.0712
   33MPD2     N  512   2.286   4.179   9.847 -0.0012  0.3640 -0.1180
   33MPD2    H5  513   2.301   4.244   9.770  0.4295 -0.2529 -0.5591
   33MPD2    N1  514   2.401   4.043  10.300  0.5821 -0.1636 -0.0593
   33MPD2    H7  515   2.464   4.054  10.379  0.3045  0.0979  0.1292
   34TCq2    C1  516   2.190   4.087   9.824  0.1257  0.4259 -0.1419
   34TCq2    O2  517   2.184   3.983   9.887 -0.1351  0.0119  0.3743
   34TCq2    C2  518   2.124   4.108   9.692  0.4573  0.9524  0.2738
   34TCq2    C3  519   2.091   3.993   9.624  0.5944  0.3925 -0.2292
   34TCq2    C4  520   2.025   3.998   9.502 -0.4783  0.5271 -0.4455
   34TCq2    C5  521   1.978   4.118   9.458 -0.5136  0.1144 -0.1868
   34TCq2    C6  522   2.005   4.234   9.533  0.5490  0.5593  0.8359
   34TCq2    C7  523   2.084   4.229   9.649 -0.9264  0.2498 -0.1130
   34TCq2    C8  524   1.965   4.361   9.470 -0.1665 -0.0137 -0.0902
   34TCq2    O4  525   1.879   4.363   9.380 -0.0081 -0.2450 -0.1147
   34TCq2    C9  526   1.982   3.879   9.441  0.1026 -0.7525 -0.0667
   34TCq2    O5  527   2.056   3.777   9.461  0.8462 -0.0260 -0.1351
   34TCq2    O6  528   1.881   3.893   9.366  0.8588  0.0682  0.5611
   34TCq2    H2  529   2.115   3.896   9.666  2.6067  0.9861 -0.0026
   34TCq2    H3  530   1.911   4.130   9.375 -2.6609 -1.3701  1.3320
   34TCq2    H4  531   2.094   4.319   9.708 -0.4240 -0.4023  0.8067
   35MPD2     C  532   3.686   1.139  11.793  0.0147  0.2844  0.1718
   35MPD2    C1  533   3.682   1.002  11.815  0.4889 -0.2785  0.0542
   35MPD2    C2  534   3.583   0.925  11.743  0.4128  0.1703 -0.8109
   35MPD2    C3  535   3.500   0.989  11.650  0.2394 -1.2978  0.4580
   35MPD2    C4  536   3.510   1.128  11.636 -0.6920  0.2924 -0.0093
   35MPD2    C5  537   3.602   1.202  11.706  0.4314 -0.3614 -0.4340
   35MPD2     H  538   3.569   0.821  11.770 -1.2022  0.8639  1.0795
   35MPD2    H1  539   3.434   1.179  11.579 -0.2383 -2.3239 -2.9972
   35MPD2    H2  540   3.757   1.208  11.837  0.1159 -0.0019  0.4602
   35MPD2    H3  541   3.593   1.307  11.679 -1.9977 -0.2894  0.6515
   35MPD2     N  542   3.401   0.918  11.573  0.3862  0.1056  0.0177
   35MPD2    H5  543   3.400   0.818  11.587 -2.7170  0.2021  0.6616
   35MPD2    N1  544   3.752   0.954  11.930 -0.3375  0.1213 -0.2055
   35MPD2    H7  545   3.773   1.027  11.997  0.1465 -0.0311 -0.1885
   36TCq2    C1  546   3.338   0.972  11.464 -0.9850  1.1521  0.1739
   36TCq2    O2  547   3.366   1.071  11.396 -0.3755  0.4041  0.0315
   36TCq2    C2  548   3.261   0.865  11.387  0.0386  0.4046 -0.4028
   36TCq2    C3  549   3.253   0.876  11.250  0.6759 -0.2848  0.0447
   36TCq2    C4  550   3.171   0.789  11.181 -0.7969  0.4655  0.8196
   36TCq2    C5  551   3.091   0.703  11.244 -0.0534 -0.5541 -0.9771
   36TCq2    C6  552   3.095   0.698  11.388  0.9749  0.0127 -0.2227
   36TCq2    C7  553   3.190   0.766  11.454 -0.1953 -0.4105 -0.8375
   36TCq2    C8  554   3.040   0.568  11.425 -0.5808  0.5577 -0.5386
   36TCq2    O4  555   2.931   0.533  11.383 -0.0791 -0.1239 -0.3901
   36TCq2    C9  556   3.150   0.807  11.037  0.0686  0.0790 -0.1759
   36TCq2    O5  557   3.220   0.887  10.967 -0.1130 -0.4446 -0.1860
   36TCq2    O6  558   3.077   0.723  10.979  0.4042 -0.0823 -0.2195
   36TCq2    H2  559   3.300   0.957  11.195  0.4899 -0.9865 -1.1412
   36TCq2    H3  560   3.021   0.646  11.184  0.9837 -0.4846 -2.2399
   36TCq2    H4  561   3.191   0.762  11.562  0.3710  0.4110 -0.8119
   37TMC2    C1  562   0.638   0.954  11.559  0.7937  0.2422 -0.2183
   37TMC2    C2  563   0.652   0.982  11.429  0.4249 -0.4966  0.2482
   37TMC2    C3  564   0.764   1.039  11.376  0.4621 -0.1403 -0.3602
   37TMC2    C4  565   0.743   0.978  11.642  0.5798  0.1680 -0.0838
   37TMC2    C5  566   0.856   1.019  11.585 -0.0684  0.1451 -0.6514
   37TMC2    C6  567   0.878   1.053  11.450  0.4919 -0.0124  0.2851
   37TMC2     C  568   0.531   0.855  11.589  0.8055  0.2782 -0.4498
   37TMC2     O  569   0.455   0.818  11.500  0.6164  0.2279 -0.8050
   37TMC2     H  570   0.561   0.966  11.372  0.4668  2.5520 -0.6890
   37TMC2    H1  571   0.751   0.929  11.738  3.1794 -0.8142 -0.7979
   37TMC2    H2  572   0.966   1.112  11.426  0.8082 -0.1566  1.0574
   37TMC2    C7  573   0.971   0.990  11.665  0.4774 -0.6391  0.0653
   37TMC2    C8  574   0.748   1.140  11.273  0.8711  0.3796  0.0979
   37TMC2    O1  575   0.967   1.011  11.786 -0.4039 -0.4332  0.0550
   37TMC2    O2  576   0.655   1.215  11.267 -0.1049 -0.9872  0.1506
   37TMC2    O5  577   0.853   1.134  11.194  0.1493  0.5092  0.4494
   37TMC2    H5  578   0.907   1.056  11.223  0.6330  1.3652  1.8503
   38MPD2     C  579   0.270   0.536  11.901 -0.4717  0.0916 -0.2957
   38MPD2    C1  580   0.351   0.613  11.973  0.9505 -0.0951 -0.1163
   38MPD2    C2  581   0.437   0.698  11.912 -0.0027  0.3938  0.0871
   38MPD2    C3  582   0.434   0.723  11.777  0.0696 -0.1022  0.2163
   38MPD2    C4  583   0.351   0.647  11.702 -0.1966 -0.3128 -1.2748
   38MPD2    C5  584   0.276   0.552  11.765  0.5353  0.7291 -0.4644
   38MPD2     H  585   0.497   0.756  11.981 -1.5544  0.0515  1.7070
   38MPD2    H1  586   0.346   0.659  11.594 -2.5880 -2.9760 -1.4530
   38MPD2    H2  587   0.206   0.460  11.945 -1.9403  1.9625  0.8076
   38MPD2    H3  588   0.223   0.483  11.701 -0.7580  1.0739  0.2503
   38MPD2     N  589   0.526   0.815  11.719  0.6009 -0.0397 -0.0665
   38MPD2    H5  590   0.579   0.867  11.789  1.3641  0.5203 -1.0595
   38MPD2    N1  591   0.350   0.623  12.113  0.2988  0.1502 -0.3110
   38MPD2    H7  592   0.422   0.683  12.152  1.7263 -0.8867 -1.3695
   39MPD2     C  593   3.347   2.169   1.418  0.6174  0.3886 -0.2366
   39MPD2    C1  594   3.265   2.207   1.517  0.1900 -0.1582  0.6755
   39MPD2    C2  595   3.155   2.279   1.488  0.3941 -0.1552  0.1743
   39MPD2    C3  596   3.129   2.312   1.357 -0.1049  0.4583  0.6214
   39MPD2    C4  597   3.213   2.266   1.258  0.1198  0.5371  0.0105
   39MPD2    C5  598   3.330   2.206   1.291 -0.3989 -0.5638 -0.5767
   39MPD2     H  599   3.088   2.308   1.569  0.2989  2.8019 -0.9716
   39MPD2    H1  600   3.189   2.302   1.159  0.3924 -0.0845 -0.2806
   39MPD2    H2  601   3.435   2.111   1.446 -0.1279 -1.6218 -2.0419
   39MPD2    H3  602   3.416   2.195   1.227 -0.5602 -0.1153 -0.8672
   39MPD2     N  603   3.011   2.372   1.314  0.2896 -0.0974 -0.4434
   39MPD2    H5  604   3.009   2.401   1.217 -0.3725  0.5293 -0.2375
   39MPD2    N1  605   3.300   2.179   1.655 -0.4946 -0.3309  0.0150
   39MPD2    H7  606   3.376   2.116   1.676  0.4008  0.8766  0.3638
   40TCq2    C1  607   3.226   2.195   1.764 -0.5853 -0.3066  0.3707
   40TCq2    O2  608   3.106   2.209   1.784  0.5144 -0.4790  0.5430
   40TCq2    C2  609   3.307   2.180   1.889  1.0012  0.0773  0.3669
   40TCq2    C3  610   3.235   2.154   2.006  0.1712  0.7772  0.0224
   40TCq2    C4  611   3.308   2.140   2.123 -0.1144  0.5785  0.1851
   40TCq2    C5  612   3.442   2.161   2.130  0.9035  0.7971 -0.2199
   40TCq2    C6  613   3.503   2.206   2.014 -0.0882 -0.0695  0.0323
   40TCq2    C7  614   3.438   2.220   1.893 -0.1280  0.2511  0.4244
   40TCq2    C8  615   3.649   2.214   2.025  0.5095  0.0716  0.2582
   40TCq2    O4  616   3.701   2.136   2.101  0.6317  0.1669 -0.3165
   40TCq2    C9  617   3.236   2.087   2.233  0.2643 -0.4229 -0.4078
   40TCq2    O5  618   3.106   2.084   2.227 -0.3983 -0.2274  0.2971
   40TCq2    O6  619   3.303   2.080   2.341 -0.5909  0.2262 -0.1300
   40TCq2    H2  620   3.129   2.133   1.993  0.5549 -0.3000 -1.3979
   40TCq2    H3  621   3.502   2.156   2.220  1.9366 -3.1043 -1.1577
   40TCq2    H4  622   3.499   2.245   1.806 -0.9331  0.9175  0.0588
   41TMC2    C1  623   2.775   0.262  13.516 -0.1589  0.6684 -0.0914
   41TMC2    C2  624   2.659   0.182  13.493 -0.3065  0.2147  0.6810
   41TMC2    C3  625   2.538   0.251  13.498 -0.1062  0.4150  0.6288
   41TMC2    C4  626   2.765   0.402  13.518  0.1819 -0.0654 -1.2861
   41TMC2    C5  627   2.641   0.463  13.509  0.4595  0.5968 -0.0850
   41TMC2    C6  628   2.531   0.386  13.516  0.1045 -0.3840 -0.2919
   41TMC2     C  629   2.867   0.197  13.606  0.3760  0.2605  0.6009
   41TMC2     O  630   2.891   0.075  13.588 -0.3715 -0.2375 -0.1179
   41TMC2     H  631   2.662   0.074  13.501  2.9329  0.1796 -1.1536
   41TMC2    H1  632   2.852   0.463  13.537  0.8318 -1.7204  1.0752
   41TMC2    H2  633   2.438   0.432  13.548  0.9948 -0.1339  1.9588
   41TMC2    C7  634   2.632   0.614  13.495  0.5986  0.0441  0.4539
   41TMC2    C8  635   2.404   0.181  13.501 -0.6075 -0.4860  0.3839
   41TMC2    O1  636   2.521   0.666  13.510 -0.1261 -0.3392 -0.0138
   41TMC2    O2  637   2.312   0.227  13.568 -0.0642  0.2608 -0.6418
   41TMC2    O5  638   2.427   0.050  13.493  0.3100 -0.3317 -0.4288
   41TMC2    H5  639   2.475   0.040  13.408 -1.2591 -0.0816 -1.3489
   42MPD2     C  640   3.039   0.127  13.821  0.0355  0.1662 -0.1944
   42MPD2    C1  641   2.965   0.243  13.820  0.5440  0.0155  0.6432
   42MPD2    C2  642   2.955   0.324  13.930 -0.3842 -0.5370  0.3474
   42MPD2    C3  643   3.018   0.288  14.047 -0.5077 -0.2596  0.2599
   42MPD2    C4  644   3.096   0.171  14.041  0.3692  1.1226  0.7104
   42MPD2    C5  645   3.100   0.083  13.936  0.5754  0.4973 -0.4444
   42MPD2     H  646   2.902   0.419  13.921  2.4888  1.2268  2.1574
   42MPD2    H1  647   3.130   0.142  14.140 -1.0087  0.0945  0.8712
   42MPD2    H2  648   3.054   0.066  13.732 -2.4698  0.8803 -1.1135
   42MPD2    H3  649   3.156   4.716  13.940 -0.7697 -0.2788  0.4436
   42MPD2     N  650   3.025   0.375  14.157  0.2391  0.2592  0.2612
   42MPD2    H5  651   3.111   0.367  14.211  1.2017 -1.1876 -1.4731
   42MPD2    N1  652   2.887   0.282  13.708 -0.0512 -0.2883 -0.3197
   42MPD2    H7  653   2.838   0.371  13.713 -0.6084 -0.5586 -0.9760
   43MPD2     C  654   3.855   3.752   0.998 -0.6656 -0.5039  0.4027
   43MPD2    C1  655   3.841   3.625   1.047  0.1199 -0.4432 -0.0800
   43MPD2    C2  656   3.777   3.600   1.164 -0.0260  0.7113  0.2841
   43MPD2    C3  657   3.707   3.702   1.224 -0.1402 -0.1648 -0.8172
   43MPD2    C4  658   3.718   3.824   1.176 -0.3331 -0.2725  0.5248
   43MPD2    C5  659   3.794   3.855   1.068  0.1762  0.0663 -0.3392
   43MPD2     H  660   3.781   3.499   1.203  1.8289  1.0093  0.8695
   43MPD2    H1  661   3.653   3.898   1.221  0.9629  1.7208 -0.8886
   43MPD2    H2  662   3.891   3.771   0.897  0.3901  1.9251  1.2377
   43MPD2    H3  663   3.796   3.952   1.020  1.3115  0.8339  1.3001
   43MPD2     N  664   3.623   3.692   1.338  0.3690 -0.3867 -0.7280
   43MPD2    H5  665   3.563   3.766   1.372  0.1183 -1.5652  1.3898
   43MPD2    N1  666   3.916   3.519   0.989  0.1075 -0.2040 -0.1066
   43MPD2    H7  667   3.946   3.438   1.042 -0.2919 -0.0956  0.2828
   44TCq2    C1  668   3.659   3.649   1.903 -0.1268 -0.3417  0.3119
   44TCq2    O2  669   3.753   3.573   1.891  0.8083 -0.2087 -0.2640
   44TCq2    C2  670   3.572   3.656   1.775  0.1451 -0.1015 -0.3821
   44TCq2    C3  671   3.469   3.743   1.761 -0.5935 -0.5675 -0.1406
   44TCq2    C4  672   3.408   3.767   1.645  0.2367  0.2873  0.2601
   44TCq2    C5  673   3.451   3.699   1.531  0.0738  0.1728 -0.1142
   44TCq2    C6  674   3.549   3.609   1.546 -0.1293 -0.3784  0.4776
   44TCq2    C7  675   3.611   3.578   1.666 -0.0901  0.1031 -0.2367
   44TCq2    C8  676   3.628   3.580   1.427 -0.1754 -0.7047  0.4576
   44TCq2    O4  677   3.694   3.474   1.431  0.0712  0.0391  0.1953
   44TCq2    C9  678   3.300   3.860   1.640 -0.6317 -0.7080  0.6033
   44TCq2    O5  679   3.291   3.926   1.747  0.4419 -0.4616 -0.4250
   44TCq2    O6  680   3.256   3.887   1.525 -0.1930 -0.0987  0.4634
   44TCq2    H2  681   3.431   3.793   1.850  0.0844 -0.6288  0.1783
   44TCq2    H3  682   3.402   3.707   1.435  1.4209  1.3289 -0.7088
   44TCq2    H4  683   3.694   3.509   1.670 -1.4240 -1.4147  1.0677
   45TMC2    C1  684   0.268   0.494   9.567 -0.0271  0.4038 -0.2857
   45TMC2    C2  685   0.380   0.466   9.498 -0.6031 -0.4583  0.2719
   45TMC2    C3  686   0.492   0.551   9.519  0.1513 -0.3880 -0.3457
   45TMC2    C4  687   0.264   0.593   9.661 -0.9973 -0.2732  0.8801
   45TMC2    C5  688   0.372   0.681   9.677 -0.0882 -0.3153  0.1902
   45TMC2    C6  689   0.490   0.653   9.612 -0.6126  0.1963 -0.1711
   45TMC2     C  690   0.177   0.378   9.567  0.7103 -0.1250 -0.2887
   45TMC2     O  691   0.215   0.269   9.525 -0.2026 -0.2153 -0.4580
   45TMC2     H  692   0.393   0.393   9.419  1.5740  2.5988 -2.1801
   45TMC2    H1  693   0.170   0.598   9.716 -0.5413  0.0205  1.6264
   45TMC2    H2  694   0.575   0.717   9.632  0.7767 -1.9037  0.5670
   45TMC2    C7  695   0.351   0.810   9.745  0.1311 -0.9665  0.2075
   45TMC2    C8  696   0.619   0.484   9.503 -0.8573 -0.3016  0.1594
   45TMC2    O1  697   0.448   0.863   9.788 -0.5112  0.1423  0.2325
   45TMC2    O2  698   0.630   0.367   9.472  0.1227  0.3858 -0.2101
   45TMC2    O5  699   0.711   0.582   9.474  0.2751 -0.1565  0.3978
   45TMC2    H5  700   0.678   0.674   9.480 -0.4936 -0.4974  1.4627
   46MPD2     C  701   4.658   0.202   9.595 -0.8101 -0.5842 -0.0814
   46MPD2    C1  702   4.654   0.336   9.585  0.5850  0.7165 -0.5915
   46MPD2    C2  703   4.530   0.396   9.564 -1.0684  0.1402 -0.1161
   46MPD2    C3  704   4.411   0.325   9.579  0.0326  0.0285 -0.4752
   46MPD2    C4  705   4.422   0.190   9.598 -0.9999  0.2575  0.4531
   46MPD2    C5  706   4.544   0.124   9.603 -0.4706 -0.5275  0.1923
   46MPD2     H  707   4.518   0.502   9.548  1.5803  0.4057 -0.3988
   46MPD2    H1  708   4.335   0.126   9.584  0.1747 -1.7729  2.4250
   46MPD2    H2  709   0.033   0.161   9.600 -0.3000  0.8370  1.0656
   46MPD2    H3  710   4.548   0.015   9.602 -2.8647 -0.6247 -0.6736
   46MPD2     N  711   4.288   0.391   9.552 -0.2890  0.2497 -0.5017
   46MPD2    H5  712   4.286   0.488   9.521 -2.1299  0.9266  1.7768
   46MPD2    N1  713   0.047   0.417   9.605  0.4768  0.0886  0.3146
   46MPD2    H7  714   0.035   0.517   9.615  0.4869  0.2557 -1.3504
   47TMC2    C1  715   1.786   1.954   9.696  1.0088 -0.1182 -0.4803
   47TMC2    C2  716   1.820   1.918   9.566 -0.1776  0.3961  0.0067
   47TMC2    C3  717   1.726   1.863   9.486 -0.8940  0.8553 -0.2161
   47TMC2    C4  718   1.664   1.929   9.744 -0.6006 -0.2341  0.1373
   47TMC2    C5  719   1.575   1.866   9.665  0.4237 -0.1950  0.0019
   47TMC2    C6  720   1.596   1.856   9.532  0.4874 -0.1735 -0.3559
   47TMC2     C  721   1.892   2.008   9.789 -0.2640 -0.1709 -0.3167
   47TMC2     O  722   1.857   2.070   9.886  0.0166  0.6050 -0.0763
   47TMC2     H  723   1.920   1.935   9.527  0.1375  1.2298  1.1767
   47TMC2    H1  724   1.646   1.949   9.849 -3.4590  0.5617 -0.5218
   47TMC2    H2  725   1.521   1.798   9.479 -0.5799  0.7705  0.0996
   47TMC2    C7  726   1.465   1.787   9.721  0.0773 -0.2810 -1.3323
   47TMC2    C8  727   1.748   1.833   9.340  0.4223  0.2510  0.1137
   47TMC2    O1  728   1.379   1.747   9.646 -0.0181  0.4849  0.0825
   47TMC2    O2  729   1.655   1.825   9.259  0.0400  0.4213  0.1922
   47TMC2    O5  730   1.881   1.824   9.319  0.4231  0.4745 -0.5317
   47TMC2    H5  731   1.940   1.807   9.396  1.4540  2.1510 -0.9327
   48MPD2     C  732   2.134   2.027   9.952 -0.3183  0.1059  0.3794
   48MPD2    C1  733   2.122   1.953   9.841 -0.5182  0.1663  0.6771
   48MPD2    C2  734   2.222   1.862   9.803  0.3464  0.7017  0.2439
   48MPD2    C3  735   2.332   1.846   9.878 -0.0398  0.0993  0.6572
   48MPD2    C4  736   2.360   1.943   9.969 -0.5599 -0.2541  0.6278
   48MPD2    C5  737   2.260   2.033  10.010  0.3479  0.7065 -0.3796
   48MPD2     H  738   2.203   1.787   9.727  1.0314 -0.5756  1.3338
   48MPD2    H1  739   2.455   1.957  10.019 -0.4281  0.1377  0.2680
   48MPD2    H2  740   2.057   2.097   9.982  0.4844  1.4058 -0.5519
   48MPD2    H3  741   2.280   2.099  10.094 -0.3590  1.2143 -0.6030
   48MPD2     N  742   2.430   1.764   9.821 -0.0352 -0.0452 -0.2182
   48MPD2    H5  743   2.408   1.702   9.743 -1.4786 -0.0442  0.1980
   48MPD2    N1  744   2.003   1.943   9.760  0.0403 -0.0208 -0.1628
   48MPD2    H7  745   2.015   1.880   9.681  0.5545 -0.9332  0.6381
   49MPD2     C  746   0.698   3.589  10.459  0.2318 -0.1736  0.7771
   49MPD2    C1  747   0.663   3.454  10.485  0.6682  0.5309  0.1275
   49MPD2    C2  748   0.681   3.400  10.610  0.3500 -0.4581  0.1940
   49MPD2    C3  749   0.727   3.487  10.711 -0.3242 -0.1521 -0.6545
   49MPD2    C4  750   0.758   3.617  10.681 -0.5398 -0.4994  0.1984
   49MPD2    C5  751   0.743   3.670  10.555  0.6254 -0.6703  0.2328
   49MPD2     H  752   0.657   3.297  10.631  1.7531 -0.8610 -0.1984
   49MPD2    H1  753   0.777   3.694  10.755 -0.2397 -1.3844  1.0381
   49MPD2    H2  754   0.697   3.630  10.359 -0.4415  0.0731  0.8869
   49MPD2    H3  755   0.762   3.775  10.540 -1.7300 -0.5968 -2.1127
   49MPD2     N  756   0.750   3.441  10.846  0.6950  0.0253 -0.4384
   49MPD2    H5  757   0.792   3.499  10.917 -0.9964 -0.8068  1.2365
   49MPD2    N1  758   0.601   3.374  10.395 -0.7284 -0.6706  0.1786
   49MPD2    H7  759   0.574   3.283  10.430  0.4464 -0.2558  2.1494
   50TCq2    C1  760   0.541   3.411  10.274  0.1336  0.3399 -0.1192
   50TCq2    O2  761   0.537   3.524  10.226  0.1610 -0.5779 -0.3997
   50TCq2    C2  762   0.474   3.303  10.202 -0.1487 -0.1104 -0.3025
   50TCq2    C3  763   0.509   3.172  10.236  0.2097  1.2418 -0.3336
   50TCq2    C4  764   0.460   3.077  10.150 -0.2053  0.7579 -0.4525
   50TCq2    C5  765   0.368   3.112  10.051 -0.1770 -0.3327 -0.7063
   50TCq2    C6  766   0.332   3.247  10.031 -0.3105 -0.5174  0.8220
   50TCq2    C7  767   0.389   3.344  10.104 -0.5114 -0.0189 -0.6196
   50TCq2    C8  768   0.275   3.291   9.899  0.3092  0.0621  0.0743
   50TCq2    O4  769   0.287   3.407   9.875 -0.4729 -0.4067  0.1264
   50TCq2    C9  770   0.500   2.938  10.159  0.3803  0.3285  0.3226
   50TCq2    O5  771   0.445   2.853  10.083  0.1781  0.1817  0.0375
   50TCq2    O6  772   0.583   2.902  10.243 -0.1519 -0.4109  0.1774
   50TCq2    H2  773   0.582   3.153  10.314 -1.3289  2.6232  1.4224
   50TCq2    H3  774   0.326   3.033   9.989 -0.0131 -1.2245  0.3294
   50TCq2    H4  775   0.358   3.448  10.097  1.1789  0.6154  1.2253
   51MPD2     C  776   1.125   2.412   1.069  0.3539 -0.4732  0.1768
   51MPD2    C1  777   0.988   2.402   1.098  0.3479  0.3371  0.1266
   51MPD2    C2  778   0.916   2.508   1.146  0.2335  0.0571 -0.7111
   51MPD2    C3  779   0.980   2.631   1.157 -0.1320 -0.0218 -0.1877
   51MPD2    C4  780   1.112   2.649   1.122  0.2853 -1.0279  0.0964
   51MPD2    C5  781   1.179   2.538   1.082 -0.0974  0.3546  0.3673
   51MPD2     H  782   0.814   2.499   1.182  0.0827  0.7793 -0.9574
   51MPD2    H1  783   1.170   2.738   1.144  1.9653 -1.7327 -1.4173
   51MPD2    H2  784   1.184   2.342   1.011  0.3514 -0.2171 -0.1408
   51MPD2    H3  785   1.278   2.556   1.041  0.3424 -1.9466  0.4261
   51MPD2     N  786   0.907   2.744   1.216  0.3917 -0.3805  0.5282
   51MPD2    H5  787   0.817   2.721   1.258  0.0626  1.5188  0.8592
   51MPD2    N1  788   0.927   2.276   1.098 -0.0053  0.2587 -0.7339
   51MPD2    H7  789   0.826   2.287   1.104 -0.1932 -0.9210 -1.8317
   52TCq2    C1  790   0.952   2.878   1.201 -0.2259  0.1467 -0.1898
   52TCq2    O2  791   1.044   2.923   1.136 -0.2379  0.2071  0.6195
   52TCq2    C2  792   0.869   2.979   1.265  0.5569 -0.5705 -0.3976
   52TCq2    C3  793   0.795   2.935   1.374  0.1478  0.0751 -0.0030
   52TCq2    C4  794   0.742   3.036   1.446  0.5263  0.3167  0.3862
   52TCq2    C5  795   0.763   3.166   1.408 -0.1041  0.2964  0.2633
   52TCq2    C6  796   0.837   3.204   1.299 -0.2525  0.7193 -0.3841
   52TCq2    C7  797   0.890   3.107   1.222 -0.0801  1.1623  0.7888
   52TCq2    C8  798   0.861   3.346   1.271  0.1187 -0.1641  0.4222
   52TCq2    O4  799   0.840   3.424   1.366  0.5967  0.1507  0.3257
   52TCq2    C9  800   0.675   3.002   1.569  0.2777  0.2608  0.1509
   52TCq2    O5  801   0.654   3.100   1.642 -0.4242 -0.6115 -0.3478
   52TCq2    O6  802   0.694   2.884   1.614 -0.0224 -0.1049 -0.6920
   52TCq2    H2  803   0.794   2.833   1.410  0.2022  0.0914  0.0443
   52TCq2    H3  804   0.718   3.245   1.468  0.8670  0.2368  1.0779
   52TCq2    H4  805   0.970   3.131   1.153 -1.3808  0.3898 -0.9743
   53TMC2    C1  806   1.606   0.945  12.057 -0.6867 -1.0364  0.8515
   53TMC2    C2  807   1.700   0.887  12.128 -0.8318  0.0704 -0.0760
   53TMC2    C3  808   1.692   0.900  12.265  0.1317 -0.3253 -0.5545
   53TMC2    C4  809   1.515   1.026  12.120  0.1365 -0.4887 -0.0231
   53TMC2    C5  810   1.503   1.036  12.253 -0.5284 -0.2809  1.2075
   53TMC2    C6  811   1.595   0.967  12.330  0.2060 -0.1760 -0.2700
   53TMC2     C  812   1.569   0.871  11.942 -0.2188 -0.1905 -0.1589
   53TMC2     O  813   1.650   0.787  11.898 -0.0928  0.3085  0.0604
   53TMC2     H  814   1.782   0.835  12.081 -0.6740  1.1049 -0.9380
   53TMC2    H1  815   1.441   1.082  12.064 -0.4655 -1.3578 -0.1053
   53TMC2    H2  816   1.595   0.961  12.438 -0.6675 -0.8060 -0.2966
   53TMC2    C7  817   1.368   1.036  12.299 -0.3602  0.6894  0.1200
   53TMC2    C8  818   1.805   0.868  12.344 -0.5978 -0.6071  0.2247
   53TMC2    O1  819   1.279   1.035  12.215  0.3462 -0.1083  0.0346
   53TMC2    O2  820   1.849   0.947  12.424  0.6102  0.0193 -0.6523
   53TMC2    O5  821   1.865   0.766  12.285  0.4769  0.0778  0.1918
   53TMC2    H5  822   1.794   0.705  12.255 -0.3888  0.8974  0.5963
   54MPD2     C  823   1.419   0.766  11.702  0.1465  0.2537  0.1846
   54MPD2    C1  824   1.360   0.849  11.796 -0.5814 -0.2339  0.4791
   54MPD2    C2  825   1.237   0.903  11.765 -1.1992  0.1966 -0.2955
   54MPD2    C3  826   1.186   0.876  11.634  0.8384 -0.8259  0.5098
   54MPD2    C4  827   1.248   0.793  11.548 -0.3592  0.0510  0.3080
   54MPD2    C5  828   1.360   0.726  11.583  0.4274  0.2733 -0.2269
   54MPD2     H  829   1.178   0.972  11.824 -1.6723 -0.9575  0.5735
   54MPD2    H1  830   1.196   0.773  11.455 -0.7237  1.6855  0.1487
   54MPD2    H2  831   1.513   0.714  11.719 -0.6333 -1.4829 -0.7722
   54MPD2    H3  832   1.410   0.659  11.513  1.5656  1.3103 -0.3982
   54MPD2     N  833   1.063   0.927  11.587  0.1534 -0.3699 -0.2401
   54MPD2    H5  834   1.034   0.893  11.495 -0.0853 -1.3824  0.2076
   54MPD2    N1  835   1.434   0.889  11.911 -0.4926  0.1134 -0.0779
   54MPD2    H7  836   1.379   0.954  11.966 -1.0939 -0.3653 -0.1177
   55MPD2     C  837   1.822   3.307  17.610  0.0608  0.6846  0.3032
   55MPD2    C1  838   1.744   3.324   0.023  0.1015 -0.4741  0.2000
   55MPD2    C2  839   1.650   3.423   0.022 -0.6267  0.4485 -0.6269
   55MPD2    C3  840   1.654   3.525  17.632  0.2862 -0.0647  0.1164
   55MPD2    C4  841   1.744   3.513  17.527  0.2308 -0.3076  0.2335
   55MPD2    C5  842   1.819   3.397  17.513 -0.2235  0.1197 -0.4664
   55MPD2     H  843   1.594   3.434   0.114  1.4192  1.5667  0.4680
   55MPD2    H1  844   1.762   3.588  17.451 -2.5955  1.3851  1.2469
   55MPD2    H2  845   1.904   3.236  17.607  0.2667  0.8248  3.5060
   55MPD2    H3  846   1.873   3.383  17.421  0.0869 -0.5969 -0.1742
   55MPD2     N  847   1.567   3.638  17.651 -0.2173  0.0184 -0.4950
   55MPD2    H5  848   1.515   3.634   0.036  1.2371 -1.5516  0.2880
   55MPD2    N1  849   1.772   3.236   0.129  0.2847 -0.3555 -0.4119
   55MPD2    H7  850   1.855   3.177   0.126  0.0750 -0.6276 -0.8630
   56TCq2    C1  851   1.713   3.234   0.252 -0.2469  1.1932 -0.1843
   56TCq2    O2  852   1.609   3.290   0.291  0.3199  0.1316  0.0042
   56TCq2    C2  853   1.774   3.140   0.341 -0.0012  0.0679  0.1202
   56TCq2    C3  854   1.882   3.063   0.298 -0.0335 -0.3060 -0.5908
   56TCq2    C4  855   1.948   2.992   0.392 -0.2489  0.4474  0.6736
   56TCq2    C5  856   1.917   3.000   0.522  0.6572  0.4843  0.1195
   56TCq2    C6  857   1.805   3.070   0.553  0.2589 -0.9149 -0.1946
   56TCq2    C7  858   1.728   3.143   0.466  0.4016  0.4776 -0.0033
   56TCq2    C8  859   1.789   3.095   0.692 -0.7389  0.6325  0.2938
   56TCq2    O4  860   1.812   2.999   0.763  0.3819 -0.0144 -0.1365
   56TCq2    C9  861   2.067   2.929   0.352  0.3182  0.1704  0.4906
   56TCq2    O5  862   2.100   2.938   0.228  0.3554 -0.7034  0.3433
   56TCq2    O6  863   2.144   2.883   0.443 -0.2247  0.1533  0.3609
   56TCq2    H2  864   1.917   3.049   0.196  1.0733  1.8438 -0.5061
   56TCq2    H3  865   1.981   2.961   0.600  1.3821 -1.0881 -1.2684
   56TCq2    H4  866   1.645   3.204   0.499 -0.3997  0.1164 -1.3741
   57TMC2    C1  867   1.663   4.515  13.841 -0.5723 -0.4900  0.2997
   57TMC2    C2  868   1.757   4.494  13.930 -0.4886  0.3670  0.0741
   57TMC2    C3  869   1.853   4.407  13.898 -0.3991 -0.2439  0.1656
   57TMC2    C4  870   1.659   4.448  13.723  0.0618  0.1325 -0.2982
   57TMC2    C5  871   1.754   4.355  13.696  0.2958 -0.8545 -0.4407
   57TMC2    C6  872   1.854   4.335  13.780 -0.3337 -0.2825  0.3401
   57TMC2     C  873   1.564   4.619  13.857 -0.3992 -1.3049 -0.1499
   57TMC2     O  874   1.489   4.642  13.761 -0.6333 -1.0274 -0.2244
   57TMC2     H  875   1.765   4.546  14.025  0.4223 -2.5561  1.5846
   57TMC2    H1  876   1.572   4.460  13.660 -0.9686  1.0207  1.2827
   57TMC2    H2  877   1.945   4.280  13.757  0.4108  0.5732  1.1863
   57TMC2    C7  878   1.726   4.258  13.590  0.2022 -1.0780 -0.3555
   57TMC2    C8  879   1.915   4.349  14.014  0.0195  0.4240 -0.1087
   57TMC2    O1  880   1.654   4.303  13.505 -0.1309  0.1308 -0.3631
   57TMC2    O2  881   1.852   4.346  14.119 -0.2596  0.0650 -0.1871
   57TMC2    O5  882   1.990   4.249  13.970 -0.3942 -0.1481 -0.1479
   57TMC2    H5  883   2.039   4.272  13.888 -0.4931  0.2794 -0.0878
   58MPD2     C  884   1.264   0.168  14.154  0.2018 -0.7199  0.2809
   58MPD2    C1  885   1.237   0.117  14.032  0.0182 -0.0238  0.6734
   58MPD2    C2  886   1.334   0.048  13.965 -0.0695 -0.2723 -0.0203
   58MPD2    C3  887   1.451   0.005  14.037 -0.2628 -0.1672  0.2456
   58MPD2    C4  888   1.451   0.029  14.175 -0.9141  0.1261  0.4973
   58MPD2    C5  889   1.371   0.120  14.228  0.1091  0.0218  0.0649
   58MPD2     H  890   1.307   0.002  13.871  1.2031 -0.9010 -0.0802
   58MPD2    H1  891   1.534   4.724  14.237 -0.6274  0.2631  0.1840
   58MPD2    H2  892   1.190   0.226  14.207 -1.0393 -1.2356 -0.9015
   58MPD2    H3  893   1.386   0.142  14.333  0.6838  1.2496 -0.2819
   58MPD2     N  894   1.555   4.654  13.993  0.2356  0.5972 -0.0136
   58MPD2    H5  895   1.624   4.632  14.064  0.2228  0.9530  0.1043
   58MPD2    N1  896   1.115   0.141  13.961  0.0676 -0.0362  0.0887
   58MPD2    H7  897   1.118   0.113  13.864  3.2621  0.2667  0.0938
   59MPD2     C  898   3.894   0.180  13.131  0.2648  0.3735  0.8377
   59MPD2    C1  899   4.004   0.182  13.055 -0.8722 -0.7255  0.0845
   59MPD2    C2  900   4.099   0.281  13.074  0.9103  0.3161  0.2745
   59MPD2    C3  901   4.083   0.361  13.184  0.6546 -0.0378  0.4131
   59MPD2    C4  902   3.977   0.350  13.271 -0.2324  0.3850  0.3139
   59MPD2    C5  903   3.879   0.264  13.233 -0.9310 -0.3840  0.0375
   59MPD2     H  904   4.176   0.276  12.997  1.4755  1.0860  0.7868
   59MPD2    H1  905   3.959   0.418  13.353  1.5301 -0.0039  1.0232
   59MPD2    H2  906   3.817   0.105  13.120  0.5532  0.1300  0.4756
   59MPD2    H3  907   3.787   0.260  13.291 -0.3121  0.8402  1.1019
   59MPD2     N  908   4.177   0.460  13.215  0.1082 -0.1178 -0.1262
   59MPD2    H5  909   4.154   0.524  13.291  2.9400 -0.2693  0.8295
   59MPD2    N1  910   4.016   0.082  12.951 -0.1326  0.2842  1.1456
   59MPD2    H7  911   4.090   0.099  12.884  0.7566 -2.4659  1.4355
   60TCq2    C1  912   3.948   4.682  12.948  0.1552  0.0007 -0.0052
   60TCq2    O2  913   3.877   4.628  13.033 -0.3842  0.3462  0.4214
   60TCq2    C2  914   3.979   4.598  12.831 -0.0558  1.0773 -1.0271
   60TCq2    C3  915   3.924   4.471  12.846  0.7677  0.8234  0.2574
   60TCq2    C4  916   3.899   4.394  12.734  0.1289 -0.0660 -0.0370
   60TCq2    C5  917   3.922   4.446  12.611 -0.8890  0.0765  0.1903
   60TCq2    C6  918   3.968   4.569  12.597  0.5091 -0.1019  0.3018
   60TCq2    C7  919   3.995   4.646  12.704 -0.0049  1.0386  0.1578
   60TCq2    C8  920   4.004   4.604  12.467 -0.6381  0.1369  0.6270
   60TCq2    O4  921   4.058   4.519  12.391  0.2500 -0.0400  0.7871
   60TCq2    C9  922   3.839   4.267  12.748  0.0419 -0.2077 -0.2808
   60TCq2    O5  923   3.788   4.251  12.861  0.0669  0.3932  0.5782
   60TCq2    O6  924   3.823   4.197  12.644 -0.2420  0.2218 -0.5265
   60TCq2    H2  925   3.911   4.413  12.937 -0.4211  0.0702 -0.3876
   60TCq2    H3  926   3.907   4.384  12.524  1.7328  0.8931 -0.8675
   60TCq2    H4  927   4.037   0.019  12.686  0.6578  0.4538 -1.5118
   61MPD2     C  928   3.253   1.159  15.009  0.3186  0.1490 -0.4631
   61MPD2    C1  929   3.292   1.280  15.055 -0.4234  0.0316 -0.1673
   61MPD2    C2  930   3.362   1.359  14.968  0.3630  0.2470  0.6249
   61MPD2    C3  931   3.393   1.317  14.845 -0.1061 -0.1936 -0.1986
   61MPD2    C4  932   3.350   1.194  14.796  0.0061 -0.4676 -0.0316
   61MPD2    C5  933   3.283   1.114  14.881  0.1929 -0.0936 -0.1816
   61MPD2     H  934   3.399   1.451  15.013  0.6208  0.1145  0.6887
   61MPD2    H1  935   3.378   1.156  14.699  1.1950 -2.4301  1.0853
   61MPD2    H2  936   3.187   1.098  15.070  1.5822 -0.6262  0.1131
   61MPD2    H3  937   3.247   1.016  14.851  1.4207 -0.5315 -0.2313
   61MPD2     N  938   3.493   1.376  14.760 -0.2540 -0.0582 -0.5093
   61MPD2    H5  939   3.519   1.314  14.684 -1.2081 -0.5514 -0.4389
   61MPD2    N1  940   3.265   1.334  15.185 -0.5128  0.5730 -0.0328
   61MPD2    H7  941   3.296   1.427  15.212 -0.4070  0.1797  1.2318
   62TCq2    C1  942   3.199   1.254  15.275  0.1161 -0.3285 -0.0510
   62TCq2    O2  943   3.168   1.135  15.279  0.3517 -0.2079 -0.0965
   62TCq2    C2  944   3.182   1.313  15.404 -0.5233  1.9296  0.4373
   62TCq2    C3  945   3.156   1.226  15.508  0.4035  0.4207 -0.4827
   62TCq2    C4  946   3.097   1.278  15.617  0.2325  0.7020 -0.5163
   62TCq2    C5  947   3.065   1.407  15.628 -0.5099 -0.0599 -0.2194
   62TCq2    C6  948   3.082   1.491  15.517 -0.1988  0.2299 -0.5278
   62TCq2    C7  949   3.147   1.450  15.403  1.1073 -0.7605  0.0507
   62TCq2    C8  950   3.081   1.640  15.543  0.2318 -0.2291 -0.9014
   62TCq2    O4  951   3.066   1.719  15.450  0.6841 -0.0015  0.3961
   62TCq2    C9  952   3.045   1.187  15.719 -0.0176  0.7198  0.7318
   62TCq2    O5  953   3.038   1.062  15.694 -0.2474 -0.1283 -0.0590
   62TCq2    O6  954   2.964   1.244  15.795  0.2890  0.2473 -0.3938
   62TCq2    H2  955   3.175   1.120  15.505 -1.4040  0.0861 -0.1291
   62TCq2    H3  956   3.009   1.435  15.716  3.4735  1.4873  1.8236
   62TCq2    H4  957   3.163   1.518  15.320 -2.0396  0.0164  0.0750
   63TMC2    C1  958   2.659   1.352  10.866 -0.4955  0.1399  0.0285
   63TMC2    C2  959   2.658   1.377  10.998 -0.4923  0.2813  0.0471
   63TMC2    C3  960   2.771   1.445  11.047  0.3543 -0.4533  0.1154
   63TMC2    C4  961   2.761   1.377  10.782  0.0029  0.4557 -0.2645
   63TMC2    C5  962   2.866   1.446  10.835 -0.4541  0.4815  0.6962
   63TMC2    C6  963   2.875   1.478  10.966 -0.2252 -0.2992 -0.1064
   63TMC2     C  964   2.531   1.303  10.813 -0.0157  0.1036  0.4458
   63TMC2     O  965   2.439   1.380  10.826 -0.2499 -0.7910 -0.2719
   63TMC2     H  966   2.571   1.369  11.061 -0.7343 -2.6475 -0.6972
   63TMC2    H1  967   2.746   1.362  10.675  1.1165  4.5597 -1.0257
   63TMC2    H2  968   2.965   1.523  11.007 -0.0631 -0.3728 -0.3837
   63TMC2    C7  969   2.957   1.511  10.742 -0.2639 -0.1173 -0.0415
   63TMC2    C8  970   2.789   1.490  11.183  0.1030 -0.4729  0.6660
   63TMC2    O1  971   2.921   1.492  10.622  0.2098 -0.6553 -0.2819
   63TMC2    O2  972   2.894   1.529  11.235 -0.6595  0.2788 -0.1116
   63TMC2    O5  973   2.661   1.497  11.247 -0.4869 -0.4987  0.1044
   63TMC2    H5  974   2.585   1.509  11.186  0.6019 -0.0777 -1.1654
   64MPD2     C  975   2.276   0.996  10.491 -0.1650  0.0780 -0.1875
   64MPD2    C1  976   2.395   0.936  10.527 -0.3021 -0.1558 -0.0137
   64MPD2    C2  977   2.479   1.007  10.606  0.2901  0.1740  0.8133
   64MPD2    C3  978   2.448   1.136  10.654  0.8046  0.3970 -0.3256
   64MPD2    C4  979   2.329   1.194  10.616 -0.0485  0.0447  0.4049
   64MPD2    C5  980   2.243   1.121  10.539 -0.9024 -0.4606  0.4115
   64MPD2     H  981   2.576   0.971  10.637 -0.9326 -1.6938  2.4566
   64MPD2    H1  982   2.288   1.285  10.656  0.6380 -1.0388  3.5999
   64MPD2    H2  983   2.207   0.949  10.421 -0.9152  2.2912 -0.9281
   64MPD2    H3  984   2.144   1.159  10.518 -0.7704 -0.6475 -0.5435
   64MPD2     N  985   2.549   1.194  10.735 -0.4382 -0.5198  0.3154
   64MPD2    H5  986   2.637   1.142  10.742 -0.1173  0.0491  0.4700
   64MPD2    N1  987   2.435   0.816  10.468  0.3329 -0.0305  0.3420
   64MPD2    H7  988   2.382   0.790  10.385  0.5049 -1.5596  0.7037
   65MPD2     C  989   3.323   0.717  15.841 -0.0911 -0.7769 -0.0516
   65MPD2    C1  990   3.293   0.724  15.705 -0.2268  0.6828 -0.0757
   65MPD2    C2  991   3.231   0.617  15.645 -0.0083  1.1014  0.5607
   65MPD2    C3  992   3.172   0.516  15.718  1.2124 -0.2434 -0.7494
   65MPD2    C4  993   3.200   0.510  15.856  0.0572  0.5594  0.2208
   65MPD2    C5  994   3.281   0.607  15.913 -0.8444 -0.3488 -0.5167
   65MPD2     H  995   3.199   0.622  15.542  0.3620  0.5963  0.4211
   65MPD2    H1  996   3.165   0.425  15.913 -0.3243  0.0803 -0.7254
   65MPD2    H2  997   3.393   0.787  15.886 -0.0784 -1.0865  0.4078
   65MPD2    H3  998   3.319   0.599  16.014 -2.1209  2.3250  0.1553
   65MPD2     N  999   3.099   0.410  15.662  0.4653  0.0134 -0.6596
   65MPD2    H5 1000   3.054   0.341  15.722  0.4648 -0.5927 -1.3559
   65MPD2    N1 1001   3.344   0.821  15.623  0.0735  0.9850 -0.3881
   65MPD2    H7 1002   3.352   0.801  15.524 -0.7664 -0.3247 -0.1894
   66TCq2    C1 1003   3.390   0.947  15.664 -0.6574  0.3766 -0.1430
   66TCq2    O2 1004   3.381   1.000  15.770 -0.0486  0.9749  0.5653
   66TCq2    C2 1005   3.449   1.029  15.559  0.4512  0.0992 -0.2776
   66TCq2    C3 1006   3.461   0.983  15.428 -0.6617 -0.1773 -0.4462
   66TCq2    C4 1007   3.490   1.074  15.331  0.1878  0.7735 -0.3643
   66TCq2    C5 1008   3.505   1.206  15.357 -0.0383  0.0390 -0.3634
   66TCq2    C6 1009   3.506   1.245  15.487 -0.5083 -0.1345 -0.1381
   66TCq2    C7 1010   3.477   1.159  15.591  0.7684 -1.1384 -0.2568
   66TCq2    C8 1011   3.527   1.386  15.517 -0.4863 -0.6333  0.6386
   66TCq2    O4 1012   3.594   1.457  15.438 -0.0871  0.1093 -0.4487
   66TCq2    C9 1013   3.523   1.032  15.199 -0.7507 -0.2519 -0.2460
   66TCq2    O5 1014   3.615   1.088  15.138  0.3870 -0.0153  0.3263
   66TCq2    O6 1015   3.490   0.913  15.175  0.1702  0.4715  0.1577
   66TCq2    H2 1016   3.456   0.877  15.406 -1.4440 -0.4102  0.8316
   66TCq2    H3 1017   3.540   1.275  15.281 -0.4681  1.1289  0.4366
   66TCq2    H4 1018   3.490   1.183  15.696 -1.0903  0.7908 -0.4583
   67MPD2     C 1019   4.216   0.496  14.024 -0.2996 -0.5273 -0.9622
   67MPD2    C1 1020   4.139   0.467  14.128 -0.0357 -0.5977 -0.1572
   67MPD2    C2 1021   4.016   0.407  14.105  0.5293 -0.4562  0.3201
   67MPD2    C3 1022   3.981   0.371  13.978  0.6615 -0.1600 -0.1663
   67MPD2    C4 1023   4.055   0.418  13.868  0.1481 -0.0017 -0.5445
   67MPD2    C5 1024   4.177   0.470  13.895  0.4110  0.1765  0.3134
   67MPD2     H 1025   3.964   0.378  14.196  0.7381 -0.0729  0.5605
   67MPD2    H1 1026   4.025   0.399  13.766  1.3951  0.0283 -0.9234
   67MPD2    H2 1027   4.307   0.554  14.036 -2.5067  2.3544  1.9563
   67MPD2    H3 1028   4.240   0.494  13.810  1.3553 -1.4738  0.5658
   67MPD2     N 1029   3.859   0.305  13.962 -0.2674  0.1987 -0.3680
   67MPD2    H5 1030   3.817   0.326  13.872  0.5894 -0.0240 -0.8229
   67MPD2    N1 1031   4.155   0.522  14.253  0.1011  0.0961 -0.6526
   67MPD2    H7 1032   4.070   0.531  14.308  1.0029 -2.2775  1.1645
   68TCq2    C1 1033   4.270   0.585  14.302 -0.1378  0.7513 -0.3652
   68TCq2    O2 1034   4.381   0.567  14.256 -0.0537 -0.4981 -0.1707
   68TCq2    C2 1035   4.247   0.651  14.426 -0.7797  0.0379 -0.5295
   68TCq2    C3 1036   4.120   0.716  14.432 -0.2016 -0.0621 -0.0056
   68TCq2    C4 1037   4.061   0.724  14.554 -0.1103 -0.1884 -0.8109
   68TCq2    C5 1038   4.111   0.657  14.665 -0.1325 -0.4049  0.0229
   68TCq2    C6 1039   4.227   0.581  14.647 -0.5364 -0.1546  0.5770
   68TCq2    C7 1040   4.297   0.579  14.530 -0.5688 -0.0845  0.5495
   68TCq2    C8 1041   4.253   0.480  14.747  0.3545 -0.0858 -0.2171
   68TCq2    O4 1042   4.327   0.390  14.714 -0.0622 -0.5264 -0.0672
   68TCq2    C9 1043   3.950   0.816  14.574  0.4302  1.0044 -0.1188
   68TCq2    O5 1044   3.884   0.804  14.680 -0.7043 -0.0554  0.1839
   68TCq2    O6 1045   3.926   0.883  14.471  0.1042  0.1517 -0.1568
   68TCq2    H2 1046   4.084   0.764  14.342 -1.2436 -0.5408  0.1610
   68TCq2    H3 1047   4.050   0.653  14.754  0.2284  0.4920  0.3112
   68TCq2    H4 1048   4.375   0.507  14.509 -1.3613 -0.6536 -0.4846
   69TMC2    C1 1049   1.701   1.274  12.509  0.0476  0.3420 -0.4369
   69TMC2    C2 1050   1.588   1.329  12.454 -0.0469  0.4630 -0.4046
   69TMC2    C3 1051   1.600   1.378  12.324  0.0087  1.0288  0.3352
   69TMC2    C4 1052   1.810   1.248  12.435 -0.7449 -0.7554  0.4861
   69TMC2    C5 1053   1.816   1.292  12.307  0.3034  0.4629 -0.1273
   69TMC2    C6 1054   1.711   1.357  12.245 -0.3665  0.5645 -0.0387
   69TMC2     C 1055   1.684   1.174  12.617  0.1351 -0.9407 -0.2058
   69TMC2     O 1056   1.573   1.126  12.617  0.2790 -0.2173 -0.5060
   69TMC2     H 1057   1.498   1.352  12.511  0.4789  0.6061  0.3699
   69TMC2    H1 1058   1.898   1.200  12.477 -0.3216  0.9386  1.5339
   69TMC2    H2 1059   1.712   1.383  12.140  3.1342 -0.7646 -0.3424
   69TMC2    C7 1060   1.914   1.234  12.217 -0.5593  0.9533 -0.2512
   69TMC2    C8 1061   1.485   1.406  12.252 -0.6077  0.0806  0.1354
   69TMC2    O1 1062   1.925   1.286  12.104  0.3777 -0.1500 -0.1264
   69TMC2    O2 1063   1.375   1.370  12.295  0.2636 -0.4467  0.4743
   69TMC2    O5 1064   1.503   1.467  12.131 -0.7776  0.0971  0.5494
   69TMC2    H5 1065   1.594   1.501  12.119 -0.9127 -0.3733 -1.7454
   70MPD2     C 1066   1.932   1.069  12.870 -0.0169  0.6135 -0.4871
   70MPD2    C1 1067   1.807   1.069  12.812  0.3766 -0.4512  0.2380
   70MPD2    C2 1068   1.701   0.988  12.861 -1.0231 -0.4295  0.2245
   70MPD2    C3 1069   1.737   0.885  12.939  0.3966 -0.0809 -0.1360
   70MPD2    C4 1070   1.867   0.875  12.988  0.2948  0.2292 -0.7317
   70MPD2    C5 1071   1.956   0.972  12.958 -0.0861 -0.1469 -0.1044
   70MPD2     H 1072   1.601   1.005  12.824 -1.0194 -1.6531 -0.3373
   70MPD2    H1 1073   1.889   0.791  13.054 -0.0832  0.6806 -0.0329
   70MPD2    H2 1074   2.005   1.140  12.835  0.6792  0.1543  0.0293
   70MPD2    H3 1075   2.058   0.955  12.991  0.3172  2.4462  0.0404
   70MPD2     N 1076   1.649   0.779  12.984 -0.0362 -0.1593 -0.0595
   70MPD2    H5 1077   1.691   0.711  13.046  2.5430  1.0058 -0.4986
   70MPD2    N1 1078   1.793   1.161  12.703 -0.0738 -0.4997  0.7372
   70MPD2    H7 1079   1.877   1.218  12.694 -1.9364  2.2390  0.7914
   71TMC2    C1 1080   2.591   2.176   1.506  0.7831 -0.2697  0.4626
   71TMC2    C2 1081   2.662   2.142   1.616  0.4095  0.1101 -0.4515
   71TMC2    C3 1082   2.600   2.131   1.736 -0.0979  0.3119 -0.4738
   71TMC2    C4 1083   2.454   2.203   1.515 -0.0390 -0.2522 -0.0637
   71TMC2    C5 1084   2.395   2.185   1.634  0.2010 -0.4484  0.1284
   71TMC2    C6 1085   2.468   2.151   1.745  0.3491  0.0828  0.3529
   71TMC2     C 1086   2.647   2.150   1.375  0.0558  0.0069  0.9086
   71TMC2     O 1087   2.577   2.176   1.278  0.3056 -0.2381  0.4378
   71TMC2     H 1088   2.768   2.120   1.612  0.3686 -0.2726  0.6506
   71TMC2    H1 1089   2.393   2.241   1.434 -1.5618 -1.1100  0.6602
   71TMC2    H2 1090   2.416   2.123   1.836  1.5968  0.5846  1.2183
   71TMC2    C7 1091   2.265   2.246   1.662 -0.0660  0.4731 -0.3889
   71TMC2    C8 1092   2.664   2.048   1.836  0.8468 -0.5035 -0.1358
   71TMC2    O1 1093   2.238   2.273   1.778  0.2324  0.2848 -0.2415
   71TMC2    O2 1094   2.601   1.964   1.896 -0.3718 -0.2696  0.7648
   71TMC2    O5 1095   2.757   2.124   1.896  0.2209 -0.2377 -0.1990
   71TMC2    H5 1096   2.771   2.208   1.847 -0.6551 -0.0744 -0.1685
   72MPD2     C 1097   3.003   1.984   1.042 -0.4100 -0.5057 -1.4454
   72MPD2    C1 1098   2.879   2.041   1.015 -0.6047 -0.2476 -0.6999
   72MPD2    C2 1099   2.802   2.074   1.123  0.1531  0.1547 -0.6300
   72MPD2    C3 1100   2.839   2.055   1.258  0.3491 -0.2703 -0.1845
   72MPD2    C4 1101   2.955   1.982   1.284 -0.2003  0.1446  0.5667
   72MPD2    C5 1102   3.035   1.954   1.174  0.1755 -0.1891 -0.0026
   72MPD2     H 1103   2.709   2.125   1.098 -0.9310 -1.6399 -0.2465
   72MPD2    H1 1104   3.003   1.956   1.378  0.5772  1.1120  0.4301
   72MPD2    H2 1105   3.075   1.949   0.968  2.4674 -1.7858  1.9337
   72MPD2    H3 1106   3.140   1.932   1.188  0.6107  1.3227 -0.8899
   72MPD2     N 1107   2.766   2.088   1.372  0.3886 -0.4612 -0.5984
   72MPD2    H5 1108   2.807   2.050   1.457  0.8346  1.5103  0.0502
   72MPD2    N1 1109   2.843   2.085   0.886 -0.7036  0.3130  0.0075
   72MPD2    H7 1110   2.766   2.150   0.874 -2.2339 -1.6023 -0.5863
   73TMC2    C1 1111   2.975   3.806  13.918 -0.4053  0.7933 -0.4877
   73TMC2    C2 1112   2.901   3.715  13.980  0.2248 -0.1407  0.3158
   73TMC2    C3 1113   2.934   3.686  14.110  0.4218  0.2109 -0.6246
   73TMC2    C4 1114   3.074   3.881  13.984  0.7875 -0.9075  0.2444
   73TMC2    C5 1115   3.084   3.858  14.122  0.4107  0.3114  0.0332
   73TMC2    C6 1116   3.024   3.759  14.189  0.1963  0.0068  0.0731
   73TMC2     C 1117   2.954   3.830  13.777  0.4543  0.0507 -0.3855
   73TMC2     O 1118   2.860   3.784  13.711 -0.1299  0.0405  0.2869
   73TMC2     H 1119   2.822   3.662  13.928  1.0442  2.0138 -3.0917
   73TMC2    H1 1120   3.123   3.964  13.934 -0.5701  0.2027  0.7654
   73TMC2    H2 1121   3.042   3.740  14.294 -0.6808  0.8258  0.3692
   73TMC2    C7 1122   3.217   3.900  14.182  0.7551 -0.2057 -0.7470
   73TMC2    C8 1123   2.837   3.603  14.177  0.1613 -0.3511  0.1622
   73TMC2    O1 1124   3.220   3.922  14.301 -0.6225  0.3834  0.7219
   73TMC2    O2 1125   2.731   3.574  14.126  0.0443  0.6288  0.1827
   73TMC2    O5 1126   2.906   3.519  14.252  0.0967 -0.4649  0.5207
   73TMC2    H5 1127   2.989   3.545  14.298 -0.3368 -2.3648  2.3823
   74MPD2     C 1128   3.197   4.033  13.363 -0.2554 -0.8203  0.2596
   74MPD2    C1 1129   3.286   4.000  13.467 -0.0359 -0.7865 -0.3382
   74MPD2    C2 1130   3.237   3.946  13.576 -0.1481 -0.3493  0.3189
   74MPD2    C3 1131   3.101   3.926  13.599 -0.0039  0.4533 -0.8218
   74MPD2    C4 1132   3.012   3.958  13.506 -0.1614 -0.1014  0.0632
   74MPD2    C5 1133   3.058   4.021  13.392 -0.3463  0.0425  0.3140
   74MPD2     H 1134   3.297   3.920  13.663  1.2305  2.5847  0.2548
   74MPD2    H1 1135   2.910   3.925  13.515 -0.7875  1.5451 -0.9184
   74MPD2    H2 1136   3.246   4.081  13.279  0.4585 -1.9689  0.0240
   74MPD2    H3 1137   2.992   4.050  13.312 -0.9339 -3.3817 -0.4617
   74MPD2     N 1138   3.072   3.862  13.722 -0.0690 -0.0235 -0.4284
   74MPD2    H5 1139   3.148   3.821  13.775 -1.2261 -0.3395  0.9705
   74MPD2    N1 1140   3.424   4.019  13.447  0.0527  0.2893  0.8377
   74MPD2    H7 1141   3.449   4.056  13.356  2.9413 -0.1229  1.4703
   75TCq2    C1 1142   3.798   0.225  14.048  0.1733 -0.2333 -0.6414
   75TCq2    O2 1143   3.850   0.173  14.149 -0.2301  0.5145 -0.1347
   75TCq2    C2 1144   3.665   0.189  14.007 -0.8139  0.3445 -1.5575
   75TCq2    C3 1145   3.583   0.165  14.113 -0.5099 -0.0648 -0.3513
   75TCq2    C4 1146   3.453   0.213  14.112  0.2549 -0.1196 -0.0411
   75TCq2    C5 1147   3.404   0.267  13.998  0.4713 -0.2865  0.2185
   75TCq2    C6 1148   3.485   0.272  13.882  0.1740  0.0371  0.3314
   75TCq2    C7 1149   3.613   0.219  13.878  0.2252  0.2164  0.4422
   75TCq2    C8 1150   3.427   0.315  13.754 -1.0828 -0.4306  0.2729
   75TCq2    O4 1151   3.489   0.278  13.651 -0.7355  0.9798 -0.0905
   75TCq2    C9 1152   3.379   0.213  14.242  0.1660 -0.2604  0.1813
   75TCq2    O5 1153   3.302   0.309  14.258  0.2061  0.3999 -0.1604
   75TCq2    O6 1154   3.440   0.166  14.340 -0.0875  0.4677 -0.0269
   75TCq2    H2 1155   3.615   0.115  14.204  1.4409  0.0775 -0.9589
   75TCq2    H3 1156   3.307   0.315  13.999  0.0545 -1.1276  2.2918
   75TCq2    H4 1157   3.684   0.235  13.798 -1.0023  1.2400 -0.4574
   76MPD2     C 1158   3.051   1.008  11.742  0.3240 -0.0022 -0.3059
   76MPD2    C1 1159   2.930   0.935  11.764 -0.4702 -0.0726 -0.1398
   76MPD2    C2 1160   2.928   0.797  11.808 -0.4798 -0.2894 -0.1077
   76MPD2    C3 1161   3.051   0.745  11.843  0.4967 -0.2741  0.2086
   76MPD2    C4 1162   3.164   0.814  11.839  0.5821  0.3230  0.2882
   76MPD2    C5 1163   3.164   0.945  11.784  0.6388  0.3337 -0.3160
   76MPD2     H 1164   2.833   0.748  11.826  0.5771 -1.7091  1.6127
   76MPD2    H1 1165   3.254   0.769  11.880  1.5911 -0.0882 -2.4359
   76MPD2    H2 1166   3.057   1.108  11.700 -0.5858 -0.8609 -2.4345
   76MPD2    H3 1167   3.262   0.991  11.784  1.2710 -1.0282 -1.5667
   76MPD2     N 1168   3.067   0.611  11.882 -0.2384  0.4037  0.0420
   76MPD2    H5 1169   3.160   0.575  11.901  0.3620  1.8776 -0.1233
   76MPD2    N1 1170   2.806   0.995  11.740  0.7052  0.8967  0.4845
   76MPD2    H7 1171   2.725   0.942  11.772  0.1175  2.7605  2.1168
   77TCq2    C1 1172   2.968   0.520  11.884  0.3714 -0.3669  0.0393
   77TCq2    O2 1173   2.848   0.536  11.862 -0.0788  0.4377  0.5406
   77TCq2    C2 1174   3.015   0.389  11.926 -0.6432 -0.0434  0.2418
   77TCq2    C3 1175   2.933   0.282  11.899 -0.1653 -0.7066  0.5925
   77TCq2    C4 1176   2.969   0.166  11.962 -0.5294 -0.4821  0.1785
   77TCq2    C5 1177   3.062   0.165  12.057  0.7159  0.4606  0.5922
   77TCq2    C6 1178   3.128   0.279  12.088 -0.5069 -0.3220  0.3358
   77TCq2    C7 1179   3.098   0.391  12.029  0.0963 -0.5999 -0.5545
   77TCq2    C8 1180   3.194   0.274  12.211 -0.3956  0.3023  1.4809
   77TCq2    O4 1181   3.264   0.177  12.236  0.2352 -0.1045 -0.6356
   77TCq2    C9 1182   2.897   0.042  11.940  0.0397  0.5867  0.3632
   77TCq2    O5 1183   2.777   0.055  11.907 -0.0295  0.1798  0.2684
   77TCq2    O6 1184   2.946   4.664  11.984 -0.0771  0.3569 -0.0077
   77TCq2    H2 1185   2.858   0.285  11.821 -1.6599  0.8418  2.1010
   77TCq2    H3 1186   3.087   0.079  12.116  1.1103 -0.1624 -0.4808
   77TCq2    H4 1187   3.155   0.482  12.048  1.2575 -0.9444 -2.3673
   78MPD1     C 1188   2.055   1.965   1.435 -0.3454 -0.5412 -0.4160
   78MPD1    C1 1189   2.178   1.975   1.366  0.1984 -0.1091  0.2952
   78MPD1    C2 1190   2.292   1.922   1.434 -0.4528 -0.5098 -0.3746
   78MPD1    C3 1191   2.285   1.844   1.549 -0.1749  0.4888 -0.3105
   78MPD1    C4 1192   2.159   1.833   1.604 -0.2074  0.2838  0.6015
   78MPD1    C5 1193   2.048   1.890   1.545  0.7628  0.3085 -0.0149
   78MPD1     H 1194   2.389   1.929   1.388 -1.3836  0.9666 -2.0716
   78MPD1    H1 1195   2.131   1.773   1.691  2.0790 -2.9066 -0.8689
   78MPD1    H2 1196   1.974   2.031   1.407  0.5283  0.3113 -0.9388
   78MPD1    H3 1197   1.950   1.886   1.590  1.8955 -1.6485  2.3028
   78MPD1     N 1198   2.389   1.784   1.613  0.5037  0.2861 -1.0163
   78MPD1    H5 1199   2.370   1.724   1.693 -2.0941 -0.0333 -1.8726
   78MPD1    N1 1200   2.192   2.058   1.257  0.3260  0.4869 -0.0236
   78MPD1    H6 1201   2.272   2.030   1.200 -0.1050  1.3976 -1.0778
   78MPD1    H7 1202   2.105   2.054   1.204  1.0757 -3.3377 -0.9765
   79TCq2    C1 1203   2.522   1.783   1.569 -1.1310 -0.0314 -0.4263
   79TCq2    O2 1204   2.577   1.842   1.481 -0.8558 -0.1494  0.1474
   79TCq2    C2 1205   2.613   1.706   1.649  0.5343 -0.1845 -0.5253
   79TCq2    C3 1206   2.577   1.630   1.756 -0.4158  0.1025  0.2950
   79TCq2    C4 1207   2.675   1.569   1.839  0.3474  0.2196 -0.5141
   79TCq2    C5 1208   2.809   1.581   1.809  0.4656  0.2086 -0.8673
   79TCq2    C6 1209   2.846   1.663   1.703 -0.0507  0.4163  0.8515
   79TCq2    C7 1210   2.747   1.719   1.623 -0.7869 -0.4930  0.4809
   79TCq2    C8 1211   2.983   1.657   1.660  0.4067  0.1452 -0.3222
   79TCq2    O4 1212   3.070   1.674   1.747 -0.0600  0.4127  0.6056
   79TCq2    C9 1213   2.631   1.479   1.940 -0.7461 -0.5020  0.4473
   79TCq2    O5 1214   2.509   1.444   1.946 -0.3928 -0.2051 -0.3126
   79TCq2    O6 1215   2.723   1.418   1.996  0.3932  0.1614 -0.0326
   79TCq2    H2 1216   2.476   1.623   1.796 -1.0958 -0.6287 -1.5208
   79TCq2    H3 1217   2.884   1.539   1.875  0.9180 -1.8026 -2.6733
   79TCq2    H4 1218   2.774   1.786   1.542 -0.2341 -1.0720  0.1812
   80MPD2     C 1219   1.053   0.811  12.636 -0.3037  0.5921  0.3236
   80MPD2    C1 1220   1.013   0.774  12.512  0.1417 -0.0498  0.0515
   80MPD2    C2 1221   0.874   0.762  12.490  1.2443 -0.1964 -0.4438
   80MPD2    C3 1222   0.784   0.786  12.597  0.7223  0.1410  0.1760
   80MPD2    C4 1223   0.827   0.829  12.716  0.2527 -0.2251  0.4639
   80MPD2    C5 1224   0.961   0.840  12.736 -0.0941  0.1858  0.3740
   80MPD2     H 1225   0.841   0.726  12.393 -0.9134 -0.7311  0.5046
   80MPD2    H1 1226   0.766   0.841  12.805 -0.9853 -0.7518 -0.3096
   80MPD2    H2 1227   1.158   0.823  12.661 -0.7816  1.6073  1.8587
   80MPD2    H3 1228   1.002   0.865  12.833 -0.9185  0.1151  0.7400
   80MPD2     N 1229   0.650   0.763  12.575  1.0075  0.6852  0.0925
   80MPD2    H5 1230   0.598   0.769  12.663 -1.8673  1.1586 -1.6506
   80MPD2    N1 1231   1.097   0.739  12.404  0.2819  0.7797 -0.2802
   80MPD2    H7 1232   1.053   0.726  12.313  0.8000 -1.3687 -0.2215
   81TCq2    C1 1233   1.237   0.736  12.401 -0.4693 -0.9639  0.7778
   81TCq2    O2 1234   1.312   0.746  12.498 -0.4076 -0.5503 -0.3314
   81TCq2    C2 1235   1.292   0.701  12.273  0.3791  0.9618  0.2323
   81TCq2    C3 1236   1.425   0.674  12.271 -0.7237 -0.7706 -0.1165
   81TCq2    C4 1237   1.470   0.609  12.162 -0.0164  0.2259 -1.1585
   81TCq2    C5 1238   1.394   0.588  12.052  0.4453  0.0800  0.4079
   81TCq2    C6 1239   1.263   0.620  12.050  0.2612 -0.2148  0.1967
   81TCq2    C7 1240   1.212   0.679  12.167 -0.5577  0.1244 -0.3316
   81TCq2    C8 1241   1.163   0.528  11.997  0.1028  0.1661 -0.8522
   81TCq2    O4 1242   1.098   0.538  11.896  0.4429  0.0056 -0.5238
   81TCq2    C9 1243   1.603   0.562  12.152  0.2881 -0.5196 -0.0043
   81TCq2    O5 1244   1.683   0.595  12.242 -0.4133  0.1900 -0.5110
   81TCq2    O6 1245   1.631   0.495  12.048  0.5883 -0.3143 -0.0211
   81TCq2    H2 1246   1.484   0.675  12.362  1.4768  0.2292 -1.5457
   81TCq2    H3 1247   1.433   0.533  11.967  1.7601  0.5524  0.7077
   81TCq2    H4 1248   1.107   0.707  12.169 -0.4040  0.5894  1.9528
   82MPD2     C 1249   4.638   0.427  11.012 -0.2239  0.5394  0.3628
   82MPD2    C1 1250   4.545   0.326  11.013  0.5390  0.3450 -0.0816
   82MPD2    C2 1251   4.583   0.195  11.050  0.1012  0.6858 -0.2195
   82MPD2    C3 1252   4.713   0.171  11.089 -0.2800 -0.7209 -1.2083
   82MPD2    C4 1253   0.076   0.273  11.095 -0.8043 -0.2691 -0.4967
   82MPD2    C5 1254   0.040   0.395  11.047 -0.2554  0.3907  0.0853
   82MPD2     H 1255   4.512   0.113  11.047 -1.8380  2.4148 -1.6409
   82MPD2    H1 1256   0.176   0.258  11.135 -1.4773  0.4189  1.4448
   82MPD2    H2 1257   4.623   0.528  10.976 -1.8698 -0.8238 -2.7663
   82MPD2    H3 1258   0.107   0.480  11.056  0.6176 -0.2350 -0.5096
   82MPD2     N 1259   0.036   0.043  11.129 -0.0234  0.0555  0.1867
   82MPD2    H5 1260   0.136   0.036  11.149  0.3772  0.8043 -1.4904
   82MPD2    N1 1261   4.418   0.352  10.953  0.4278 -0.1055 -0.5677
   82MPD2    H7 1262   4.399   0.447  10.922  0.3641  0.1514  0.2438
   83TCq2    C1 1263   4.688   4.652  11.155 -0.0153  0.4013 -0.5230
   83TCq2    O2 1264   4.569   4.646  11.187 -0.4768 -0.5359  0.2795
   83TCq2    C2 1265   0.047   4.535  11.193 -0.2689  0.2762  0.6902
   83TCq2    C3 1266   0.181   4.538  11.195 -0.7115 -0.5648  0.1376
   83TCq2    C4 1267   0.244   4.439  11.269 -0.1127 -0.2202 -0.2450
   83TCq2    C5 1268   0.175   4.339  11.317  0.6112 -0.2501 -0.0634
   83TCq2    C6 1269   0.042   4.331  11.301 -0.1325 -0.2948  0.4435
   83TCq2    C7 1270   4.701   4.436  11.247 -0.2433  0.3878 -0.7083
   83TCq2    C8 1271   4.689   4.207  11.319  0.3393 -0.2939  0.2778
   83TCq2    O4 1272   4.725   4.141  11.413  0.6931  0.0336 -0.3187
   83TCq2    C9 1273   0.390   4.452  11.288 -0.7269  0.6521 -0.8750
   83TCq2    O5 1274   0.440   4.368  11.365  0.7141  0.5604  0.3687
   83TCq2    O6 1275   0.459   4.531  11.224  0.2389  0.0054 -0.5072
   83TCq2    H2 1276   0.241   4.617  11.152 -0.4526  0.0155  1.5664
   83TCq2    H3 1277   0.233   4.264  11.371  0.2917 -0.0675  0.5389
   83TCq2    H4 1278   4.592   4.440  11.247 -0.2169  1.2302 -1.1276
   84TCq2    C1 1279   0.720   3.313  10.892  0.2156 -0.1435 -0.7574
   84TCq2    O2 1280   0.668   3.213  10.838 -0.0440 -0.3025  0.3541
   84TCq2    C2 1281   0.749   3.287  11.031  0.0449  0.6305  0.3583
   84TCq2    C3 1282   0.775   3.160  11.080 -0.1670  0.0391 -0.6017
   84TCq2    C4 1283   0.843   3.151  11.199 -0.0712 -0.1282 -0.3865
   84TCq2    C5 1284   0.876   3.258  11.276 -0.4117  0.5436  0.9874
   84TCq2    C6 1285   0.828   3.377  11.233 -0.5316 -0.2985  0.0402
   84TCq2    C7 1286   0.767   3.396  11.112 -0.4430 -0.3840 -0.3177
   84TCq2    C8 1287   0.863   3.497  11.306 -0.2697  0.1644 -0.9362
   84TCq2    O4 1288   0.870   3.606  11.248 -0.4947  0.4936  0.3962
   84TCq2    C9 1289   0.899   3.021  11.235 -0.6268 -0.7776 -0.0698
   84TCq2    O5 1290   0.898   2.937  11.143  0.5769  0.0676  0.1329
   84TCq2    O6 1291   0.953   3.009  11.350  0.0073  0.1387 -0.1542
   84TCq2    H2 1292   0.747   3.073  11.022 -0.7106 -1.4396  1.8737
   84TCq2    H3 1293   0.945   3.239  11.357 -1.0581 -0.9396  1.1948
   84TCq2    H4 1294   0.721   3.491  11.087  2.8911  1.4757  0.6962
   85MPD2     C 1295   1.209   1.681  16.422 -0.7806  0.3852  0.1822
   85MPD2    C1 1296   1.093   1.686  16.347  0.3895  0.0632 -0.0290
   85MPD2    C2 1297   1.089   1.772  16.238  0.2663 -0.4665  0.4600
   85MPD2    C3 1298   1.200   1.849  16.196  0.3124 -0.2886 -0.0065
   85MPD2    C4 1299   1.313   1.843  16.274  0.9557 -0.0874  0.5381
   85MPD2    C5 1300   1.319   1.766  16.389  0.0895 -0.1061 -0.6429
   85MPD2     H 1301   1.000   1.770  16.176 -1.1285  2.0531  2.4058
   85MPD2    H1 1302   1.401   1.904  16.256 -1.3966  2.4764 -2.1701
   85MPD2    H2 1303   1.218   1.618  16.510 -0.0031 -0.3868 -0.4423
   85MPD2    H3 1304   1.408   1.755  16.450 -1.3018  0.2780  1.4846
   85MPD2     N 1305   1.195   1.923  16.076 -0.1967 -0.2209  0.4463
   85MPD2    H5 1306   1.109   1.928  16.022 -0.0705 -0.8410  0.1800
   85MPD2    N1 1307   0.987   1.601  16.368  0.3218 -0.4465  0.6203
   85MPD2    H7 1308   0.909   1.604  16.303  1.3384  0.8353 -0.5604
   86TCq2    C1 1309   1.303   1.967  16.016 -0.0850  0.5073 -0.1474
   86TCq2    O2 1310   1.422   1.956  16.042  0.4477 -0.4635  0.5497
   86TCq2    C2 1311   1.273   2.045  15.895  0.4507 -1.2145  0.1125
   86TCq2    C3 1312   1.209   1.994  15.791  0.1751 -0.9094  0.0844
   86TCq2    C4 1313   1.228   2.065  15.671  0.4019  0.4352 -0.3213
   86TCq2    C5 1314   1.297   2.184  15.659  1.3524 -0.1006  0.2692
   86TCq2    C6 1315   1.358   2.230  15.773 -0.0850  0.0158  0.0420
   86TCq2    C7 1316   1.352   2.156  15.889 -0.1325  0.1302 -0.1020
   86TCq2    C8 1317   1.450   2.333  15.773 -0.4246 -0.2670  0.4050
   86TCq2    O4 1318   1.536   2.315  15.858  0.1893 -0.1954  0.1991
   86TCq2    C9 1319   1.162   2.016  15.554  0.2531  0.5430 -0.5750
   86TCq2    O5 1320   1.167   2.078  15.442 -0.1950  0.2041 -0.4653
   86TCq2    O6 1321   1.118   1.898  15.573  0.3042  0.3667  0.4857
   86TCq2    H2 1322   1.148   1.905  15.796  0.2181 -1.0071 -1.0569
   86TCq2    H3 1323   1.290   2.232  15.561  1.3782 -0.6162  0.0179
   86TCq2    H4 1324   1.392   2.193  15.982  0.4943  0.3888 -0.4712
   87MPD2     C 1325   3.542   0.814   1.331  0.0809  0.5669  0.0370
   87MPD2    C1 1326   3.641   0.732   1.356 -0.1601  0.0607 -0.3186
   87MPD2    C2 1327   3.769   0.766   1.318  0.7981 -0.2202  0.0245
   87MPD2    C3 1328   3.798   0.888   1.270  0.4211  0.3018  0.3708
   87MPD2    C4 1329   3.699   0.973   1.239 -0.6145 -0.1267 -0.1649
   87MPD2    C5 1330   3.572   0.934   1.278 -0.0434  0.7059 -0.0885
   87MPD2     H 1331   3.853   0.703   1.344  2.1405  0.4701 -2.6616
   87MPD2    H1 1332   3.720   1.074   1.206 -1.0045 -0.2054 -0.6562
   87MPD2    H2 1333   3.439   0.786   1.348  0.0014  0.4130 -0.7265
   87MPD2    H3 1334   3.497   1.009   1.254  1.3577  1.3065 -2.6056
   87MPD2     N 1335   3.925   0.934   1.226 -0.0164 -0.2610  0.4674
   87MPD2    H5 1336   3.934   1.031   1.197 -5.3009  1.0415  3.1277
   87MPD2    N1 1337   3.609   0.603   1.410  0.1936 -0.3737  0.9131
   87MPD2    H7 1338   3.511   0.583   1.429  0.1973 -0.4543  0.8448
   88TCq2    C1 1339   3.696   0.497   1.435  0.4789 -0.6216 -0.4926
   88TCq2    O2 1340   3.808   0.482   1.388 -0.4822 -0.2278  0.4099
   88TCq2    C2 1341   3.644   0.370   1.495  0.3494 -0.3030 -0.0839
   88TCq2    C3 1342   3.511   0.353   1.502 -0.4990 -0.2014  0.0690
   88TCq2    C4 1343   3.458   0.231   1.503 -0.2800  0.0736  0.3099
   88TCq2    C5 1344   3.542   0.128   1.506  0.4699 -0.1582  0.6621
   88TCq2    C6 1345   3.676   0.138   1.499  0.3322 -0.1380 -0.5044
   88TCq2    C7 1346   3.726   0.262   1.484  0.9344  0.2835 -0.8318
   88TCq2    C8 1347   3.769   0.034   1.448  0.2707 -0.3207  0.2085
   88TCq2    O4 1348   3.889   0.051   1.469 -0.9191 -0.3151 -0.3078
   88TCq2    C9 1349   3.318   0.212   1.494  0.0057  0.2745 -0.0472
   88TCq2    O5 1350   3.279   0.104   1.455  0.6006  0.1165  0.2460
   88TCq2    O6 1351   3.246   0.312   1.491 -0.0033  0.0043  0.3195
   88TCq2    H2 1352   3.435   0.430   1.490 -0.9081 -0.6282 -0.0934
   88TCq2    H3 1353   3.499   0.028   1.511 -0.5839  0.3667  2.2279
   88TCq2    H4 1354   3.830   0.270   1.455  1.3906 -0.6595  0.5468
   89MPD2     C 1355   3.936   2.291   2.013 -0.5492 -0.6529  0.0165
   89MPD2    C1 1356   3.835   2.346   1.935  0.6835  0.5889  0.7265
   89MPD2    C2 1357   3.863   2.440   1.837 -0.6050 -0.1666  0.0252
   89MPD2    C3 1358   3.996   2.469   1.811 -0.0675 -0.5667  0.5911
   89MPD2    C4 1359   4.101   2.408   1.881  0.2273 -0.1645 -0.3189
   89MPD2    C5 1360   4.069   2.318   1.982 -0.9996  0.5753 -0.0282
   89MPD2     H 1361   3.786   2.479   1.773 -0.3595 -0.2798 -0.3360
   89MPD2    H1 1362   4.206   2.432   1.868  0.4996 -0.6139  1.0120
   89MPD2    H2 1363   3.911   2.224   2.095 -0.4778 -1.4836 -0.6357
   89MPD2    H3 1364   4.150   2.274   2.038 -0.2004  0.4456 -1.2850
   89MPD2     N 1365   4.020   2.556   1.704  0.4575 -0.0658  0.0561
   89MPD2    H5 1366   3.947   2.610   1.659  0.7207 -0.9237 -1.3991
   89MPD2    N1 1367   3.699   2.319   1.955 -0.2174  0.2997  0.3145
   89MPD2    H7 1368   3.627   2.379   1.916 -0.4077 -0.3400 -0.3023
   90TCq2    C1 1369   4.145   2.573   1.645  0.3723 -0.5426 -0.5413
   90TCq2    O2 1370   4.244   2.504   1.638 -0.2372  0.1381 -0.1877
   90TCq2    C2 1371   4.128   2.674   1.540 -0.0522  0.0968  0.5620
   90TCq2    C3 1372   4.051   2.780   1.561 -0.6711  0.1747 -1.2963
   90TCq2    C4 1373   4.064   2.882   1.468  0.1595 -0.0699 -0.2756
   90TCq2    C5 1374   4.137   2.875   1.353 -0.0958  0.2355 -0.3105
   90TCq2    C6 1375   4.208   2.756   1.336 -0.0581 -0.7423 -0.0755
   90TCq2    C7 1376   4.194   2.656   1.424 -0.2967  0.2974 -0.0596
   90TCq2    C8 1377   4.301   2.751   1.232 -0.0012  0.0085  0.9272
   90TCq2    O4 1378   4.334   2.641   1.191 -0.0862  0.1871  0.5933
   90TCq2    C9 1379   4.013   3.013   1.506  0.4036  0.2889 -0.1514
   90TCq2    O5 1380   4.039   3.100   1.422  0.3040  0.1161  0.1351
   90TCq2    O6 1381   3.974   3.034   1.622 -0.6168  0.9929  0.0965
   90TCq2    H2 1382   4.004   2.801   1.656 -2.1004 -0.9495 -1.7588
   90TCq2    H3 1383   4.157   2.965   1.296 -0.3850  0.3589 -0.2189
   90TCq2    H4 1384   4.261   2.571   1.423 -0.7721 -0.1079  2.0888
   91TMC2    C1 1385   1.087   2.888  16.646 -0.9170  0.5290 -0.0219
   91TMC2    C2 1386   1.117   3.012  16.694 -0.1056  0.2979  0.7933
   91TMC2    C3 1387   1.022   3.109  16.696  0.1054 -0.3320 -0.8406
   91TMC2    C4 1388   0.962   2.867  16.593  0.3056 -0.0457 -0.3135
   91TMC2    C5 1389   0.867   2.965  16.600 -0.1642 -0.7760  0.4779
   91TMC2    C6 1390   0.892   3.082  16.656  0.3452 -0.1388  0.0731
   91TMC2     C 1391   1.189   2.780  16.635 -0.0275  0.0101 -0.4019
   91TMC2     O 1392   1.157   2.665  16.660 -0.2245  0.6452  0.3271
   91TMC2     H 1393   1.211   3.039  16.741  0.2880  0.4107 -0.0790
   91TMC2    H1 1394   0.936   2.775  16.542 -0.6389 -0.7563  1.4680
   91TMC2    H2 1395   0.817   3.160  16.655  1.6955  1.1531 -1.3274
   91TMC2    C7 1396   0.727   2.937  16.565  0.2417  0.2615 -0.2257
   91TMC2    C8 1397   1.061   3.245  16.675 -0.6010 -0.6219  0.4673
   91TMC2    O1 1398   0.646   3.002  16.628  0.1404 -0.5114 -1.1591
   91TMC2    O2 1399   1.152   3.265  16.596  0.0188 -0.5388 -0.1588
   91TMC2    O5 1400   0.977   3.336  16.729 -0.1867 -0.2824 -0.0074
   91TMC2    H5 1401   0.931   3.299  16.807  1.3918  1.8665  1.9541
   92MPD2     C 1402   1.403   2.604  16.533 -0.0495  0.2910  0.1734
   92MPD2    C1 1403   1.413   2.738  16.561 -0.2449  0.0865  1.0204
   92MPD2    C2 1404   1.538   2.793  16.538 -0.3269 -0.0521  0.4050
   92MPD2    C3 1405   1.645   2.713  16.493 -0.0227 -0.4667  0.1653
   92MPD2    C4 1406   1.622   2.582  16.455 -1.1239 -0.0517  0.2234
   92MPD2    C5 1407   1.504   2.527  16.485 -0.0052  0.7923 -0.6311
   92MPD2     H 1408   1.556   2.897  16.559  0.4941  0.1901 -1.4951
   92MPD2    H1 1409   1.708   2.523  16.425  0.9286  3.0173  0.0321
   92MPD2    H2 1410   1.307   2.554  16.543  0.0572  0.0845  0.1697
   92MPD2    H3 1411   1.474   2.423  16.473 -1.7005  1.0369  1.3755
   92MPD2     N 1412   1.760   2.784  16.465 -0.0043 -0.3557  0.2586
   92MPD2    H5 1413   1.771   2.873  16.513  1.0910  0.5018 -1.5961
   92MPD2    N1 1414   1.314   2.820  16.606  0.0875  0.7899  0.4528
   92MPD2    H7 1415   1.331   2.920  16.605  2.6893  0.3547 -1.3644
   93MPD2     C 1416   2.929   3.436  13.732 -0.0885  0.9207 -0.1260
   93MPD2    C1 1417   2.928   3.369  13.849 -0.4431 -0.7540  0.3620
   93MPD2    C2 1418   2.805   3.305  13.896 -0.1250 -0.7689  0.0260
   93MPD2    C3 1419   2.691   3.318  13.814 -0.0162  0.4403  0.0493
   93MPD2    C4 1420   2.710   3.373  13.690  0.1098  0.3373 -0.4910
   93MPD2    C5 1421   2.823   3.434  13.651  0.9758 -1.3430  0.3783
   93MPD2     H 1422   2.805   3.252  13.991  1.9414 -1.6842 -0.4917
   93MPD2    H1 1423   2.625   3.370  13.624 -1.1329 -0.6565  1.1476
   93MPD2    H2 1424   3.013   3.496  13.699 -0.4575  0.8328 -1.2209
   93MPD2    H3 1425   2.821   3.486  13.556 -2.9612 -1.6805  0.2644
   93MPD2     N 1426   2.565   3.259  13.837  0.0066  0.0963  0.2177
   93MPD2    H5 1427   2.504   3.242  13.757  1.9671 -0.1988 -1.2081
   93MPD2    N1 1428   3.041   3.351  13.928 -0.5041 -0.0338  0.8133
   93MPD2    H7 1429   3.030   3.303  14.017 -1.0526 -1.1408  0.1449
   94TCq2    C1 1430   3.167   3.393  13.896  0.1100 -0.7539  0.2952
   94TCq2    O2 1431   3.216   3.447  13.798  0.3566 -0.0239  0.1121
   94TCq2    C2 1432   3.257   3.381  14.011 -0.2860  1.3143  0.6371
   94TCq2    C3 1433   3.216   3.408  14.139  0.2513  0.5561  0.2531
   94TCq2    C4 1434   3.302   3.472  14.222 -0.1681 -0.6512 -0.0227
   94TCq2    C5 1435   3.432   3.495  14.190 -0.1538 -0.3246 -0.7427
   94TCq2    C6 1436   3.472   3.443  14.072 -0.1088 -0.0423  0.5134
   94TCq2    C7 1437   3.388   3.400  13.973  0.0216  0.0382  0.2787
   94TCq2    C8 1438   3.608   3.480  14.026 -0.0894 -0.1746 -0.0804
   94TCq2    O4 1439   3.626   3.462  13.909  0.2222  0.0236  0.0607
   94TCq2    C9 1440   3.258   3.524  14.351 -0.3779  0.5763  0.3716
   94TCq2    O5 1441   3.348   3.569  14.424 -0.6506 -0.9275 -0.4420
   94TCq2    O6 1442   3.133   3.527  14.368 -0.3876 -0.0066  0.3315
   94TCq2    H2 1443   3.111   3.406  14.163  0.1526  0.7743 -0.1668
   94TCq2    H3 1444   3.497   3.535  14.267 -0.1644 -3.3482  0.8506
   94TCq2    H4 1445   3.428   3.370  13.876  1.1684 -1.6078  1.2516
   95TMC2    C1 1446   2.419   4.489  16.167 -0.2727 -0.4192  0.5822
   95TMC2    C2 1447   2.506   4.500  16.273  0.0650 -0.0374  0.2119
   95TMC2    C3 1448   2.485   4.432  16.393  0.0509  0.1229 -0.3524
   95TMC2    C4 1449   2.306   4.413  16.178  0.1265 -0.7878  0.4705
   95TMC2    C5 1450   2.294   4.348  16.296  0.8771 -0.1704  0.5654
   95TMC2    C6 1451   2.379   4.351  16.401 -0.4281 -0.0704 -0.0479
   95TMC2     C 1452   2.461   4.554  16.039 -0.5874  0.0481  0.1078
   95TMC2     O 1453   2.579   4.564  16.026 -0.2175  0.1521 -0.5452
   95TMC2     H 1454   2.590   4.568  16.265 -0.2625  0.4217  0.6371
   95TMC2    H1 1455   2.240   4.401  16.092  1.2145  0.0668 -0.4752
   95TMC2    H2 1456   2.358   4.303  16.496  3.2953 -0.8177  0.4068
   95TMC2    C7 1457   2.171   4.272  16.312 -0.1671  0.2689  0.1554
   95TMC2    C8 1458   2.566   4.472  16.507 -0.3760 -0.6699 -0.3814
   95TMC2    O1 1459   2.175   4.166  16.380 -0.1423  0.0246 -0.2643
   95TMC2    O2 1460   2.610   4.585  16.528 -1.7229  0.3844 -0.3386
   95TMC2    O5 1461   2.572   4.376  16.588  0.6348 -0.7348  0.0812
   95TMC2    H5 1462   2.568   4.287  16.546 -0.1822 -1.6842  2.1698
   96MPD2     C 1463   2.379   4.720  15.558 -0.1916  0.2140  0.1734
   96MPD2    C1 1464   2.491   0.009  15.643  0.0543 -0.0126 -0.6479
   96MPD2    C2 1465   2.489   4.679  15.771  0.5699  0.2153 -0.4047
   96MPD2    C3 1466   2.368   4.623  15.818 -0.0253  0.4271 -0.1411
   96MPD2    C4 1467   2.255   4.619  15.742 -0.1301 -0.2347 -0.2300
   96MPD2    C5 1468   2.265   4.660  15.612  0.5643 -0.0363 -0.1015
   96MPD2     H 1469   2.580   4.676  15.830  0.0518 -3.1005  0.2353
   96MPD2    H1 1470   2.167   4.563  15.773 -0.1506 -0.5843 -0.9253
   96MPD2    H2 1471   2.391   0.028  15.456  2.2762  0.0658  0.4076
   96MPD2    H3 1472   2.168   4.665  15.564  0.2173 -1.1576  0.4907
   96MPD2     N 1473   2.363   4.563  15.943 -0.5926 -0.2997 -0.3714
   96MPD2    H5 1474   2.267   4.540  15.967 -0.7745 -0.2969 -1.1206
   96MPD2    N1 1475   2.604   0.066  15.581 -0.9529  0.2682  0.0765
   96MPD2    H7 1476   2.598   0.099  15.485 -0.8402 -0.0696 -0.0464
   97MPD2     C 1477   0.194   2.310   2.075  0.2683  0.2657  0.4054
   97MPD2    C1 1478   0.149   2.307   1.943 -0.5680 -0.0685 -0.3231
   97MPD2    C2 1479   0.148   2.427   1.879 -0.2295  0.2445 -0.1768
   97MPD2    C3 1480   0.183   2.549   1.942 -0.4046  0.6912 -0.3375
   97MPD2    C4 1481   0.211   2.548   2.084 -0.4319 -0.0348 -0.3829
   97MPD2    C5 1482   0.222   2.426   2.140  0.7599  0.1950  0.4749
   97MPD2     H 1483   0.130   2.427   1.772 -1.5674 -1.9124  0.0571
   97MPD2    H1 1484   0.228   2.635   2.145  0.5666  0.4657 -1.3750
   97MPD2    H2 1485   0.198   2.216   2.129 -1.6642  0.0192  0.1118
   97MPD2    H3 1486   0.242   2.423   2.246 -0.5923  0.9899  0.7444
   97MPD2     N 1487   0.193   2.675   1.874 -0.4573  0.7890  0.4594
   97MPD2    H5 1488   0.214   2.750   1.939  0.5668  1.3535 -0.5308
   97MPD2    N1 1489   0.110   2.182   1.881 -0.1056  0.7584 -0.5093
   97MPD2    H7 1490   0.113   2.104   1.946 -0.7284  1.2656  0.1186
   98TCq2    C1 1491   0.168   2.697   1.741  0.3697  0.5498 -0.5199
   98TCq2    O2 1492   0.163   2.620   1.651 -0.0837 -0.3079 -0.1332
   98TCq2    C2 1493   0.173   2.834   1.707  0.1061 -0.4425  0.1697
   98TCq2    C3 1494   0.128   2.930   1.792  0.3779  0.3968 -0.0069
   98TCq2    C4 1495   0.150   3.066   1.755  0.4797 -0.4950 -0.3893
   98TCq2    C5 1496   0.215   3.098   1.641 -0.0002  0.4706 -0.0718
   98TCq2    C6 1497   0.258   2.998   1.561  0.0887 -0.0063  0.2731
   98TCq2    C7 1498   0.233   2.866   1.592  0.4201 -0.9235 -0.8838
   98TCq2    C8 1499   0.326   3.042   1.438 -0.7108 -1.1681  0.2063
   98TCq2    O4 1500   0.347   3.164   1.421 -0.4899 -0.0644  0.0915
   98TCq2    C9 1501   0.079   3.176   1.825  0.1226 -0.3423 -0.3359
   98TCq2    O5 1502   0.096   3.295   1.796 -0.7673  0.5607 -0.1629
   98TCq2    O6 1503   4.722   3.140   1.915  0.7590  0.3379  0.6763
   98TCq2    H2 1504   0.070   2.906   1.880  1.3805  1.4606  0.9543
   98TCq2    H3 1505   0.238   3.204   1.630  1.1957  0.0438 -1.7641
   98TCq2    H4 1506   0.262   2.780   1.532  0.9542 -1.0842 -0.3990
   99MPD2     C 1507   3.846   3.861   2.343 -0.5712 -0.1684 -0.1794
   99MPD2    C1 1508   3.767   3.956   2.275  1.2971 -0.3036 -0.4805
   99MPD2    C2 1509   3.703   3.915   2.160  0.5239 -0.1933  0.1035
   99MPD2    C3 1510   3.717   3.792   2.099 -0.0352  0.2924  0.0231
   99MPD2    C4 1511   3.792   3.700   2.169  0.1669 -0.3867  0.0902
   99MPD2    C5 1512   3.853   3.738   2.282 -0.7390  0.8439  0.0335
   99MPD2     H 1513   3.641   3.980   2.100 -0.9300  0.0196  1.8401
   99MPD2    H1 1514   3.818   3.604   2.125  2.3801  0.9884 -1.5804
   99MPD2    H2 1515   3.893   3.885   2.437  1.9788  0.4913 -1.6110
   99MPD2    H3 1516   3.910   3.662   2.335 -1.4302 -0.1365 -0.6371
   99MPD2     N 1517   3.648   3.765   1.979  0.0198 -0.0901  0.2616
   99MPD2    H5 1518   3.589   3.835   1.934  0.3606 -0.0836 -0.1776
   99MPD2    N1 1519   3.747   4.094   2.315 -0.1176  0.1508  0.1054
   99MPD2    H7 1520   3.683   4.145   2.256 -0.2344  1.7948  1.6623
  100TCq2    C1 1521   3.812   4.164   2.415 -0.4838  0.1750 -0.2352
  100TCq2    O2 1522   3.901   4.128   2.483  0.6186 -0.4915  0.2184
  100TCq2    C2 1523   3.798   4.310   2.401  0.0471  0.9126  0.7068
  100TCq2    C3 1524   3.894   4.381   2.472 -0.6762  0.0260  0.1702
  100TCq2    C4 1525   3.892   4.515   2.467  0.4382 -0.0789  0.3862
  100TCq2    C5 1526   3.799   4.580   2.388 -0.0478  0.0282 -0.0237
  100TCq2    C6 1527   3.698   4.506   2.327 -0.3508 -0.1328 -0.1517
  100TCq2    C7 1528   3.694   4.371   2.335  0.2650 -0.2748  0.1638
  100TCq2    C8 1529   3.600   4.583   2.255  0.1393  0.6761  0.3719
  100TCq2    O4 1530   3.609   4.704   2.267  0.1218 -0.0980 -0.0785
  100TCq2    C9 1531   4.005   4.586   2.532 -0.3980 -0.2535  0.3115
  100TCq2    O5 1532   3.980   4.708   2.563 -0.2813 -0.4530  0.2719
  100TCq2    O6 1533   4.107   4.516   2.558  0.0899  0.8821 -0.0784
  100TCq2    H2 1534   3.972   4.333   2.530  2.8641  1.2226 -3.6571
  100TCq2    H3 1535   3.804   4.688   2.376  1.9127 -0.0488 -0.0351
  100TCq2    H4 1536   3.608   4.313   2.303  1.8575 -2.4497 -0.2039
  101MPD2     C 1537   0.150   1.109  12.902  0.1616  0.2190  0.1236
  101MPD2    C1 1538   0.012   1.118  12.903 -0.5559  0.6865  0.4105
  101MPD2    C2 1539   4.664   1.029  12.977  0.2443  0.0978 -0.5246
  101MPD2    C3 1540   0.002   0.923  13.042 -1.1259  0.1675 -0.8380
  101MPD2    C4 1541   0.138   0.928  13.050  0.8649  0.2713 -0.1012
  101MPD2    C5 1542   0.209   1.017  12.983 -0.4331 -0.1912  0.0887
  101MPD2     H 1543   4.557   1.037  12.993  0.5477 -0.8539  2.0191
  101MPD2    H1 1544   0.189   0.851  13.107  0.5806 -0.1778 -0.4584
  101MPD2    H2 1545   0.209   1.186  12.855 -1.5934  0.6543 -1.4008
  101MPD2    H3 1546   0.316   1.025  12.991 -0.8632  2.2887  3.2840
  101MPD2     N 1547   4.645   0.832  13.111  0.5476  0.7426 -0.1685
  101MPD2    H5 1548   4.547   0.857  13.110  0.0397 -1.2565  1.3297
  101MPD2    N1 1549   4.674   1.224  12.836 -0.2875 -0.5448 -0.0334
  101MPD2    H7 1550   0.007   1.286  12.781  0.1810  0.9653  2.1576
  102TCq2    C1 1551   4.668   1.649  12.643 -0.3697 -0.0273 -1.4347
  102TCq2    O2 1552   0.053   1.635  12.701  0.4422  0.0353 -0.1311
  102TCq2    C2 1553   4.551   1.584  12.712  0.2435  0.2863 -0.2843
  102TCq2    C3 1554   4.423   1.608  12.669 -0.0687  0.5479 -0.0761
  102TCq2    C4 1555   4.330   1.510  12.684  0.0573 -0.5858 -0.6810
  102TCq2    C5 1556   4.366   1.389  12.741  0.3907 -0.1718  0.3124
  102TCq2    C6 1557   4.497   1.370  12.781 -0.3041 -0.1425 -0.6011
  102TCq2    C7 1558   4.593   1.464  12.771  0.3915 -0.4489  0.6578
  102TCq2    C8 1559   4.540   1.245  12.830 -0.1276  0.2428 -0.0056
  102TCq2    O4 1560   4.449   1.167  12.849  0.9950 -0.3749  0.2690
  102TCq2    C9 1561   4.193   1.529  12.643 -0.7366  0.2321  0.0340
  102TCq2    O5 1562   4.165   1.625  12.568 -0.0695 -0.2181 -0.3582
  102TCq2    O6 1563   4.115   1.432  12.662  0.5392  0.3845  0.6469
  102TCq2    H2 1564   4.392   1.706  12.634 -0.4896  1.0337  1.7030
  102TCq2    H3 1565   4.290   1.312  12.739  0.2457 -0.0508  1.1455
  102TCq2    H4 1566   4.697   1.447  12.796  1.1491  2.6741 -0.3231
  103TMC2    C1 1567   3.082   0.897  12.694 -0.2279  0.4221 -0.5667
  103TMC2    C2 1568   3.028   1.009  12.638  0.3375 -0.4743  0.5064
  103TMC2    C3 1569   2.974   1.098  12.724 -0.0717 -0.1588 -0.4654
  103TMC2    C4 1570   3.073   0.873  12.825  0.0338 -0.3459  0.3239
  103TMC2    C5 1571   3.024   0.970  12.909 -0.8135  0.1238 -0.1489
  103TMC2    C6 1572   2.964   1.083  12.861  0.3389  0.1984 -0.2276
  103TMC2     C 1573   3.135   0.800  12.599 -0.3007 -0.1667  0.0714
  103TMC2     O 1574   3.113   0.816  12.479 -0.1670 -0.3886 -0.5047
  103TMC2     H 1575   3.010   1.011  12.531  0.1328 -0.0750  0.5498
  103TMC2    H1 1576   3.113   0.784  12.872  1.7766  0.3931  0.2575
  103TMC2    H2 1577   2.911   1.158  12.918 -2.1256 -2.1829  0.6100
  103TMC2    C7 1578   2.982   0.928  13.048  0.1043  0.4344  1.0291
  103TMC2    C8 1579   2.893   1.211  12.673  0.3611 -0.7627  0.2040
  103TMC2    O1 1580   3.048   0.833  13.086 -0.1312 -0.5228  0.1802
  103TMC2    O2 1581   2.789   1.243  12.726 -0.4176  0.3491  0.1257
  103TMC2    O5 1582   2.976   1.281  12.601 -0.1633 -0.0603 -0.9603
  103TMC2    H5 1583   3.066   1.242  12.606 -0.2693 -0.3544 -1.3352
  104MPD2     C 1584   3.357   0.503  12.628 -0.6288 -0.5609  0.3804
  104MPD2    C1 1585   3.252   0.581  12.579  0.4487  1.0618  0.1148
  104MPD2    C2 1586   3.197   0.545  12.458 -0.2635  0.0297  0.1651
  104MPD2    C3 1587   3.247   0.436  12.389 -0.3058  0.0325  0.2833
  104MPD2    C4 1588   3.353   0.356  12.439  0.4032  0.5458 -0.3625
  104MPD2    C5 1589   3.411   0.393  12.557 -0.6307 -0.0902 -0.6737
  104MPD2     H 1590   3.111   0.595  12.414 -0.2615 -0.1069  0.0088
  104MPD2    H1 1591   3.404   0.280  12.381  0.4235  0.2062  0.1007
  104MPD2    H2 1592   3.395   0.531  12.725  1.0187 -2.7033  0.3460
  104MPD2    H3 1593   3.497   0.340  12.598 -0.7877 -0.5622 -0.9628
  104MPD2     N 1594   3.182   0.398  12.269 -1.0455  0.2300  0.2290
  104MPD2    H5 1595   3.103   0.457  12.242 -0.7135  0.9220  0.7453
  104MPD2    N1 1596   3.208   0.694  12.652 -0.4252 -0.5981  0.2937
  104MPD2    H7 1597   3.242   0.699  12.747 -0.2510  0.4093  0.1843
  105MPD2     C 1598   4.599   4.438   0.239  0.0226 -0.9070  0.2712
  105MPD2    C1 1599   4.474   4.487   0.268 -0.4150 -0.3326 -0.8176
  105MPD2    C2 1600   4.439   4.495   0.404 -0.0080  0.5251 -0.5941
  105MPD2    C3 1601   4.531   4.462   0.505 -0.1377  0.4478  0.0327
  105MPD2    C4 1602   4.651   4.411   0.472 -0.0758  0.2376  0.5712
  105MPD2    C5 1603   4.683   4.382   0.338  0.0724 -0.7049 -0.1473
  105MPD2     H 1604   4.339   4.526   0.432  0.4345 -0.3075  1.8887
  105MPD2    H1 1605   4.723   4.372   0.544 -1.0642  0.7697  1.8362
  105MPD2    H2 1606   4.627   4.421   0.135 -1.8266  1.0744 -0.5436
  105MPD2    H3 1607   0.055   4.343   0.313  1.2262  1.0842  1.5734
  105MPD2     N 1608   4.491   4.484   0.639 -0.4369  0.9045 -0.6258
  105MPD2    H5 1609   4.396   4.517   0.655 -0.9035 -1.0349  0.5371
  105MPD2    N1 1610   4.382   4.544   0.170  0.4964 -0.0162 -0.4388
  105MPD2    H7 1611   4.291   4.567   0.208  0.6904  2.1126 -1.2801
  106TCq2    C1 1612   4.573   4.491   0.755 -0.3676 -0.1587  0.4107
  106TCq2    O2 1613   4.693   4.485   0.773  0.3211  0.0016 -0.5243
  106TCq2    C2 1614   4.486   4.532   0.868 -0.4548 -0.8670 -0.0803
  106TCq2    C3 1615   4.547   4.609   0.969 -0.1725  0.5996  0.1618
  106TCq2    C4 1616   4.494   4.607   1.090 -0.3605  0.6031 -0.0492
  106TCq2    C5 1617   4.380   4.539   1.110 -0.1363 -0.3384  0.0891
  106TCq2    C6 1618   4.315   4.472   1.011 -0.4219  0.2496  0.0306
  106TCq2    C7 1619   4.370   4.459   0.886 -0.1131  0.0907 -1.0840
  106TCq2    C8 1620   4.172   4.439   1.032  0.2695  0.0763 -0.0722
  106TCq2    O4 1621   4.133   4.368   0.940 -0.1816 -0.4960  0.2129
  106TCq2    C9 1622   4.560   4.670   1.194 -0.4305 -0.4502 -0.2229
  106TCq2    O5 1623   4.488   4.720   1.283 -0.4668  0.2618 -0.0010
  106TCq2    O6 1624   4.678   4.702   1.172  0.7332  0.1407 -0.4481
  106TCq2    H2 1625   4.638   4.666   0.954 -0.1486  0.3214 -0.7989
  106TCq2    H3 1626   4.335   4.536   1.209  1.1675 -0.1976  0.6926
  106TCq2    H4 1627   4.310   4.400   0.818 -1.6155  1.2558 -0.7902
  107TMC2    C1 1628   0.643   4.269  11.686  0.1906 -0.0235 -0.8545
  107TMC2    C2 1629   0.668   4.317  11.560 -0.4680  0.3057  0.0183
  107TMC2    C3 1630   0.766   4.256  11.490 -0.2095  0.4564 -1.4537
  107TMC2    C4 1631   0.715   4.166  11.751 -0.4748  0.9127  0.2113
  107TMC2    C5 1632   0.813   4.119  11.674  0.3327 -0.6942 -0.1232
  107TMC2    C6 1633   0.842   4.159  11.547  0.1371 -0.2455  0.1145
  107TMC2     C 1634   0.530   4.324  11.758  0.2458 -0.4502  0.1936
  107TMC2     O 1635   0.521   4.298  11.875  0.1431  0.2159  0.1454
  107TMC2     H 1636   0.620   4.404  11.516  2.3774  1.7342 -0.3118
  107TMC2    H1 1637   0.685   4.129  11.849  0.2488 -1.1586 -0.3421
  107TMC2    H2 1638   0.918   4.116  11.482 -0.1320  0.6103 -0.7625
  107TMC2    C7 1639   0.875   4.005  11.724 -0.2769  0.4011 -0.6421
  107TMC2    C8 1640   0.809   4.306  11.356  0.0134 -0.0691  0.2891
  107TMC2    O1 1641   0.875   3.992  11.847 -0.0371  0.2605  0.2466
  107TMC2    O2 1642   0.916   4.275  11.308  0.5363  0.1035 -0.7547
  107TMC2    O5 1643   0.703   4.351  11.287 -0.1354  0.7265 -0.2385
  107TMC2    H5 1644   0.612   4.336  11.322 -0.2262 -0.6737 -1.0580
  108MPD2     C 1645   0.223   4.468  11.641  0.5982  1.0467  0.1693
  108MPD2    C1 1646   0.322   4.438  11.735 -0.5942  0.4244 -0.1980
  108MPD2    C2 1647   0.287   4.463  11.868  0.9717  0.2373 -0.1017
  108MPD2    C3 1648   0.169   4.523  11.906 -0.7429  0.4327  0.1981
  108MPD2    C4 1649   0.075   4.554  11.807 -0.8704 -0.0316 -0.5699
  108MPD2    C5 1650   0.105   4.523  11.674 -0.0123  0.4616 -0.6956
  108MPD2     H 1651   0.350   4.421  11.945  0.4543 -0.7524 -0.2269
  108MPD2    H1 1652   4.702   4.591  11.831 -1.2058 -0.5086 -1.1995
  108MPD2    H2 1653   0.236   4.445  11.536 -3.0245  0.4929 -0.1584
  108MPD2    H3 1654   0.032   4.547  11.598 -0.1952 -0.8735 -0.9284
  108MPD2     N 1655   0.136   4.541  12.042 -0.3716 -0.5749  0.5263
  108MPD2    H5 1656   0.045   4.575  12.068 -0.3646 -0.2358  0.1131
  108MPD2    N1 1657   0.433   4.380  11.682  0.4639 -0.2449  0.1209
  108MPD2    H7 1658   0.443   4.368  11.582 -1.1835  2.2767 -0.3444
  109MPD2     C 1659   3.776   1.113   1.980 -0.7193  0.3126 -0.4488
  109MPD2    C1 1660   3.869   1.214   1.959  0.3856 -0.3098  0.9850
  109MPD2    C2 1661   3.993   1.201   2.015  0.2483 -0.0141  0.0346
  109MPD2    C3 1662   4.031   1.081   2.071 -0.6172 -0.0655  0.1929
  109MPD2    C4 1663   3.938   0.985   2.101 -0.6617  0.5852 -0.0171
  109MPD2    C5 1664   3.809   1.001   2.055 -0.5053 -0.2526 -0.1495
  109MPD2     H 1665   4.074   1.271   1.997  0.1939 -0.1415 -0.6702
  109MPD2    H1 1666   3.964   0.892   2.150 -3.6170  0.0903  0.6140
  109MPD2    H2 1667   3.671   1.121   1.957 -0.6359 -1.6094 -1.5107
  109MPD2    H3 1668   3.721   0.938   2.061 -2.0655  1.9283 -0.0627
  109MPD2     N 1669   4.165   1.073   2.113  0.4078  0.0452  0.0344
  109MPD2    H5 1670   4.226   1.148   2.081 -0.8267  1.3210  0.6884
  109MPD2    N1 1671   3.835   1.317   1.869 -0.4520 -0.2342 -0.2540
  109MPD2    H7 1672   3.738   1.342   1.855 -0.9256 -1.6401  0.4852
  110TCq2    C1 1673   4.226   0.970   2.184  0.5363  0.4895 -0.6276
  110TCq2    O2 1674   4.175   0.867   2.216 -0.3045  0.5156 -0.0583
  110TCq2    C2 1675   4.363   1.008   2.225  0.1681  0.6179  0.9773
  110TCq2    C3 1676   4.447   0.903   2.249  0.1774 -0.2571  0.1971
  110TCq2    C4 1677   4.578   0.937   2.272  0.2805 -0.4505  0.2080
  110TCq2    C5 1678   4.623   1.062   2.278 -0.9061  0.4299  0.0780
  110TCq2    C6 1679   4.541   1.160   2.241 -0.1396 -0.0045  0.1072
  110TCq2    C7 1680   4.405   1.143   2.223 -0.0705  0.2490 -0.6505
  110TCq2    C8 1681   4.585   1.300   2.215  0.4685  0.4583  0.1755
  110TCq2    O4 1682   4.506   1.386   2.177  0.0113  0.2364  0.5085
  110TCq2    C9 1683   4.666   0.830   2.318  0.0972  0.3314 -0.0442
  110TCq2    O5 1684   4.617   0.738   2.391  0.3391  0.7827 -0.1725
  110TCq2    O6 1685   0.062   0.861   2.307 -0.3474 -0.1717  0.4656
  110TCq2    H2 1686   4.417   0.799   2.244  0.3293 -0.2707 -0.4193
  110TCq2    H3 1687   4.717   1.097   2.320  0.5295  0.0923 -2.8376
  110TCq2    H4 1688   4.342   1.229   2.204  1.2800  1.4059  0.1336
  111TMC2    C1 1689   4.622   1.468  11.680  0.4706  0.7259  0.0511
  111TMC2    C2 1690   4.509   1.424  11.741  0.3251 -0.5790 -0.6113
  111TMC2    C3 1691   4.515   1.322  11.829  0.3997 -0.1662 -0.0802
  111TMC2    C4 1692   0.018   1.419  11.722  0.0931  0.5636 -0.4705
  111TMC2    C5 1693   0.015   1.319  11.817 -0.0747 -0.1770 -0.0448
  111TMC2    C6 1694   4.630   1.273  11.879  0.2101  0.2557  1.2333
  111TMC2     C 1695   4.607   1.553  11.560 -0.1062 -0.5509  0.0738
  111TMC2     O 1696   4.694   1.534  11.468 -0.3293 -0.6184  0.0386
  111TMC2     H 1697   4.410   1.458  11.713  0.5797 -1.1626 -2.1701
  111TMC2    H1 1698   0.106   1.449  11.666  0.2694  0.3509 -0.3099
  111TMC2    H2 1699   4.621   1.198  11.957  0.8374 -3.2005 -2.0720
  111TMC2    C7 1700   0.134   1.250  11.859  0.0973  0.1354 -0.5377
  111TMC2    C8 1701   4.400   1.303  11.914 -0.5861 -0.3047 -0.0912
  111TMC2    O1 1702   0.133   1.217  11.975 -0.2177  0.2207 -0.0358
  111TMC2    O2 1703   4.383   1.198  11.968  0.1217  0.1557 -0.9184
  111TMC2    O5 1704   4.392   1.428  11.974  0.2126  0.0265  0.5320
  111TMC2    H5 1705   4.415   1.498  11.909 -1.7799 -0.2553 -0.4834
  112MPD2     C 1706   4.406   1.926  11.295 -0.4914 -0.3345  0.6095
  112MPD2    C1 1707   4.495   1.826  11.255  0.3550 -0.0437 -0.6273
  112MPD2    C2 1708   4.520   1.728  11.345 -0.5480 -0.1695 -0.7802
  112MPD2    C3 1709   4.456   1.728  11.471 -1.0025 -0.2948  0.4729
  112MPD2    C4 1710   4.375   1.828  11.511 -0.2546 -0.0759  0.0450
  112MPD2    C5 1711   4.345   1.923  11.420 -0.2415 -0.3661 -0.3434
  112MPD2     H 1712   4.577   1.639  11.322 -0.8917 -0.5150 -0.2964
  112MPD2    H1 1713   4.343   1.840  11.614  1.0820 -0.0598  0.4700
  112MPD2    H2 1714   4.377   2.002  11.223 -0.4650 -0.2335  0.7051
  112MPD2    H3 1715   4.270   1.998  11.444 -0.2270 -0.8211  1.0870
  112MPD2     N 1716   4.503   1.644  11.571 -0.1572  0.9967  0.2823
  112MPD2    H5 1717   4.452   1.648  11.658  1.2945 -0.0541  1.1828
  112MPD2    N1 1718   4.559   1.822  11.131  0.8550  0.2905  0.1525
  112MPD2    H7 1719   4.624   1.746  11.110  1.1600  1.5561 -3.5064
  113MPD2     C 1720   2.780   0.006   0.547  0.5643 -0.1192 -0.4129
  113MPD2    C1 1721   2.766   4.666   0.668 -0.3549 -0.0508 -0.3276
  113MPD2    C2 1722   2.698   4.545   0.669  0.2860  0.4637 -0.3014
  113MPD2    C3 1723   2.652   4.486   0.555 -0.2601 -1.0787  0.5180
  113MPD2    C4 1724   2.675   4.551   0.442  0.1517  0.5829 -0.2073
  113MPD2    C5 1725   2.734   4.674   0.437 -0.2860 -0.2965 -0.6564
  113MPD2     H 1726   2.678   4.501   0.766  0.6631 -0.2393 -0.5402
  113MPD2    H1 1727   2.660   4.505   0.345 -1.0424 -0.6361  0.5659
  113MPD2    H2 1728   2.811   0.110   0.544  0.4538 -0.1979 -3.8666
  113MPD2    H3 1729   2.748   4.723   0.341 -2.6771 -0.4194 -1.0566
  113MPD2     N 1730   2.588   4.363   0.548 -0.8079  0.0928  0.4805
  113MPD2    H5 1731   2.570   4.323   0.456  1.4012 -1.1931  0.5940
  113MPD2    N1 1732   2.825   4.715   0.784  0.1394 -0.0713 -0.2484
  113MPD2    H7 1733   2.823   4.650   0.862 -0.6941 -0.9388 -0.9805
  114TCq2    C1 1734   2.554   4.279   0.656 -0.1783  0.3509 -0.3344
  114TCq2    O2 1735   2.576   4.290   0.779 -0.1916  0.0409  0.6198
  114TCq2    C2 1736   2.480   4.150   0.610  0.5386  0.1491  0.2587
  114TCq2    C3 1737   2.440   4.143   0.478  0.2258 -0.5286 -0.0667
  114TCq2    C4 1738   2.342   4.054   0.446 -0.0284 -0.3431 -0.2234
  114TCq2    C5 1739   2.289   3.976   0.541  0.1013  0.2898  0.0407
  114TCq2    C6 1740   2.343   3.976   0.665  0.0350  0.4731  0.7329
  114TCq2    C7 1741   2.437   4.066   0.700  0.6272 -0.5116 -0.6105
  114TCq2    C8 1742   2.305   3.884   0.765 -0.1966  0.4388  0.3607
  114TCq2    O4 1743   2.369   3.894   0.869  0.0787  0.3191 -0.3321
  114TCq2    C9 1744   2.274   4.068   0.315 -0.1912 -1.3810  0.1798
  114TCq2    O5 1745   2.323   4.151   0.229 -0.0938 -0.4404  0.1000
  114TCq2    O6 1746   2.155   4.030   0.314  0.4646 -0.2605 -0.3402
  114TCq2    H2 1747   2.465   4.218   0.405 -1.3041  0.2760  0.2236
  114TCq2    H3 1748   2.206   3.912   0.514 -0.8353  0.6794  1.9726
  114TCq2    H4 1749   2.484   4.059   0.797 -0.1568 -1.2150 -0.2825
  115TMC2    C1 1750   3.715   1.943   0.288 -0.5832  0.4288  0.0729
  115TMC2    C2 1751   3.847   1.908   0.315  0.3001  0.3863 -0.7071
  115TMC2    C3 1752   3.936   2.009   0.288 -0.4130 -0.0587  0.1409
  115TMC2    C4 1753   3.687   2.071   0.243  0.0670  0.3036  0.7968
  115TMC2    C5 1754   3.777   2.162   0.203  0.4514  0.0429 -0.1013
  115TMC2    C6 1755   3.906   2.130   0.230 -0.3599  1.1654  0.1696
  115TMC2     C 1756   3.621   1.836   0.286  0.3591 -0.3285 -0.1635
  115TMC2     O 1757   3.661   1.724   0.301  0.6667  0.7230  0.2897
  115TMC2     H 1758   3.881   1.809   0.341 -1.1608  0.5737  1.8632
  115TMC2    H1 1759   3.588   2.099   0.211  0.0823  1.0040  1.3767
  115TMC2    H2 1760   3.982   2.206   0.212  2.2466 -1.3956  0.2335
  115TMC2    C7 1761   3.745   2.291   0.152  0.0183 -0.2877 -0.3144
  115TMC2    C8 1762   4.073   1.995   0.345  0.3462  0.2469  0.8355
  115TMC2    O1 1763   3.630   2.327   0.165 -0.3748 -0.2980 -0.3359
  115TMC2    O2 1764   4.171   2.056   0.298  0.5928  0.2621  0.0577
  115TMC2    O5 1765   4.060   1.933   0.468  0.3339 -0.3878  0.2066
  115TMC2    H5 1766   3.972   1.893   0.483  0.7480 -0.7764  1.5948
  116MPD2     C 1767   3.168   1.659   0.131 -0.4739  0.4562  0.1394
  116MPD2    C1 1768   3.297   1.603   0.127  0.3890  0.8939 -1.0684
  116MPD2    C2 1769   3.405   1.675   0.173  0.4241 -0.1050  0.6853
  116MPD2    C3 1770   3.386   1.803   0.218 -0.2380 -0.0820  0.5701
  116MPD2    C4 1771   3.261   1.856   0.224 -0.1304 -0.2734 -0.5645
  116MPD2    C5 1772   3.150   1.786   0.185  0.1365  0.0402 -0.4682
  116MPD2     H 1773   3.505   1.638   0.154  0.4692  0.7331 -0.7407
  116MPD2    H1 1774   3.252   1.949   0.278 -3.7525 -0.2792 -1.1972
  116MPD2    H2 1775   3.083   1.598   0.106  2.5130 -4.1496  1.2606
  116MPD2    H3 1776   3.051   1.831   0.181 -0.4912 -1.4287 -1.5632
  116MPD2     N 1777   3.491   1.882   0.266 -0.5824  0.7567 -0.1137
  116MPD2    H5 1778   3.466   1.977   0.289 -1.7756  0.6585 -0.9716
  116MPD2    N1 1779   3.308   1.474   0.063 -0.1992 -0.7883  0.8252
  116MPD2    H7 1780   3.219   1.442   0.026 -1.1499  3.5142 -0.6279
  117TMC2    C1 1781   2.175   3.504  14.122  0.1121  0.5019 -0.5903
  117TMC2    C2 1782   2.211   3.433  14.233  0.2904 -0.0581  0.2305
  117TMC2    C3 1783   2.318   3.475  14.312 -0.6035 -0.6546 -0.6880
  117TMC2    C4 1784   2.238   3.623  14.094  0.9872 -0.0183 -0.1895
  117TMC2    C5 1785   2.359   3.647  14.155 -1.1425  0.1605 -0.5764
  117TMC2    C6 1786   2.399   3.576  14.268 -0.2866  0.0426  0.2141
  117TMC2     C 1787   2.057   3.456  14.051  0.5873  0.3657 -0.6204
  117TMC2     O 1788   2.035   3.337  14.039  0.6386  0.6490  0.0716
  117TMC2     H 1789   2.158   3.341  14.257 -3.4749  2.0365  0.0433
  117TMC2    H1 1790   2.212   3.668  13.999  4.7889 -0.5629 -1.5100
  117TMC2    H2 1791   2.467   3.624  14.338  1.1464 -0.7850 -0.5893
  117TMC2    C7 1792   2.434   3.778  14.124  0.1280  0.8187 -0.5772
  117TMC2    C8 1793   2.331   3.428  14.448  0.1168 -0.3038 -0.4639
  117TMC2    O1 1794   2.371   3.854  14.047  0.0383 -0.1097  0.6845
  117TMC2    O2 1795   2.232   3.389  14.510 -0.0222 -0.0364 -0.2137
  117TMC2    O5 1796   2.453   3.381  14.469 -0.3519  0.5675  0.3362
  117TMC2    H5 1797   2.512   3.389  14.391  0.4633 -0.3751  0.8510
  118MPD2     C 1798   2.735   3.937  14.274  0.3379  0.6090 -0.7029
  118MPD2    C1 1799   2.645   3.900  14.181 -0.3818 -0.8667 -0.3562
  118MPD2    C2 1800   2.642   3.971  14.060 -0.3172  0.9174  0.1572
  118MPD2    C3 1801   2.737   4.072  14.042 -0.5300  0.2763 -0.2509
  118MPD2    C4 1802   2.831   4.105  14.139  0.5045  0.9526 -0.2864
  118MPD2    C5 1803   2.829   4.035  14.253 -0.8139 -0.2132 -0.3947
  118MPD2     H 1804   2.580   3.936  13.978 -0.7952  1.1447  0.4257
  118MPD2    H1 1805   2.893   4.194  14.133 -0.9615  1.8831 -1.5467
  118MPD2    H2 1806   2.726   3.896  14.374  0.0715  1.7179 -0.2694
  118MPD2    H3 1807   2.886   4.057  14.342 -5.2516  0.7518  2.2012
  118MPD2     N 1808   2.746   4.136  13.921  0.4551  0.2057  0.0033
  118MPD2    H5 1809   2.814   4.210  13.910  2.1232 -1.2838  0.3267
  118MPD2    N1 1810   2.556   3.794  14.198 -0.2395 -0.3729  0.7405
  118MPD2    H7 1811   2.581   3.727  14.270  1.2623  0.3992  0.9534
  119MPD2     C 1812   0.847   4.441  13.555  0.1630  0.2941 -0.5488
  119MPD2    C1 1813   0.760   4.542  13.571  0.4196  0.4335  0.6354
  119MPD2    C2 1814   0.624   4.515  13.537  0.7622 -0.1758 -0.1106
  119MPD2    C3 1815   0.588   4.385  13.501  0.1930  0.7409  0.7925
  119MPD2    C4 1816   0.683   4.286  13.493 -0.0005 -0.2788  0.2779
  119MPD2    C5 1817   0.813   4.321  13.499 -0.8486 -1.1209  0.3995
  119MPD2     H 1818   0.541   4.584  13.550 -0.2623 -1.6364  0.9750
  119MPD2    H1 1819   0.652   4.190  13.454  0.6184 -1.2213  2.1240
  119MPD2    H2 1820   0.950   4.460  13.583 -0.3594  0.8152  1.0426
  119MPD2    H3 1821   0.896   4.253  13.487 -1.2901 -1.5860 -0.0201
  119MPD2     N 1822   0.456   4.348  13.492 -0.2782  0.3585  0.6377
  119MPD2    H5 1823   0.390   4.418  13.526 -0.5525 -0.1731  1.1930
  119MPD2    N1 1824   0.801   4.659  13.639  0.9406  0.4904  0.3839
  119MPD2    H7 1825   0.895   4.667  13.675  1.0056 -1.2245  0.5834
  120TCq2    C1 1826   0.408   4.253  13.406  0.2314  0.1771 -0.3438
  120TCq2    O2 1827   0.467   4.170  13.340 -0.2952 -0.5449  0.0694
  120TCq2    C2 1828   0.262   4.262  13.383 -0.3248  0.3478  0.7159
  120TCq2    C3 1829   0.214   4.267  13.251 -0.3347 -0.1585 -0.7011
  120TCq2    C4 1830   0.088   4.315  13.232 -0.9159  0.1184 -0.2086
  120TCq2    C5 1831   0.017   4.351  13.340 -0.0999  0.1533 -0.0978
  120TCq2    C6 1832   0.059   4.337  13.468 -0.2283  0.2186 -0.3832
  120TCq2    C7 1833   0.185   4.287  13.493 -0.2645 -0.0350  0.1737
  120TCq2    C8 1834   4.706   4.414  13.566  0.8535  0.0819  0.2487
  120TCq2    O4 1835   4.596   4.460  13.530  0.3183 -0.0203  0.4372
  120TCq2    C9 1836   0.037   4.327  13.093 -0.0521 -0.4289 -0.7762
  120TCq2    O5 1837   0.129   4.323  13.012  0.3637 -0.2006  0.3686
  120TCq2    O6 1838   4.638   4.343  13.075 -0.5555 -0.4154 -0.3677
  120TCq2    H2 1839   0.279   4.233  13.172 -0.3581 -0.7111 -0.4784
  120TCq2    H3 1840   4.645   4.393  13.320  1.6268  2.4915 -3.6143
  120TCq2    H4 1841   0.230   4.295  13.591  2.6810 -0.2943 -1.1780
  121TMC2    C1 1842   2.206   1.886  14.334  0.2518 -0.3020  0.4439
  121TMC2    C2 1843   2.243   1.819  14.449 -0.0975 -1.0055  0.0540
  121TMC2    C3 1844   2.189   1.695  14.466 -0.4972  0.3158  0.6441
  121TMC2    C4 1845   2.119   1.834  14.245  0.8693  0.4351  0.5959
  121TMC2    C5 1846   2.076   1.711  14.265  0.7780 -0.1747  0.1945
  121TMC2    C6 1847   2.114   1.633  14.369  0.4894  0.3646  0.6587
  121TMC2     C 1848   2.313   1.974  14.291 -0.3477 -0.7645  0.3513
  121TMC2     O 1849   2.418   1.976  14.356  0.1487 -0.6517 -0.2753
  121TMC2     H 1850   2.314   1.859  14.520 -1.0637 -0.8646  0.9360
  121TMC2    H1 1851   2.085   1.884  14.155 -0.6033  0.2449  1.0511
  121TMC2    H2 1852   2.081   1.531  14.382  2.7022 -0.1940  1.9287
  121TMC2    C7 1853   2.011   1.642  14.163 -1.0198 -0.1293  0.1585
  121TMC2    C8 1854   2.256   1.611  14.566  0.5772  0.3675  0.0632
  121TMC2    O1 1855   2.010   1.524  14.165  0.1634 -0.1109  0.1666
  121TMC2    O2 1856   2.356   1.639  14.627  0.3239  0.1965  0.1837
  121TMC2    O5 1857   2.166   1.522  14.606  0.4454 -0.4680 -0.1352
  121TMC2    H5 1858   2.074   1.537  14.576  0.0075  0.3442  1.6110
  122MPD2     C 1859   2.505   2.161  14.146 -0.4730 -0.9819  0.3638
  122MPD2    C1 1860   2.376   2.123  14.100  0.2402 -0.2953 -0.3567
  122MPD2    C2 1861   2.341   2.150  13.967  0.5757 -0.1470 -0.0463
  122MPD2    C3 1862   2.436   2.218  13.893  0.0504 -0.0813 -0.2943
  122MPD2    C4 1863   2.554   2.269  13.948 -0.3005  0.2227  0.7436
  122MPD2    C5 1864   2.590   2.239  14.077 -0.7356 -1.1873 -0.2079
  122MPD2     H 1865   2.247   2.118  13.923 -0.5612  1.3209  1.3236
  122MPD2    H1 1866   2.621   2.331  13.891 -2.6098  2.1286  0.0825
  122MPD2    H2 1867   2.546   2.133  14.242 -0.8468 -0.0307  0.7976
  122MPD2    H3 1868   2.681   2.283  14.117 -2.0472 -0.9414  2.4771
  122MPD2     N 1869   2.425   2.253  13.758  0.3354  0.1829 -0.1449
  122MPD2    H5 1870   2.484   2.330  13.730 -0.1043  0.4239 -0.4196
  122MPD2    N1 1871   2.285   2.044  14.173 -0.0257  0.1232 -0.3344
  122MPD2    H7 1872   2.198   2.029  14.122  0.5869  0.1536 -1.4058
  123MPD2     C 1873   0.089   3.592   9.318 -0.3147  0.1219 -0.1786
  123MPD2    C1 1874   0.106   3.623   9.452  0.3093  0.4782 -0.4393
  123MPD2    C2 1875   0.228   3.677   9.490 -0.5177 -0.5051  0.0204
  123MPD2    C3 1876   0.327   3.701   9.395 -0.1706 -0.0287 -0.0857
  123MPD2    C4 1877   0.313   3.660   9.266 -0.8371 -0.0773 -0.0801
  123MPD2    C5 1878   0.193   3.614   9.230  0.3512  0.3509 -0.5344
  123MPD2     H 1879   0.238   3.713   9.592 -3.4587  1.8017 -0.4876
  123MPD2    H1 1880   0.385   3.679   9.188  0.2763 -1.4500  0.6101
  123MPD2    H2 1881   4.724   3.543   9.284  1.8096 -1.8340 -3.0121
  123MPD2    H3 1882   0.180   3.586   9.127  1.3855 -2.3626  0.0733
  123MPD2     N 1883   0.444   3.776   9.440 -0.2598 -0.5367  0.1930
  123MPD2    H5 1884   0.454   3.789   9.541  0.1640  2.4187 -0.2312
  123MPD2    N1 1885   4.721   3.599   9.546 -0.6430  0.2146 -0.5918
  123MPD2    H7 1886   4.632   3.580   9.500 -1.8006 -0.7833  2.1015
  124TCq2    C1 1887   0.547   3.820   9.362  0.0556 -0.2817 -0.2870
  124TCq2    O2 1888   0.559   3.805   9.239  0.1191 -0.3970 -0.3882
  124TCq2    C2 1889   0.637   3.918   9.425 -0.3124  1.2877 -0.0463
  124TCq2    C3 1890   0.698   4.012   9.339  0.5624  0.2646 -0.0469
  124TCq2    C4 1891   0.743   4.124   9.397 -0.4216  0.0953  0.4302
  124TCq2    C5 1892   0.727   4.154   9.529  0.7197 -0.0361 -0.2888
  124TCq2    C6 1893   0.678   4.053   9.610 -0.4387  0.1128  0.1981
  124TCq2    C7 1894   0.622   3.939   9.561  0.2413 -0.2858  0.2599
  124TCq2    C8 1895   0.696   4.066   9.755 -0.1976  0.0907  0.7164
  124TCq2    O4 1896   0.646   3.983   9.827  0.6080  0.0205 -0.1853
  124TCq2    C9 1897   0.812   4.213   9.307 -0.4855 -1.0015 -0.2013
  124TCq2    O5 1898   0.799   4.198   9.183  0.2082 -0.8489 -0.6240
  124TCq2    O6 1899   0.850   4.321   9.364 -0.7884  0.4052  0.1629
  124TCq2    H2 1900   0.697   3.996   9.232 -0.3558  0.8905 -0.1339
  124TCq2    H3 1901   0.761   4.251   9.562 -2.5623  0.1623  2.4274
  124TCq2    H4 1902   0.578   3.864   9.625 -1.0130  0.4654  0.2767
  125TMC2    C1 1903   1.028   1.064   9.748  1.1505 -0.2078 -0.1004
  125TMC2    C2 1904   0.931   1.062   9.651 -0.3094  0.0357  0.4819
  125TMC2    C3 1905   0.899   1.184   9.596 -0.6648  0.0638  0.6090
  125TMC2    C4 1906   1.068   1.183   9.813 -0.2846 -0.0540  0.7012
  125TMC2    C5 1907   1.026   1.301   9.759 -0.8833 -0.0747 -0.0479
  125TMC2    C6 1908   0.950   1.302   9.645  0.2492  0.4094 -0.0449
  125TMC2     C 1909   1.111   0.947   9.760 -0.1219  0.6424  0.1811
  125TMC2     O 1910   1.063   0.849   9.706 -0.1734  0.1925  0.7203
  125TMC2     H 1911   0.907   0.973   9.595 -1.9592  1.0551 -0.4155
  125TMC2    H1 1912   1.150   1.187   9.883  2.6409 -0.1930 -2.6740
  125TMC2    H2 1913   0.900   1.393   9.615 -1.3128  0.2574  2.1122
  125TMC2    C7 1914   1.086   1.425   9.804 -1.0116  0.1155 -0.0725
  125TMC2    C8 1915   0.854   1.183   9.454  0.1299  0.0149  0.2486
  125TMC2    O1 1916   1.083   1.512   9.720  0.3424  0.3987 -0.5632
  125TMC2    O2 1917   0.782   1.095   9.412 -0.8049 -0.1168 -0.1460
  125TMC2    O5 1918   0.970   1.212   9.387 -0.0457  0.0959  0.0515
  125TMC2    H5 1919   1.041   1.246   9.445 -0.0584 -1.6940  1.0984
  126MPD1     C 1920   1.553   0.692   9.748  0.1254 -0.8067 -0.3588
  126MPD1    C1 1921   1.578   0.825   9.750  0.9044 -1.1121  0.0613
  126MPD1    C2 1922   1.477   0.915   9.766  0.0442 -0.0885  0.0175
  126MPD1    C3 1923   1.342   0.878   9.763 -0.7088 -0.7778 -0.0901
  126MPD1    C4 1924   1.316   0.742   9.758 -0.3471 -0.8300  0.0162
  126MPD1    C5 1925   1.420   0.652   9.752  0.2938 -0.7019 -0.7468
  126MPD1     H 1926   1.505   1.020   9.776  0.8342 -0.1546 -1.4505
  126MPD1    H1 1927   1.213   0.711   9.771 -1.1536  1.1407 -1.5799
  126MPD1    H2 1928   1.626   0.612   9.744  1.0096  0.0173 -0.7013
  126MPD1    H3 1929   1.393   0.548   9.763  0.6725 -0.6435  0.7530
  126MPD1     N 1930   1.243   0.977   9.776 -0.0421 -0.3701  0.2092
  126MPD1    H5 1931   1.270   1.075   9.784  0.0888 -0.5528  2.0330
  126MPD1    N1 1932   1.716   0.869   9.764  0.0967  0.5061  0.5222
  126MPD1    H6 1933   1.783   0.795   9.743 -0.2684  0.2543  0.2608
  126MPD1    H7 1934   1.732   0.941   9.694 -1.2705 -0.1191 -0.4394
  127MPD2     C 1935   2.305   0.933   9.386  0.3016 -0.1393  0.2239
  127MPD2    C1 1936   2.411   0.902   9.463  0.6960 -0.1633  0.5009
  127MPD2    C2 1937   2.483   0.993   9.536  0.4565  0.5130  0.2144
  127MPD2    C3 1938   2.447   1.128   9.530 -0.3733 -0.0641 -0.0262
  127MPD2    C4 1939   2.337   1.159   9.453 -0.4487 -0.2920  0.4846
  127MPD2    C5 1940   2.267   1.063   9.388 -0.0825  0.6888  0.5089
  127MPD2     H 1941   2.570   0.964   9.593  0.3742  1.6174  0.9122
  127MPD2    H1 1942   2.297   1.259   9.445  1.2617  0.5071  1.8806
  127MPD2    H2 1943   2.260   0.864   9.315 -2.8888  0.2021  1.9145
  127MPD2    H3 1944   2.184   1.087   9.323 -0.6450  0.0214  0.9820
  127MPD2     N 1945   2.519   1.226   9.610  0.1771  0.0728 -0.9025
  127MPD2    H5 1946   2.607   1.192   9.648  0.2469  0.3849 -0.7864
  127MPD2    N1 1947   2.431   0.765   9.484  0.2038 -0.4359  0.0439
  127MPD2    H7 1948   2.363   0.710   9.433 -1.9490  0.6391  1.7555
  128TCq2    C1 1949   2.536   0.706   9.549 -0.6938  0.0623  0.7579
  128TCq2    O2 1950   2.637   0.756   9.593  0.2527 -0.6210  0.2030
  128TCq2    C2 1951   2.521   0.560   9.549  0.2340  0.3002 -0.6726
  128TCq2    C3 1952   2.629   0.482   9.575 -0.2924 -0.1533  0.4717
  128TCq2    C4 1953   2.612   0.347   9.598  0.1805  0.6938 -0.0833
  128TCq2    C5 1954   2.484   0.283   9.591 -0.1178 -0.2048 -0.2980
  128TCq2    C6 1955   2.380   0.367   9.558 -0.1375 -0.8384  0.1973
  128TCq2    C7 1956   2.396   0.504   9.549  0.0678 -0.3641  0.1130
  128TCq2    C8 1957   2.244   0.318   9.508 -0.1739  0.1614  0.2668
  128TCq2    O4 1958   2.180   0.404   9.452  0.5530  0.1778  0.2171
  128TCq2    C9 1959   2.724   0.271   9.636 -0.8891  0.4265  0.2788
  128TCq2    O5 1960   2.825   0.339   9.669  0.2902  0.4407  0.0028
  128TCq2    O6 1961   2.701   0.148   9.662 -0.4047 -0.0332  0.0020
  128TCq2    H2 1962   2.727   0.528   9.572 -1.8001  3.1131  1.5297
  128TCq2    H3 1963   2.475   0.177   9.611 -0.0311 -0.3155 -0.8379
  128TCq2    H4 1964   2.309   0.561   9.520 -0.3156 -0.9799  0.0564
  129MPD2     C 1965   0.200   1.798   1.547  0.4258  0.5790  0.0939
  129MPD2    C1 1966   0.302   1.704   1.549  0.3853  0.4738  0.8888
  129MPD2    C2 1967   0.423   1.729   1.484 -0.1185 -0.0590 -0.1253
  129MPD2    C3 1968   0.440   1.850   1.413  0.5282 -0.4916  0.0269
  129MPD2    C4 1969   0.334   1.941   1.410  0.2379  0.2655 -0.0192
  129MPD2    C5 1970   0.213   1.917   1.469  0.5047  0.4885  0.0079
  129MPD2     H 1971   0.505   1.658   1.494  1.1174  1.1249 -2.0175
  129MPD2    H1 1972   0.344   2.025   1.342  1.2092 -0.5139 -0.8440
  129MPD2    H2 1973   0.102   1.783   1.591  0.1371 -1.9095 -1.3769
  129MPD2    H3 1974   0.126   1.981   1.466 -0.5871 -0.9237  1.0901
  129MPD2     N 1975   0.560   1.871   1.345 -0.0484 -0.0677  0.2493
  129MPD2    H5 1976   0.634   1.805   1.365 -1.5500 -1.5651  0.8445
  129MPD2    N1 1977   0.294   1.589   1.622  0.0109 -0.1139  0.4178
  129MPD2    H7 1978   0.370   1.521   1.615 -0.1892 -0.3118  0.1575
  130TCq2    C1 1979   0.183   1.543   1.682  0.2017  0.6643  0.0353
  130TCq2    O2 1980   0.071   1.588   1.685 -0.6778 -0.0964 -0.1080
  130TCq2    C2 1981   0.213   1.432   1.779 -0.5374  0.3901  0.4064
  130TCq2    C3 1982   0.340   1.385   1.795 -0.1643 -0.3659 -0.6067
  130TCq2    C4 1983   0.347   1.264   1.861  0.3244  0.3185 -0.0728
  130TCq2    C5 1984   0.235   1.188   1.901  0.0724 -0.1213  0.5736
  130TCq2    C6 1985   0.117   1.250   1.890 -0.5015  0.1309 -0.3537
  130TCq2    C7 1986   0.104   1.372   1.830 -1.1873 -0.6624 -0.4398
  130TCq2    C8 1987   0.000   1.163   1.876  0.5951 -0.4137 -0.7382
  130TCq2    O4 1988   4.618   1.212   1.841  0.2652 -0.3615  0.4991
  130TCq2    C9 1989   0.476   1.208   1.894  0.2092 -0.7758  0.3403
  130TCq2    O5 1990   0.481   1.086   1.921  0.2052 -0.1060  0.5973
  130TCq2    O6 1991   0.578   1.281   1.861  0.3862 -0.2679  0.1209
  130TCq2    H2 1992   0.430   1.431   1.754 -1.4315  1.7830 -1.0169
  130TCq2    H3 1993   0.250   1.095   1.955 -0.3029 -1.0872 -1.0090
  130TCq2    H4 1994   0.004   1.414   1.823 -0.0955  2.2635  1.5147
  131MPD2     C 1995   4.485   4.341  10.099  0.0442 -0.0549 -0.1834
  131MPD2    C1 1996   4.563   4.327   9.980 -0.7849 -0.1212  0.2551
  131MPD2    C2 1997   4.562   4.208   9.909  0.5956  0.3657 -1.0197
  131MPD2    C3 1998   4.470   4.112   9.949  0.1637  0.2278 -0.5048
  131MPD2    C4 1999   4.386   4.135  10.056  0.0113 -0.8368  0.0503
  131MPD2    C5 2000   4.394   4.248  10.133 -0.2757  0.6049  0.0325
  131MPD2     H 2001   4.624   4.200   9.821  0.0334  2.4126 -1.5973
  131MPD2    H1 2002   4.324   4.060  10.103  2.2483 -1.5461  1.8665
  131MPD2    H2 2003   4.477   4.436  10.151  0.4936 -0.5378  0.7779
  131MPD2    H3 2004   4.335   4.261  10.222 -0.5659  0.2379 -0.1102
  131MPD2     N 2005   4.468   3.982   9.887  0.2526  0.1379  0.4964
  131MPD2    H5 2006   4.540   3.964   9.818 -0.3185 -0.2487  0.0077
  131MPD2    N1 2007   4.644   4.438   9.960 -0.9953  0.2528  0.5083
  131MPD2    H7 2008   4.624   4.512  10.026 -0.6377 -0.0247  0.9213
  132TCq2    C1 2009   0.349   0.049   9.736 -0.3275 -0.5265 -0.0365
  132TCq2    O2 2010   0.375   4.703   9.636  0.0507 -0.4021  0.0848
  132TCq2    C2 2011   0.219   0.021   9.797  0.1050  0.1170 -0.3366
  132TCq2    C3 2012   0.162   0.122   9.867 -0.0998 -0.0812  0.7306
  132TCq2    C4 2013   0.042   0.096   9.925 -0.3083 -0.3092  0.4141
  132TCq2    C5 2014   4.715   4.697   9.922 -0.1099  0.3548 -0.6752
  132TCq2    C6 2015   0.054   4.597   9.854  0.1775  0.7922  0.5788
  132TCq2    C7 2016   0.169   4.621   9.791  0.0890 -0.0647 -0.2670
  132TCq2    C8 2017   0.005   4.460   9.856  0.3148  0.5110  0.0445
  132TCq2    O4 2018   0.054   4.379   9.778  0.2526  0.1481 -0.0132
  132TCq2    C9 2019   4.692   0.196   9.994  0.2849 -0.9963 -0.7262
  132TCq2    O5 2020   4.572   0.158  10.025 -0.0982  0.1644 -0.0995
  132TCq2    O6 2021   0.012   0.311  10.013 -0.1955 -0.2774  0.0056
  132TCq2    H2 2022   0.191   0.227   9.866  2.9536 -0.8953  2.1341
  132TCq2    H3 2023   4.620   4.686   9.972  0.3282  0.8246  0.2598
  132TCq2    H4 2024   0.223   4.543   9.739 -1.5936 -0.2238 -1.7489
  133MPD2     C 2025   4.263   1.110   9.253  1.2454 -0.6407 -0.2016
  133MPD2    C1 2026   4.146   1.114   9.329 -0.2884  0.3707  0.2631
  133MPD2    C2 2027   4.075   0.997   9.354  0.4955 -0.6913  0.4270
  133MPD2    C3 2028   4.127   0.879   9.319 -0.7249 -0.8272  0.2766
  133MPD2    C4 2029   4.249   0.879   9.247 -0.2604  0.0684 -0.3803
  133MPD2    C5 2030   4.304   0.991   9.202 -0.7688 -0.1874  0.3949
  133MPD2     H 2031   3.983   1.002   9.411  0.3894 -1.7809  0.3635
  133MPD2    H1 2032   4.299   0.787   9.221 -0.4353 -0.6288  1.7257
  133MPD2    H2 2033   4.312   1.203   9.227 -0.5957  0.3395 -0.1634
  133MPD2    H3 2034   4.384   0.984   9.130 -2.4544 -0.1199 -1.4992
  133MPD2     N 2035   4.069   0.753   9.358  0.4755 -0.1096 -0.2351
  133MPD2    H5 2036   4.131   0.679   9.326  1.1488  1.5454 -2.7553
  133MPD2    N1 2037   4.120   1.242   9.373 -0.4447  0.0354 -0.2935
  133MPD2    H7 2038   4.193   1.311   9.357  2.3480 -2.1554  2.8136
  134TCq2    C1 2039   3.997   1.278   9.421  0.0478  0.2375 -0.5268
  134TCq2    O2 2040   3.895   1.215   9.442  0.2471 -0.2747 -0.1438
  134TCq2    C2 2041   3.993   1.427   9.431 -0.1172  0.6194  0.2055
  134TCq2    C3 2042   4.109   1.483   9.470  0.4210  0.6088 -0.5669
  134TCq2    C4 2043   4.112   1.612   9.455  0.6032  0.2670  0.3387
  134TCq2    C5 2044   4.013   1.685   9.392  0.2747  0.2666  0.8477
  134TCq2    C6 2045   3.895   1.620   9.353 -0.6449  0.3753  0.4049
  134TCq2    C7 2046   3.884   1.488   9.374 -0.0631 -0.5238 -0.7063
  134TCq2    C8 2047   3.778   1.678   9.296  0.1016 -0.4298 -0.2949
  134TCq2    O4 2048   3.698   1.602   9.240  0.0399 -0.3384 -0.1801
  134TCq2    C9 2049   4.233   1.681   9.494 -0.3913 -0.1510 -0.0792
  134TCq2    O5 2050   4.315   1.613   9.569 -0.0372 -0.3491 -0.2441
  134TCq2    O6 2051   4.258   1.774   9.413 -0.6147 -0.2599  0.2972
  134TCq2    H2 2052   4.194   1.433   9.515 -1.1594 -1.8628 -0.3277
  134TCq2    H3 2053   4.021   1.791   9.369 -0.7646 -0.0373 -0.9736
  134TCq2    H4 2054   3.791   1.433   9.365  0.4816 -1.3732 -1.0550
  135MPD2     C 2055   2.438   2.250   9.770  0.4971  0.4809 -0.2889
  135MPD2    C1 2056   2.346   2.212   9.673  0.3919  0.9036  0.0195
  135MPD2    C2 2057   2.378   2.108   9.597 -0.3873 -0.2984  0.1424
  135MPD2    C3 2058   2.500   2.046   9.603  0.5094 -0.1540 -0.1927
  135MPD2    C4 2059   2.595   2.087   9.694  0.2597  0.0077  0.1182
  135MPD2    C5 2060   2.557   2.185   9.793  0.2948  0.4755 -0.3236
  135MPD2     H 2061   2.303   2.066   9.530 -0.9068 -1.6968  1.6100
  135MPD2    H1 2062   2.677   2.025   9.728  0.1214  0.7036  1.7356
  135MPD2    H2 2063   2.400   2.309   9.853 -1.1569  1.3160 -1.6448
  135MPD2    H3 2064   2.615   2.212   9.881  0.6598 -3.4022  0.6294
  135MPD2     N 2065   2.529   1.933   9.522  0.1744 -0.1510  0.7947
  135MPD2    H5 2066   2.626   1.907   9.528  0.8667  1.5614 -2.8400
  135MPD2    N1 2067   2.216   2.277   9.672  0.0019 -0.3861  0.1200
  135MPD2    H7 2068   2.209   2.363   9.726 -0.2368 -0.9456  0.9642
  136TCq2    C1 2069   2.112   2.252   9.583 -0.3895  0.2502 -0.1419
  136TCq2    O2 2070   2.109   2.184   9.482  0.4486  0.3740 -0.9146
  136TCq2    C2 2071   1.988   2.327   9.616 -0.5678  0.2659  0.9504
  136TCq2    C3 2072   1.964   2.377   9.748  0.1426  0.0520  0.0881
  136TCq2    C4 2073   1.850   2.449   9.774 -0.2992 -0.8827  0.5507
  136TCq2    C5 2074   1.749   2.431   9.688 -0.0516  0.2792  0.2414
  136TCq2    C6 2075   1.770   2.376   9.563  0.5049 -0.2498 -0.0877
  136TCq2    C7 2076   1.885   2.322   9.522 -0.2207 -0.2944  0.2900
  136TCq2    C8 2077   1.659   2.302   9.509  0.1997 -0.1905 -0.1679
  136TCq2    O4 2078   1.666   2.274   9.390 -0.6448  0.0414  0.1586
  136TCq2    C9 2079   1.821   2.503   9.907 -0.6339  0.7103 -0.3538
  136TCq2    O5 2080   1.909   2.507   9.993  0.1815  0.1238 -0.1462
  136TCq2    O6 2081   1.702   2.514   9.933 -0.2062  0.1570  0.4811
  136TCq2    H2 2082   2.044   2.376   9.821  1.1475 -2.1515 -1.0510
  136TCq2    H3 2083   1.654   2.481   9.699 -0.3730 -0.7369  2.0260
  136TCq2    H4 2084   1.898   2.277   9.424  0.2666  0.1547  0.1507
  137MPD2     C 2085   1.726   1.237   9.826  0.9143 -0.3420 -0.1945
  137MPD2    C1 2086   1.814   1.215   9.935  0.5907  0.0935 -0.5070
  137MPD2    C2 2087   1.854   1.329  10.002 -0.2822  0.4032 -0.3401
  137MPD2    C3 2088   1.826   1.458   9.953  0.0142 -0.0586  0.6366
  137MPD2    C4 2089   1.747   1.469   9.840  0.0658 -0.3219  0.0728
  137MPD2    C5 2090   1.698   1.361   9.774  0.2738  0.0470  0.0551
  137MPD2     H 2091   1.918   1.312  10.087 -3.4361 -0.2306  1.8857
  137MPD2    H1 2092   1.724   1.570   9.807  1.9203 -0.7098 -2.4470
  137MPD2    H2 2093   1.687   1.152   9.773  1.0973  1.8236 -3.8269
  137MPD2    H3 2094   1.643   1.372   9.682  0.8077 -0.0220 -0.2730
  137MPD2     N 2095   1.866   1.565  10.039  0.1356  0.0741  0.3559
  137MPD2    H5 2096   1.919   1.540  10.122 -0.3950 -3.1189 -0.2728
  137MPD2    N1 2097   1.835   1.081   9.981  0.3725 -0.1953  0.4123
  137MPD2    H7 2098   1.776   1.013   9.934  1.8645 -0.0321 -1.7293
  138TCq2    C1 2099   1.930   1.051  10.076 -0.1446 -0.4175 -0.0028
  138TCq2    O2 2100   2.020   1.116  10.135  0.3718  0.1059  0.6746
  138TCq2    C2 2101   1.941   0.907  10.099  0.1013 -0.3409 -0.4817
  138TCq2    C3 2102   2.057   0.861  10.156 -0.0589 -0.1531  0.3601
  138TCq2    C4 2103   2.070   0.727  10.183 -0.3283 -0.7849 -0.5046
  138TCq2    C5 2104   1.965   0.644  10.161 -0.0956 -0.1065  0.0569
  138TCq2    C6 2105   1.853   0.689  10.095  0.2623  0.2104 -0.9306
  138TCq2    C7 2106   1.831   0.826  10.067  0.2704  0.1116 -1.0803
  138TCq2    C8 2107   1.746   0.590  10.082  0.4461 -0.0905 -0.5544
  138TCq2    O4 2108   1.798   0.478  10.081 -0.1688  0.3971  0.0479
  138TCq2    C9 2109   2.192   0.694  10.253 -0.3093 -1.1163  0.2754
  138TCq2    O5 2110   2.180   0.619  10.355  0.1056  0.5355 -0.1827
  138TCq2    O6 2111   2.289   0.774  10.233 -0.4072 -0.1912 -0.2136
  138TCq2    H2 2112   2.140   0.926  10.179 -0.7663  0.5873  0.8090
  138TCq2    H3 2113   1.985   0.540  10.186  0.0879 -0.0927 -0.0287
  138TCq2    H4 2114   1.740   0.866  10.025  0.3139 -0.1003 -1.3702
  139TMC2    C1 2115   2.000   3.790  13.323 -0.4181 -0.0366 -0.3468
  139TMC2    C2 2116   1.889   3.781  13.240  0.0447 -0.3353 -0.7068
  139TMC2    C3 2117   1.826   3.898  13.207  0.5523 -0.1168 -0.7707
  139TMC2    C4 2118   2.028   3.913  13.387  0.7190 -0.3964 -0.2473
  139TMC2    C5 2119   1.965   4.029  13.345  0.0296  0.4312  0.0583
  139TMC2    C6 2120   1.859   4.025  13.251  0.0661 -0.0422 -0.6055
  139TMC2     C 2121   2.103   3.694  13.317 -0.8759  0.4965 -0.3346
  139TMC2     O 2122   2.068   3.603  13.244 -0.1478 -0.0207 -0.1399
  139TMC2     H 2123   1.860   3.689  13.189 -2.3561  0.4700 -0.7994
  139TMC2    H1 2124   2.104   3.918  13.464  0.1509  1.6974  0.1891
  139TMC2    H2 2125   1.806   4.111  13.213 -1.4335 -0.7784 -0.1703
  139TMC2    C7 2126   2.039   4.149  13.374 -0.3577  0.8560 -0.2774
  139TMC2    C8 2127   1.718   3.874  13.115 -0.3176 -0.0776  0.2051
  139TMC2    O1 2128   2.142   4.132  13.434 -0.1004 -0.5297  0.0382
  139TMC2    O2 2129   1.657   3.769  13.120 -0.0481 -0.5159  0.3033
  139TMC2    O5 2130   1.731   3.955  13.011 -0.5747 -0.0828  0.0209
  139TMC2    H5 2131   1.810   4.013  13.008 -1.6381  1.3671 -0.3120
  140MPD2     C 2132   2.429   3.687  13.490 -0.2921 -0.1053  0.3138
  140MPD2    C1 2133   2.331   3.641  13.402  0.1527  0.2773  0.3792
  140MPD2    C2 2134   2.378   3.567  13.299 -0.2265 -0.5824 -0.4096
  140MPD2    C3 2135   2.502   3.512  13.292 -0.5047 -0.7918 -0.5628
  140MPD2    C4 2136   2.590   3.537  13.391 -0.6253  0.1754  0.4548
  140MPD2    C5 2137   2.553   3.636  13.480 -0.0735 -0.3125  0.3820
  140MPD2     H 2138   2.311   3.543  13.218 -0.4978  0.5680 -0.5329
  140MPD2    H1 2139   2.688   3.490  13.398  0.1664  1.6941 -0.2484
  140MPD2    H2 2140   2.413   3.761  13.567  1.7616  0.0515  0.5838
  140MPD2    H3 2141   2.637   3.673  13.537  1.7873 -1.2957 -1.7528
  140MPD2     N 2142   2.534   3.430  13.185 -0.1311 -1.1661  0.2389
  140MPD2    H5 2143   2.458   3.419  13.118 -1.3869 -1.5754  1.7395
  140MPD2    N1 2144   2.209   3.712  13.406 -0.1536  0.2541  0.1977
  140MPD2    H7 2145   2.212   3.794  13.465 -0.4142  0.6419 -0.3333
  141TCq2    C1 2146   2.944   0.486  14.174  1.0693  0.5795  0.2768
  141TCq2    O2 2147   2.830   0.515  14.136 -0.0763  0.2456 -0.2684
  141TCq2    C2 2148   3.007   0.587  14.252  0.1857 -0.3990  0.6355
  141TCq2    C3 2149   3.097   0.545  14.349 -0.6900  0.5065  0.1475
  141TCq2    C4 2150   3.174   0.640  14.408  0.3205 -0.0781  0.3424
  141TCq2    C5 2151   3.179   0.771  14.365  0.5817  0.1487  0.1448
  141TCq2    C6 2152   3.093   0.803  14.257 -0.0638 -0.0506 -0.1851
  141TCq2    C7 2153   2.997   0.711  14.213 -0.7921 -0.0865  0.9754
  141TCq2    C8 2154   3.084   0.940  14.201  0.1989 -0.0871  0.0582
  141TCq2    O4 2155   3.013   0.961  14.101 -0.1761  0.3118 -0.5281
  141TCq2    C9 2156   3.261   0.611  14.516  0.3720 -0.5500  0.4397
  141TCq2    O5 2157   3.280   0.491  14.539 -0.3494  0.5403 -1.0085
  141TCq2    O6 2158   3.304   0.706  14.584  0.3410  0.0167 -0.0056
  141TCq2    H2 2159   3.116   0.442  14.378 -1.4880  0.0986 -0.7735
  141TCq2    H3 2160   3.260   0.835  14.400 -1.7158  2.3148  1.5417
  141TCq2    H4 2161   2.935   0.728  14.126 -0.1856  1.0609  0.7723
  142MPD2     C 2162   0.407   3.626  11.051 -0.4806 -0.2981 -0.4761
  142MPD2    C1 2163   0.401   3.617  10.911 -0.3950 -0.0923 -0.5842
  142MPD2    C2 2164   0.435   3.729  10.829  0.4154 -0.1634 -0.1059
  142MPD2    C3 2165   0.475   3.850  10.886 -0.2813 -0.4717  0.2045
  142MPD2    C4 2166   0.482   3.853  11.021 -0.4935  0.5478  0.2633
  142MPD2    C5 2167   0.434   3.750  11.104  0.9547 -0.0084 -0.2021
  142MPD2     H 2168   0.438   3.724  10.721  1.0635 -0.7381 -0.0600
  142MPD2    H1 2169   0.510   3.943  11.076 -1.8545  1.7001 -0.9378
  142MPD2    H2 2170   0.374   3.545  11.115 -2.5643 -0.0807 -1.2447
  142MPD2    H3 2171   0.424   3.764  11.211 -1.7143 -0.1114 -0.4444
  142MPD2     N 2172   0.513   3.967  10.816 -0.2625  0.1821 -0.4731
  142MPD2    H5 2173   0.562   4.047  10.857 -0.7667  0.9068 -1.2844
  142MPD2    N1 2174   0.373   3.488  10.858  0.0097  0.0566  0.3203
  142MPD2    H7 2175   0.372   3.411  10.923  0.9807 -0.6812 -0.5491
  143TCq2    C1 2176   0.458   3.995  10.698  0.6441  0.6229  0.4628
  143TCq2    O2 2177   0.388   3.929  10.625  0.6204 -0.3061 -0.1398
  143TCq2    C2 2178   0.523   4.100  10.632  0.3936  0.0567 -1.0580
  143TCq2    C3 2179   0.580   4.203  10.706 -0.7903 -0.0100 -0.3757
  143TCq2    C4 2180   0.648   4.305  10.640  0.6163 -0.3930 -0.7395
  143TCq2    C5 2181   0.651   4.307  10.503 -0.0231  0.5392 -0.4770
  143TCq2    C6 2182   0.598   4.200  10.433 -0.0620 -0.1078  0.0407
  143TCq2    C7 2183   0.531   4.095  10.495  0.3993  0.7525 -0.3418
  143TCq2    C8 2184   0.621   4.187  10.293 -0.5387  0.2506  0.0593
  143TCq2    O4 2185   0.553   4.107  10.228  0.0928  0.0259  0.1364
  143TCq2    C9 2186   0.708   4.419  10.720  0.0956 -0.7541 -0.7062
  143TCq2    O5 2187   0.720   4.402  10.847  0.2347  0.1129  0.0693
  143TCq2    O6 2188   0.725   4.526  10.661 -0.4768  0.1718  0.6648
  143TCq2    H2 2189   0.585   4.197  10.814 -0.9521 -1.4265 -0.4409
  143TCq2    H3 2190   0.722   4.373  10.455 -1.4344  2.5460  0.1912
  143TCq2    H4 2191   0.485   4.014  10.440 -1.6184  0.4415  1.8493
  144MPD2     C 2192   2.548   3.601   0.833  0.1634 -0.7140 -0.0664
  144MPD2    C1 2193   2.575   3.468   0.803  0.0754  0.4063 -0.5994
  144MPD2    C2 2194   2.649   3.394   0.892 -0.1383  0.4456  0.2276
  144MPD2    C3 2195   2.724   3.451   0.994 -0.1004 -0.2895  0.5479
  144MPD2    C4 2196   2.699   3.585   1.020  0.1276  0.5818  0.0645
  144MPD2    C5 2197   2.613   3.652   0.944 -0.2351 -0.3011 -1.0454
  144MPD2     H 2198   2.637   3.287   0.880 -0.3412  0.4696  0.2089
  144MPD2    H1 2199   2.744   3.639   1.103  1.7307  0.1327 -0.4999
  144MPD2    H2 2200   2.503   3.671   0.763  0.1185 -0.5213  0.1560
  144MPD2    H3 2201   2.598   3.759   0.956 -0.2841 -0.3526 -0.6356
  144MPD2     N 2202   2.797   3.385   1.090  0.1705 -0.2173  0.4047
  144MPD2    H5 2203   2.839   3.435   1.167  1.9010 -1.3556  0.2023
  144MPD2    N1 2204   2.520   3.402   0.698 -0.7535  0.2861  0.1814
  144MPD2    H7 2205   2.534   3.302   0.690  2.7941  0.9000 -1.3068
  145TCq2    C1 2206   2.839   3.254   1.086 -0.8007  0.0923 -0.1033
  145TCq2    O2 2207   2.827   3.166   0.999  0.0185  0.2054  0.4309
  145TCq2    C2 2208   2.941   3.223   1.187 -0.1751  0.0169 -0.2808
  145TCq2    C3 2209   3.027   3.112   1.165 -0.6734  0.4597  0.0286
  145TCq2    C4 2210   3.086   3.060   1.274 -0.5509  0.6789  0.0250
  145TCq2    C5 2211   3.064   3.104   1.400 -0.0080 -0.1709 -0.2103
  145TCq2    C6 2212   2.987   3.207   1.426 -0.2274 -0.1747 -0.0242
  145TCq2    C7 2213   2.919   3.272   1.320  0.4575  0.1112  0.6979
  145TCq2    C8 2214   3.004   3.278   1.553 -0.1403  0.7251  0.1393
  145TCq2    O4 2215   3.030   3.216   1.654  0.0303 -0.6131 -0.4130
  145TCq2    C9 2216   3.175   2.946   1.241  0.6622 -0.0497 -0.3838
  145TCq2    O5 2217   3.188   2.916   1.123 -0.8835 -0.0755 -0.0530
  145TCq2    O6 2218   3.219   2.890   1.345  0.4726 -0.0118  0.2924
  145TCq2    H2 2219   3.042   3.067   1.068  1.2655  2.7598 -0.7311
  145TCq2    H3 2220   3.111   3.053   1.484  2.8251 -0.9077 -2.2349
  145TCq2    H4 2221   2.853   3.354   1.343  1.5701  1.1779  0.1057
  146TMC2    C1 2222   0.205   1.918  12.080 -0.2877  0.4487 -0.4650
  146TMC2    C2 2223   0.126   1.916  11.966  0.4727  0.7685  0.2622
  146TMC2    C3 2224   0.153   1.818  11.873 -0.9163 -0.4999 -0.6927
  146TMC2    C4 2225   0.304   1.834  12.103  0.0376 -0.0312 -0.1876
  146TMC2    C5 2226   0.326   1.734  12.009  1.0012 -0.6040  0.2026
  146TMC2    C6 2227   0.254   1.733  11.892  0.0377  0.3064  0.0655
  146TMC2     C 2228   0.155   2.006  12.184  0.4064  0.3855  0.4641
  146TMC2     O 2229   0.095   2.102  12.138  0.0014  0.3612 -0.2113
  146TMC2     H 2230   0.049   1.992  11.951  1.1663  1.0643 -1.9072
  146TMC2    H1 2231   0.376   1.845  12.183 -0.5516 -1.2766  0.5278
  146TMC2    H2 2232   0.265   1.658  11.814 -2.4960  0.6110 -0.5907
  146TMC2    C7 2233   0.439   1.644  12.013  0.6846 -0.8010 -0.2733
  146TMC2    C8 2234   0.045   1.777  11.792 -1.1808 -0.5016 -0.3605
  146TMC2    O1 2235   0.460   1.598  11.898  0.0366 -0.1963  0.1681
  146TMC2    O2 2236   4.656   1.812  11.801 -0.4426  0.4447  0.3041
  146TMC2    O5 2237   0.092   1.738  11.672  0.1740 -0.2946 -0.6765
  146TMC2    H5 2238   0.187   1.714  11.669 -0.1132 -1.5850  0.3213
  147MPD2     C 2239   0.838   1.417  12.213  0.2983  0.7329 -1.0183
  147MPD2    C1 2240   0.776   1.488  12.316  0.3904  0.7426  0.8836
  147MPD2    C2 2241   0.666   1.554  12.287 -0.2308  0.1442 -0.5050
  147MPD2    C3 2242   0.623   1.555  12.157 -0.1844  0.0038  0.0117
  147MPD2    C4 2243   0.673   1.484  12.051  0.1537 -0.2098 -0.4209
  147MPD2    C5 2244   0.781   1.410  12.089 -0.1876  0.4118  0.4055
  147MPD2     H 2245   0.610   1.609  12.361  2.1091  0.8307  0.7558
  147MPD2    H1 2246   0.640   1.488  11.948 -0.4514 -1.5074 -0.2698
  147MPD2    H2 2247   0.935   1.370  12.225  0.7566  1.8630 -0.2137
  147MPD2    H3 2248   0.835   1.363  12.008 -0.8554 -1.0972  0.8472
  147MPD2     N 2249   0.502   1.627  12.134  0.2074  0.9272 -0.0510
  147MPD2    H5 2250   0.462   1.670  12.218 -2.9686 -0.1661 -1.0196
  147MPD2    N1 2251   0.840   1.482  12.438 -0.3603 -0.3655  0.4808
  147MPD2    H7 2252   0.939   1.457  12.439 -0.5189 -1.1293 -3.1287
  148MPD2     C 2253   0.726   0.580  10.260  0.4753  0.7455  0.4835
  148MPD2    C1 2254   0.669   0.455  10.257 -0.0081  0.5772  0.4302
  148MPD2    C2 2255   0.550   0.421  10.327 -0.4680  0.2887  0.6070
  148MPD2    C3 2256   0.483   0.528  10.397  0.1329  0.3622 -0.6300
  148MPD2    C4 2257   0.531   0.658  10.390  0.1962 -0.1308 -0.3006
  148MPD2    C5 2258   0.655   0.681  10.332  0.7332 -0.2561 -0.0020
  148MPD2     H 2259   0.538   0.315  10.342  0.5534  0.2450  1.0951
  148MPD2    H1 2260   0.472   0.736  10.438 -2.8011 -2.2300 -0.5904
  148MPD2    H2 2261   0.819   0.594  10.207 -0.6249  1.2618 -1.3267
  148MPD2    H3 2262   0.704   0.777  10.343 -1.4516  0.7394  1.0837
  148MPD2     N 2263   0.366   0.496  10.472 -0.2556 -0.3907 -0.3221
  148MPD2    H5 2264   0.322   0.570  10.526 -0.6833 -1.0515  0.2317
  148MPD2    N1 2265   0.729   0.351  10.187  0.5265 -0.8983  0.5844
  148MPD2    H7 2266   0.679   0.262  10.183 -0.6415 -0.3042  1.7772
  149TCq2    C1 2267   0.864   0.347  10.162  0.1402 -0.0441  0.9859
  149TCq2    O2 2268   0.954   0.429  10.163  0.2521  0.5497 -0.1539
  149TCq2    C2 2269   0.896   0.217  10.103 -0.3838  0.0123  0.0203
  149TCq2    C3 2270   1.001   0.209  10.012 -0.2834 -0.1806 -0.2567
  149TCq2    C4 2271   1.027   0.084   9.959  0.0402  0.2001  0.0324
  149TCq2    C5 2272   0.937   4.710   9.973  0.9446 -0.4658 -0.1498
  149TCq2    C6 2273   0.831   4.725  10.053  0.0624 -0.4474  0.2333
  149TCq2    C7 2274   0.820   0.111  10.125  0.5440 -1.0148  0.0086
  149TCq2    C8 2275   0.720   4.633  10.073 -0.2096  0.4910  0.3640
  149TCq2    O4 2276   0.684   4.616  10.188 -0.2104  0.8108  0.1598
  149TCq2    C9 2277   1.110   0.072   9.844 -0.7348  0.4580 -0.6842
  149TCq2    O5 2278   1.151   0.184   9.800  0.1674  0.1195 -0.1873
  149TCq2    O6 2279   1.106   4.691   9.779 -0.5708 -0.3897  0.2400
  149TCq2    H2 2280   1.053   0.295   9.972  0.9296 -0.4744  0.6913
  149TCq2    H3 2281   0.958   4.621   9.915  1.2232 -1.2191  1.1011
  149TCq2    H4 2282   0.743   0.110  10.201 -0.7825 -0.0308 -1.3164
  150MPD2     C 2283   1.956   4.367  12.140  0.4594  0.1280 -0.4140
  150MPD2    C1 2284   1.919   4.475  12.061 -0.0240 -0.1774  0.2757
  150MPD2    C2 2285   1.982   4.598  12.088 -0.3730  0.5337  0.3146
  150MPD2    C3 2286   2.075   4.606  12.190 -0.2591 -0.2111 -0.4362
  150MPD2    C4 2287   2.100   4.497  12.266  0.6421  0.2714  0.7153
  150MPD2    C5 2288   2.051   4.373  12.234  0.0868  0.4515 -0.5971
  150MPD2     H 2289   1.961   4.688  12.031  0.0080  0.8720  0.7065
  150MPD2    H1 2290   2.157   4.508  12.357 -0.2473 -0.8889  1.4183
  150MPD2    H2 2291   1.912   4.270  12.120 -0.9666  0.7990 -0.5204
  150MPD2    H3 2292   2.087   4.290  12.294  0.8369  1.7871  0.8138
  150MPD2     N 2293   2.131   0.006  12.206  0.2304  0.1272 -0.6837
  150MPD2    H5 2294   2.099   0.085  12.151 -0.6133  0.6634  0.5715
  150MPD2    N1 2295   1.819   4.463  11.961 -0.2839  0.4356 -0.5277
  150MPD2    H7 2296   1.773   4.373  11.954 -2.1578  1.3575  0.0253
  151TCq2    C1 2297   2.238   0.033  12.291 -0.0647 -0.0853  0.3456
  151TCq2    O2 2298   2.311   4.671  12.334  0.3939 -0.3302  0.0069
  151TCq2    C2 2299   2.253   0.173  12.316 -0.4431 -0.8910 -0.9830
  151TCq2    C3 2300   2.195   0.272  12.232  0.4895 -0.1938 -0.4278
  151TCq2    C4 2301   2.261   0.398  12.221  0.0266  0.2987 -0.2155
  151TCq2    C5 2302   2.378   0.430  12.283  0.6127 -0.3249  0.4528
  151TCq2    C6 2303   2.430   0.335  12.368 -0.5468 -0.2146  0.0599
  151TCq2    C7 2304   2.369   0.209  12.384  0.2102  0.5728 -0.1178
  151TCq2    C8 2305   2.554   0.373  12.437 -0.1927  1.0463 -0.8266
  151TCq2    O4 2306   2.566   0.496  12.443 -0.1982  0.2106  0.9214
  151TCq2    C9 2307   2.203   0.496  12.128  0.2408  0.3926 -0.0110
  151TCq2    O5 2308   2.094   0.469  12.084 -0.0691 -0.7518 -0.1936
  151TCq2    O6 2309   2.264   0.603  12.101 -0.3417  0.2503 -0.0295
  151TCq2    H2 2310   2.114   0.253  12.163 -1.3479  0.2521  1.5993
  151TCq2    H3 2311   2.428   0.522  12.258 -0.9396 -0.1710 -2.0944
  151TCq2    H4 2312   2.410   0.131  12.448  1.0879 -0.8570 -2.3975
  152MPD2     C 2313   1.643   4.205  12.802  0.3141 -0.0514 -0.4986
  152MPD2    C1 2314   1.648   4.310  12.704 -0.0104  0.2074 -0.7936
  152MPD2    C2 2315   1.533   4.369  12.656 -0.5854  0.6730 -0.3164
  152MPD2    C3 2316   1.411   4.335  12.713 -0.3711 -0.7405 -0.0886
  152MPD2    C4 2317   1.413   4.239  12.808  0.1435 -0.9569  0.5015
  152MPD2    C5 2318   1.525   4.167  12.856  0.2493  0.1800  0.1860
  152MPD2     H 2319   1.546   4.441  12.577  0.1054  0.5002 -0.3554
  152MPD2    H1 2320   1.323   4.214  12.864  0.2329  0.6510  1.3715
  152MPD2    H2 2321   1.736   4.152  12.821  0.1860 -0.9425 -2.3951
  152MPD2    H3 2322   1.533   4.094  12.936 -2.4146  0.7905  1.0013
  152MPD2     N 2323   1.296   4.405  12.674 -0.0778  0.0150  0.3134
  152MPD2    H5 2324   1.316   4.494  12.628  0.6411 -0.9925 -1.2980
  152MPD2    N1 2325   1.777   4.348  12.664  0.9479  0.8971 -0.2609
  152MPD2    H7 2326   1.852   4.292  12.702 -0.4955 -1.0423 -0.2699
  153TCq2    C1 2327   1.814   4.447  12.576  0.6706  0.4041 -0.3541
  153TCq2    O2 2328   1.747   4.524  12.508  0.0795 -0.5992  0.6516
  153TCq2    C2 2329   1.960   4.464  12.583 -0.2176  0.3160  0.2032
  153TCq2    C3 2330   2.035   4.362  12.623 -0.4558  0.5897 -0.5934
  153TCq2    C4 2331   2.164   4.385  12.658  0.1855  0.4854 -0.2301
  153TCq2    C5 2332   2.213   4.511  12.658  0.2552  0.5614 -0.4004
  153TCq2    C6 2333   2.129   4.619  12.632 -0.1158  0.3233 -0.9045
  153TCq2    C7 2334   2.006   4.596  12.592 -0.6776  1.2243  0.8335
  153TCq2    C8 2335   2.171   0.031  12.639  0.0167  0.6356 -0.2308
  153TCq2    O4 2336   2.097   0.113  12.599  0.1982 -0.7214 -0.3760
  153TCq2    C9 2337   2.241   4.276  12.696 -0.6106  0.4452 -0.8483
  153TCq2    O5 2338   2.198   4.154  12.684 -0.0647  0.1740  0.0685
  153TCq2    O6 2339   2.332   4.310  12.770 -0.1708  0.4521  0.3008
  153TCq2    H2 2340   2.007   4.259  12.606  1.0144 -0.0406  0.7927
  153TCq2    H3 2341   2.318   4.531  12.676  0.2462 -0.2438  0.4911
  153TCq2    H4 2342   1.938   4.678  12.571 -1.8340  0.5019  1.7284
  154MPD2     C 2343   3.780   3.929   0.569  0.2950 -0.3388 -0.0686
  154MPD2    C1 2344   3.725   3.986   0.680  0.6412 -0.3478  0.3427
  154MPD2    C2 2345   3.761   4.113   0.714  1.0464 -0.1056  0.1748
  154MPD2    C3 2346   3.854   4.180   0.638  0.2348  0.1231  0.2062
  154MPD2    C4 2347   3.915   4.118   0.532  0.0858 -0.7309 -1.1219
  154MPD2    C5 2348   3.881   3.991   0.509  0.5538 -0.5656  0.4579
  154MPD2     H 2349   3.733   4.163   0.806 -0.6056 -0.4111 -0.1634
  154MPD2    H1 2350   3.998   4.161   0.476 -0.1684  1.6107  0.2792
  154MPD2    H2 2351   3.754   3.828   0.542 -0.6121 -0.2549  0.4857
  154MPD2    H3 2352   3.922   3.944   0.420 -0.6031  0.3228 -0.5324
  154MPD2     N 2353   3.883   4.307   0.684  0.2524 -0.1794  0.1078
  154MPD2    H5 2354   3.829   4.350   0.758  1.5179  2.8941 -0.7597
  154MPD2    N1 2355   3.625   3.907   0.733 -0.1961  0.0083 -0.1644
  154MPD2    H7 2356   3.608   3.815   0.693  0.1807 -0.7425  1.4143
  155TCq2    C1 2357   3.549   3.941   0.841  0.4538  0.8816  0.6882
  155TCq2    O2 2358   3.532   4.053   0.898  0.7010  0.0603 -0.1761
  155TCq2    C2 2359   3.481   3.827   0.899  0.4024  0.0310  0.2833
  155TCq2    C3 2360   3.373   3.856   0.984  0.0370 -0.5823  0.0826
  155TCq2    C4 2361   3.319   3.747   1.040  0.4018  0.1075 -0.4728
  155TCq2    C5 2362   3.371   3.618   1.016 -0.0238  0.8795  0.6148
  155TCq2    C6 2363   3.466   3.591   0.917 -1.3616  0.2300 -0.1599
  155TCq2    C7 2364   3.531   3.703   0.867 -0.4559 -0.2275  0.2594
  155TCq2    C8 2365   3.534   3.463   0.895 -0.0181 -0.2410  0.1398
  155TCq2    O4 2366   3.540   3.371   0.979 -0.2339 -0.3774  0.0856
  155TCq2    C9 2367   3.226   3.762   1.148 -0.6885  0.2591  0.1337
  155TCq2    O5 2368   3.198   3.668   1.227 -0.4841 -0.0641 -0.9997
  155TCq2    O6 2369   3.201   3.882   1.177 -0.0022 -0.5360  0.3605
  155TCq2    H2 2370   3.338   3.955   1.015  1.5982 -0.0881  0.2662
  155TCq2    H3 2371   3.348   3.539   1.087  0.0375  0.5056  0.2212
  155TCq2    H4 2372   3.621   3.692   0.807  0.2471  1.1898  1.0637
  156MPD2     C 2373   2.366   2.012  11.543 -0.7994 -0.2172  0.4988
  156MPD2    C1 2374   2.232   2.022  11.517  0.1936  0.6249 -0.2997
  156MPD2    C2 2375   2.157   2.069  11.625  1.0238 -0.1516 -0.2132
  156MPD2    C3 2376   2.206   2.099  11.748 -0.3475 -0.4679  0.1084
  156MPD2    C4 2377   2.341   2.098  11.771 -0.6909  0.2163 -0.1472
  156MPD2    C5 2378   2.417   2.053  11.663  0.1532  0.6355  0.4239
  156MPD2     H 2379   2.050   2.083  11.619  0.7785 -2.1339 -0.4866
  156MPD2    H1 2380   2.392   2.122  11.864  2.2191  1.7355 -2.1405
  156MPD2    H2 2381   2.437   1.977  11.469 -0.6477  0.9751  0.0757
  156MPD2    H3 2382   2.524   2.043  11.676 -0.2822 -0.2736  3.3595
  156MPD2     N 2383   2.113   2.145  11.838  0.1478 -0.1983  0.2518
  156MPD2    H5 2384   2.015   2.151  11.810 -0.3164  1.5703  2.2671
  156MPD2    N1 2385   2.184   1.989  11.389 -0.5395  0.5970 -0.8452
  156MPD2    H7 2386   2.237   1.930  11.326  1.5232  2.0621 -0.4968
  157TCq2    C1 2387   2.051   2.016  11.353  0.5262  0.8431  0.4236
  157TCq2    O2 2388   1.974   2.103  11.395  0.3919  0.1359 -0.3564
  157TCq2    C2 2389   2.010   1.970  11.222 -0.8200 -0.3493  0.4864
  157TCq2    C3 2390   2.064   1.866  11.152 -0.2409  0.2303 -0.0102
  157TCq2    C4 2391   2.016   1.841  11.021  0.9984 -0.1210 -0.1677
  157TCq2    C5 2392   1.914   1.907  10.969  0.7530  0.4558  0.6011
  157TCq2    C6 2393   1.870   2.012  11.043 -0.0086  0.2160  0.8661
  157TCq2    C7 2394   1.909   2.043  11.169  0.3232 -0.3335 -0.6008
  157TCq2    C8 2395   1.764   2.095  10.978  0.0748 -0.0391 -0.4950
  157TCq2    O4 2396   1.711   2.043  10.881 -0.2724  0.2591 -0.2346
  157TCq2    C9 2397   2.080   1.736  10.937  0.0713  0.2766 -0.2211
  157TCq2    O5 2398   2.030   1.718  10.824  0.0718  0.4695  0.5170
  157TCq2    O6 2399   2.174   1.668  10.985 -0.1710  0.2192  0.2132
  157TCq2    H2 2400   2.137   1.798  11.194  0.2380  0.3237 -0.6855
  157TCq2    H3 2401   1.877   1.873  10.872  0.2192 -4.4949  2.5447
  157TCq2    H4 2402   1.858   2.122  11.223 -2.1157 -1.2650 -1.5306
  158TMC2    C1 2403   1.699   1.234  13.380 -1.1354 -0.1192 -0.2047
  158TMC2    C2 2404   1.725   1.294  13.259 -0.5531  0.4205 -0.1999
  158TMC2    C3 2405   1.650   1.255  13.159  0.0208  0.3047 -0.1443
  158TMC2    C4 2406   1.597   1.145  13.394  0.1500  0.2700  0.0741
  158TMC2    C5 2407   1.519   1.119  13.289  0.4830  0.5637  0.2194
  158TMC2    C6 2408   1.541   1.174  13.167 -0.6889  0.1632 -0.3883
  158TMC2     C 2409   1.806   1.246  13.476  0.7912 -0.2053  0.1376
  158TMC2     O 2410   1.898   1.319  13.451  0.3114  0.2392 -0.1040
  158TMC2     H 2411   1.799   1.374  13.254 -1.9317  1.7242  0.1477
  158TMC2    H1 2412   1.563   1.102  13.487  0.2669 -0.5688 -0.2687
  158TMC2    H2 2413   1.474   1.146  13.086 -0.1952  1.4534 -1.2500
  158TMC2    C7 2414   1.412   1.023  13.297 -0.2444 -0.0119  0.0580
  158TMC2    C8 2415   1.687   1.326  13.040 -0.2291  0.1756 -0.7316
  158TMC2    O1 2416   1.330   1.024  13.208  0.3057  0.1103  0.0534
  158TMC2    O2 2417   1.796   1.377  13.025 -0.1546 -0.2957  0.3456
  158TMC2    O5 2418   1.580   1.345  12.961  0.1095  0.1556  0.1099
  158TMC2    H5 2419   1.510   1.286  12.995 -1.0441  1.4546 -0.0094
  159MPD2     C 2420   2.009   1.212  13.949 -0.0753  1.2668  1.0483
  159MPD2    C1 2421   1.875   1.181  13.959  0.5492 -0.5219  0.2299
  159MPD2    C2 2422   1.801   1.186  13.840 -0.8068 -0.0292  0.3727
  159MPD2    C3 2423   1.854   1.208  13.713 -0.5800 -0.0406 -0.4035
  159MPD2    C4 2424   1.992   1.238  13.711  0.6409 -0.3420 -0.2066
  159MPD2    C5 2425   2.063   1.245  13.829 -0.6086  0.1605  0.2641
  159MPD2     H 2426   1.695   1.164  13.842 -0.5447 -1.6592 -3.4916
  159MPD2    H1 2427   2.037   1.250  13.612 -0.2956 -0.8887 -0.6975
  159MPD2    H2 2428   2.060   1.221  14.044 -0.0872  1.7761  1.0042
  159MPD2    H3 2429   2.169   1.264  13.819  0.0799 -3.4173  0.6087
  159MPD2     N 2430   1.773   1.197  13.603  0.5841 -0.1379  0.8491
  159MPD2    H5 2431   1.679   1.163  13.617  0.7766 -0.1323  2.1262
  159MPD2    N1 2432   1.829   1.130  14.080  0.8627  0.0884  0.1794
  159MPD2    H7 2433   1.897   1.112  14.153  2.4878 -0.8635 -1.5519
  160TMC2    C1 2434   2.114   4.202   1.644 -0.0155 -0.5275 -0.3016
  160TMC2    C2 2435   2.207   4.120   1.712 -0.5952  0.2861  0.6110
  160TMC2    C3 2436   2.267   4.026   1.631 -0.7532 -0.2109 -0.4605
  160TMC2    C4 2437   2.074   4.187   1.509 -1.6563  0.0899 -0.0184
  160TMC2    C5 2438   2.145   4.091   1.435 -0.3026  1.1783 -0.5474
  160TMC2    C6 2439   2.249   4.016   1.491  0.1219  0.1349  0.4202
  160TMC2     C 2440   2.045   4.296   1.725  0.1440  0.3671  0.0344
  160TMC2     O 2441   2.109   4.336   1.819 -0.3416  0.4962 -0.2205
  160TMC2     H 2442   2.220   4.133   1.819 -0.2859  0.8289  0.5079
  160TMC2    H1 2443   1.987   4.243   1.473 -1.1131  0.2158 -1.1394
  160TMC2    H2 2444   2.303   3.946   1.428 -0.9751  0.0538 -0.4150
  160TMC2    C7 2445   2.105   4.067   1.301  0.0407  0.3191  0.2650
  160TMC2    C8 2446   2.357   3.928   1.690  0.6975 -0.7383 -0.1163
  160TMC2    O1 2447   2.126   3.958   1.249 -0.1675 -0.1327  0.3047
  160TMC2    O2 2448   2.354   3.893   1.807  0.0630  0.2786  0.2743
  160TMC2    O5 2449   2.467   3.908   1.609  0.7159  0.4809  0.0316
  160TMC2    H5 2450   2.472   3.977   1.540 -0.0679 -0.3990 -0.9084
  161MPD2     C 2451   1.890   4.536   1.835 -0.1005 -0.0302  0.1260
  161MPD2    C1 2452   1.854   4.457   1.728  0.3278 -0.5296  0.2434
  161MPD2    C2 2453   1.740   4.494   1.656  0.1089  0.0699 -0.4012
  161MPD2    C3 2454   1.668   4.603   1.687  0.1164 -0.4783  0.0204
  161MPD2    C4 2455   1.698   4.673   1.803 -0.1665 -0.4920  0.5971
  161MPD2    C5 2456   1.809   4.635   1.883 -0.6325 -0.2084  0.0133
  161MPD2     H 2457   1.713   4.424   1.578 -0.3634 -0.5795  0.3439
  161MPD2    H1 2458   1.627   0.025   1.832  0.2726  0.7383 -1.6568
  161MPD2    H2 2459   1.981   4.507   1.887 -0.9669 -0.2743  1.5258
  161MPD2    H3 2460   1.830   4.681   1.979  0.1780 -0.0313 -0.2580
  161MPD2     N 2461   1.561   4.650   1.603 -0.0598 -0.7796 -0.5093
  161MPD2    H5 2462   1.506   0.002   1.638  3.8336  1.3595  0.9126
  161MPD2    N1 2463   1.925   4.347   1.673 -0.2956  0.4453 -0.2859
  161MPD2    H7 2464   1.884   4.297   1.595  2.2417 -1.7987 -0.1987
  162TMC2    C1 2465   4.216   1.697   1.025  0.2877 -0.3737  0.4436
  162TMC2    C2 2466   4.183   1.812   0.950  0.5842  0.7774  0.0423
  162TMC2    C3 2467   4.053   1.860   0.956 -0.0057  0.2542  0.0441
  162TMC2    C4 2468   4.124   1.628   1.099 -0.5072 -0.0167 -0.7884
  162TMC2    C5 2469   3.994   1.679   1.099  0.4900  0.3633 -0.3922
  162TMC2    C6 2470   3.964   1.796   1.040 -0.3444 -0.2727  0.0724
  162TMC2     C 2471   4.340   1.625   1.013  0.0980  0.3858 -0.1410
  162TMC2     O 2472   4.348   1.511   1.059  0.1003  0.0189 -0.1819
  162TMC2     H 2473   4.250   1.842   0.871  1.9756 -0.9391  0.5719
  162TMC2    H1 2474   4.146   1.543   1.162 -0.9083  0.2327 -0.3163
  162TMC2    H2 2475   3.862   1.834   1.051  0.4797  0.9721  3.4419
  162TMC2    C7 2476   3.878   1.604   1.153  0.2635 -0.2194 -0.1487
  162TMC2    C8 2477   3.995   1.948   0.852 -0.4297 -0.4474  0.5731
  162TMC2    O1 2478   3.766   1.653   1.143  0.2024 -0.0762  0.9749
  162TMC2    O2 2479   3.873   1.975   0.851  1.1011 -0.5483  0.2118
  162TMC2    O5 2480   4.094   2.033   0.819 -0.2947  0.1683  0.3468
  162TMC2    H5 2481   4.190   2.017   0.834 -0.4313  0.0962  1.1130
  163MPD2     C 2482   0.060   1.586   0.772 -0.4455  0.3040  0.7233
  163MPD2    C1 2483   4.694   1.490   0.802  0.7431 -0.3425  0.7714
  163MPD2    C2 2484   4.584   1.529   0.875  0.4650  0.4364 -1.0518
  163MPD2    C3 2485   4.554   1.659   0.903  0.0003 -0.0490 -0.0318
  163MPD2    C4 2486   4.652   1.755   0.875  0.0701  0.1311 -0.4182
  163MPD2    C5 2487   0.046   1.707   0.820  0.2681 -0.4392 -1.2422
  163MPD2     H 2488   4.522   1.451   0.918  1.2188 -0.7502 -2.1170
  163MPD2    H1 2489   4.638   1.859   0.902 -0.8590 -0.2737  0.6298
  163MPD2    H2 2490   0.153   1.557   0.724 -1.9083 -0.1022 -1.8664
  163MPD2    H3 2491   0.130   1.773   0.800  0.0222 -0.3084 -1.8490
  163MPD2     N 2492   4.434   1.704   0.959 -0.7384  0.0930 -0.1930
  163MPD2    H5 2493   4.404   1.800   0.953  0.7085  0.5485 -0.1223
  163MPD2    N1 2494   4.711   1.363   0.744  0.0464 -0.4557 -0.4355
  163MPD2    H7 2495   0.070   1.360   0.687  0.9785  0.5535  0.8668
  164TCq2    C1 2496   0.354   0.779  11.066  0.5145 -0.0004 -0.8226
  164TCq2    O2 2497   0.254   0.728  11.107  0.1786 -0.1698 -0.3873
  164TCq2    C2 2498   0.376   0.922  11.115  0.5205  0.0056  0.1736
  164TCq2    C3 2499   0.481   0.994  11.058  0.2826  0.8449 -0.6034
  164TCq2    C4 2500   0.457   1.125  11.037  0.3257  0.1305  0.0769
  164TCq2    C5 2501   0.342   1.189  11.083  0.3180 -1.1032 -0.4038
  164TCq2    C6 2502   0.250   1.112  11.144 -0.2699 -0.2442 -0.3212
  164TCq2    C7 2503   0.257   0.977  11.159 -0.0311  0.7182  0.3453
  164TCq2    C8 2504   0.132   1.185  11.187 -0.4775 -0.5521 -1.0321
  164TCq2    O4 2505   0.091   1.279  11.114 -0.3625 -0.1854  0.1681
  164TCq2    C9 2506   0.559   1.205  10.961 -0.2088  0.5889 -0.8346
  164TCq2    O5 2507   0.543   1.330  10.977  0.0920  0.1416  0.0388
  164TCq2    O6 2508   0.635   1.152  10.872  0.1773  0.0761  0.1639
  164TCq2    H2 2509   0.573   0.954  11.019 -0.9772 -2.2210 -0.3934
  164TCq2    H3 2510   0.332   1.296  11.074  1.3615 -1.0192 -0.6337
  164TCq2    H4 2511   0.179   0.917  11.205 -1.2865  0.0397 -2.7006
  165MPD2     C 2512   0.968   3.496   0.953  1.1345 -0.4829 -0.9503
  165MPD2    C1 2513   0.944   3.491   1.086 -0.3809 -0.0377  0.3761
  165MPD2    C2 2514   0.977   3.600   1.173 -0.1788  0.1087 -0.1819
  165MPD2    C3 2515   1.048   3.704   1.116 -0.7304  0.2992  0.2374
  165MPD2    C4 2516   1.090   3.705   0.987  0.5716  0.0874 -0.0113
  165MPD2    C5 2517   1.041   3.602   0.906 -1.0084  0.2015 -0.3757
  165MPD2     H 2518   0.962   3.596   1.280 -2.2780 -4.0425 -0.6469
  165MPD2    H1 2519   1.147   3.788   0.949 -1.6668  1.3006 -0.6906
  165MPD2    H2 2520   0.936   3.421   0.882 -0.5369 -0.3523 -0.3533
  165MPD2    H3 2521   1.073   3.601   0.802  0.4534 -0.4867  0.0839
  165MPD2     N 2522   1.102   3.806   1.198  0.4314  0.1179 -0.6332
  165MPD2    H5 2523   1.176   3.865   1.160 -0.4151  1.2803 -0.4699
  165MPD2    N1 2524   0.893   3.366   1.139 -0.5793  0.2192 -0.4367
  165MPD2    H7 2525   0.897   3.287   1.076 -1.8737 -0.2038  0.0046
  166TCq2    C1 2526   1.062   3.840   1.325  0.4415  0.8796  0.0441
  166TCq2    O2 2527   0.973   3.793   1.398  0.0369  0.2251 -0.2909
  166TCq2    C2 2528   1.156   3.934   1.388  1.1690  0.2729 -0.0435
  166TCq2    C3 2529   1.099   4.003   1.489  0.2065  0.0068  0.2623
  166TCq2    C4 2530   1.178   4.041   1.590 -0.0593 -0.2593 -0.0951
  166TCq2    C5 2531   1.317   4.031   1.581 -0.1261  0.3970  0.9450
  166TCq2    C6 2532   1.369   3.968   1.473 -0.4756  0.5771  0.2895
  166TCq2    C7 2533   1.288   3.911   1.377 -0.3860 -0.2268  0.5419
  166TCq2    C8 2534   1.503   3.916   1.472 -0.4611 -0.3368  0.1290
  166TCq2    O4 2535   1.533   3.819   1.407 -0.1773  0.0471  0.0918
  166TCq2    C9 2536   1.120   4.095   1.716  0.5398 -0.1099 -0.5030
  166TCq2    O5 2537   1.198   4.157   1.791 -0.0709  0.2204 -0.0986
  166TCq2    O6 2538   0.994   4.106   1.724 -0.5499 -0.3576  0.0343
  166TCq2    H2 2539   0.992   4.001   1.510 -0.1281  0.2539 -1.4133
  166TCq2    H3 2540   1.371   4.071   1.666  1.4187  0.2065  0.0405
  166TCq2    H4 2541   1.333   3.864   1.291 -0.3542  1.6148 -0.4506
  167TMC2    C1 2542   4.286   0.884  12.666 -0.3229 -0.6716  0.0351
  167TMC2    C2 2543   4.178   0.892  12.749 -0.1014 -0.4181 -1.1213
  167TMC2    C3 2544   4.158   0.780  12.825  0.1441  0.3968 -0.3149
  167TMC2    C4 2545   4.352   0.765  12.643 -0.1558 -0.3036  1.4208
  167TMC2    C5 2546   4.312   0.648  12.703 -0.8437  0.2084  0.0184
  167TMC2    C6 2547   4.220   0.659  12.806 -1.0172  0.2182  0.5147
  167TMC2     C 2548   4.338   1.006  12.605  0.3329  0.0200 -0.2311
  167TMC2     O 2549   4.259   1.098  12.584 -0.2756 -0.1830  0.0263
  167TMC2     H 2550   4.128   0.988  12.756 -1.8464 -1.4496  0.4279
  167TMC2    H1 2551   4.415   0.758  12.555 -1.3886  0.1317  0.5045
  167TMC2    H2 2552   4.180   0.575  12.862 -2.6870 -0.1357 -1.2003
  167TMC2    C7 2553   4.349   0.514  12.659 -0.2679 -0.8197 -0.3251
  167TMC2    C8 2554   4.038   0.780  12.906 -0.0066 -0.4859  0.1616
  167TMC2    O1 2555   4.287   0.421  12.716  0.6282 -0.0670  0.4321
  167TMC2    O2 2556   3.972   0.678  12.926 -0.1556  0.1066  0.6128
  167TMC2    O5 2557   4.067   0.860  13.002  0.1713 -0.3086 -0.9877
  167TMC2    H5 2558   4.137   0.926  12.984 -0.8007  1.4453  1.7105
  168MPD2     C 2559   4.469   1.210  12.430  0.5727  0.1938 -0.8643
  168MPD2    C1 2560   4.524   1.086  12.460  0.5837  0.0206  0.0578
  168MPD2    C2 2561   4.624   1.035  12.387  0.0752  0.0485  0.2734
  168MPD2    C3 2562   4.673   1.105  12.277  0.0388 -0.3973 -0.5905
  168MPD2    C4 2563   4.625   1.228  12.246 -0.0062  1.5199  0.3537
  168MPD2    C5 2564   4.522   1.280  12.321 -0.0661  0.4420 -0.2884
  168MPD2     H 2565   4.652   0.935  12.416  0.5947 -0.1716 -0.9703
  168MPD2    H1 2566   4.671   1.290  12.170  1.1469 -0.7378 -0.7646
  168MPD2    H2 2567   4.397   1.260  12.493 -0.9797 -1.2682 -1.4590
  168MPD2    H3 2568   4.476   1.373  12.289 -0.6625  0.2173 -0.0868
  168MPD2     N 2569   0.045   1.047  12.193  0.2541 -0.0114 -0.0937
  168MPD2    H5 2570   0.060   1.089  12.101 -1.7112  2.6185  0.7897
  168MPD2    N1 2571   4.466   0.994  12.554 -0.3411  0.1244  0.3920
  168MPD2    H7 2572   4.534   0.928  12.589  1.6907  1.1646 -1.6199
  169MPD1     C 2573   2.570   0.715   9.144  0.4046  0.3251  0.3384
  169MPD1    C1 2574   2.687   0.653   9.163  0.0165 -0.0248  0.4024
  169MPD1    C2 2575   2.695   0.517   9.197  0.1012 -0.6919  0.1525
  169MPD1    C3 2576   2.582   0.441   9.214  0.5609 -0.0317  0.0356
  169MPD1    C4 2577   2.457   0.503   9.198  0.7991 -0.6526 -0.3020
  169MPD1    C5 2578   2.457   0.637   9.154 -0.4242 -0.7129  0.1750
  169MPD1     H 2579   2.793   0.477   9.221  0.3226  0.0242  0.4267
  169MPD1    H1 2580   2.365   0.446   9.206 -0.0546  0.8163  0.2813
  169MPD1    H2 2581   2.562   0.817   9.109 -1.4599 -0.2610 -0.9431
  169MPD1    H3 2582   2.361   0.685   9.137 -0.4617 -1.3665 -1.4144
  169MPD1     N 2583   2.604   0.305   9.239 -0.0443 -0.0083 -0.1080
  169MPD1    H5 2584   2.702   0.284   9.255  0.2987  1.1843 -0.6407
  169MPD1    N1 2585   2.799   0.732   9.167  0.2079 -0.3510 -0.6709
  169MPD1    H6 2586   2.782   0.822   9.122 -1.1998 -1.6826 -2.8058
  169MPD1    H7 2587   2.886   0.695   9.128  0.7536  0.9770 -0.7282
  170MPD1     C 2588   4.531   2.882  13.626 -0.1586  0.1101  0.7415
  170MPD1    C1 2589   4.642   2.797  13.663 -0.9606  0.3766 -0.2495
  170MPD1    C2 2590   0.035   2.813  13.586 -0.3129  0.1576 -0.1672
  170MPD1    C3 2591   0.049   2.909  13.483 -0.4228  0.3501 -0.4503
  170MPD1    C4 2592   4.669   2.993  13.458  0.5582 -0.0700  0.3219
  170MPD1    C5 2593   4.552   2.974  13.525 -0.1710  0.2996 -0.8018
  170MPD1     H 2594   0.117   2.749  13.613 -0.5181 -1.0096 -2.3388
  170MPD1    H1 2595   4.684   3.065  13.379  0.7820  0.2401  0.6499
  170MPD1    H2 2596   4.433   2.862  13.667  0.8248 -0.8318  2.6752
  170MPD1    H3 2597   4.461   3.029  13.500 -0.9581 -1.5889 -2.0949
  170MPD1     N 2598   0.171   2.916  13.407  0.0511 -0.2266 -0.7474
  170MPD1    H5 2599   0.246   2.857  13.441 -1.6217 -1.0460  1.5227
  170MPD1    N1 2600   4.622   2.685  13.745 -0.3617 -0.2970 -0.2832
  170MPD1    H6 2601   4.549   2.690  13.816  0.5903 -1.8333  0.8120
  170MPD1    H7 2602   4.702   2.673  13.808  0.4085  0.3305 -1.1399
  171MPD1     C 2603   3.671   3.553  15.039 -0.3387 -0.0636  0.3027
  171MPD1    C1 2604   3.777   3.636  15.008 -0.3075 -0.0775  0.0033
  171MPD1    C2 2605   3.842   3.695  15.110  0.3796  0.2117  0.1282
  171MPD1    C3 2606   3.832   3.659  15.239 -0.3343  0.3106 -0.2283
  171MPD1    C4 2607   3.745   3.551  15.263  0.1234  0.3864 -0.1733
  171MPD1    C5 2608   3.659   3.505  15.165 -0.2773  0.7095 -0.2830
  171MPD1     H 2609   3.907   3.776  15.078  1.2941 -0.4375  0.3569
  171MPD1    H1 2610   3.730   3.515  15.365 -0.1382 -2.0497 -1.0672
  171MPD1    H2 2611   3.602   3.506  14.969 -1.3213 -0.7564  1.7223
  171MPD1    H3 2612   3.586   3.427  15.185  1.4238 -1.2682 -1.9364
  171MPD1     N 2613   3.917   3.705  15.344  0.1718  0.6063  0.7447
  171MPD1    H5 2614   3.908   3.655  15.432 -0.7810  0.2101  0.4207
  171MPD1    N1 2615   3.799   3.696  14.886  0.0862  0.6535 -0.2731
  171MPD1    H6 2616   3.898   3.715  14.875 -0.0912  0.5024 -2.1760
  171MPD1    H7 2617   3.766   3.653  14.800 -0.0180  1.9432 -0.8676
  172MPD1     C 2618   3.111   3.050   0.174 -0.2589 -0.5059 -0.7663
  172MPD1    C1 2619   2.973   3.069   0.183 -0.3099  0.6194 -0.3028
  172MPD1    C2 2620   2.930   3.140   0.296  0.0967  0.0828  0.2717
  172MPD1    C3 2621   3.014   3.166   0.401  0.0452 -0.0088 -0.1588
  172MPD1    C4 2622   3.146   3.115   0.395 -0.5377 -0.1381 -0.0559
  172MPD1    C5 2623   3.194   3.078   0.275 -0.7529 -0.1737  0.6486
  172MPD1     H 2624   2.835   3.189   0.283 -0.6263 -0.7467  2.4338
  172MPD1    H1 2625   3.213   3.122   0.480 -0.2958 -0.7186 -0.2042
  172MPD1    H2 2626   3.156   3.022   0.079 -0.7370  1.8551 -1.6915
  172MPD1    H3 2627   3.301   3.059   0.271 -0.7842  0.3114 -2.3089
  172MPD1     N 2628   2.978   3.239   0.519 -0.2984 -0.1772  0.0651
  172MPD1    H5 2629   3.050   3.250   0.589  0.3580  2.4636 -1.0078
  172MPD1    N1 2630   2.894   3.056   0.063 -0.7027 -0.9122 -0.0069
  172MPD1    H6 2631   2.928   2.974   0.014  0.4765 -1.0769  1.0831
  172MPD1    H7 2632   2.798   3.051   0.097 -0.9096  1.7583 -0.1926
  173MPD1     C 2633   0.454   3.537  13.653  0.2565 -0.1086 -0.2159
  173MPD1    C1 2634   0.477   3.409  13.700 -0.6683  0.4353  0.1192
  173MPD1    C2 2635   0.403   3.367  13.802 -0.0924  0.0518 -0.4946
  173MPD1    C3 2636   0.292   3.438  13.860  0.3732 -0.0980 -0.3138
  173MPD1    C4 2637   0.265   3.559  13.809  0.3114  0.4364  0.3758
  173MPD1    C5 2638   0.351   3.605  13.716  0.4594  0.2251  0.2605
  173MPD1     H 2639   0.417   3.267  13.841 -3.7155 -0.4334 -0.4309
  173MPD1    H1 2640   0.195   3.625  13.859 -0.4881  1.1541 -1.6796
  173MPD1    H2 2641   0.515   3.584  13.577 -1.8908  0.8729 -1.3473
  173MPD1    H3 2642   0.332   3.705  13.679  2.7590  0.9280  1.0084
  173MPD1     N 2643   0.236   3.380  13.971 -0.1741  0.0270 -0.9926
  173MPD1    H5 2644   0.285   3.298  14.006 -3.5214 -1.6515 -0.2771
  173MPD1    N1 2645   0.584   3.325  13.661  0.2796  0.1809  0.4907
  173MPD1    H6 2646   0.560   3.226  13.667  1.4425 -0.1591 -0.6589
  173MPD1    H7 2647   0.616   3.342  13.566  0.4285  2.2725  0.8987
  174MPD1     C 2648   4.694   2.460  14.116  0.6371 -0.0585 -0.2046
  174MPD1    C1 2649   0.065   2.533  14.061 -1.0492 -0.1092  0.2578
  174MPD1    C2 2650   0.078   2.671  14.074 -1.1389  0.3754  0.9576
  174MPD1    C3 2651   4.701   2.736  14.147 -0.4276  0.0866  0.2993
  174MPD1    C4 2652   4.598   2.663  14.206 -0.1355 -0.5231 -0.0700
  174MPD1    C5 2653   4.605   2.530  14.200 -0.0745  0.5057  1.1953
  174MPD1     H 2654   0.161   2.720  14.026  0.4496 -1.8298  1.4203
  174MPD1    H1 2655   4.528   2.709  14.275  1.0160 -1.2148  1.5625
  174MPD1    H2 2656   4.696   2.352  14.106 -0.4662 -0.1759  0.8137
  174MPD1    H3 2657   4.528   2.473  14.252  0.5490 -1.6122 -0.1985
  174MPD1     N 2658   4.699   2.879  14.176 -0.0032  0.0499 -0.0251
  174MPD1    H5 2659   4.622   2.917  14.231  0.0539 -0.7656  0.6214
  174MPD1    N1 2660   0.170   2.469  13.998 -0.1274  0.1119  0.0255
  174MPD1    H6 2661   0.129   2.410  13.926  0.6536 -0.0030 -0.3291
  174MPD1    H7 2662   0.225   2.540  13.949  0.2116 -0.6673 -0.7160
  175MPD1     C 2663   2.941   4.245  15.549 -0.5841 -0.1392 -0.2516
  175MPD1    C1 2664   2.828   4.177  15.569 -0.0234  0.0582  0.1567
  175MPD1    C2 2665   2.823   4.094  15.685  0.1092  0.0636 -0.5098
  175MPD1    C3 2666   2.913   4.097  15.791 -0.6862  0.3952 -0.6614
  175MPD1    C4 2667   3.016   4.183  15.765  0.0440  0.2521 -0.1077
  175MPD1    C5 2668   3.035   4.244  15.649  0.1362 -0.2391  0.1381
  175MPD1     H 2669   2.737   4.029  15.691 -0.1932  0.5891  0.9104
  175MPD1    H1 2670   3.088   4.202  15.843  1.6935  0.5402 -1.7009
  175MPD1    H2 2671   2.962   4.304  15.460 -1.0998 -0.2918 -0.4709
  175MPD1    H3 2672   3.131   4.292  15.631 -0.6903  1.9444  1.5942
  175MPD1     N 2673   2.899   4.031  15.916 -0.0226  0.0842 -0.4815
  175MPD1    H5 2674   2.959   4.067  15.990 -1.0673 -1.8882  1.3080
  175MPD1    N1 2675   2.733   4.164  15.470 -0.2461  0.2153 -0.6009
  175MPD1    H6 2676   2.642   4.142  15.510 -0.6102 -1.5077 -2.3709
  175MPD1    H7 2677   2.739   4.256  15.427  1.7776 -0.1720 -1.1250
  176MPD1     C 2678   4.128   0.884   0.559  0.4323  0.3853  0.0493
  176MPD1    C1 2679   4.095   1.010   0.611  0.3061 -0.2275 -0.2282
  176MPD1    C2 2680   4.147   1.121   0.537  0.4188  0.3303 -0.1368
  176MPD1    C3 2681   4.246   1.106   0.449 -0.5988 -0.2369  0.0106
  176MPD1    C4 2682   4.281   0.982   0.412  0.1276  0.1813 -0.2974
  176MPD1    C5 2683   4.219   0.868   0.456 -0.2660 -0.1041  0.2247
  176MPD1     H 2684   4.120   1.221   0.570 -0.6450 -0.5382  1.6323
  176MPD1    H1 2685   4.367   0.959   0.350 -0.6192  0.7851 -1.5605
  176MPD1    H2 2686   4.084   0.792   0.597  2.0113 -1.1075 -1.7089
  176MPD1    H3 2687   4.260   0.771   0.429 -0.6183  0.0064 -0.6866
  176MPD1     N 2688   4.303   1.223   0.389 -0.3111  0.5986  0.5437
  176MPD1    H5 2689   4.268   1.312   0.423  0.3653  0.3255  1.9556
  176MPD1    N1 2690   3.979   1.038   0.697 -0.4416 -0.2988  0.7264
  176MPD1    H6 2691   3.992   1.129   0.741  2.3565  1.2958 -3.4308
  176MPD1    H7 2692   3.970   0.975   0.777  0.4093 -1.1657  0.1286
  177MPD1     C 2693   3.176   1.060  10.169  0.0764 -0.5257 -0.1153
  177MPD1    C1 2694   3.046   1.020  10.147 -0.4880 -0.0739  0.3120
  177MPD1    C2 2695   2.950   1.093  10.080  0.1651 -0.4443 -0.9991
  177MPD1    C3 2696   2.985   1.214  10.030  0.1484  0.1870  0.4546
  177MPD1    C4 2697   3.112   1.262  10.057  0.3247  0.2179 -0.2385
  177MPD1    C5 2698   3.202   1.184  10.120  0.6623 -0.3512  0.1730
  177MPD1     H 2699   2.851   1.054  10.058 -0.4094  0.6435 -0.3506
  177MPD1    H1 2700   3.145   1.361  10.027 -3.5469  1.8060  0.8308
  177MPD1    H2 2701   3.247   1.004  10.228 -1.0973 -0.0853  1.7060
  177MPD1    H3 2702   3.303   1.219  10.141  0.6115 -0.0272 -0.1350
  177MPD1     N 2703   2.880   1.286   9.963  0.0018 -0.1235  0.1740
  177MPD1    H5 2704   2.791   1.239   9.947  0.9524 -2.3444  1.4223
  177MPD1    N1 2705   3.012   0.889  10.177  0.3394 -0.1771  0.4441
  177MPD1    H6 2706   3.043   0.859  10.269 -1.0216 -0.5293  0.7899
  177MPD1    H7 2707   2.913   0.870  10.163  0.6312 -0.3444 -1.4748
  178MPD1     C 2708   0.758   2.234   0.586  0.3105 -0.6217 -0.0307
  178MPD1    C1 2709   0.893   2.258   0.567 -0.3959  0.0666  0.1401
  178MPD1    C2 2710   0.941   2.211   0.448  0.2314  0.5563  0.2107
  178MPD1    C3 2711   0.869   2.162   0.343  0.2761 -0.0351  0.0792
  178MPD1    C4 2712   0.733   2.165   0.359  0.9057 -0.1603 -0.0014
  178MPD1    C5 2713   0.677   2.196   0.482 -0.2315 -0.7452  0.8925
  178MPD1     H 2714   1.048   2.209   0.432  0.3870 -2.8909  1.6019
  178MPD1    H1 2715   0.672   2.119   0.282  0.4262 -0.2816  0.4503
  178MPD1    H2 2716   0.708   2.247   0.681 -1.3626 -0.9103 -0.8767
  178MPD1    H3 2717   0.571   2.179   0.498 -0.7586 -0.7489 -2.5087
  178MPD1     N 2718   0.927   2.124   0.213  0.3527  0.5328 -0.3408
  178MPD1    H5 2719   0.862   2.106   0.138 -1.5901  4.3197  0.4098
  178MPD1    N1 2720   0.980   2.295   0.668  0.3924  0.0651 -0.6697
  178MPD1    H6 2721   0.951   2.369   0.731  0.6151 -0.8867  0.5474
  178MPD1    H7 2722   1.073   2.315   0.632 -0.5929  2.4311 -1.8506
  179MPD1     C 2723   0.519   0.114  15.957 -0.1988  0.6564 -0.4095
  179MPD1    C1 2724   0.405   0.156  15.884  0.1853 -0.0061 -0.0341
  179MPD1    C2 2725   0.280   0.121  15.938  0.4958 -0.0513 -0.3406
  179MPD1    C3 2726   0.272   0.056  16.061 -0.0039 -0.3595  0.2709
  179MPD1    C4 2727   0.383   0.014  16.128  0.0534 -0.0026  0.5920
  179MPD1    C5 2728   0.507   0.033  16.072  1.0389 -1.0894 -0.2430
  179MPD1     H 2729   0.190   0.164  15.895  0.4932  1.7672  1.4854
  179MPD1    H1 2730   0.362   4.680  16.216 -1.9839  1.9075  1.4132
  179MPD1    H2 2731   0.623   0.119  15.924  0.1275  1.5450  0.7712
  179MPD1    H3 2732   0.597   0.001  16.122  1.4453 -0.1708 -0.3943
  179MPD1     N 2733   0.149   0.016  16.123  0.8047  0.3398 -0.3801
  179MPD1    H5 2734   0.153   4.697  16.215 -1.3440  3.9211  1.4547
  179MPD1    N1 2735   0.421   0.193  15.750 -0.1892  0.4411  0.4829
  179MPD1    H6 2736   0.502   0.247  15.719  0.7243 -0.9068  0.5121
  179MPD1    H7 2737   0.338   0.241  15.717 -1.1888 -1.0013  0.9131
  180MPD1     C 2738   4.595   1.105  15.207 -0.2415 -0.9588  0.6808
  180MPD1    C1 2739   4.580   1.241  15.207 -0.3786  0.2744  0.5155
  180MPD1    C2 2740   4.556   1.315  15.090  0.1517  0.1071 -0.0986
  180MPD1    C3 2741   4.564   1.244  14.964  1.1307  0.3130  0.5471
  180MPD1    C4 2742   4.589   1.109  14.970  0.4819  0.2482 -0.0417
  180MPD1    C5 2743   4.602   1.039  15.091  0.1242  0.1430  0.0773
  180MPD1     H 2744   4.542   1.422  15.092 -1.0046 -0.0844  1.9354
  180MPD1    H1 2745   4.591   1.050  14.879  0.8449 -0.9777  0.7584
  180MPD1    H2 2746   4.605   1.046  15.298  0.3701 -0.5891  0.8499
  180MPD1    H3 2747   4.599   0.932  15.077  0.9377  0.4772 -2.5168
  180MPD1     N 2748   4.544   1.311  14.839  0.0755  0.2552  0.0988
  180MPD1    H5 2749   4.529   1.410  14.853 -1.7130  0.5718 -4.0686
  180MPD1    N1 2750   4.577   1.301  15.334 -0.1406 -0.0516 -0.1054
  180MPD1    H6 2751   4.628   1.241  15.399  1.5074  1.2898 -0.1691
  180MPD1    H7 2752   4.630   1.387  15.333 -0.8524  0.3864  0.3004
  181MPD1     C 2753   1.540   2.861   9.733  0.5805  1.0639 -0.3984
  181MPD1    C1 2754   1.545   2.976   9.812 -0.1730 -0.3468 -0.3223
  181MPD1    C2 2755   1.668   3.019   9.858  1.0716  0.4676  0.6354
  181MPD1    C3 2756   1.789   2.965   9.809  0.2271 -0.0283 -0.2099
  181MPD1    C4 2757   1.779   2.857   9.717 -0.0214 -0.1530  0.3971
  181MPD1    C5 2758   1.659   2.814   9.685  0.2444  0.0863 -0.0333
  181MPD1     H 2759   1.668   3.101   9.929  2.4095  2.0992 -1.2504
  181MPD1    H1 2760   1.869   2.832   9.662  0.5338  0.5267  1.0062
  181MPD1    H2 2761   1.452   2.814   9.690  1.1823  1.0510 -1.6103
  181MPD1    H3 2762   1.652   2.728   9.619  0.1055  1.2727 -1.5643
  181MPD1     N 2763   1.911   3.021   9.830  0.5286 -0.3158 -0.5419
  181MPD1    H5 2764   1.982   2.958   9.796  1.9545  1.1431 -0.2837
  181MPD1    N1 2765   1.423   3.040   9.845 -0.2942  0.1023  0.0506
  181MPD1    H6 2766   1.435   3.140   9.857  1.4228 -0.0998  0.1515
  181MPD1    H7 2767   1.333   3.015   9.805  0.5478 -1.0959 -1.0895
  182MPD1     C 2768   2.107   2.951   2.302 -0.3048  0.2848 -0.4381
  182MPD1    C1 2769   2.197   2.875   2.234 -0.0697  0.3948  0.9873
  182MPD1    C2 2770   2.171   2.845   2.098 -0.0700  0.0178  0.4411
  182MPD1    C3 2771   2.051   2.875   2.047 -0.7420  0.2964  0.0922
  182MPD1    C4 2772   1.948   2.925   2.130 -0.2779  0.5225  0.0885
  182MPD1    C5 2773   1.978   2.972   2.260 -0.2876 -0.2289 -0.2142
  182MPD1     H 2774   2.236   2.787   2.035  0.4780  0.0081  1.0136
  182MPD1    H1 2775   1.845   2.946   2.104 -0.9911 -0.9253  1.7672
  182MPD1    H2 2776   2.128   2.997   2.398 -0.1691  0.9985 -0.8141
  182MPD1    H3 2777   1.892   3.019   2.305  0.0132  1.5779 -1.5504
  182MPD1     N 2778   2.007   2.838   1.913  0.7445 -0.1822  0.1488
  182MPD1    H5 2779   1.918   2.873   1.878  2.2069  1.4590 -1.8928
  182MPD1    N1 2780   2.323   2.871   2.291 -0.2241  0.0205 -0.5859
  182MPD1    H6 2781   2.373   2.790   2.256  0.1183 -0.2867  0.6036
  182MPD1    H7 2782   2.323   2.867   2.393  0.9024 -1.3730 -0.6539
  183MPD1     C 2783   1.965   2.838   9.036 -0.1103  0.5934  0.2320
  183MPD1    C1 2784   1.987   2.958   9.089  0.5875 -0.3402 -0.9488
  183MPD1    C2 2785   2.112   2.982   9.148 -0.0567  0.1782 -0.3513
  183MPD1    C3 2786   2.212   2.883   9.152  0.0963  0.9070  0.1139
  183MPD1    C4 2787   2.183   2.766   9.084  0.5460  0.7831 -0.4432
  183MPD1    C5 2788   2.058   2.742   9.036  0.3241 -0.3901 -0.4114
  183MPD1     H 2789   2.132   3.082   9.185 -3.4945  0.1293  1.6583
  183MPD1    H1 2790   2.248   2.679   9.081  0.2370  0.4644  1.8431
  183MPD1    H2 2791   1.872   2.816   8.983 -0.4792  0.8542  0.7764
  183MPD1    H3 2792   2.047   2.642   8.995 -0.2294 -0.8416  0.8653
  183MPD1     N 2793   2.325   2.916   9.220 -0.3269  0.2409  0.9611
  183MPD1    H5 2794   2.336   3.004   9.270  3.1251  0.8103 -0.7855
  183MPD1    N1 2795   1.891   3.059   9.054 -0.3115  0.0700 -0.7468
  183MPD1    H6 2796   1.798   3.018   9.043 -0.8799  1.4375 -0.9930
  183MPD1    H7 2797   1.878   3.127   9.129  0.4700 -0.8617  0.2350
  184MPD1     C 2798   2.190   0.295   9.925  0.0112 -0.6037  0.5202
  184MPD1    C1 2799   2.307   0.359   9.891  0.4817 -0.4006  0.2184
  184MPD1    C2 2800   2.292   0.496   9.872  0.3226  0.7350 -0.3095
  184MPD1    C3 2801   2.167   0.554   9.851 -0.0608  0.3550  0.7822
  184MPD1    C4 2802   2.057   0.469   9.865  0.3713  0.0316  0.4505
  184MPD1    C5 2803   2.070   0.342   9.905 -0.4056 -0.5026 -0.4745
  184MPD1     H 2804   2.383   0.554   9.863  0.1803  1.0586  0.3431
  184MPD1    H1 2805   1.961   0.516   9.847  0.7821  1.0471  0.9143
  184MPD1    H2 2806   2.187   0.191   9.956 -0.7098 -1.7503 -3.3729
  184MPD1    H3 2807   1.982   0.281   9.924  0.4547 -1.8255 -0.7685
  184MPD1     N 2808   2.150   0.695   9.820  0.5452 -0.2848 -0.0942
  184MPD1    H5 2809   2.059   0.737   9.800  0.4034 -1.0266 -0.9857
  184MPD1    N1 2810   2.429   0.294   9.907 -0.2258 -0.3144 -0.2376
  184MPD1    H6 2811   2.498   0.351   9.859  0.8083 -1.0006  0.4251
  184MPD1    H7 2812   2.452   0.285  10.005 -1.1913 -0.9314 -0.0702
  185MPD1     C 2813   1.811   1.452   9.223  0.2048 -0.1219 -0.2780
  185MPD1    C1 2814   1.758   1.327   9.251  0.4915  0.0255 -0.1934
  185MPD1    C2 2815   1.817   1.259   9.358 -0.0437 -0.4643 -0.4458
  185MPD1    C3 2816   1.934   1.305   9.416 -0.0932 -0.8658  0.5060
  185MPD1    C4 2817   1.989   1.422   9.368 -0.6731 -0.2268  0.7499
  185MPD1    C5 2818   1.926   1.497   9.275  0.0596  0.3404  0.3270
  185MPD1     H 2819   1.764   1.173   9.398  2.6916 -1.3688  1.2891
  185MPD1    H1 2820   2.084   1.458   9.406 -1.7391  3.0012  0.3976
  185MPD1    H2 2821   1.775   1.521   9.148  1.3482 -0.0228 -0.7380
  185MPD1    H3 2822   1.971   1.591   9.246 -0.8817  0.7916  0.3262
  185MPD1     N 2823   1.994   1.238   9.531 -0.2761  0.5084  0.0956
  185MPD1    H5 2824   2.084   1.275   9.561 -0.0393 -0.8132  1.0172
  185MPD1    N1 2825   1.634   1.282   9.201  0.0603 -0.5356  0.6743
  185MPD1    H6 2826   1.640   1.181   9.194  0.1821 -0.5620  1.1052
  185MPD1    H7 2827   1.615   1.314   9.107 -2.4659  1.5995  1.9158
  186MPD1     C 2828   0.522   0.489  15.621 -0.6606  0.0633  0.1194
  186MPD1    C1 2829   0.409   0.565  15.656 -0.5467 -0.4891  0.3286
  186MPD1    C2 2830   0.403   0.597  15.785  0.2208 -0.7994  0.1015
  186MPD1    C3 2831   0.498   0.558  15.881 -0.0126 -0.1109  0.4343
  186MPD1    C4 2832   0.608   0.484  15.837 -0.4688 -0.1051 -0.9334
  186MPD1    C5 2833   0.622   0.463  15.707  0.1272 -0.5890  0.1511
  186MPD1     H 2834   0.318   0.661  15.805 -1.2191 -1.9808 -2.2891
  186MPD1    H1 2835   0.682   0.453  15.909 -0.9338 -1.3596 -0.9985
  186MPD1    H2 2836   0.527   0.449  15.520  0.3420 -0.9249  0.5695
  186MPD1    H3 2837   0.707   0.409  15.666  0.5488 -1.3971  2.1078
  186MPD1     N 2838   0.491   0.589  16.019  0.0857 -0.2753  0.1386
  186MPD1    H5 2839   0.559   0.540  16.077 -2.4696 -3.4837  0.4424
  186MPD1    N1 2840   0.298   0.579  15.572  0.6454  0.0311  0.0498
  186MPD1    H6 2841   0.321   0.569  15.473 -2.4521 -3.1129 -0.3760
  186MPD1    H7 2842   0.238   0.660  15.584 -0.4834 -0.5944 -1.3867
  187MPD1     C 2843   0.408   1.849   0.401 -0.2443 -0.3450 -0.2205
  187MPD1    C1 2844   0.274   1.822   0.406 -0.3989  0.0448  0.1833
  187MPD1    C2 2845   0.186   1.871   0.308  0.1899 -0.0668  0.0709
  187MPD1    C3 2846   0.237   1.942   0.200  0.2047  0.1977  0.2592
  187MPD1    C4 2847   0.370   1.960   0.193  0.6617  0.0673 -0.1594
  187MPD1    C5 2848   0.453   1.915   0.294 -0.4239 -0.6934  0.4575
  187MPD1     H 2849   0.081   1.852   0.326  0.5092 -1.0250  0.8885
  187MPD1    H1 2850   0.413   2.026   0.119  0.2238  0.3383 -0.1697
  187MPD1    H2 2851   0.481   1.823   0.478 -1.7794  0.0028  1.3524
  187MPD1    H3 2852   0.554   1.952   0.300 -0.0724 -1.6520  0.5593
  187MPD1     N 2853   0.158   1.999   0.104  0.0648  0.1914 -0.3849
  187MPD1    H5 2854   0.203   2.045   0.026 -3.0359  0.1017 -2.2154
  187MPD1    N1 2855   0.222   1.760   0.524 -0.6130  0.1252 -0.0681
  187MPD1    H6 2856   0.285   1.685   0.552  1.7688  1.1402 -2.6873
  187MPD1    H7 2857   0.125   1.731   0.512 -0.4067 -0.1960 -0.9479
  188MPD1     C 2858   0.079   2.070  10.335 -0.4771  0.4593  0.1193
  188MPD1    C1 2859   0.182   1.977  10.335  0.4012 -0.3129  0.7407
  188MPD1    C2 2860   0.158   1.839  10.327 -0.3977 -0.2890 -0.0281
  188MPD1    C3 2861   0.032   1.800  10.285  0.0259 -0.3533  0.5218
  188MPD1    C4 2862   4.648   1.893  10.283  0.2952 -0.6246 -0.2292
  188MPD1    C5 2863   4.674   2.025  10.319  0.3338 -0.5772 -0.3383
  188MPD1     H 2864   0.246   1.778  10.345 -0.9876 -0.7451  1.2606
  188MPD1    H1 2865   4.548   1.852  10.271  0.3952 -0.9382  0.0089
  188MPD1    H2 2866   0.089   2.165  10.386 -2.2285  0.5137  0.3503
  188MPD1    H3 2867   4.595   2.097  10.334  0.6010 -0.5175  0.8084
  188MPD1     N 2868   4.722   1.667  10.243  0.4318  0.4820 -0.2723
  188MPD1    H5 2869   4.628   1.648  10.209 -0.3095  1.7768  1.0403
  188MPD1    N1 2870   0.306   2.023  10.388  0.7935 -0.3651 -0.8474
  188MPD1    H6 2871   0.317   2.124  10.376 -1.2348  0.2663  2.4955
  188MPD1    H7 2872   0.381   1.976  10.338  1.5567  1.8637 -1.8025
  189MPD1     C 2873   0.679   4.047   1.423  0.3014  0.2796  0.2346
  189MPD1    C1 2874   0.566   3.974   1.425  0.2324  0.2889  0.6560
  189MPD1    C2 2875   0.542   3.881   1.314  0.0138  0.1883  0.0014
  189MPD1    C3 2876   0.630   3.883   1.206 -0.4719 -0.6513 -0.2539
  189MPD1    C4 2877   0.749   3.957   1.218 -0.0513  0.1113  0.2497
  189MPD1    C5 2878   0.774   4.044   1.325  0.4536 -0.5940  0.0358
  189MPD1     H 2879   0.456   3.815   1.310  0.5753 -0.5810  0.4235
  189MPD1    H1 2880   0.821   3.960   1.138 -0.7969 -1.9126 -0.4754
  189MPD1    H2 2881   0.697   4.115   1.506  1.1339  1.8049 -1.1962
  189MPD1    H3 2882   0.857   4.113   1.330 -1.8195  1.8997  2.7171
  189MPD1     N 2883   0.597   3.802   1.094  0.4189 -0.1250 -0.0716
  189MPD1    H5 2884   0.520   3.735   1.103 -1.9404  2.6523  0.4070
  189MPD1    N1 2885   0.498   3.975   1.554 -0.2749 -0.3860 -0.0528
  189MPD1    H6 2886   0.398   3.957   1.547 -0.6563  1.0534  1.5347
  189MPD1    H7 2887   0.515   4.066   1.597  2.2231 -1.3539  0.9994
  190MPD1     C 2888   4.649   1.585  15.526  0.1396  0.0192  0.6143
  190MPD1    C1 2889   0.045   1.560  15.454 -0.0933  0.0658 -0.2759
  190MPD1    C2 2890   0.159   1.532  15.530  0.3156  0.0217 -0.2004
  190MPD1    C3 2891   0.162   1.551  15.667  0.0415  1.2608 -1.0426
  190MPD1    C4 2892   0.044   1.587  15.729  0.4369 -0.5531  0.4103
  190MPD1    C5 2893   4.653   1.600  15.663  0.4096 -0.0242  0.0806
  190MPD1     H 2894   0.246   1.481  15.489 -1.7306 -3.6679  0.0825
  190MPD1    H1 2895   0.043   1.606  15.836  0.4283  1.5361  0.0350
  190MPD1    H2 2896   4.559   1.617  15.474  0.4643  1.0370  0.6740
  190MPD1    H3 2897   4.570   1.644  15.717  1.0474  2.1527 -0.7209
  190MPD1     N 2898   0.286   1.544  15.733  0.0097  0.6569  0.1886
  190MPD1    H5 2899   0.363   1.509  15.677  1.2318  0.3838  2.0477
  190MPD1    N1 2900   0.042   1.540  15.315  0.2254  0.7702  0.9803
  190MPD1    H6 2901   0.134   1.548  15.273 -0.1427  0.4902  0.1171
  190MPD1    H7 2902   4.714   1.614  15.269 -0.6864  0.0344  0.8579
  191MPD1     C 2903   4.541   3.848  12.658 -0.3048 -0.4731  0.1564
  191MPD1    C1 2904   4.624   3.763  12.592 -0.0157 -0.0671 -0.5108
  191MPD1    C2 2905   4.650   3.787  12.457 -0.6414 -0.1066  0.1310
  191MPD1    C3 2906   4.614   3.906  12.403 -0.0131  0.4904 -0.3686
  191MPD1    C4 2907   4.547   4.001  12.484 -0.3950  0.4263 -0.3207
  191MPD1    C5 2908   4.493   3.963  12.602 -0.7813 -0.2361 -0.5008
  191MPD1     H 2909   4.706   3.709  12.408 -0.6143  1.7213 -2.7460
  191MPD1    H1 2910   4.509   4.098  12.452 -0.2355  0.4643 -0.3993
  191MPD1    H2 2911   4.523   3.828  12.763 -1.7545 -1.6556 -0.3241
  191MPD1    H3 2912   4.435   4.028  12.666  0.6091 -0.2042  0.7196
  191MPD1     N 2913   4.654   3.931  12.269 -0.5867  0.6063 -0.2764
  191MPD1    H5 2914   4.702   3.859  12.215  1.5635  1.6926  0.2064
  191MPD1    N1 2915   4.655   3.638  12.648 -0.1697  0.5451  0.2642
  191MPD1    H6 2916   4.684   3.640  12.745 -1.7973  0.1919  0.7565
  191MPD1    H7 2917   0.007   3.590  12.602  0.0621 -0.3970  1.6646
  192MPD1     C 2918   4.246   4.424  11.409 -0.0642  0.4560  0.4686
  192MPD1    C1 2919   4.212   4.296  11.438  0.2472  0.2950  1.1011
  192MPD1    C2 2920   4.300   4.225  11.517  0.3377 -0.3914  0.1718
  192MPD1    C3 2921   4.413   4.283  11.573  0.1462 -0.0539  0.2929
  192MPD1    C4 2922   4.434   4.419  11.557 -0.1954 -0.4507 -0.2134
  192MPD1    C5 2923   4.355   4.482  11.462  0.1905  0.4244 -0.6217
  192MPD1     H 2924   4.279   4.120  11.535  0.6412 -0.2505  1.3152
  192MPD1    H1 2925   4.524   4.464  11.598  0.1136 -0.6494 -0.6790
  192MPD1    H2 2926   4.180   4.477  11.341 -0.6326  0.8685  1.3386
  192MPD1    H3 2927   4.383   4.585  11.442  2.1512 -0.2331 -1.1970
  192MPD1     N 2928   4.491   4.205  11.663  0.0160 -0.0784 -0.5934
  192MPD1    H5 2929   4.487   4.108  11.636 -0.1588 -0.3945  0.5704
  192MPD1    N1 2930   4.110   4.236  11.370  0.0761  0.3025  0.4819
  192MPD1    H6 2931   4.025   4.292  11.360  2.0363  2.8185 -2.0323
  192MPD1    H7 2932   4.079   4.147  11.408 -1.9202  1.0768  0.6875
  193MPD1     C 2933   3.776   3.575   0.239 -0.3124  0.1902  0.2642
  193MPD1    C1 2934   3.830   3.517   0.126 -0.1109  0.1173 -0.1534
  193MPD1    C2 2935   3.905   3.600   0.046 -1.5061  0.4474  0.6232
  193MPD1    C3 2936   3.931   3.731   0.083 -0.2685  0.0134 -0.9020
  193MPD1    C4 2937   3.871   3.789   0.190  0.7395 -0.7208  0.0699
  193MPD1    C5 2938   3.792   3.711   0.262 -0.1005 -0.6303 -0.5764
  193MPD1     H 2939   3.953   3.553  17.664 -0.0325 -0.5009  1.9834
  193MPD1    H1 2940   3.877   3.896   0.208  3.1624 -0.9368  0.4954
  193MPD1    H2 2941   3.715   3.532   0.318  0.9300 -0.5597  0.8115
  193MPD1    H3 2942   3.734   3.753   0.343  0.3766 -0.4368 -0.3319
  193MPD1     N 2943   4.007   3.818  17.701 -0.1694 -0.5581 -0.3030
  193MPD1    H5 2944   4.013   3.918   0.017  0.6047 -0.7728  0.5934
  193MPD1    N1 2945   3.804   3.382   0.093  0.1069  0.7885 -0.2367
  193MPD1    H6 2946   3.772   3.318   0.166  1.6913  1.4364  1.0354
  193MPD1    H7 2947   3.872   3.333   0.036  0.6438 -0.6719  1.6443
  194MPD1     C 2948   1.623   0.882  16.087 -0.1439 -0.4764  0.6974
  194MPD1    C1 2949   1.649   0.926  16.218 -0.1698  0.9214 -0.0270
  194MPD1    C2 2950   1.722   0.853  16.305 -0.2404 -0.0004 -0.3044
  194MPD1    C3 2951   1.778   0.738  16.255  0.1213  0.9609  0.4191
  194MPD1    C4 2952   1.765   0.701  16.125  0.4157  0.3067 -0.7768
  194MPD1    C5 2953   1.684   0.768  16.043  0.3282  0.3786 -0.0918
  194MPD1     H 2954   1.727   0.883  16.409 -0.7984 -0.9957  0.0118
  194MPD1    H1 2955   1.809   0.613  16.081 -1.0672 -1.1100  0.5769
  194MPD1    H2 2956   1.561   0.946  16.024  0.4799 -2.0391 -1.4788
  194MPD1    H3 2957   1.666   0.728  15.944 -0.0154 -1.1332  0.5754
  194MPD1     N 2958   1.844   0.652  16.343  0.1456 -0.1080 -0.3088
  194MPD1    H5 2959   1.871   0.563  16.303  1.2775  0.1834 -0.1850
  194MPD1    N1 2960   1.584   1.043  16.265  0.0765  0.6492 -0.3582
  194MPD1    H6 2961   1.544   1.101  16.192 -2.5934 -1.0625 -0.2496
  194MPD1    H7 2962   1.646   1.098  16.324  3.1048 -1.2960 -1.7201
  195MPD1     C 2963   4.383   3.067  17.693  0.2768  0.2225 -0.4607
  195MPD1    C1 2964   4.276   3.066   0.084 -0.0858 -0.2548 -0.7628
  195MPD1    C2 2965   4.220   2.948   0.133  0.2346  0.1960  0.1389
  195MPD1    C3 2966   4.284   2.822   0.106 -0.5206  0.2265  0.3849
  195MPD1    C4 2967   4.393   2.825   0.013  0.5173  0.2925  0.0697
  195MPD1    C5 2968   4.439   2.949  17.667 -0.0856  0.3892 -0.1375
  195MPD1     H 2969   4.129   2.948   0.193  0.3015 -0.2767  0.2422
  195MPD1    H1 2970   4.438   2.736  17.674  0.8922  0.0488  0.9891
  195MPD1    H2 2971   4.414   3.160  17.647 -0.1844  1.5036  1.8246
  195MPD1    H3 2972   4.522   2.946  17.597  1.8538  0.8518  2.1555
  195MPD1     N 2973   4.242   2.694   0.163 -0.1161  0.2229 -0.8672
  195MPD1    H5 2974   4.298   2.615   0.134  1.5195  0.0827  2.7151
  195MPD1    N1 2975   4.217   3.190   0.132  0.6966 -0.0104  0.9389
  195MPD1    H6 2976   4.158   3.179   0.214  1.8281 -0.7729  1.6417
  195MPD1    H7 2977   4.270   3.276   0.135  1.4155 -0.4657  1.3295
  196MPD1     C 2978   3.289   2.146  17.617  0.0866 -0.1602  0.3538
  196MPD1    C1 2979   3.165   2.084  17.630 -0.1623 -0.5440 -0.4356
  196MPD1    C2 2980   3.074   2.119   0.032  0.3695  0.1264  0.0366
  196MPD1    C3 2981   3.128   2.201   0.128 -0.4423 -0.6830 -0.0354
  196MPD1    C4 2982   3.249   2.260   0.115 -0.4628 -0.5924 -0.4892
  196MPD1    C5 2983   3.336   2.234   0.011 -0.0645 -0.1534  0.2400
  196MPD1     H 2984   2.977   2.072   0.042 -0.2555  1.4197  0.0573
  196MPD1    H1 2985   3.277   2.327   0.195  0.3380 -1.2818 -0.1939
  196MPD1    H2 2986   3.365   2.113  17.547 -0.8494 -0.9520 -0.3053
  196MPD1    H3 2987   3.437   2.274   0.020 -1.5055  3.3330  1.1942
  196MPD1     N 2988   3.058   2.225   0.248 -0.1399 -0.5564 -0.1720
  196MPD1    H5 2989   3.094   2.301   0.305 -0.9306  0.1824 -0.6473
  196MPD1    N1 2990   3.102   2.010  17.523 -0.2424 -0.1765  0.4348
  196MPD1    H6 2991   3.174   1.974  17.461 -1.0981  0.3826 -0.8774
  196MPD1    H7 2992   3.026   1.944  17.532 -0.6403 -0.0823 -2.3968
  197MPD1     C 2993   2.614   3.669  17.569 -0.0150  0.7256 -0.4933
  197MPD1    C1 2994   2.740   3.720  17.602 -0.2251 -0.0732 -0.1962
  197MPD1    C2 2995   2.796   3.822  17.526  0.3585 -0.0165  0.6600
  197MPD1    C3 2996   2.738   3.857  17.403 -0.0489  0.9796  0.3063
  197MPD1    C4 2997   2.627   3.789  17.358 -0.3751  0.2651 -0.4756
  197MPD1    C5 2998   2.566   3.696  17.440  0.3045  0.2793  0.1899
  197MPD1     H 2999   2.891   3.866  17.553 -0.2892  1.2001  0.9685
  197MPD1    H1 3000   2.598   3.797  17.253 -0.3329 -0.8130 -0.5723
  197MPD1    H2 3001   2.558   3.598  17.629 -0.6961  0.5681 -1.3112
  197MPD1    H3 3002   2.482   3.641  17.398 -0.5053 -0.0529  2.2350
  197MPD1     N 3003   2.790   3.940  17.305  0.5101 -0.3268  0.1084
  197MPD1    H5 3004   2.745   3.937  17.214 -0.6540 -1.8943  0.7428
  197MPD1    N1 3005   2.801   3.677   0.017  0.5028 -0.4129 -0.7028
  197MPD1    H6 3006   2.897   3.711   0.009  0.0396  0.8479 -0.9715
  197MPD1    H7 3007   2.796   3.577   0.030 -0.0980 -0.5673 -2.1016
  198MPD1     C 3008   0.174   1.921  15.346 -0.4312  0.3688 -0.1158
  198MPD1    C1 3009   0.314   1.952  15.350 -0.3293  0.4775 -0.4196
  198MPD1    C2 3010   0.351   2.068  15.409  0.8059  0.5150 -0.3143
  198MPD1    C3 3011   0.261   2.139  15.484 -0.1161 -0.1395  0.3966
  198MPD1    C4 3012   0.125   2.111  15.486  0.0745  1.2226  0.2411
  198MPD1    C5 3013   0.085   2.002  15.414  0.0952 -0.5610  0.5109
  198MPD1     H 3014   0.457   2.086  15.425  0.3364  1.0457  2.2560
  198MPD1    H1 3015   0.046   2.164  15.538 -0.9860  1.2731 -1.3912
  198MPD1    H2 3016   0.140   1.831  15.295 -4.1607  1.3006  0.7101
  198MPD1    H3 3017   4.707   1.975  15.401 -0.3479  1.5834 -0.3749
  198MPD1     N 3018   0.318   2.249  15.556  0.2657 -0.4190  0.0055
  198MPD1    H5 3019   0.414   2.267  15.529  0.8270  0.4186  2.5610
  198MPD1    N1 3020   0.402   1.877  15.273  0.1137 -0.1145  0.4508
  198MPD1    H6 3021   0.372   1.780  15.274  2.1332 -0.7148  2.1825
  198MPD1    H7 3022   0.502   1.888  15.289  0.3064 -1.0210 -0.1198
  199MPD1     C 3023   3.487   3.704   9.839  0.2961  0.1309 -0.8261
  199MPD1    C1 3024   3.431   3.788   9.749 -0.0067  0.0985 -0.1015
  199MPD1    C2 3025   3.304   3.768   9.708  0.5952  0.4557  0.9560
  199MPD1    C3 3026   3.226   3.665   9.758 -0.0565  0.5670  0.2664
  199MPD1    C4 3027   3.283   3.593   9.855 -0.4303 -0.0058 -0.2409
  199MPD1    C5 3028   3.410   3.608   9.893  0.2796  0.1891  0.3757
  199MPD1     H 3029   3.258   3.834   9.636  0.0752 -0.0606  0.8125
  199MPD1    H1 3030   3.237   3.508   9.903  2.0005 -0.6047  1.0210
  199MPD1    H2 3031   3.592   3.708   9.868  0.3991 -1.4558 -0.9619
  199MPD1    H3 3032   3.458   3.535   9.957 -0.3771 -0.7227 -0.1753
  199MPD1     N 3033   3.093   3.641   9.720  0.3134  0.4077  0.5731
  199MPD1    H5 3034   3.046   3.563   9.765 -0.5207 -0.5519 -1.9521
  199MPD1    N1 3035   3.519   3.876   9.681  0.7336  0.8191  0.2025
  199MPD1    H6 3036   3.476   3.961   9.644  0.3354  0.2613 -0.6150
  199MPD1    H7 3037   3.598   3.905   9.738  1.7680  0.2462 -0.9386
  200MPD1     C 3038   0.791   3.726  14.852 -0.3878  0.2940 -0.1046
  200MPD1    C1 3039   0.823   3.737  14.721  0.0508  0.2030  0.3840
  200MPD1    C2 3040   0.952   3.749  14.686 -0.0096  0.9122  0.0871
  200MPD1    C3 3041   1.054   3.777  14.778 -0.4429  0.1164  0.2507
  200MPD1    C4 3042   1.017   3.799  14.908 -0.6329  0.2052 -0.6327
  200MPD1    C5 3043   0.888   3.766  14.942 -0.0883 -0.7755 -0.2537
  200MPD1     H 3044   0.976   3.741  14.581  0.7182 -1.5336  0.4199
  200MPD1    H1 3045   1.083   3.816  14.994  3.1402 -1.0107 -3.2911
  200MPD1    H2 3046   0.691   3.705  14.889 -0.2372 -1.5367 -0.7535
  200MPD1    H3 3047   0.866   3.770  15.048 -2.0470 -2.3508 -0.5952
  200MPD1     N 3048   1.185   3.795  14.728  0.0313  0.4381  0.3279
  200MPD1    H5 3049   1.207   3.779  14.630 -0.6277 -1.3441  0.4809
  200MPD1    N1 3050   0.731   3.706  14.622 -0.2464 -0.4663  0.0360
  200MPD1    H6 3051   0.756   3.760  14.539  0.0560  0.6594  0.8638
  200MPD1    H7 3052   0.635   3.725  14.650  0.3665 -0.6959  2.2806
  201MPD1     C 3053   3.626   3.176  12.727 -0.1996  0.2063  0.2992
  201MPD1    C1 3054   3.607   3.044  12.688 -0.1344  0.3645  0.3796
  201MPD1    C2 3055   3.624   2.953  12.789 -0.3815  0.0482 -0.3282
  201MPD1    C3 3056   3.670   2.982  12.909  0.3232 -0.9233 -0.2632
  201MPD1    C4 3057   3.707   3.110  12.938 -0.7836  0.3958 -0.0447
  201MPD1    C5 3058   3.683   3.209  12.846  0.5647  0.0289 -0.2157
  201MPD1     H 3059   3.590   2.851  12.771  1.6892 -0.9095  1.2867
  201MPD1    H1 3060   3.756   3.138  13.031  1.8815  1.4418 -1.7730
  201MPD1    H2 3061   3.600   3.250  12.651  1.3780  1.3262  0.8382
  201MPD1    H3 3062   3.709   3.310  12.875 -3.3798  1.3025 -1.0815
  201MPD1     N 3063   3.669   2.871  13.003  0.1099  0.4853 -0.6059
  201MPD1    H5 3064   3.628   2.788  12.962  0.1816  1.2480 -2.2422
  201MPD1    N1 3065   3.535   3.011  12.572 -0.4326  0.4861  0.6983
  201MPD1    H6 3066   3.558   2.918  12.538 -2.5578 -0.1059  0.8868
  201MPD1    H7 3067   3.554   3.080  12.500 -2.8496  2.3532  1.8735
  202MPD1     C 3068   3.044   1.541   9.102 -0.2838 -0.9037 -0.7845
  202MPD1    C1 3069   3.038   1.671   9.067  0.1681 -0.1267 -0.4273
  202MPD1    C2 3070   3.064   1.759   9.170 -0.0806  0.4021  0.7159
  202MPD1    C3 3071   3.133   1.725   9.285  1.0956 -0.0925  0.3761
  202MPD1    C4 3072   3.169   1.592   9.298  0.1768 -0.1285  0.0021
  202MPD1    C5 3073   3.124   1.497   9.205 -0.6192 -0.3148 -0.2619
  202MPD1     H 3074   3.056   1.865   9.147 -0.6530  0.4620  1.2022
  202MPD1    H1 3075   3.238   1.547   9.370 -2.0362 -0.8859  1.6370
  202MPD1    H2 3076   3.005   1.466   9.035 -1.5043 -1.8147  0.9490
  202MPD1    H3 3077   3.151   1.393   9.224  3.2722  0.5143 -1.1849
  202MPD1     N 3078   3.198   1.819   9.374 -0.3910 -0.3349 -0.2632
  202MPD1    H5 3079   3.252   1.779   9.450  1.4026  2.0192 -0.2948
  202MPD1    N1 3080   2.943   1.716   8.975 -0.0039 -0.1166 -0.3145
  202MPD1    H6 3081   2.955   1.662   8.890  0.4717 -1.1130  0.3940
  202MPD1    H7 3082   2.953   1.817   8.962  1.6653 -0.1159  0.9186
  203MPD1     C 3083   2.677   3.617  12.715 -0.2847 -0.6109  0.1731
  203MPD1    C1 3084   2.609   3.509  12.665 -0.1911 -0.2824  0.7134
  203MPD1    C2 3085   2.679   3.391  12.664  0.4636  0.1300 -0.2170
  203MPD1    C3 3086   2.798   3.372  12.729 -0.2759  0.1806 -0.3744
  203MPD1    C4 3087   2.855   3.481  12.798  0.3982 -0.5244 -0.4128
  203MPD1    C5 3088   2.793   3.604  12.776  0.2384 -0.6137  0.4332
  203MPD1     H 3089   2.640   3.299  12.622  1.2178 -2.3385  4.5672
  203MPD1    H1 3090   2.942   3.479  12.863 -0.0225 -0.1792  0.1526
  203MPD1    H2 3091   2.640   3.718  12.721  2.0580  0.3070 -0.7292
  203MPD1    H3 3092   2.831   3.693  12.823 -1.4898  0.7571 -0.7736
  203MPD1     N 3093   2.843   3.235  12.734  0.3367 -0.0438  0.4205
  203MPD1    H5 3094   2.798   3.165  12.676  1.7799 -0.0103 -0.7225
  203MPD1    N1 3095   2.474   3.514  12.619 -0.7304 -0.3047  0.6396
  203MPD1    H6 3096   2.448   3.608  12.589 -0.1617 -0.7732 -1.3317
  203MPD1    H7 3097   2.452   3.443  12.549 -1.6281 -1.1521  1.7695
  204MPD1     C 3098   2.089   4.422  17.575 -0.4089  0.0709  0.2371
  204MPD1    C1 3099   2.117   4.291  17.557  0.6108 -0.0316 -0.4166
  204MPD1    C2 3100   2.034   4.218  17.470 -0.0425 -0.1399  0.4836
  204MPD1    C3 3101   1.923   4.280  17.413  0.6941  0.1110  0.4461
  204MPD1    C4 3102   1.899   4.416  17.435 -0.2490  0.1831 -0.0878
  204MPD1    C5 3103   1.993   4.487  17.504  0.2465 -0.8900 -0.2612
  204MPD1     H 3104   2.058   4.117  17.438  0.1650  0.7753 -2.1902
  204MPD1    H1 3105   1.814   4.471  17.394  0.5898 -0.0777 -2.1742
  204MPD1    H2 3106   2.151   4.480  17.642 -0.3997 -0.7239  0.9089
  204MPD1    H3 3107   1.987   4.594  17.513 -0.3496 -0.7004 -2.7834
  204MPD1     N 3108   1.845   4.210  17.316  0.5574  0.6097  0.1655
  204MPD1    H5 3109   1.886   4.126  17.276  0.8383 -0.2601  2.3005
  204MPD1    N1 3110   2.213   4.234  17.649 -0.1874 -0.1780 -0.4723
  204MPD1    H6 3111   2.249   4.144  17.620 -0.3210  0.0051 -1.2014
  204MPD1    H7 3112   2.290   4.300  17.662 -1.5824  1.1841  0.8972
  205MPD1     C 3113   2.213   3.250  17.053 -0.2693 -0.3166  0.9805
  205MPD1    C1 3114   2.205   3.227  17.188  0.1025 -0.4464 -0.8345
  205MPD1    C2 3115   2.078   3.206  17.238  0.6401 -0.6639 -0.0403
  205MPD1    C3 3116   1.968   3.196  17.156 -0.1923 -0.1784  0.0291
  205MPD1    C4 3117   1.981   3.204  17.022 -0.1266 -0.1467 -0.1944
  205MPD1    C5 3118   2.104   3.240  16.977 -0.3864 -0.0931  0.1517
  205MPD1     H 3119   2.067   3.188  17.345  0.0887 -3.0432 -0.5043
  205MPD1    H1 3120   1.893   3.193  16.960  1.0776  1.4775 -2.2000
  205MPD1    H2 3121   2.307   3.260  17.001 -0.3339  0.3600  0.9943
  205MPD1    H3 3122   2.108   3.264  16.871 -1.8425 -1.1580 -0.1472
  205MPD1     N 3123   1.838   3.184  17.200 -0.3496 -0.0397  0.5101
  205MPD1    H5 3124   1.772   3.203  17.124  0.5427 -0.2211 -0.3053
  205MPD1    N1 3125   2.325   3.207  17.256  0.4858  0.4004 -0.0976
  205MPD1    H6 3126   2.307   3.233  17.353  1.6743  3.0435 -0.5998
  205MPD1    H7 3127   2.399   3.262  17.215  0.7590  0.5233  0.5682
  206MPD1     C 3128   1.824   1.196  16.739  0.2241 -0.4740  0.1402
  206MPD1    C1 3129   1.860   1.091  16.662 -0.0866 -0.2370 -0.5974
  206MPD1    C2 3130   1.877   1.113  16.526  0.0018 -0.1610 -0.2567
  206MPD1    C3 3131   1.834   1.222  16.458 -0.1785  0.2680  0.5526
  206MPD1    C4 3132   1.785   1.330  16.538  0.0412 -0.0607 -0.1117
  206MPD1    C5 3133   1.798   1.316  16.676  0.2865  0.5705  0.2511
  206MPD1     H 3134   1.917   1.026  16.474 -0.8047  0.5785 -2.1137
  206MPD1    H1 3135   1.759   1.429  16.503 -0.4227 -0.5123 -1.0541
  206MPD1    H2 3136   1.816   1.195  16.847  0.9611  0.2887  0.2036
  206MPD1    H3 3137   1.785   1.404  16.737  0.1626 -0.3652  1.5737
  206MPD1     N 3138   1.846   1.238  16.312 -0.1638  0.1674 -0.3879
  206MPD1    H5 3139   1.800   1.320  16.273  0.0798  0.2458 -0.5110
  206MPD1    N1 3140   1.905   0.977  16.724  1.2344 -0.2993 -0.0658
  206MPD1    H6 3141   1.859   0.954  16.812  4.0031 -0.1320  1.4219
  206MPD1    H7 3142   1.879   0.897  16.666  0.9530  0.4887 -1.0248
  207MPD1     C 3143   4.651   3.293   9.969  0.0229  0.4758  0.1820
  207MPD1    C1 3144   4.651   3.173  10.037 -0.3010 -0.1801  0.6764
  207MPD1    C2 3145   0.002   3.161  10.149  0.9688  0.1773  0.1229
  207MPD1    C3 3146   0.058   3.269  10.209 -0.4743 -0.2063 -0.8796
  207MPD1    C4 3147   0.058   3.388  10.148 -0.4733  0.6977  0.8702
  207MPD1    C5 3148   4.715   3.398  10.027 -0.5296 -0.3067 -0.6288
  207MPD1     H 3149   0.005   3.064  10.198  1.8021  0.9754  1.6405
  207MPD1    H1 3150   0.113   3.475  10.180  1.6301  0.9351 -3.3473
  207MPD1    H2 3151   4.604   3.307   9.873  0.3989 -2.4915 -0.4365
  207MPD1    H3 3152   4.721   3.486   9.965 -0.3335 -0.2171 -0.4832
  207MPD1     N 3153   0.126   3.267  10.340 -0.3653 -0.0010 -0.7388
  207MPD1    H5 3154   0.156   3.356  10.379  0.3718 -1.1088  1.2676
  207MPD1    N1 3155   4.598   3.060   9.983  0.0312  0.1313  0.2997
  207MPD1    H6 3156   4.578   2.986  10.050  1.5045 -0.9030 -0.3821
  207MPD1    H7 3157   4.534   3.077   9.906 -0.5133 -0.2154  0.6761
  208MPD1     C 3158   2.377   2.543  17.610  0.6499  0.0253  0.1485
  208MPD1    C1 3159   2.255   2.611  17.606  0.3033 -0.6607  0.5596
  208MPD1    C2 3160   2.181   2.622   0.015 -0.1073  0.5064 -0.6442
  208MPD1    C3 3161   2.229   2.585   0.139  0.0388 -0.2495 -1.0334
  208MPD1    C4 3162   2.361   2.538   0.146  0.4685  0.0292 -0.0211
  208MPD1    C5 3163   2.432   2.509   0.025 -0.2432  0.1227 -0.1772
  208MPD1     H 3164   2.085   2.671   0.010  0.0631  0.9582  0.3879
  208MPD1    H1 3165   2.392   2.481   0.233  1.0258  0.5147  0.0917
  208MPD1    H2 3166   2.426   2.517  17.516 -1.8913 -0.4937 -1.0281
  208MPD1    H3 3167   2.525   2.454   0.023 -0.9613 -1.0924 -0.0126
  208MPD1     N 3168   2.138   2.584   0.248  0.3468 -0.6934 -0.2018
  208MPD1    H5 3169   2.044   2.616   0.227 -1.0460 -4.5643  0.3063
  208MPD1    N1 3170   2.188   2.625  17.483  0.3514  0.5695  0.0828
  208MPD1    H6 3171   2.244   2.647  17.401 -0.2380  0.4025 -0.3638
  208MPD1    H7 3172   2.118   2.699  17.483  1.6013  1.7463  0.8117
  209MPD1     C 3173   0.244   1.600  11.067 -0.3272  0.1954  0.1464
  209MPD1    C1 3174   0.183   1.615  11.191  0.0981  1.1027  0.4067
  209MPD1    C2 3175   0.157   1.746  11.238  0.1564 -0.2032  0.2664
  209MPD1    C3 3176   0.167   1.852  11.147 -0.2370  0.1661  0.1615
  209MPD1    C4 3177   0.226   1.833  11.017 -0.1918  0.2136 -0.0090
  209MPD1    C5 3178   0.273   1.709  10.986 -0.1672  0.0263  0.2952
  209MPD1     H 3179   0.124   1.770  11.338 -0.3724 -0.9380  0.2647
  209MPD1    H1 3180   0.226   1.907  10.937  1.0176  0.9136  0.6240
  209MPD1    H2 3181   0.277   1.503  11.031  0.9626  0.8868 -0.4979
  209MPD1    H3 3182   0.317   1.693  10.888 -1.7260  3.0885 -0.9321
  209MPD1     N 3183   0.111   1.972  11.193  0.7924 -0.5263 -0.6509
  209MPD1    H5 3184   0.057   1.972  11.280 -1.8479 -1.0808 -2.2756
  209MPD1    N1 3185   0.166   1.502  11.277  0.2171  0.0389  0.0480
  209MPD1    H6 3186   0.082   1.520  11.332 -0.1385 -1.0200 -0.1593
  209MPD1    H7 3187   0.141   1.424  11.217  0.6565 -1.4919  1.8333
  210MPD1     C 3188   4.309   2.078  11.883  0.0209 -0.0422 -0.2700
  210MPD1    C1 3189   4.257   2.156  11.777 -0.3747 -0.0494 -0.2547
  210MPD1    C2 3190   4.333   2.189  11.667  0.1252  0.1103  0.7518
  210MPD1    C3 3191   4.463   2.143  11.661 -0.4231 -1.0914  0.0213
  210MPD1    C4 3192   4.516   2.074  11.766  0.0455  0.6975 -0.5763
  210MPD1    C5 3193   4.444   2.038  11.883  0.1560  0.2586  0.0202
  210MPD1     H 3194   4.284   2.251  11.592  0.4853 -0.6508 -0.1084
  210MPD1    H1 3195   4.616   2.031  11.769 -0.8159 -1.2844  0.5328
  210MPD1    H2 3196   4.242   2.040  11.959  0.1267  0.7384  0.2168
  210MPD1    H3 3197   4.471   1.965  11.958 -1.2392 -1.1819 -0.8777
  210MPD1     N 3198   4.556   2.168  11.555 -0.0586 -0.2480 -0.1909
  210MPD1    H5 3199   4.650   2.131  11.554 -0.5801 -1.6010  1.1303
  210MPD1    N1 3200   4.131   2.214  11.794  0.4234  0.2662  0.2388
  210MPD1    H6 3201   4.071   2.167  11.861  0.4575  0.6064  0.5082
  210MPD1    H7 3202   4.089   2.240  11.705  0.1700 -0.3871  0.1693
  211MPD1     C 3203   2.633   2.541  16.030 -0.0575  0.6542  0.0682
  211MPD1    C1 3204   2.509   2.476  16.050 -0.0550  0.0225 -1.2494
  211MPD1    C2 3205   2.414   2.548  16.117  1.1077 -0.3496  0.0969
  211MPD1    C3 3206   2.439   2.686  16.147  0.4439  0.4037 -0.3770
  211MPD1    C4 3207   2.550   2.755  16.110  0.0481  0.7660 -0.1331
  211MPD1    C5 3208   2.644   2.678  16.042 -0.4473 -0.2545  0.0414
  211MPD1     H 3209   2.320   2.502  16.144 -0.3847  2.1083 -0.8662
  211MPD1    H1 3210   2.566   2.859  16.135  0.6772  0.5583  0.3431
  211MPD1    H2 3211   2.721   2.492  15.988  1.0228  1.3680  1.4842
  211MPD1    H3 3212   2.733   2.732  16.011 -0.7881  0.7613  0.8188
  211MPD1     N 3213   2.332   2.747  16.215 -0.1125 -0.4827  0.3411
  211MPD1    H5 3214   2.253   2.687  16.236 -0.0713 -0.7019 -0.1455
  211MPD1    N1 3215   2.508   2.331  16.021  0.1112  0.5537 -0.0228
  211MPD1    H6 3216   2.569   2.305  15.944 -3.2127  0.5016 -2.5979
  211MPD1    H7 3217   2.414   2.293  16.013  1.1720 -2.3719  1.3298
  212MPD1     C 3218   1.539   0.790  16.631  0.5757  0.9453 -0.7371
  212MPD1    C1 3219   1.497   0.904  16.691 -0.2572  0.5055  0.4593
  212MPD1    C2 3220   1.385   0.898  16.783  0.0303  0.7318  0.2533
  212MPD1    C3 3221   1.332   0.775  16.809 -0.1810 -0.3076  0.6725
  212MPD1    C4 3222   1.375   0.662  16.736  0.0740 -0.3734  0.2523
  212MPD1    C5 3223   1.482   0.666  16.647 -0.3886 -1.2803 -0.0575
  212MPD1     H 3224   1.351   0.994  16.823 -1.4777  0.3428 -0.0997
  212MPD1    H1 3225   1.332   0.563  16.745  1.2535 -0.7599  1.6334
  212MPD1    H2 3226   1.623   0.798  16.563 -0.7192  1.5035 -2.2505
  212MPD1    H3 3227   1.508   0.574  16.596  1.5045  0.2124 -1.7904
  212MPD1     N 3228   1.226   0.757  16.896  0.1323 -0.5040  0.4167
  212MPD1    H5 3229   1.168   0.674  16.883  0.4768 -0.7830  0.6562
  212MPD1    N1 3230   1.550   1.024  16.662  0.0137 -0.2325  0.3244
  212MPD1    H6 3231   1.543   1.082  16.746 -0.1721  0.5373 -0.2238
  212MPD1    H7 3232   1.643   1.017  16.623 -0.4721  2.4423 -1.2541
  213MPD1     C 3233   4.432   3.160  15.818 -0.6608 -0.4040  0.2339
  213MPD1    C1 3234   4.386   3.178  15.693 -0.3038  0.0387 -0.1507
  213MPD1    C2 3235   4.307   3.078  15.646  0.2761  0.6017  0.3769
  213MPD1    C3 3236   4.235   2.996  15.728 -0.5128 -0.9392 -1.1640
  213MPD1    C4 3237   4.251   3.013  15.866 -0.1083  0.0690  0.7078
  213MPD1    C5 3238   4.348   3.099  15.904 -0.5414 -1.0479  0.3835
  213MPD1     H 3239   4.296   3.071  15.538  0.2660 -2.4098  0.5879
  213MPD1    H1 3240   4.191   2.969  15.945  1.4091  0.3354  2.0066
  213MPD1    H2 3241   4.505   3.233  15.850 -1.6405  0.5374  0.3159
  213MPD1    H3 3242   4.368   3.103  16.011 -0.7111  0.3152  0.3714
  213MPD1     N 3243   4.141   2.906  15.671  0.0729 -0.2048 -0.5868
  213MPD1    H5 3244   4.111   2.916  15.574  2.4311 -0.1731 -1.3156
  213MPD1    N1 3245   4.474   3.235  15.595 -0.1246  0.3580 -0.5745
  213MPD1    H6 3246   4.440   3.237  15.499  1.1249 -1.6538 -1.0484
  213MPD1    H7 3247   4.527   3.316  15.628  0.9918 -0.2626 -0.8227
  214MPD1     C 3248   3.438   2.066  15.673  0.0972  0.9949  0.6065
  214MPD1    C1 3249   3.426   2.181  15.742  0.1993 -0.5122 -0.3663
  214MPD1    C2 3250   3.512   2.287  15.709  0.0838  0.5858  0.2738
  214MPD1    C3 3251   3.600   2.269  15.604 -0.0076 -0.6823  0.4144
  214MPD1    C4 3252   3.600   2.153  15.534 -0.2325  0.7466  0.1489
  214MPD1    C5 3253   3.517   2.051  15.567 -0.3118 -0.1051 -0.0956
  214MPD1     H 3254   3.505   2.379  15.765 -0.5692  0.3168  0.6358
  214MPD1    H1 3255   3.652   2.150  15.439 -1.3522  4.5064 -0.5855
  214MPD1    H2 3256   3.382   1.980  15.709  0.3951  0.1289 -0.9959
  214MPD1    H3 3257   3.507   1.963  15.505 -0.4913 -0.6126  0.6588
  214MPD1     N 3258   3.690   2.375  15.572 -0.7361  0.5711  0.2584
  214MPD1    H5 3259   3.754   2.351  15.496 -0.7899 -1.6941  0.9115
  214MPD1    N1 3260   3.331   2.190  15.847  0.0777  0.3011 -0.8224
  214MPD1    H6 3261   3.306   2.288  15.859  0.3942  0.1693  0.8589
  214MPD1    H7 3262   3.250   2.132  15.825 -1.5335  2.1835  0.1056
  215MPD1     C 3263   4.145   2.582  10.815 -0.1687  0.4346 -0.2592
  215MPD1    C1 3264   4.209   2.571  10.934 -0.5096 -0.0899  0.4358
  215MPD1    C2 3265   4.311   2.667  10.958 -0.2109  0.5099  0.4588
  215MPD1    C3 3266   4.344   2.765  10.868 -0.3335  0.2191  0.3323
  215MPD1    C4 3267   4.268   2.779  10.759 -0.7468  0.2782 -0.2264
  215MPD1    C5 3268   4.170   2.683  10.733 -0.4023 -0.4819 -1.0920
  215MPD1     H 3269   4.367   2.663  11.051  0.1918  1.0727  0.2463
  215MPD1    H1 3270   4.290   2.860  10.691  0.1931  0.3711  0.1941
  215MPD1    H2 3271   4.070   2.512  10.778 -1.3356  0.7249  1.6089
  215MPD1    H3 3272   4.125   2.683  10.634 -0.8777  0.7043 -0.8820
  215MPD1     N 3273   4.442   2.859  10.910  0.0771  0.0771  0.8850
  215MPD1    H5 3274   4.470   2.845  11.006 -0.1677 -1.3142  0.7528
  215MPD1    N1 3275   4.156   2.482  11.037  0.1021 -0.1279  0.5384
  215MPD1    H6 3276   4.079   2.528  11.084 -0.2763  0.5010 -0.7039
  215MPD1    H7 3277   4.126   2.395  10.993 -0.5336 -0.7265  2.1853
  216MPD1     C 3278   1.734   1.078  17.063 -0.4788 -1.0949 -0.1116
  216MPD1    C1 3279   1.619   1.014  17.039  0.1456 -0.0835 -0.3268
  216MPD1    C2 3280   1.620   0.878  17.008  0.2118  0.8093  0.4194
  216MPD1    C3 3281   1.747   0.814  17.003 -0.0298 -0.5493 -0.5025
  216MPD1    C4 3282   1.867   0.885  17.019  0.0936  0.1774 -0.1421
  216MPD1    C5 3283   1.858   1.015  17.063 -0.7603 -0.3244  0.1301
  216MPD1     H 3284   1.530   0.822  16.986  0.2568  0.9002  0.0014
  216MPD1    H1 3285   1.963   0.836  17.010  0.2691  0.5816 -0.4950
  216MPD1    H2 3286   1.737   1.184  17.085  0.2667 -1.1468  0.0314
  216MPD1    H3 3287   1.953   1.057  17.096 -0.8375 -0.0037 -0.0580
  216MPD1     N 3288   1.744   0.682  16.965 -0.1105  0.7737  0.1201
  216MPD1    H5 3289   1.651   0.643  16.951  0.8142 -1.2025 -0.4575
  216MPD1    N1 3290   1.500   1.084  17.077  0.2964 -0.1403  0.4768
  216MPD1    H6 3291   1.412   1.056  17.034  0.1159 -2.9665  2.6950
  216MPD1    H7 3292   1.509   1.184  17.059  0.0910 -0.2453 -0.2125
  217MPD1     C 3293   2.153   1.053   8.977 -0.4238 -0.7603  0.3599
  217MPD1    C1 3294   2.089   1.162   9.028  0.0760  0.6183 -0.2281
  217MPD1    C2 3295   2.173   1.251   9.095  0.2474  0.4147  0.4874
  217MPD1    C3 3296   2.311   1.239   9.100  0.3800 -0.3465  0.7049
  217MPD1    C4 3297   2.370   1.136   9.032  0.5238  0.0899  0.1791
  217MPD1    C5 3298   2.293   1.041   8.980 -0.6681 -0.6286 -0.3742
  217MPD1     H 3299   2.120   1.328   9.149 -0.7259 -0.8558  1.3655
  217MPD1    H1 3300   2.478   1.127   9.029  0.4317 -1.1122  0.4747
  217MPD1    H2 3301   2.093   0.969   8.943 -0.1321  0.7057 -3.8083
  217MPD1    H3 3302   2.335   0.949   8.941 -2.1477 -1.8079  0.8159
  217MPD1     N 3303   2.404   1.345   9.152 -0.0932 -0.7806  0.1861
  217MPD1    H5 3304   2.501   1.317   9.167 -0.5342 -2.6853 -0.4460
  217MPD1    N1 3305   1.951   1.173   9.045 -0.7419 -0.1200  0.1070
  217MPD1    H6 3306   1.923   1.267   9.073  1.4062  1.0383 -1.6171
  217MPD1    H7 3307   1.906   1.161   8.954 -2.0191 -3.5643  1.2265
  218MPD1     C 3308   4.216   4.000  12.994 -0.4656  0.5944  0.1765
  218MPD1    C1 3309   4.176   3.958  12.868  0.2041 -0.0477  0.3619
  218MPD1    C2 3310   4.204   3.821  12.831  1.0068  0.7302  0.6427
  218MPD1    C3 3311   4.289   3.747  12.914 -0.1009  0.3783  0.6034
  218MPD1    C4 3312   4.328   3.793  13.041  0.5571  0.0229 -0.8151
  218MPD1    C5 3313   4.281   3.917  13.080 -0.3934  0.8255 -0.1309
  218MPD1     H 3314   4.168   3.771  12.742  1.1281 -1.9084  2.0688
  218MPD1    H1 3315   4.396   3.743  13.109 -0.0754 -0.6537 -0.6810
  218MPD1    H2 3316   4.185   4.098  13.031  1.8887  0.9764  1.1510
  218MPD1    H3 3317   4.297   3.949  13.183  1.6863  0.4742 -0.3567
  218MPD1     N 3318   4.342   3.625  12.865 -0.0059  1.2025  0.2532
  218MPD1    H5 3319   4.305   3.595  12.775  1.1366  0.8328 -0.0942
  218MPD1    N1 3320   4.101   4.036  12.778 -0.7427 -0.1159  0.6310
  218MPD1    H6 3321   4.107   4.010  12.679  2.4753  2.6577  0.1162
  218MPD1    H7 3322   4.107   4.137  12.780  2.9728 -0.3393  0.2176
  219MPD1     C 3323   4.653   2.964  12.161  0.3072  0.3682 -0.3117
  219MPD1    C1 3324   4.561   2.902  12.246  0.2718 -0.2533 -0.1196
  219MPD1    C2 3325   4.524   2.973  12.359 -0.2084 -0.1319  0.8536
  219MPD1    C3 3326   4.575   3.092  12.386 -0.2387 -0.4499  0.4301
  219MPD1    C4 3327   4.679   3.149  12.314 -0.2276  0.6939 -0.4777
  219MPD1    C5 3328   4.708   3.083  12.193  0.3052  0.4812  0.7159
  219MPD1     H 3329   4.457   2.918  12.425 -1.2023 -0.3067 -0.2829
  219MPD1    H1 3330   0.003   3.242  12.338  2.3404 -0.5661 -0.9268
  219MPD1    H2 3331   4.686   2.915  12.069 -1.0876 -1.3581  0.1101
  219MPD1    H3 3332   0.060   3.112  12.123  1.4070 -1.1329  1.2488
  219MPD1     N 3333   4.534   3.154  12.509  0.4357 -0.1231 -0.6573
  219MPD1    H5 3334   4.456   3.104  12.551 -0.7712  0.9573 -1.6289
  219MPD1    N1 3335   4.486   2.789  12.211 -0.6124 -0.1962 -0.1504
  219MPD1    H6 3336   4.552   2.720  12.175  1.3398  1.8746 -0.5464
  219MPD1    H7 3337   4.437   2.748  12.289  1.2144 -0.1287  1.0356
  220MPD1     C 3338   3.961   4.606  10.274 -0.2694  0.2080 -0.4576
  220MPD1    C1 3339   3.970   4.553  10.399  0.5017 -0.6430  0.6574
  220MPD1    C2 3340   4.002   4.422  10.414  0.4097 -0.4664  0.7556
  220MPD1    C3 3341   4.006   4.328  10.307 -0.2604  0.7861  0.1513
  220MPD1    C4 3342   3.980   4.384  10.182  0.5435  0.6748  0.1974
  220MPD1    C5 3343   3.965   4.519  10.167 -0.0536 -0.1543 -0.6614
  220MPD1     H 3344   4.014   4.397  10.519 -5.1410  2.0806  2.0318
  220MPD1    H1 3345   3.976   4.323  10.092 -0.6802 -1.2083  1.5009
  220MPD1    H2 3346   3.953   4.712  10.254  0.5492  0.2094 -0.7457
  220MPD1    H3 3347   3.955   4.565  10.069  2.9151 -1.0305 -1.3724
  220MPD1     N 3348   4.042   4.189  10.327  0.0661 -0.2850 -0.3693
  220MPD1    H5 3349   4.077   4.175  10.421  3.3751  0.0667 -1.5149
  220MPD1    N1 3350   3.961   4.633  10.513  0.2580 -0.1227 -0.3193
  220MPD1    H6 3351   4.021   4.609  10.592  0.7121 -0.5220 -0.7789
  220MPD1    H7 3352   3.983   4.725  10.476 -1.0088  0.6088  0.7878
  221MPD1     C 3353   1.561   2.649  17.480  0.3350 -0.2290  0.1280
  221MPD1    C1 3354   1.494   2.586  17.382  0.4209  0.2274  0.4138
  221MPD1    C2 3355   1.556   2.574  17.254 -0.0711 -0.0549  0.1436
  221MPD1    C3 3356   1.683   2.630  17.231  0.5103 -0.4579  0.3961
  221MPD1    C4 3357   1.749   2.687  17.339 -0.1496  0.2370 -0.4570
  221MPD1    C5 3358   1.687   2.701  17.460 -0.1930 -0.2617 -0.1644
  221MPD1     H 3359   1.513   2.511  17.177 -2.8409  0.3079  1.3758
  221MPD1    H1 3360   1.849   2.725  17.319 -0.3478  0.6372 -0.6986
  221MPD1    H2 3361   1.503   2.679  17.567  1.6369  1.5752  0.3716
  221MPD1    H3 3362   1.742   2.755  17.537  0.3910  0.6193 -1.1902
  221MPD1     N 3363   1.752   2.614  17.113 -0.1471 -0.1026 -0.4755
  221MPD1    H5 3364   1.844   2.656  17.103  0.1127 -0.8115 -1.0299
  221MPD1    N1 3365   1.360   2.550  17.395  0.3758  0.1435 -0.4949
  221MPD1    H6 3366   1.339   2.478  17.326 -1.6325 -0.5905  0.8867
  221MPD1    H7 3367   1.342   2.508  17.486  0.4366 -1.2212 -1.1175
  222MPD1     C 3368   2.257   0.340  17.339  0.4372 -0.6476  0.0430
  222MPD1    C1 3369   2.233   0.446  17.430 -0.1045  0.2209  0.5031
  222MPD1    C2 3370   2.109   0.495  17.443 -0.6889 -0.5845  0.9387
  222MPD1    C3 3371   2.015   0.479  17.341  0.6849  0.7571  0.0656
  222MPD1    C4 3372   2.048   0.395  17.236  0.4459  0.0750  0.0795
  222MPD1    C5 3373   2.165   0.324  17.240 -0.0211 -0.2061  0.3196
  222MPD1     H 3374   2.085   0.557  17.529  0.2003  1.0984 -0.0186
  222MPD1    H1 3375   1.979   0.376  17.155  1.2671  0.7805 -0.7912
  222MPD1    H2 3376   2.346   0.279  17.341  0.8447 -0.0018  2.3333
  222MPD1    H3 3377   2.183   0.262  17.153 -0.3998 -0.6223  0.5392
  222MPD1     N 3378   1.892   0.540  17.342 -0.2599  0.3397  0.0419
  222MPD1    H5 3379   1.825   0.512  17.271 -0.7157 -1.6585  1.2646
  222MPD1    N1 3380   2.330   0.469  17.525  0.3041  0.0734 -0.3959
  222MPD1    H6 3381   2.428   0.466  17.497  0.5398 -0.8811  0.5306
  222MPD1    H7 3382   2.320   0.550  17.585 -2.2526 -0.8741  0.4515
  223MPD1     C 3383   0.975   0.414  17.117 -0.4675  0.3087  0.3503
  223MPD1    C1 3384   0.960   0.495  17.229 -0.2731 -0.3444  0.8113
  223MPD1    C2 3385   1.067   0.569  17.273 -0.2636  0.1185 -0.3408
  223MPD1    C3 3386   1.190   0.557  17.210 -0.1476 -0.2819  0.1507
  223MPD1    C4 3387   1.200   0.488  17.091 -0.1357 -0.0167 -0.8216
  223MPD1    C5 3388   1.097   0.417  17.053 -0.2313 -0.5163 -0.4136
  223MPD1     H 3389   1.053   0.636  17.357  0.2815 -1.2325  0.8321
  223MPD1    H1 3390   1.282   0.489  17.020 -0.0972 -0.6075 -0.7818
  223MPD1    H2 3391   0.891   0.360  17.074 -0.3441  0.8614 -0.5899
  223MPD1    H3 3392   1.096   0.362  16.960  1.7578  1.2802 -1.5038
  223MPD1     N 3393   1.303   0.642  17.246  0.1699  0.1033  0.2277
  223MPD1    H5 3394   1.282   0.706  17.322  0.7676  1.9557 -1.1674
  223MPD1    N1 3395   0.828   0.515  17.271  0.5907 -0.2823  1.3682
  223MPD1    H6 3396   0.762   0.438  17.264  0.8940 -0.4150  0.0495
  223MPD1    H7 3397   0.823   0.557  17.364  1.2922  1.4684  0.6109
  224MPD1     C 3398   2.564   1.895   9.090  0.1546 -0.1036 -0.5073
  224MPD1    C1 3399   2.480   1.988   9.138  0.4134 -0.5265 -0.3557
  224MPD1    C2 3400   2.527   2.089   9.223 -0.4345  0.2597 -0.0974
  224MPD1    C3 3401   2.662   2.090   9.262  0.4935  0.0868 -0.3674
  224MPD1    C4 3402   2.747   1.992   9.218  0.1983 -0.6344  0.1667
  224MPD1    C5 3403   2.694   1.894   9.137  0.3670  0.1644  0.0411
  224MPD1     H 3404   2.465   2.171   9.258 -2.1416 -1.1204  0.1097
  224MPD1    H1 3405   2.849   1.992   9.253 -1.2460  2.8465  4.2711
  224MPD1    H2 3406   2.529   1.820   9.020  0.8109 -0.0543 -0.8919
  224MPD1    H3 3407   2.762   1.830   9.082 -1.9338 -2.0758 -0.1520
  224MPD1     N 3408   2.730   2.184   9.346  0.4634  0.1969  0.3352
  224MPD1    H5 3409   2.824   2.167   9.380  0.7544  1.8920  0.3742
  224MPD1    N1 3410   2.347   2.001   9.090 -0.2817 -0.2097  0.4897
  224MPD1    H6 3411   2.282   2.031   9.163 -0.5219  0.9977 -0.2195
  224MPD1    H7 3412   2.311   1.912   9.056  0.5894  0.1956 -1.4942
  225MPD1     C 3413   4.409   4.464  12.784 -0.8137  0.8075 -0.1347
  225MPD1    C1 3414   4.393   4.328  12.778  0.6587 -0.5161 -0.5738
  225MPD1    C2 3415   4.338   4.270  12.666 -0.0171 -0.6828  0.0492
  225MPD1    C3 3416   4.281   4.344  12.566  0.3915  0.3597 -0.3736
  225MPD1    C4 3417   4.302   4.479  12.572 -0.5399 -0.9601 -0.0674
  225MPD1    C5 3418   4.361   4.541  12.682 -0.0130  0.5138  0.1224
  225MPD1     H 3419   4.319   4.164  12.658 -1.8306 -0.4813  1.8238
  225MPD1    H1 3420   4.269   4.531  12.482  1.3432  1.0584  0.4074
  225MPD1    H2 3421   4.441   4.520  12.871 -1.2031  0.1591  0.4276
  225MPD1    H3 3422   4.351   4.648  12.688 -0.4270  0.4171  1.0320
  225MPD1     N 3423   4.194   4.289  12.466  0.3192  0.3786  0.4146
  225MPD1    H5 3424   4.152   4.361  12.408  1.6350  1.8237  1.2510
  225MPD1    N1 3425   4.452   4.246  12.875  0.0428  0.0682  0.1360
  225MPD1    H6 3426   4.480   4.296  12.959 -0.5203  0.7108 -0.0523
  225MPD1    H7 3427   4.415   4.152  12.878 -0.1640  0.0780 -1.6824
  226MPD1     C 3428   2.004   3.466   8.773 -0.3554  0.3467 -0.5860
  226MPD1    C1 3429   2.133   3.428   8.788  0.2960 -0.1073  0.0020
  226MPD1    C2 3430   2.223   3.531   8.813 -0.6686  0.2603 -0.2999
  226MPD1    C3 3431   2.186   3.668   8.838  1.1969 -0.8267  0.2292
  226MPD1    C4 3432   2.049   3.694   8.834 -0.3600 -0.4690 -0.8052
  226MPD1    C5 3433   1.964   3.595   8.786  0.3749 -0.4566 -0.7026
  226MPD1     H 3434   2.329   3.512   8.822 -1.0287 -1.5189  0.1219
  226MPD1    H1 3435   2.009   3.794   8.848  0.6644  0.1267 -2.0508
  226MPD1    H2 3436   1.930   3.389   8.754  0.6250 -1.0026  1.0493
  226MPD1    H3 3437   1.858   3.619   8.781  0.4800  0.3287  0.8181
  226MPD1     N 3438   2.283   3.768   8.870  0.6884 -0.5173 -0.0117
  226MPD1    H5 3439   2.381   3.744   8.881  0.8617 -0.5621 -1.7173
  226MPD1    N1 3440   2.168   3.297   8.748 -0.1052 -0.6734 -0.0235
  226MPD1    H6 3441   2.257   3.278   8.794 -1.2395 -2.7529  1.3092
  226MPD1    H7 3442   2.103   3.226   8.781 -0.3509  0.8146  2.7155
  227MPD1     C 3443   2.724   0.047   8.966  0.0829  0.5042  0.8908
  227MPD1    C1 3444   2.828   4.678   8.964  0.1319  0.4120  0.1679
  227MPD1    C2 3445   2.790   4.544   8.954 -0.8359  0.0576  0.2498
  227MPD1    C3 3446   2.658   4.513   8.959 -0.4399  0.7737 -0.0236
  227MPD1    C4 3447   2.560   4.607   8.961  0.4198 -0.6070  0.0045
  227MPD1    C5 3448   2.591   0.013   8.966  0.0758 -0.1157  0.0280
  227MPD1     H 3449   2.864   4.466   8.947 -1.6185 -0.6248 -0.4144
  227MPD1    H1 3450   2.457   4.575   8.968  0.9138 -1.6909  2.4194
  227MPD1    H2 3451   2.744   0.154   8.971 -0.5467  0.6597  0.0305
  227MPD1    H3 3452   2.518   0.092   8.960  0.6132  0.2894 -1.1226
  227MPD1     N 3453   2.623   4.377   8.961  0.2598  0.2091 -0.0335
  227MPD1    H5 3454   2.704   4.318   8.977  1.0532  1.6191  1.1292
  227MPD1    N1 3455   2.957   4.717   8.936 -0.5381 -1.2574  0.2006
  227MPD1    H6 3456   3.020   4.640   8.956 -1.1080 -1.7501  0.0694
  227MPD1    H7 3457   2.999   0.070   8.987 -3.0685 -1.2736  2.2937
  228MPD1     C 3458   1.667   1.693  12.541  0.0040 -0.2854  0.3907
  228MPD1    C1 3459   1.572   1.706  12.441  0.0149  0.2565 -0.3906
  228MPD1    C2 3460   1.445   1.652  12.469 -0.0680  0.3511 -0.2495
  228MPD1    C3 3461   1.414   1.578  12.580 -0.0264  0.7785  0.7214
  228MPD1    C4 3462   1.524   1.552  12.663 -0.1437  0.2744  0.8635
  228MPD1    C5 3463   1.648   1.606  12.642 -0.1282 -0.0203 -0.1466
  228MPD1     H 3464   1.360   1.668  12.405  0.2436  0.1805 -0.7050
  228MPD1    H1 3465   1.511   1.497  12.756  0.8204  0.6263  1.2066
  228MPD1    H2 3466   1.758   1.752  12.534  0.1534 -0.9785 -3.1926
  228MPD1    H3 3467   1.720   1.597  12.723 -0.0159  0.8881 -0.1452
  228MPD1     N 3468   1.274   1.555  12.615  0.0252  0.6048 -0.0859
  228MPD1    H5 3469   1.214   1.544  12.534 -1.2275 -1.2200  1.1075
  228MPD1    N1 3470   1.593   1.795  12.339  0.3732  0.5326 -0.7076
  228MPD1    H6 3471   1.540   1.768  12.256 -1.7405  1.0231  0.4900
  228MPD1    H7 3472   1.693   1.794  12.320  0.2706  0.2224 -1.2530
  229MPD1     C 3473   0.594   0.583  14.488  0.7600 -0.2925 -0.7645
  229MPD1    C1 3474   0.568   0.618  14.618  0.4231 -0.9695 -0.1912
  229MPD1    C2 3475   0.553   0.513  14.714 -0.5364  0.0052  0.1811
  229MPD1    C3 3476   0.581   0.377  14.676  0.4275  0.8747 -0.7527
  229MPD1    C4 3477   0.600   0.350  14.542 -0.9098 -0.4659 -0.1608
  229MPD1    C5 3478   0.609   0.449  14.451  0.0452  0.0650 -0.1836
  229MPD1     H 3479   0.523   0.540  14.815 -0.7274  0.8293 -0.0904
  229MPD1    H1 3480   0.621   0.249  14.507  0.1499 -0.0698 -0.6621
  229MPD1    H2 3481   0.609   0.653  14.406 -1.0180  0.5038 -0.3947
  229MPD1    H3 3482   0.641   0.419  14.352 -0.4560 -3.5298  0.7672
  229MPD1     N 3483   0.594   0.275  14.771  0.4580  0.8719 -0.0222
  229MPD1    H5 3484   0.633   0.185  14.746 -1.7662 -0.0206 -0.2449
  229MPD1    N1 3485   0.543   0.754  14.657 -0.6742  0.3345 -0.1458
  229MPD1    H6 3486   0.590   0.823  14.599 -1.7616  0.1631 -1.2482
  229MPD1    H7 3487   0.568   0.769  14.754  0.1823  2.2116 -0.6420
  230MPD1     C 3488   0.873   0.035  15.793 -0.5876  0.1885  0.1613
  230MPD1    C1 3489   0.789   4.657  15.758  0.2193  0.8005 -0.9854
  230MPD1    C2 3490   0.750   4.639  15.626 -0.0908  0.0110 -1.1722
  230MPD1    C3 3491   0.772   0.009  15.529  0.0776  0.0647 -0.3219
  230MPD1    C4 3492   0.836   0.123  15.575 -0.5683 -0.5033 -0.1720
  230MPD1    C5 3493   0.887   0.133  15.697  0.7590 -0.1583 -0.2016
  230MPD1     H 3494   0.689   4.551  15.608  0.6480 -0.4552 -1.4087
  230MPD1    H1 3495   0.856   0.203  15.504  0.3427 -0.6162 -0.0404
  230MPD1    H2 3496   0.917   0.052  15.891  0.0346  1.8510 -0.4023
  230MPD1    H3 3497   0.940   0.224  15.723 -1.0219  1.3046 -1.7179
  230MPD1     N 3498   0.715   0.004  15.404  0.3190 -0.3155  0.2331
  230MPD1    H5 3499   0.654   4.651  15.381 -0.1526  0.1520 -0.1045
  230MPD1    N1 3500   0.752   4.559  15.850 -0.1151  0.6520 -0.0824
  230MPD1    H6 3501   0.773   4.593  15.944 -1.6090  2.8609 -0.5683
  230MPD1    H7 3502   0.655   4.530  15.854 -0.1463  0.7292 -0.2799
  231MPD1     C 3503   3.459   2.337  15.290  0.5608  0.7542  0.1130
  231MPD1    C1 3504   3.497   2.273  15.173 -0.4333  0.3639 -0.2342
  231MPD1    C2 3505   3.577   2.338  15.085 -0.1333 -0.2708  0.1315
  231MPD1    C3 3506   3.634   2.455  15.112  0.3629 -0.6941 -0.1551
  231MPD1    C4 3507   3.607   2.519  15.227  0.5087  0.3429 -0.4799
  231MPD1    C5 3508   3.519   2.455  15.316 -0.3146  0.0953 -0.5707
  231MPD1     H 3509   3.610   2.290  14.993 -1.6036 -0.2845 -0.3804
  231MPD1    H1 3510   3.653   2.612  15.257 -1.3863  1.1493 -0.0575
  231MPD1    H2 3511   3.402   2.303  15.377 -0.4276  2.3731  0.0910
  231MPD1    H3 3512   3.486   2.507  15.404 -1.5959  0.0836 -1.0423
  231MPD1     N 3513   3.709   2.513  15.004  0.3765 -0.0801 -0.4234
  231MPD1    H5 3514   3.722   2.460  14.918 -2.2115 -0.4426 -0.6157
  231MPD1    N1 3515   3.476   2.139  15.167 -0.3036 -0.6052  0.2141
  231MPD1    H6 3516   3.391   2.115  15.219  0.6745  0.0111  2.1236
  231MPD1    H7 3517   3.474   2.097  15.075  2.3727  1.6662 -0.8596
  232MPD1     C 3518   1.085   0.002   0.176 -0.9567 -0.3160 -0.4209
  232MPD1    C1 3519   0.988   0.066   0.248  0.2140  0.0004  0.6170
  232MPD1    C2 3520   0.891   4.708   0.311  0.6189  0.1687  0.1740
  232MPD1    C3 3521   0.880   4.573   0.271 -0.2788  0.1071  0.6511
  232MPD1    C4 3522   0.970   4.518   0.187 -0.1728  0.8203  0.4141
  232MPD1    C5 3523   1.073   4.598   0.143 -0.3152  0.0265  0.5241
  232MPD1     H 3524   0.806   0.029   0.358  0.3810 -2.2697  2.1556
  232MPD1    H1 3525   0.968   4.415   0.154  1.5620  0.5508  1.1437
  232MPD1    H2 3526   1.172   0.045   0.127  0.3350 -2.7317 -0.2339
  232MPD1    H3 3527   1.151   4.548   0.086 -1.0226 -1.4414  0.8478
  232MPD1     N 3528   0.770   4.504   0.325 -0.1904  0.2556 -0.1240
  232MPD1    H5 3529   0.703   4.562   0.374 -0.5394  1.3305 -1.8859
  232MPD1    N1 3530   1.001   0.203   0.281  0.1310 -0.3296 -0.0708
  232MPD1    H6 3531   0.915   0.255   0.297  0.3805  0.2722 -0.6785
  232MPD1    H7 3532   1.054   0.259   0.214  0.8610  1.9143  2.4111
  233MPD1     C 3533   1.413   4.054   0.584  0.5822  0.8052  0.8499
  233MPD1    C1 3534   1.350   4.067   0.713  0.3249  0.6739  0.6172
  233MPD1    C2 3535   1.365   3.966   0.801  0.4652 -0.7204  0.4812
  233MPD1    C3 3536   1.433   3.849   0.765  0.6716  0.0345 -0.2339
  233MPD1    C4 3537   1.468   3.831   0.631  0.0203  0.0933 -0.2848
  233MPD1    C5 3538   1.458   3.931   0.543 -0.4028 -0.6238 -0.5266
  233MPD1     H 3539   1.319   3.966   0.899 -1.4671  1.3527 -0.4463
  233MPD1    H1 3540   1.508   3.738   0.592  0.8660  0.2738  0.1617
  233MPD1    H2 3541   1.413   4.142   0.520  1.0251 -0.4173 -0.8275
  233MPD1    H3 3542   1.476   3.914   0.437 -2.6734 -0.5208 -0.9472
  233MPD1     N 3543   1.447   3.739   0.853 -0.1971 -0.1004 -0.1353
  233MPD1    H5 3544   1.469   3.653   0.805  1.0656 -1.2192  2.4417
  233MPD1    N1 3545   1.305   4.189   0.763  0.0232 -0.1828  0.2266
  233MPD1    H6 3546   1.264   4.246   0.690  2.0894 -0.8818 -1.5005
  233MPD1    H7 3547   1.384   4.250   0.785 -0.1831 -0.1742  0.9478
  234MPD1     C 3548   3.532   0.845  10.177  0.6249 -0.6036 -0.4354
  234MPD1    C1 3549   3.501   0.845  10.043 -0.3052 -0.1528  0.0411
  234MPD1    C2 3550   3.487   0.961   9.981 -0.6236  0.3771  0.6836
  234MPD1    C3 3551   3.524   1.075  10.041 -0.1843 -0.4989 -0.0262
  234MPD1    C4 3552   3.567   1.076  10.170  0.0241 -0.2894  0.2012
  234MPD1    C5 3553   3.573   0.961  10.241 -0.3590  0.4251  0.2316
  234MPD1     H 3554   3.446   0.963   9.881  0.7469  1.1192  0.1331
  234MPD1    H1 3555   3.609   1.162  10.220  0.5061 -0.5949  0.3182
  234MPD1    H2 3556   3.530   0.754  10.235  0.4726 -0.2778  0.0668
  234MPD1    H3 3557   3.611   0.959  10.342  1.4239  0.2804 -0.4417
  234MPD1     N 3558   3.513   1.197   9.971  0.0016  0.2975  0.1387
  234MPD1    H5 3559   3.489   1.185   9.873 -0.1512 -2.5420  0.5337
  234MPD1    N1 3560   3.453   0.723   9.994  0.3148  0.0592  0.3020
  234MPD1    H6 3561   3.495   0.646  10.046  1.9181  0.8987  0.2495
  234MPD1    H7 3562   3.475   0.719   9.895 -1.0175  0.5782 -0.0182
  235MPD1     C 3563   3.826   3.213   9.764  0.3064 -0.1428  0.1205
  235MPD1    C1 3564   3.806   3.349   9.771  0.0428 -0.2571 -0.0596
  235MPD1    C2 3565   3.916   3.439   9.762 -0.2269  0.7328  0.0045
  235MPD1    C3 3566   4.047   3.384   9.747 -0.0417 -0.1530  0.3387
  235MPD1    C4 3567   4.065   3.246   9.728 -0.0919 -0.2100 -0.3305
  235MPD1    C5 3568   3.957   3.172   9.747  0.2075  0.1426 -0.0500
  235MPD1     H 3569   3.902   3.545   9.780  1.1512  0.6205  1.7337
  235MPD1    H1 3570   4.159   3.195   9.713 -0.2933 -0.2560 -1.4601
  235MPD1    H2 3571   3.751   3.136   9.776  0.7319 -0.9622 -2.3737
  235MPD1    H3 3572   3.982   3.069   9.725  0.3868  0.3082 -0.6088
  235MPD1     N 3573   4.157   3.472   9.757 -0.5676 -0.0166  0.1497
  235MPD1    H5 3574   4.133   3.569   9.776  0.6974 -0.0779  2.0222
  235MPD1    N1 3575   3.682   3.410   9.796 -0.2260  0.3248 -0.5829
  235MPD1    H6 3576   3.662   3.499   9.751 -0.2097  0.3442 -0.5516
  235MPD1    H7 3577   3.602   3.348   9.790 -0.5147  0.2825  3.7621
  236MPD1     C 3578   4.527   1.057  10.800 -0.5926 -0.0737 -0.3585
  236MPD1    C1 3579   4.435   0.961  10.752  0.1780 -0.0343 -0.3278
  236MPD1    C2 3580   4.485   0.835  10.717 -0.2954  0.1334 -0.4247
  236MPD1    C3 3581   4.624   0.812  10.709 -0.5268  0.5870  0.4487
  236MPD1    C4 3582   4.705   0.908  10.748 -0.4145 -0.5955  0.4550
  236MPD1    C5 3583   4.660   1.028  10.800  0.2258 -0.3758  0.0647
  236MPD1     H 3584   4.415   0.754  10.702 -2.0221  1.8460 -1.5940
  236MPD1    H1 3585   0.087   0.894  10.740 -0.6572 -0.4830 -2.9119
  236MPD1    H2 3586   4.493   1.153  10.835  2.7351  0.8652  0.2573
  236MPD1    H3 3587   4.722   1.112  10.830 -1.8412  1.0790  0.2707
  236MPD1     N 3588   4.682   0.688  10.669  0.0264 -0.0189 -0.0012
  236MPD1    H5 3589   0.058   0.688  10.671 -0.0010 -1.5777  0.8256
  236MPD1    N1 3590   4.299   0.982  10.759 -0.1107  0.4973 -0.5127
  236MPD1    H6 3591   4.247   0.923  10.694 -0.5682 -0.5695  0.8341
  236MPD1    H7 3592   4.273   1.078  10.737  1.1061  0.5570 -1.7120
  237MPD1     C 3593   3.719   4.304  15.257 -0.5741 -0.3442  0.0714
  237MPD1    C1 3594   3.722   4.227  15.369 -0.4352 -0.1519  0.5010
  237MPD1    C2 3595   3.672   4.100  15.361  0.4700 -0.0004 -0.0738
  237MPD1    C3 3596   3.629   4.044  15.244  0.0793  0.3857 -0.1392
  237MPD1    C4 3597   3.638   4.120  15.133 -1.0070  0.3484 -0.2629
  237MPD1    C5 3598   3.682   4.250  15.142  0.0380  0.1499  0.5479
  237MPD1     H 3599   3.663   4.045  15.454 -0.0811 -0.2858 -0.2972
  237MPD1    H1 3600   3.591   4.090  15.040 -1.3286 -1.8532  0.6161
  237MPD1    H2 3601   3.752   4.406  15.250 -0.5309 -0.2436  1.8991
  237MPD1    H3 3602   3.675   4.327  15.066  1.9590 -1.5823 -1.4024
  237MPD1     N 3603   3.562   3.921  15.235  0.3174  0.0614 -0.4277
  237MPD1    H5 3604   3.524   3.896  15.144 -2.8591 -2.4122  1.5629
  237MPD1    N1 3605   3.736   4.286  15.491  0.2964 -0.5541  0.5473
  237MPD1    H6 3606   3.788   4.373  15.497  0.4310 -0.6558  0.8352
  237MPD1    H7 3607   3.756   4.223  15.568  0.5293 -1.8526 -0.5767
  238MPD1     C 3608   0.450   2.978  15.611  0.4486  0.3548  0.3678
  238MPD1    C1 3609   0.361   2.913  15.705  0.0681 -1.3120  0.1086
  238MPD1    C2 3610   0.290   2.809  15.654 -0.1971 -0.6526 -0.7255
  238MPD1    C3 3611   0.295   2.764  15.521  0.3208  0.1895  0.1166
  238MPD1    C4 3612   0.377   2.829  15.434 -0.5208  0.0522 -0.5257
  238MPD1    C5 3613   0.453   2.937  15.481  0.0679  0.1268  0.0428
  238MPD1     H 3614   0.244   2.742  15.726  0.8175 -1.5889 -0.9483
  238MPD1    H1 3615   0.382   2.800  15.330 -0.4373 -1.7026 -0.0440
  238MPD1    H2 3616   0.508   3.058  15.655  0.2628 -0.3817  1.9327
  238MPD1    H3 3617   0.526   2.988  15.419 -1.5212  0.8552 -1.2090
  238MPD1     N 3618   0.219   2.650  15.472 -0.0568  0.0177  0.4520
  238MPD1    H5 3619   0.240   2.624  15.376  0.7206  2.4230 -0.0453
  238MPD1    N1 3620   0.375   2.941  15.844 -0.2181 -0.8233  0.1173
  238MPD1    H6 3621   0.414   3.030  15.875 -0.3123 -0.5351 -0.5961
  238MPD1    H7 3622   0.289   2.925  15.896 -1.1363  0.0243 -1.1764
  239MPD1     C 3623   1.039   2.495  14.453  0.4313  0.5545  0.5100
  239MPD1    C1 3624   1.026   2.610  14.522 -0.7974 -0.0684 -0.0644
  239MPD1    C2 3625   0.931   2.699  14.469  0.2006  0.0013  0.4930
  239MPD1    C3 3626   0.891   2.686  14.339 -0.0709 -0.3971  0.4158
  239MPD1    C4 3627   0.938   2.585  14.259  0.4382 -0.2859  0.1523
  239MPD1    C5 3628   1.009   2.483  14.321  0.0325  0.4550  0.2765
  239MPD1     H 3629   0.892   2.778  14.532  3.1519  2.1213 -0.3344
  239MPD1    H1 3630   0.910   2.579  14.155 -0.2451  1.9348  0.2040
  239MPD1    H2 3631   1.111   2.421  14.487 -0.7068 -0.3021  1.0527
  239MPD1    H3 3632   1.034   2.394  14.264 -3.0695  0.4954 -1.1508
  239MPD1     N 3633   0.809   2.783  14.278  0.5596 -0.1604 -0.1835
  239MPD1    H5 3634   0.782   2.782  14.180 -0.6102  1.4226  0.1229
  239MPD1    N1 3635   1.073   2.629  14.658  0.1518 -0.0796 -0.1321
  239MPD1    H6 3636   1.084   2.728  14.681 -0.6745  0.1796 -0.8463
  239MPD1    H7 3637   1.157   2.579  14.687  1.0740  2.3412  1.4218
  240MPD1     C 3638   0.610   2.468  14.309 -0.0572  0.4374 -0.2625
  240MPD1    C1 3639   0.481   2.484  14.257 -0.2593  0.0013  0.6856
  240MPD1    C2 3640   0.391   2.545  14.340 -0.4650  0.3046  0.3232
  240MPD1    C3 3641   0.409   2.561  14.475  0.3588 -0.1445  0.8230
  240MPD1    C4 3642   0.535   2.543  14.524  0.0870 -0.2586  0.0095
  240MPD1    C5 3643   0.634   2.505  14.437  0.1667  0.9950  0.7316
  240MPD1     H 3644   0.297   2.576  14.296  0.2525  0.9003 -0.8034
  240MPD1    H1 3645   0.561   2.573  14.625  2.9649 -2.9772  0.0892
  240MPD1    H2 3646   0.694   2.428  14.253 -1.9985 -1.4608 -1.8017
  240MPD1    H3 3647   0.733   2.488  14.478 -0.7294 -0.6244  2.2444
  240MPD1     N 3648   0.304   2.611  14.552 -0.4811  0.5113 -0.9313
  240MPD1    H5 3649   0.214   2.624  14.506 -0.2586  0.7236 -1.3037
  240MPD1    N1 3650   0.462   2.472  14.118  0.0158  0.4288  0.0314
  240MPD1    H6 3651   0.516   2.394  14.082 -0.1636 -0.9439  2.7609
  240MPD1    H7 3652   0.363   2.451  14.107  0.0355 -0.0163  0.7215
  241MPD1     C 3653   4.492   2.843  15.490 -0.2230  0.4347  0.7787
  241MPD1    C1 3654   4.608   2.893  15.440  0.2923 -0.4885  0.4827
  241MPD1    C2 3655   4.671   2.836  15.331 -0.0718 -0.0854 -0.1439
  241MPD1    C3 3656   4.598   2.741  15.260 -0.3622  0.4607  0.5456
  241MPD1    C4 3657   4.489   2.683  15.320  0.0463 -0.6410 -0.3547
  241MPD1    C5 3658   4.428   2.736  15.427  0.1660  0.7734  0.1050
  241MPD1     H 3659   0.034   2.884  15.290 -0.6434  0.8053 -0.3280
  241MPD1    H1 3660   4.455   2.595  15.267 -1.0275 -0.1786 -0.4444
  241MPD1    H2 3661   4.441   2.886  15.576 -1.1329 -1.5368  1.2491
  241MPD1    H3 3662   4.338   2.694  15.470 -0.2851  2.3661  0.7561
  241MPD1     N 3663   4.642   2.688  15.139  0.5384 -0.1946  0.0477
  241MPD1    H5 3664   4.572   2.628  15.095  2.3569 -3.2726  1.4014
  241MPD1    N1 3665   4.672   2.993  15.524  0.0659 -0.5865 -0.6517
  241MPD1    H6 3666   4.609   3.062  15.564 -2.7216 -2.8035 -1.1869
  241MPD1    H7 3667   0.026   3.038  15.480  1.0895  0.1463  1.9666
  242MPD1     C 3668   0.275   1.234  16.000  0.1632 -0.2228  0.5529
  242MPD1    C1 3669   0.167   1.255  15.919  0.9084 -0.2785  0.1971
  242MPD1    C2 3670   0.175   1.200  15.786  0.2361 -0.2557 -0.5029
  242MPD1    C3 3671   0.293   1.150  15.742  0.2346 -0.3005  0.0752
  242MPD1    C4 3672   0.397   1.118  15.832 -0.4290  0.3654  0.1048
  242MPD1    C5 3673   0.383   1.163  15.956  0.3094 -0.6114 -0.5581
  242MPD1     H 3674   0.082   1.205  15.731  0.1573 -0.1506 -0.3627
  242MPD1    H1 3675   0.489   1.070  15.800 -1.5414 -2.2128  0.7469
  242MPD1    H2 3676   0.287   1.276  16.100 -2.7935 -0.3078  0.9416
  242MPD1    H3 3677   0.471   1.153  16.017 -0.0459 -0.2608  0.0141
  242MPD1     N 3678   0.309   1.099  15.616  0.5049  0.1755 -0.1605
  242MPD1    H5 3679   0.400   1.066  15.588  0.0556  0.8713 -2.4364
  242MPD1    N1 3680   0.049   1.313  15.973  0.1596 -0.4840  0.3191
  242MPD1    H6 3681   0.002   1.361  15.896 -0.9978 -0.0352  1.3052
  242MPD1    H7 3682   0.053   1.368  16.058 -2.1461 -0.4195  0.3807
  243MPD1     C 3683   1.867   0.172  17.463 -0.8874 -0.5638  0.3519
  243MPD1    C1 3684   1.748   0.167  17.519 -0.3434  0.1209  0.7493
  243MPD1    C2 3685   1.653   0.093  17.461 -0.5954  0.0458 -0.5093
  243MPD1    C3 3686   1.683   0.024  17.344 -0.1681  0.5180  0.5075
  243MPD1    C4 3687   1.810   0.026  17.295  0.7803  0.0568 -0.4693
  243MPD1    C5 3688   1.900   0.104  17.353 -0.6279 -0.6138  0.4718
  243MPD1     H 3689   1.558   0.076  17.510  0.5824  0.9178  2.0466
  243MPD1    H1 3690   1.836   4.704  17.201  0.6209  1.1688 -1.0829
  243MPD1    H2 3691   1.943   0.232  17.513 -2.5332  1.5764  0.2711
  243MPD1    H3 3692   1.995   0.102  17.301 -0.5783  0.7846  0.4920
  243MPD1     N 3693   1.572   4.671  17.282 -0.2155 -0.2974 -0.7020
  243MPD1    H5 3694   1.480   4.673  17.325  0.8642  0.2081  1.6033
  243MPD1    N1 3695   1.714   0.250  17.631 -0.0264 -0.1992  0.2151
  243MPD1    H6 3696   1.656   0.193  17.692  1.6233 -0.2245  1.7638
  243MPD1    H7 3697   1.793   0.287  17.683 -1.3905  2.6928  0.2779
  244MPD1     C 3698   1.090   4.147   0.057  0.7085  0.2415 -0.2239
  244MPD1    C1 3699   1.198   4.233   0.068 -0.5936  0.2928 -1.0446
  244MPD1    C2 3700   1.246   4.297  17.659  0.3563 -0.3188  0.4625
  244MPD1    C3 3701   1.190   4.273  17.538 -0.2575  0.8024  1.0403
  244MPD1    C4 3702   1.084   4.184  17.524 -0.1641  0.0631 -0.4305
  244MPD1    C5 3703   1.034   4.118  17.636 -0.1425  0.8563 -0.7675
  244MPD1     H 3704   1.338   4.354  17.667  0.5452 -0.7752  1.5687
  244MPD1    H1 3705   1.030   4.163  17.432  0.6212 -1.0621 -0.6327
  244MPD1    H2 3706   1.040   4.096   0.139  3.7379 -1.0744  0.7724
  244MPD1    H3 3707   0.952   4.048  17.626 -1.4854  2.4550 -0.8965
  244MPD1     N 3708   1.247   4.334  17.426  0.1297 -0.2601 -0.7527
  244MPD1    H5 3709   1.325   4.394  17.451  0.0070  0.3944 -1.9350
  244MPD1    N1 3710   1.255   4.253   0.195  0.0304 -0.3854  0.2416
  244MPD1    H6 3711   1.307   4.339   0.210 -0.3172 -0.0185 -0.6348
  244MPD1    H7 3712   1.183   4.245   0.266 -0.8477  0.6327 -0.5356
  245MPD1     C 3713   3.523   4.636  13.241 -0.0776  0.9221  0.0983
  245MPD1    C1 3714   3.473   4.663  13.367 -0.1798  0.1748  0.0962
  245MPD1    C2 3715   3.474   0.064  13.406 -0.2283 -0.1904 -0.1949
  245MPD1    C3 3716   3.519   0.165  13.318  0.5946  0.4307 -0.0835
  245MPD1    C4 3717   3.565   0.136  13.187  0.2184 -0.0979 -0.2309
  245MPD1    C5 3718   3.578   4.719  13.154  0.0083 -0.2877 -0.1283
  245MPD1     H 3719   3.434   0.091  13.503 -0.8322 -1.6043 -0.0514
  245MPD1    H1 3720   3.607   0.204  13.114  0.4803  0.5820  0.5565
  245MPD1    H2 3721   3.521   4.533  13.209 -0.7455  1.0212 -0.1751
  245MPD1    H3 3722   3.605   4.683  13.055 -0.2249 -1.5770  0.2752
  245MPD1     N 3723   3.528   0.298  13.376  0.4040 -0.0243 -0.1442
  245MPD1    H5 3724   3.507   0.306  13.475  0.5854 -2.4803  0.0928
  245MPD1    N1 3725   3.422   4.565  13.455  0.3032  0.2616  0.0198
  245MPD1    H6 3726   3.343   4.608  13.502 -0.2675  0.3610 -1.0455
  245MPD1    H7 3727   3.395   4.478  13.410 -1.4162  0.5711  0.4499
  246MPD1     C 3728   3.484   2.095   9.177 -0.2197 -0.6543 -0.2120
  246MPD1    C1 3729   3.607   2.136   9.230 -0.0304 -0.0298  0.0650
  246MPD1    C2 3730   3.699   2.045   9.265  0.2450 -0.2581  0.3187
  246MPD1    C3 3731   3.685   1.906   9.251  0.1156 -0.2753  0.1731
  246MPD1    C4 3732   3.568   1.867   9.189  0.2813 -0.3982  0.1622
  246MPD1    C5 3733   3.467   1.965   9.164 -0.1113 -0.8790 -1.0750
  246MPD1     H 3734   3.796   2.081   9.297  0.1823  0.8115 -0.6835
  246MPD1    H1 3735   3.559   1.765   9.155  0.4124 -0.6317  0.8225
  246MPD1    H2 3736   3.405   2.165   9.154  2.4969  2.7597  0.7707
  246MPD1    H3 3737   3.378   1.927   9.114 -1.3343 -0.1102  0.5136
  246MPD1     N 3738   3.786   1.818   9.301  0.0851 -0.1968  0.0212
  246MPD1    H5 3739   3.863   1.863   9.348  0.4830  0.1907 -0.9982
  246MPD1    N1 3740   3.648   2.269   9.233  0.2318 -0.0160 -0.3680
  246MPD1    H6 3741   3.708   2.287   9.313 -0.0050  1.2307 -0.4584
  246MPD1    H7 3742   3.560   2.318   9.252 -0.9852 -1.3720 -2.5105
  247MPD1     C 3743   1.658   4.202  16.325 -0.1695  0.1194 -0.3087
  247MPD1    C1 3744   1.760   4.121  16.360 -1.0448 -0.0601 -0.3310
  247MPD1    C2 3745   1.888   4.158  16.334  0.2875 -0.0046 -0.5979
  247MPD1    C3 3746   1.919   4.289  16.294 -0.4289  0.3201  0.8630
  247MPD1    C4 3747   1.817   4.380  16.266  0.3443  0.3951 -0.5726
  247MPD1    C5 3748   1.689   4.332  16.277  0.4201 -0.7327  0.4230
  247MPD1     H 3749   1.969   4.091  16.358  0.6420  0.7538  0.3154
  247MPD1    H1 3750   1.826   4.480  16.227  0.1344  1.5349  2.2693
  247MPD1    H2 3751   1.555   4.167  16.332  0.0804 -0.6155 -0.3864
  247MPD1    H3 3752   1.604   4.396  16.259  0.1474 -1.2138  0.0078
  247MPD1     N 3753   2.057   4.338  16.281 -0.0296  0.3992  0.2675
  247MPD1    H5 3754   2.070   4.431  16.242  1.8236  0.7091  1.6126
  247MPD1    N1 3755   1.730   3.981  16.382  0.5937 -0.1108  0.0441
  247MPD1    H6 3756   1.646   3.984  16.439 -0.5957 -1.9313 -1.6187
  247MPD1    H7 3757   1.804   3.949  16.444  2.2329  0.8841 -1.3680
  248MPD1     C 3758   3.868   3.198   0.613 -0.3956  0.2970  0.7813
  248MPD1    C1 3759   3.848   3.317   0.552 -0.7672  0.7515 -0.7369
  248MPD1    C2 3760   3.760   3.401   0.617  0.3093  0.3557 -0.2217
  248MPD1    C3 3761   3.686   3.365   0.728 -0.7001  0.2547  0.3508
  248MPD1    C4 3762   3.693   3.231   0.770  0.5110 -0.1457 -0.4635
  248MPD1    C5 3763   3.786   3.148   0.711  0.8041 -0.3646 -0.3012
  248MPD1     H 3764   3.756   3.501   0.575  0.1181  0.3540 -0.2115
  248MPD1    H1 3765   3.620   3.189   0.838  1.1366 -0.9663 -0.2860
  248MPD1    H2 3766   3.943   3.127   0.580 -1.6732 -0.9216  0.4777
  248MPD1    H3 3767   3.791   3.043   0.739  0.9596  0.1007  1.4013
  248MPD1     N 3768   3.593   3.464   0.770  0.4947 -0.2818 -0.2621
  248MPD1    H5 3769   3.580   3.545   0.711 -1.2161  0.0577  0.5722
  248MPD1    N1 3770   3.943   3.359   0.455 -0.1502 -0.7520  0.1537
  248MPD1    H6 3771   3.965   3.271   0.407  1.2106 -0.5169  0.3394
  248MPD1    H7 3772   3.893   3.413   0.385 -1.9849  0.6451  2.5524
  249MPD1     C 3773   0.223   3.201   9.388 -0.4154  0.2494 -0.6895
  249MPD1    C1 3774   0.212   3.079   9.456  0.1033 -0.3752  0.5647
  249MPD1    C2 3775   0.230   3.079   9.591  0.5926 -0.8291 -1.0966
  249MPD1    C3 3776   0.250   3.196   9.665 -0.0554 -0.6784  1.0410
  249MPD1    C4 3777   0.256   3.311   9.596 -0.2818  0.3017 -0.5556
  249MPD1    C5 3778   0.238   3.315   9.461 -0.2206  0.1642 -0.2554
  249MPD1     H 3779   0.222   2.984   9.643 -0.1632 -0.2522 -0.1488
  249MPD1    H1 3780   0.258   3.406   9.649 -0.8359  0.6022 -1.0851
  249MPD1    H2 3781   0.227   3.209   9.280  1.4116  0.6040 -0.6020
  249MPD1    H3 3782   0.262   3.409   9.414 -0.2857  0.9503  1.2840
  249MPD1     N 3783   0.260   3.186   9.812  0.1143  0.0501  0.5337
  249MPD1    H5 3784   0.252   3.091   9.846 -0.9796  0.1412  0.5140
  249MPD1    N1 3785   0.192   2.956   9.387 -0.5057  0.3839 -0.2421
  249MPD1    H6 3786   0.159   2.877   9.443 -1.2143  0.4628 -0.5441
  249MPD1    H7 3787   0.130   2.959   9.306 -0.6205 -2.3289 -0.2631
  250MPD2     C 3788   1.411   2.953  13.649  0.0533 -0.1231  0.9603
  250MPD2    C1 3789   1.509   3.009  13.567 -0.3143  0.8770 -0.7258
  250MPD2    C2 3790   1.519   2.961  13.434 -0.3488 -0.8437  0.1334
  250MPD2    C3 3791   1.437   2.866  13.382  0.3776  0.8027  0.1808
  250MPD2    C4 3792   1.346   2.809  13.473  0.7497  0.7704  0.0258
  250MPD2    C5 3793   1.345   2.841  13.605 -0.5828 -1.1956 -0.0153
  250MPD2     H 3794   1.606   3.003  13.383  1.1325 -1.8998  1.7926
  250MPD2    H1 3795   1.294   2.720  13.441  0.4013  0.8676  0.3205
  250MPD2    H2 3796   1.399   2.975  13.754  0.0142 -0.7837  1.0948
  250MPD2    H3 3797   1.280   2.789  13.675 -1.0491 -0.0214  0.4299
  250MPD2     N 3798   1.425   2.828  13.248 -0.2640  0.3173 -0.3411
  250MPD2    H5 3799   1.363   2.752  13.220  0.9516 -1.1291  0.9174
  250MPD2    N1 3800   1.602   3.103  13.618  0.7146 -0.0693  0.1363
  250MPD2    H7 3801   1.589   3.132  13.715 -1.9911 -0.5674 -0.0674
  251TMC3    C1 3802   1.791   3.254  13.623  0.2307 -0.7992  0.1862
  251TMC3    C2 3803   1.762   3.395  13.621  0.0498  0.0313  0.4064
  251TMC3    C3 3804   1.861   3.485  13.612 -1.0263 -0.6304  0.1731
  251TMC3    C4 3805   1.918   3.222  13.599 -0.5470 -0.0400  0.2815
  251TMC3    C5 3806   2.009   3.320  13.561 -0.2114 -0.2201 -0.1763
  251TMC3    C6 3807   1.988   3.450  13.580 -0.2058  0.1777 -1.0239
  251TMC3     C 3808   1.698   3.179  13.546 -0.4721 -0.0392  0.2669
  251TMC3     O 3809   1.730   3.172  13.426  0.2575 -0.9299  0.0494
  251TMC3     H 3810   1.657   3.420  13.629 -0.8015 -3.0601 -0.9449
  251TMC3    H1 3811   1.946   3.120  13.577 -0.4872 -0.1142  0.6936
  251TMC3    H2 3812   2.061   3.528  13.559 -0.5595  1.4212  2.3602
  251TMC3    C7 3813   2.076   3.288  13.438  0.1877 -0.4237 -0.2925
  251TMC3    C8 3814   1.834   3.624  13.619  0.3084  0.1744  0.7848
  251TMC3    O1 3815   2.185   3.336  13.416  0.2045  0.1741  0.2592
  251TMC3    O2 3816   1.925   3.699  13.649  0.9554  0.0254  0.2075
  252TMC3    C1 3817   2.530   0.082   9.314 -0.3917  0.5277 -0.1450
  252TMC3    C2 3818   2.652   0.050   9.360 -1.0837  0.4077 -0.1236
  252TMC3    C3 3819   2.686   4.643   9.368 -0.3731 -0.2331 -0.3233
  252TMC3    C4 3820   2.442   4.704   9.288  0.2643 -0.1115  0.7665
  252TMC3    C5 3821   2.477   4.572   9.300 -0.2890  0.5087  0.6491
  252TMC3    C6 3822   2.608   4.542   9.326 -0.1557  0.5818  0.5697
  252TMC3     C 3823   2.505   0.208   9.246 -0.6950 -0.4058  0.5362
  252TMC3     O 3824   2.389   0.224   9.214 -0.5020  0.0458  0.4560
  252TMC3     H 3825   2.720   0.130   9.389 -0.5721 -0.0268 -0.1155
  252TMC3    H1 3826   2.342   4.722   9.252  0.0532 -1.8142  0.5174
  252TMC3    H2 3827   2.648   4.444   9.307 -0.1996  0.5023  0.8899
  252TMC3    C7 3828   2.381   4.463   9.282  0.2666 -0.2003 -0.1154
  252TMC3    C8 3829   2.827   4.611   9.405  0.7111  0.3375  0.8021
  252TMC3    O1 3830   2.278   4.492   9.219 -0.4410  0.5342 -0.1000
  252TMC3    O2 3831   2.867   4.500   9.377  0.9999 -0.2242  0.3138
  253MPD2     C 3832   3.271   4.077  15.402 -0.4717  0.4395  0.0460
  253MPD2    C1 3833   3.151   3.999  15.387  0.6199 -0.2295 -0.0854
  253MPD2    C2 3834   3.125   3.904  15.482  0.4070  0.2660 -0.2204
  253MPD2    C3 3835   3.209   3.881  15.594 -0.0933 -0.2260 -0.3287
  253MPD2    C4 3836   3.321   3.962  15.604  0.1683 -0.4962 -0.0953
  253MPD2    C5 3837   3.353   4.055  15.511 -0.1270  0.7562  0.4974
  253MPD2     H 3838   3.023   3.867  15.489 -0.1477  2.0473  1.0694
  253MPD2    H1 3839   3.377   3.951  15.696  0.1332  1.3516  0.1476
  253MPD2    H2 3840   3.291   4.156  15.331  0.3282 -0.6734 -0.9667
  253MPD2    H3 3841   3.436   4.122  15.531  1.8808 -1.6673  0.2789
  253MPD2     N 3842   3.174   3.792  15.699  0.3858  0.0887 -0.1495
  253MPD2    H5 3843   3.252   3.768  15.759  0.4044  0.5853  0.0232
  253MPD2    N1 3844   3.050   4.025  15.293  0.0703  0.2998 -0.0100
  253MPD2    H7 3845   2.966   3.969  15.304  3.4510 -4.7467  0.0026
  254TMC3    C1 3846   3.055   3.642  15.834  0.0207 -0.2810  0.5149
  254TMC3    C2 3847   2.940   3.570  15.862  0.3078  0.1124  0.1976
  254TMC3    C3 3848   2.922   3.512  15.986 -0.3364  0.4276  0.2933
  254TMC3    C4 3849   3.157   3.644  15.926 -0.0602 -0.3897 -0.0192
  254TMC3    C5 3850   3.139   3.573  16.045  0.2744 -0.2540  0.2521
  254TMC3    C6 3851   3.022   3.504  16.077 -0.1111  0.3219  0.2601
  254TMC3     C 3852   3.065   3.709  15.703 -0.0457 -0.5746  0.5770
  254TMC3     O 3853   2.955   3.719  15.647 -0.1770 -0.2005 -0.2497
  254TMC3     H 3854   2.856   3.567  15.794  1.6707  1.3176 -1.5313
  254TMC3    H1 3855   3.245   3.707  15.922 -0.4232  0.1575  0.6072
  254TMC3    H2 3856   3.008   3.441  16.164 -0.5884 -1.1085 -0.8604
  254TMC3    C7 3857   3.254   3.544  16.137  0.6255 -0.2456  0.7030
  254TMC3    C8 3858   2.794   3.462  16.032 -0.1662 -0.4735  0.2432
  254TMC3    O1 3859   3.217   3.478  16.236 -0.3075  1.2569  0.1752
  254TMC3    O2 3860   2.788   3.451  16.152  0.1176  0.0377  0.4115
  255MPD2     C 3861   1.243   1.874  10.395 -0.0879 -0.3740 -0.4333
  255MPD2    C1 3862   1.274   1.911  10.266 -0.2135  0.1902 -0.3411
  255MPD2    C2 3863   1.399   1.959  10.236 -0.3547  0.2784 -0.1811
  255MPD2    C3 3864   1.497   1.969  10.327  0.0738  0.0308 -0.3589
  255MPD2    C4 3865   1.467   1.939  10.460  0.3776  0.8025  0.2133
  255MPD2    C5 3866   1.336   1.903  10.495  0.1274 -0.2406  0.6479
  255MPD2     H 3867   1.420   1.992  10.135  1.4244  1.8968  0.7197
  255MPD2    H1 3868   1.543   1.932  10.537 -0.0279 -1.3725  0.4160
  255MPD2    H2 3869   1.146   1.839  10.428  0.6131 -0.8812  1.0859
  255MPD2    H3 3870   1.322   1.886  10.602  0.8715  0.3192  0.8318
  255MPD2     N 3871   1.627   1.991  10.287 -0.0668  0.2753  0.5683
  255MPD2    H5 3872   1.630   2.016  10.189  1.5382 -2.1782 -0.0003
  255MPD2    N1 3873   1.180   1.891  10.163  0.4918  0.3364 -0.7717
  255MPD2    H7 3874   1.208   1.923  10.071 -0.6332  1.1931 -0.8144
  256TMC3    C1 3875   0.991   1.830  10.037 -0.2039  0.3552 -0.0429
  256TMC3    C2 3876   1.055   1.875   9.923  0.5197 -0.2913 -0.1686
  256TMC3    C3 3877   1.006   1.854   9.795  0.0574 -0.5226  0.0901
  256TMC3    C4 3878   0.874   1.759  10.036  0.2967 -0.5431  0.1035
  256TMC3    C5 3879   0.839   1.713   9.914  0.3527  0.0471  0.2080
  256TMC3    C6 3880   0.904   1.759   9.798 -0.1539 -0.1657 -0.4218
  256TMC3     C 3881   1.052   1.847  10.170  0.4609 -0.5818  0.5157
  256TMC3     O 3882   0.975   1.826  10.262 -0.5183 -0.6608 -0.0957
  256TMC3     H 3883   1.140   1.942   9.929 -0.0162  0.4731 -1.1655
  256TMC3    H1 3884   0.822   1.729  10.126  1.1133 -0.2679  0.6649
  256TMC3    H2 3885   0.875   1.715   9.704  0.8764 -1.2487 -0.2312
  256TMC3    C7 3886   0.780   1.573   9.916  0.2990  0.3968 -0.1512
  256TMC3    C8 3887   1.072   1.900   9.672  0.9073  0.3043  0.5256
  256TMC3    O1 3888   0.805   1.507  10.016  0.6910 -0.4289 -0.1566
  256TMC3    O2 3889   1.013   1.868   9.569 -0.1888 -0.3027  0.0985
  257MPD2     C 3890   0.610   3.751  13.082 -0.2911  0.0686  0.6344
  257MPD2    C1 3891   0.586   3.656  12.983  0.6678  0.0953 -0.0951
  257MPD2    C2 3892   0.565   3.524  13.018  0.6391 -0.5473 -0.5194
  257MPD2    C3 3893   0.584   3.482  13.149 -0.4911  0.3373  0.6065
  257MPD2    C4 3894   0.616   3.576  13.247  0.3547  0.0985 -0.5105
  257MPD2    C5 3895   0.627   3.713  13.213 -0.5731 -0.2285 -0.4285
  257MPD2     H 3896   0.545   3.440  12.952 -1.9664 -2.4828  2.7021
  257MPD2    H1 3897   0.637   3.545  13.349 -0.5940 -1.2102 -0.7230
  257MPD2    H2 3898   0.608   3.857  13.060  0.0861  0.3581  2.0080
  257MPD2    H3 3899   0.672   3.781  13.284  1.8189  0.3485 -2.4649
  257MPD2     N 3900   0.563   3.346  13.175  0.1792 -0.0030  0.7040
  257MPD2    H5 3901   0.551   3.280  13.099 -0.8782  0.9180  0.0600
  257MPD2    N1 3902   0.594   3.703  12.849 -0.5931 -0.5360  0.0546
  257MPD2    H7 3903   0.633   3.797  12.848 -1.0016 -0.3649  0.0340
  258TMC3    C1 3904   0.537   3.141  13.290  0.3250  0.3988 -0.1221
  258TMC3    C2 3905   0.406   3.129  13.254 -0.3533 -0.0715 -0.4134
  258TMC3    C3 3906   0.345   3.014  13.288 -1.6383  0.2048  0.6120
  258TMC3    C4 3907   0.604   3.047  13.358 -0.3972  0.2830  0.3624
  258TMC3    C5 3908   0.538   2.930  13.388 -0.1105  0.3603 -0.8118
  258TMC3    C6 3909   0.411   2.913  13.349 -0.1746  0.3729  0.2019
  258TMC3     C 3910   0.586   3.276  13.286 -0.4681  0.3356  0.1031
  258TMC3     O 3911   0.634   3.317  13.387 -0.8198  0.1923  0.2967
  258TMC3     H 3912   0.355   3.214  13.209 -1.3985  0.4271  1.6761
  258TMC3    H1 3913   0.707   3.069  13.384 -0.3406  0.4376 -0.0042
  258TMC3    H2 3914   0.370   2.814  13.365  1.2727  0.2511  3.1011
  258TMC3    C7 3915   0.608   2.811  13.445  0.3492  0.0664  0.1316
  258TMC3    C8 3916   0.201   3.007  13.305 -0.3222 -0.3482  0.0081
  258TMC3    O1 3917   0.541   2.709  13.444 -0.0919  0.4860 -0.3155
  258TMC3    O2 3918   0.137   3.088  13.243  0.4823  0.6285 -0.0392
  259MPD2     C 3919   4.257   4.285   1.899  0.2466 -0.5828  0.2882
  259MPD2    C1 3920   4.184   4.302   1.783  0.3079 -0.3234  0.3774
  259MPD2    C2 3921   4.238   4.259   1.662  0.0839  0.3123  0.0670
  259MPD2    C3 3922   4.370   4.217   1.650 -0.4394  0.2761  0.2533
  259MPD2    C4 3923   4.434   4.198   1.768 -0.1784  0.3169 -0.1124
  259MPD2    C5 3924   4.378   4.240   1.887 -0.1625 -0.3340  0.1727
  259MPD2     H 3925   4.187   4.256   1.566  0.8336 -0.5259 -0.3079
  259MPD2    H1 3926   4.536   4.163   1.769 -1.1860 -2.6777 -3.2545
  259MPD2    H2 3927   4.221   4.316   1.996 -0.0668  0.1002 -0.0418
  259MPD2    H3 3928   4.445   4.241   1.973 -0.5938 -0.3024  0.5098
  259MPD2     N 3929   4.430   4.223   1.520 -0.2557 -0.1451  0.7632
  259MPD2    H5 3930   4.369   4.250   1.443  1.6249 -3.3059 -1.8294
  259MPD2    N1 3931   4.055   4.363   1.793  0.4084 -0.0413 -0.1808
  259MPD2    H7 3932   4.033   4.400   1.885  1.5157  0.3123 -0.0538
  260TMC3    C1 3933   4.583   4.242   1.350 -0.7638  0.0046  0.5105
  260TMC3    C2 3934   4.696   4.320   1.332 -1.2648 -0.0087  0.9354
  260TMC3    C3 3935   0.005   4.357   1.208 -0.2805 -0.8291  0.9840
  260TMC3    C4 3936   4.508   4.188   1.243 -0.7981  0.0424 -0.3840
  260TMC3    C5 3937   4.546   4.225   1.120  0.2063  0.8991 -0.0754
  260TMC3    C6 3938   4.648   4.313   1.103 -0.8234 -0.3995  0.1983
  260TMC3     C 3939   4.560   4.214   1.495 -0.3218  1.0319 -0.4572
  260TMC3     O 3940   4.658   4.216   1.574 -0.5644 -0.3043  0.1000
  260TMC3     H 3941   0.035   4.358   1.410 -0.5278  3.2632 -1.2372
  260TMC3    H1 3942   4.426   4.119   1.261 -3.1833  2.3345 -2.4056
  260TMC3    H2 3943   4.651   4.353   1.003 -0.0907  0.0877  0.4168
  260TMC3    C7 3944   4.500   4.166   0.995 -0.2095  0.1850  0.2246
  260TMC3    C8 3945   0.127   4.428   1.186 -0.3079  0.4634  0.4263
  260TMC3    O1 3946   4.551   4.202   0.885 -0.1440 -0.0837 -1.0732
  260TMC3    O2 3947   0.181   4.484   1.281 -0.1979 -0.2081  0.2199
  261MPD2     C 3948   1.098   3.098  12.638  0.6579 -0.4149  0.3803
  261MPD2    C1 3949   1.208   3.029  12.602 -0.3280  0.5570  0.1849
  261MPD2    C2 3950   1.274   3.057  12.481 -0.3441  0.1092  0.3816
  261MPD2    C3 3951   1.220   3.164  12.402 -0.8093 -0.6658  0.1686
  261MPD2    C4 3952   1.112   3.236  12.444  0.2859  0.0736 -0.3957
  261MPD2    C5 3953   1.048   3.192  12.553 -0.6194 -0.0051 -0.4114
  261MPD2     H 3954   1.361   2.999  12.452 -0.2863  1.1112 -1.4416
  261MPD2    H1 3955   1.064   3.305  12.376  0.5919  1.7498  1.0932
  261MPD2    H2 3956   1.037   3.071  12.724  2.7986 -0.5888  1.8328
  261MPD2    H3 3957   0.965   3.251  12.589  0.7289  0.6320  1.6585
  261MPD2     N 3958   1.304   3.214  12.303 -0.0772  0.2580  0.1693
  261MPD2    H5 3959   1.387   3.156  12.292 -1.2197 -1.8119  2.5673
  261MPD2    N1 3960   1.268   2.930  12.682 -0.0098 -0.2695 -0.0903
  261MPD2    H7 3961   1.357   2.896  12.648 -0.8253 -0.9288 -1.5427
  262TMC3    C1 3962   1.442   3.373  12.194  0.2348 -0.2278  0.3372
  262TMC3    C2 3963   1.498   3.497  12.208 -0.9094  0.0068 -0.9092
  262TMC3    C3 3964   1.567   3.557  12.109  0.6631  0.7578 -0.4769
  262TMC3    C4 3965   1.470   3.298  12.083 -0.7885 -0.1744  0.0218
  262TMC3    C5 3966   1.544   3.363  11.990  0.0065 -0.4016 -0.1519
  262TMC3    C6 3967   1.597   3.489  11.993  0.1438 -0.4575  0.1965
  262TMC3     C 3968   1.313   3.345  12.263  0.1519 -0.3093 -0.4805
  262TMC3     O 3969   1.237   3.444  12.287  0.1627  0.2470  0.0335
  262TMC3     H 3970   1.473   3.547  12.300  1.6481  0.4043 -0.4368
  262TMC3    H1 3971   1.413   3.210  12.055 -1.3109  0.6534 -1.5174
  262TMC3    H2 3972   1.660   3.535  11.918 -1.2174  2.8450  1.0498
  262TMC3    C7 3973   1.544   3.293  11.859 -0.6693 -0.3560  0.7842
  262TMC3    C8 3974   1.542   3.701  12.086 -0.4941 -0.6508 -0.9333
  262TMC3    O1 3975   1.526   3.170  11.860  0.0759  0.3290 -0.3515
  262TMC3    O2 3976   1.610   3.753  12.002 -0.1734 -0.3673 -0.5340
  263MPD2     C 3977   2.579   2.732  11.637 -0.7268  0.1694 -0.2628
  263MPD2    C1 3978   2.698   2.794  11.606  0.3945 -0.3308 -0.1248
  263MPD2    C2 3979   2.701   2.874  11.493  0.0755 -0.0091 -0.4181
  263MPD2    C3 3980   2.596   2.876  11.403 -0.5590  0.0970 -0.4190
  263MPD2    C4 3981   2.473   2.831  11.444  0.0818 -0.1602 -0.7495
  263MPD2    C5 3982   2.460   2.758  11.562 -0.7911  0.1758 -0.0774
  263MPD2     H 3983   2.795   2.919  11.464 -0.3852 -0.6250 -2.9068
  263MPD2    H1 3984   2.384   2.843  11.383  1.2135 -0.2542 -2.4355
  263MPD2    H2 3985   2.567   2.681  11.732  0.1576  0.7852  0.1760
  263MPD2    H3 3986   2.365   2.721  11.600 -0.3017 -1.7837 -0.7552
  263MPD2     N 3987   2.624   2.930  11.278  0.5382  0.7598 -0.1972
  263MPD2    H5 3988   2.716   2.972  11.268  0.1485  1.3680 -1.2333
  263MPD2    N1 3989   2.809   2.759  11.681 -0.6408 -0.0694 -0.4789
  263MPD2    H7 3990   2.789   2.694  11.757 -0.7034 -2.7535 -2.7629
  264TMC3    C1 3991   2.584   3.006  11.063  0.1212 -0.0819  0.8307
  264TMC3    C2 3992   2.505   3.007  10.956  0.6532 -0.4211  0.6598
  264TMC3    C3 3993   2.565   3.024  10.830  0.5633 -0.0341 -0.1211
  264TMC3    C4 3994   2.709   3.045  11.052 -0.6076  0.3249  0.8652
  264TMC3    C5 3995   2.775   3.042  10.933  0.1100  0.3547 -0.1570
  264TMC3    C6 3996   2.699   3.020  10.815 -0.1750 -0.3852 -0.0018
  264TMC3     C 3997   2.536   2.935  11.174 -0.0487 -0.3938 -0.5742
  264TMC3     O 3998   2.425   2.891  11.170  0.0376  0.3511  0.1778
  264TMC3     H 3999   2.396   3.004  10.960  0.6329  0.5904  1.0965
  264TMC3    H1 4000   2.752   3.081  11.145 -0.5672  1.8233  0.2783
  264TMC3    H2 4001   2.732   3.040  10.713  0.3716 -2.3486 -0.1943
  264TMC3    C7 4002   2.912   3.096  10.936  0.5650  0.4311  0.4763
  264TMC3    C8 4003   2.488   3.056  10.713 -0.1151  1.2257 -0.7482
  264TMC3    O1 4004   2.952   3.125  11.048 -0.1656  0.5681 -0.9878
  264TMC3    O2 4005   2.506   2.981  10.622  0.6265  0.0400  0.3820
  265MPD2     C 4006   4.643   3.524  15.487  0.2010 -0.6405 -0.0723
  265MPD2    C1 4007   4.546   3.563  15.398  0.3225 -0.5328  0.2887
  265MPD2    C2 4008   4.536   3.510  15.276  0.2704  0.2253  0.2173
  265MPD2    C3 4009   4.641   3.427  15.222 -0.2598  0.1591  0.3640
  265MPD2    C4 4010   0.011   3.389  15.315 -0.1011  0.8425  0.0905
  265MPD2    C5 4011   0.005   3.427  15.445 -0.3419 -0.0066 -0.0085
  265MPD2     H 4012   4.461   3.547  15.207  0.0041  2.0287  1.4597
  265MPD2    H1 4013   0.093   3.323  15.286  0.0687  0.8689  0.5013
  265MPD2    H2 4014   4.656   3.571  15.583 -1.1716  0.4511 -0.4186
  265MPD2    H3 4015   0.085   3.396  15.511  0.9625 -2.1779 -2.6418
  265MPD2     N 4016   4.633   3.373  15.097 -0.2045 -0.0013 -0.6458
  265MPD2    H5 4017   4.699   3.302  15.068  0.8767  0.1348  1.4888
  265MPD2    N1 4018   4.440   3.648  15.433  0.0314 -0.2277  0.3236
  265MPD2    H7 4019   4.366   3.649  15.364  1.1167 -0.6050 -0.8372
  266TMC3    C1 4020   4.284   3.771  15.567 -0.2045 -0.3696 -0.0554
  266TMC3    C2 4021   4.221   3.771  15.683 -0.4047 -0.0933  1.0137
  266TMC3    C3 4022   4.083   3.791  15.693  0.3657 -0.7092 -0.2802
  266TMC3    C4 4023   4.211   3.799  15.452 -0.0495 -0.6748 -0.1543
  266TMC3    C5 4024   4.077   3.823  15.458  0.2085 -0.6736  0.2737
  266TMC3    C6 4025   4.006   3.823  15.575  0.1653 -1.1495  0.7416
  266TMC3     C 4026   4.405   3.697  15.558  0.4261  0.7896 -0.1301
  266TMC3     O 4027   4.474   3.699  15.659 -0.2856 -1.0816 -0.4936
  266TMC3     H 4028   4.274   3.746  15.774  0.1436 -1.0756  0.4179
  266TMC3    H1 4029   4.260   3.819  15.358  0.1196  1.2223  0.3241
  266TMC3    H2 4030   3.898   3.820  15.573  0.1602 -1.1295  1.0410
  266TMC3    C7 4031   4.000   3.811  15.330 -0.0622  0.1303 -0.1529
  266TMC3    C8 4032   4.008   3.792  15.823  0.2874 -0.3279 -0.8982
  266TMC3    O1 4033   4.042   3.874  15.232  0.6985 -0.6806  0.0401
  266TMC3    O2 4034   3.895   3.759  15.803 -0.4928  0.2141 -0.4634
  267MPD2     C 4035   2.108   4.413  17.151 -0.7229  0.6507  0.8416
  267MPD2    C1 4036   2.168   4.536  17.149  0.5794  0.1560  0.7641
  267MPD2    C2 4037   2.105   4.641  17.070 -0.1193 -0.6469  0.3834
  267MPD2    C3 4038   1.986   4.628  17.004  0.2504  0.4120  0.2097
  267MPD2    C4 4039   1.934   4.499  17.008 -0.1936 -0.8827  0.0482
  267MPD2    C5 4040   1.988   4.398  17.089 -0.7031 -0.1166 -0.7516
  267MPD2     H 4041   2.138   0.018  17.082 -1.5181 -0.2240  0.5704
  267MPD2    H1 4042   1.840   4.483  16.956 -1.0891  1.3072  1.0385
  267MPD2    H2 4043   2.151   4.338  17.216  0.6892  1.0314  0.3557
  267MPD2    H3 4044   1.950   4.296  17.088  1.2443 -0.8623  0.5336
  267MPD2     N 4045   1.916   0.017  16.950 -0.1518 -0.5278  0.2467
  267MPD2    H5 4046   1.817   4.725  16.936 -0.3815 -0.3532  1.6011
  267MPD2    N1 4047   2.298   4.554  17.214  0.1588  0.1676 -0.7817
  267MPD2    H7 4048   2.336   4.472  17.260  1.1336 -0.7605 -3.2701
  268TMC3    C1 4049   2.500   4.660  17.288 -0.2615 -0.1110  0.1077
  268TMC3    C2 4050   2.598   0.016  17.229  0.0299  0.0717  0.4593
  268TMC3    C3 4051   2.669   0.102  17.309 -0.3881  0.5997  0.3154
  268TMC3    C4 4052   2.472   4.675  17.424  0.4487  0.5098  0.4947
  268TMC3    C5 4053   2.550   0.039  17.495  0.1161 -0.0123 -0.0639
  268TMC3    C6 4054   2.660   0.106  17.442  0.8440  0.2465 -0.4188
  268TMC3     C 4055   2.376   4.666  17.204  0.1999 -0.0472  0.0320
  268TMC3     O 4056   2.358   0.037  17.133  0.2792 -0.0414 -0.2006
  268TMC3     H 4057   2.619   0.011  17.123  1.8105  0.3627  0.8073
  268TMC3    H1 4058   2.385   4.631  17.469 -0.5844 -0.0902 -2.0593
  268TMC3    H2 4059   2.724   0.166  17.505  0.3853  1.2192 -0.8802
  268TMC3    C7 4060   2.517   0.054  17.631 -0.5783  0.5273  0.0390
  268TMC3    C8 4061   2.670   0.234  17.251  0.4740 -0.5101  0.5308
  268TMC3    O1 4062   2.446   4.688  17.676  0.6073  0.0425  0.2657
  268TMC3    O2 4063   2.746   0.316  17.298 -0.3196 -0.3896 -0.3470
  269MPD2     C 4064   2.059   3.893  15.595 -0.4014  0.8952 -0.0354
  269MPD2    C1 4065   1.927   3.919  15.617 -0.1301 -0.0927  0.2315
  269MPD2    C2 4066   1.871   4.041  15.586 -0.0849  0.2948 -0.0387
  269MPD2    C3 4067   1.950   4.145  15.543 -0.3938  0.5994 -0.3407
  269MPD2    C4 4068   2.082   4.120  15.528 -0.3766  0.0618 -0.2394
  269MPD2    C5 4069   2.139   3.996  15.547 -0.0498  0.5748  0.1483
  269MPD2     H 4070   1.766   4.058  15.609 -0.0523 -0.3220  0.5826
  269MPD2    H1 4071   2.149   4.198  15.493  1.6922 -0.4224  2.6612
  269MPD2    H2 4072   2.110   3.800  15.612 -1.6767  0.0260 -1.0012
  269MPD2    H3 4073   2.237   3.971  15.507 -0.5522  0.1510 -0.7955
  269MPD2     N 4074   1.895   4.275  15.521 -0.2726  0.4982 -0.0045
  269MPD2    H5 4075   1.797   4.280  15.544 -0.3020  1.5335 -0.3400
  269MPD2    N1 4076   1.859   3.817  15.687 -0.0395 -0.5142  0.2605
  269MPD2    H7 4077   1.921   3.739  15.705 -0.8692 -1.1935  0.1821
  270TMC3    C1 4078   1.693   3.684  15.757 -0.4284 -0.2663 -0.1010
  270TMC3    C2 4079   1.579   3.641  15.705  0.4338  0.1699 -0.0458
  270TMC3    C3 4080   1.568   3.505  15.686  0.2743 -0.0121  0.5927
  270TMC3    C4 4081   1.795   3.605  15.800 -0.3002  0.5357  0.4675
  270TMC3    C5 4082   1.774   3.470  15.786  0.1773 -1.2653  0.3724
  270TMC3    C6 4083   1.668   3.416  15.716  0.1760  0.2001 -0.2964
  270TMC3     C 4084   1.727   3.821  15.720  0.0962 -0.4439  0.3393
  270TMC3     O 4085   1.645   3.908  15.709  0.4810 -0.1770  0.3731
  270TMC3     H 4086   1.503   3.711  15.672  0.5272 -0.2587 -1.1990
  270TMC3    H1 4087   1.882   3.648  15.847 -1.7562  0.8748  2.8836
  270TMC3    H2 4088   1.637   3.313  15.712 -0.3008  0.3261  0.1434
  270TMC3    C7 4089   1.881   3.378  15.836  0.1879 -0.1992  0.3344
  270TMC3    C8 4090   1.482   3.467  15.583  1.0843 -0.1150 -0.0714
  270TMC3    O1 4091   1.995   3.417  15.820 -0.4491 -0.2543 -0.2704
  270TMC3    O2 4092   1.381   3.527  15.566 -0.6442  0.3282  0.0354
  271MPD2     C 4093   1.321   3.322  13.708 -0.0168  0.3772 -0.2200
  271MPD2    C1 4094   1.284   3.365  13.833 -0.3050 -0.3353 -0.3243
  271MPD2    C2 4095   1.210   3.480  13.834 -0.1042  0.1893  0.3114
  271MPD2    C3 4096   1.185   3.553  13.721 -0.0074 -0.6099  0.4525
  271MPD2    C4 4097   1.216   3.507  13.593  0.1107  0.4466 -0.1120
  271MPD2    C5 4098   1.281   3.390  13.593  0.1293  0.2786 -0.0323
  271MPD2     H 4099   1.170   3.505  13.931 -1.7156 -1.5031  0.0905
  271MPD2    H1 4100   1.198   3.553  13.497  1.0000  3.3543  1.1042
  271MPD2    H2 4101   1.361   3.221  13.699  0.8023  0.7907 -1.2112
  271MPD2    H3 4102   1.293   3.348  13.494  1.8969  2.4575 -0.7536
  271MPD2     N 4103   1.100   3.670  13.731 -0.0319 -0.0894  0.2617
  271MPD2    H5 4104   1.079   3.712  13.641 -0.0591 -2.2039 -0.7061
  271MPD2    N1 4105   1.321   3.301  13.954  0.7031  0.6643 -0.1808
  271MPD2    H7 4106   1.291   3.347  14.039 -1.0284  0.3953 -0.6551
  272TMC3    C1 4107   1.440   3.175  14.105  0.0906 -0.2204  0.0058
  272TMC3    C2 4108   1.560   3.119  14.137 -0.0667  0.2594  0.2695
  272TMC3    C3 4109   1.601   3.135  14.264 -0.1904  0.3141 -0.4096
  272TMC3    C4 4110   1.366   3.238  14.198 -0.2278 -0.1396 -0.4493
  272TMC3    C5 4111   1.407   3.239  14.328  0.3397 -0.0075  0.0133
  272TMC3    C6 4112   1.532   3.202  14.360 -0.3883 -1.0549 -0.0827
  272TMC3     C 4113   1.421   3.206  13.966 -0.0854 -0.4437  0.4064
  272TMC3     O 4114   1.505   3.174  13.881  0.7105 -0.1889  0.5234
  272TMC3     H 4115   1.625   3.073  14.063 -1.6243 -0.0201 -0.9164
  272TMC3    H1 4116   1.261   3.256  14.177 -0.2147  2.8443  2.0204
  272TMC3    H2 4117   1.557   3.181  14.463  0.9184 -2.2861 -0.6643
  272TMC3    C7 4118   1.319   3.299  14.425  0.3445  0.8709 -0.3543
  272TMC3    C8 4119   1.739   3.126  14.282  0.8354 -0.4390 -0.2276
  272TMC3    O1 4120   1.201   3.315  14.392 -0.0870 -0.3701  0.5098
  272TMC3    O2 4121   1.791   3.167  14.180  0.1351  0.0857 -0.0189
  273MPD2     C 4122   2.848   1.583  11.791  0.0873  0.4273 -0.6771
  273MPD2    C1 4123   2.972   1.649  11.798  0.5289 -0.0865  0.2711
  273MPD2    C2 4124   3.038   1.674  11.681 -0.4943 -0.7996 -0.0025
  273MPD2    C3 4125   2.980   1.642  11.555 -0.3228 -0.1627  0.6005
  273MPD2    C4 4126   2.859   1.575  11.554  0.1467  0.4762 -0.1999
  273MPD2    C5 4127   2.800   1.543  11.673 -0.7008 -0.0527  0.3965
  273MPD2     H 4128   3.137   1.718  11.684 -0.5030 -0.7672 -0.1833
  273MPD2    H1 4129   2.809   1.561  11.458 -0.6723 -0.0943  0.3071
  273MPD2    H2 4130   2.787   1.556  11.877  4.0352  0.0688  1.9922
  273MPD2    H3 4131   2.712   1.479  11.673 -0.1030 -0.8654 -0.4595
  273MPD2     N 4132   3.034   1.673  11.428 -0.4210  1.3662  0.0437
  273MPD2    H5 4133   2.988   1.636  11.346  0.6958  0.3235 -0.1146
  273MPD2    N1 4134   3.023   1.683  11.926  0.1235 -0.4689 -0.7242
  273MPD2    H7 4135   2.957   1.688  12.002  0.9782 -1.3009  0.0835
  274TMC3    C1 4136   3.174   1.803  11.281 -0.2073 -0.2946 -0.0763
  274TMC3    C2 4137   3.102   1.779  11.169  0.2054  0.5655 -0.0284
  274TMC3    C3 4138   3.102   1.867  11.065  0.4362  0.2340 -0.1501
  274TMC3    C4 4139   3.277   1.901  11.280  0.4935 -1.1097 -0.2032
  274TMC3    C5 4140   3.277   1.978  11.164  0.3829 -0.1600  0.3216
  274TMC3    C6 4141   3.199   1.970  11.055 -0.7661  0.9004  0.1517
  274TMC3     C 4142   3.143   1.754  11.418 -0.0506 -0.2337 -0.4307
  274TMC3     O 4143   3.207   1.810  11.504  0.1783  0.1139  0.1542
  274TMC3     H 4144   3.037   1.693  11.173  0.7043  0.2196  0.6987
  274TMC3    H1 4145   3.347   1.909  11.363 -0.7583  1.1523  0.6105
  274TMC3    H2 4146   3.174   2.057  10.995 -1.1510  0.2067 -0.6901
  274TMC3    C7 4147   3.371   2.090  11.164 -0.1734 -0.1303 -0.1471
  274TMC3    C8 4148   2.992   1.864  10.965  1.1020 -0.2684  0.1590
  274TMC3    O1 4149   3.425   2.130  11.060 -0.6413 -0.2944 -0.6525
  274TMC3    O2 4150   2.905   1.780  10.990  0.0300 -0.0551 -0.1410
  275MPD2     C 4151   2.893   4.255  14.555 -0.1545  1.2362  0.1759
  275MPD2    C1 4152   2.817   4.332  14.474  0.5876 -1.0210 -0.1528
  275MPD2    C2 4153   2.691   4.292  14.432  0.9154 -0.1267 -0.0123
  275MPD2    C3 4154   2.633   4.177  14.485  0.3796  0.0764 -0.6645
  275MPD2    C4 4155   2.708   4.100  14.580  0.7791 -0.1732 -0.5228
  275MPD2    C5 4156   2.834   4.137  14.608  0.5764  0.2169 -0.2784
  275MPD2     H 4157   2.641   4.344  14.351  1.7932 -2.3271 -2.0190
  275MPD2    H1 4158   2.658   4.015  14.625  0.2512  0.1262 -0.5503
  275MPD2    H2 4159   2.989   4.291  14.591  1.2514  1.6178 -3.9865
  275MPD2    H3 4160   2.891   4.082  14.682 -1.5316 -0.0742  1.1242
  275MPD2     N 4161   2.503   4.141  14.470  0.3286 -0.1465 -0.1327
  275MPD2    H5 4162   2.478   4.052  14.512 -1.6952  0.9862  1.0061
  275MPD2    N1 4163   2.868   4.457  14.419 -1.2655  0.5070  0.1130
  275MPD2    H7 4164   2.815   4.500  14.344 -1.8705  0.3546  0.4559
  276TMC3    C1 4165   3.003   4.660  14.419  0.0171 -0.2406 -0.4804
  276TMC3    C2 4166   2.892   0.019  14.427  0.1523 -0.0797 -0.5073
  276TMC3    C3 4167   2.914   0.149  14.470 -0.2029  0.3232  0.1606
  276TMC3    C4 4168   3.124   4.708  14.448  0.4947 -0.1803  0.6956
  276TMC3    C5 4169   3.142   0.112  14.494 -0.5038 -0.1158  0.1028
  276TMC3    C6 4170   3.043   0.200  14.480 -0.1380  0.2735  0.2913
  276TMC3     C 4171   2.993   4.518  14.444  0.7712  0.5498  0.0125
  276TMC3     O 4172   3.086   4.481  14.515  0.0402 -0.5368 -0.0345
  276TMC3     H 4173   2.793   4.700  14.417 -0.6886  1.1384  2.4716
  276TMC3    H1 4174   3.214   4.651  14.428  1.0638  0.6068  0.9768
  276TMC3    H2 4175   3.056   0.298  14.526  2.2116  0.5873 -1.0394
  276TMC3    C7 4176   3.172   0.105  14.634 -0.2543 -0.2041 -0.1306
  276TMC3    C8 4177   2.833   0.188  14.584  0.0932 -0.3368  0.3567
  276TMC3    O1 4178   3.186   0.210  14.699 -0.2104 -0.3796 -0.1087
  276TMC3    O2 4179   2.844   0.301  14.630  0.0293  0.3022 -0.2192
  277MPD2     C 4180   0.198   3.434  13.418 -0.1549 -0.2644 -0.1422
  277MPD2    C1 4181   0.081   3.502  13.438 -0.3999  0.5863  0.0519
  277MPD2    C2 4182   4.718   3.459  13.537  0.3892 -0.1440  0.1819
  277MPD2    C3 4183   0.015   3.348  13.613  0.1916 -0.6136 -0.0027
  277MPD2    C4 4184   0.137   3.280  13.604 -0.5150 -0.7299  0.7632
  277MPD2    C5 4185   0.221   3.320  13.501 -0.0724 -0.1982  0.6738
  277MPD2     H 4186   4.627   3.513  13.560  1.6472  1.1946  2.0407
  277MPD2    H1 4187   0.153   3.188  13.658  1.3269 -0.8171  0.0480
  277MPD2    H2 4188   0.262   3.455  13.333 -1.7067  0.6553 -1.0896
  277MPD2    H3 4189   0.310   3.258  13.497  1.1563  1.6474 -0.4284
  277MPD2     N 4190   4.648   3.325  13.718 -0.1506 -0.2393 -0.1265
  277MPD2    H5 4191   4.558   3.371  13.710 -0.6379 -1.4620 -1.7537
  277MPD2    N1 4192   0.062   3.618  13.362  0.3340 -0.0289 -0.6386
  277MPD2    H7 4193   0.136   3.647  13.299  0.1500  1.0752 -0.3467
  278TMC3    C1 4194   4.542   3.213  13.882 -0.0472  0.6877  0.0860
  278TMC3    C2 4195   4.498   3.083  13.904  0.2603 -0.0244  0.0415
  278TMC3    C3 4196   4.362   3.068  13.919  0.3886 -0.4860 -0.0602
  278TMC3    C4 4197   4.454   3.319  13.893  0.6441  0.7123  0.2330
  278TMC3    C5 4198   4.319   3.294  13.906 -0.3561 -0.3482 -0.1737
  278TMC3    C6 4199   4.268   3.169  13.906  0.0846  0.4915 -0.3285
  278TMC3     C 4200   4.665   3.227  13.812 -0.3888  0.8886 -0.2831
  278TMC3     O 4201   0.016   3.131  13.822 -0.5752 -0.3445 -0.9995
  278TMC3     H 4202   4.559   2.998  13.877  1.4101  0.7586  0.1781
  278TMC3    H1 4203   4.500   3.417  13.885  3.2745 -0.6200 -1.3109
  278TMC3    H2 4204   4.167   3.140  13.931  0.7898 -0.0642  1.8713
  278TMC3    C7 4205   4.229   3.411  13.910 -0.2287 -0.4281 -0.3576
  278TMC3    C8 4206   4.313   2.935  13.925  0.3035  0.3022 -0.7650
  278TMC3    O1 4207   4.292   3.514  13.888 -0.6096  0.4449  0.1648
  278TMC3    O2 4208   4.394   2.853  13.970  0.8597  0.0335 -0.0632
  279MPD2     C 4209   3.407   3.280   0.567 -0.0574  0.3388  0.0159
  279MPD2    C1 4210   3.329   3.393   0.555  0.1381 -0.4926 -0.5559
  279MPD2    C2 4211   3.351   3.476   0.450  0.1909 -0.0745 -0.0807
  279MPD2    C3 4212   3.433   3.441   0.345  0.0485 -0.5709  0.0789
  279MPD2    C4 4213   3.487   3.319   0.343 -0.3306 -0.4808 -0.1913
  279MPD2    C5 4214   3.487   3.240   0.458  0.0311 -0.1684 -0.0703
  279MPD2     H 4215   3.290   3.564   0.430  0.4210 -0.0401 -0.6463
  279MPD2    H1 4216   3.534   3.278   0.254  0.1923  1.7271 -0.9378
  279MPD2    H2 4217   3.406   3.212   0.651  0.0790 -0.7607 -0.8722
  279MPD2    H3 4218   3.530   3.142   0.445  1.6514  0.6130 -0.6090
  279MPD2     N 4219   3.454   3.518   0.227 -0.1815  0.2068 -0.1698
  279MPD2    H5 4220   3.492   3.469   0.147  2.0952  0.1191  0.9598
  279MPD2    N1 4221   3.241   3.444   0.660 -0.7443 -0.3564  0.0325
  279MPD2    H7 4222   3.200   3.537   0.651  0.5396  0.1219 -0.9351
  280TMC3    C1 4223   3.059   3.414   0.807  0.7811  0.0641 -0.4210
  280TMC3    C2 4224   2.958   3.331   0.756 -0.7897  0.4458 -0.7147
  280TMC3    C3 4225   2.869   3.382   0.664 -0.3660  0.4014  0.0286
  280TMC3    C4 4226   3.041   3.549   0.786  0.5491 -0.5462  0.2582
  280TMC3    C5 4227   2.935   3.592   0.718 -0.1856 -0.3250  0.0177
  280TMC3    C6 4228   2.854   3.513   0.640 -0.4186 -0.0516  0.2092
  280TMC3     C 4229   3.182   3.361   0.751 -0.7305 -0.2383 -0.1169
  280TMC3     O 4230   3.193   3.239   0.761  0.4708 -0.5111 -0.1854
  280TMC3     H 4231   2.961   3.224   0.769 -0.3875  0.3914 -1.2778
  280TMC3    H1 4232   3.110   3.612   0.840 -0.8962  0.6406  0.7355
  280TMC3    H2 4233   2.787   3.550   0.564  1.2642 -0.7493 -1.6294
  280TMC3    C7 4234   2.929   3.736   0.711  0.5113 -0.8314  0.3894
  280TMC3    C8 4235   2.863   3.303   0.540  0.4540  0.1715 -0.2166
  280TMC3    O1 4236   3.007   3.792   0.789 -0.8302 -0.1830 -0.8507
  280TMC3    O2 4237   2.778   3.326   0.456  0.5453  0.0958  0.6320
  281TMC3    C1 4238   2.630   3.267  13.031 -0.4992  0.9797 -0.5419
  281TMC3    C2 4239   2.545   3.323  12.946 -0.1071 -0.8783 -0.6463
  281TMC3    C3 4240   2.452   3.247  12.876 -0.6675  0.3019 -0.1809
  281TMC3    C4 4241   2.641   3.133  13.051  0.1805  1.1554  0.1500
  281TMC3    C5 4242   2.576   3.058  12.958 -0.2941 -0.0459  0.0967
  281TMC3    C6 4243   2.490   3.118  12.870 -0.4642  0.0034  0.0033
  281TMC3     C 4244   2.646   3.352  13.156  0.0880  0.4415 -0.1221
  281TMC3     O 4245   2.740   3.323  13.222  0.1201 -0.6709 -0.2195
  281TMC3     H 4246   2.529   3.430  12.937  0.5297 -0.8163 -1.0669
  281TMC3    H1 4247   2.708   3.089  13.124 -1.9015 -1.2949  0.5867
  281TMC3    H2 4248   2.436   3.050  12.805 -1.3545 -1.3708  2.1986
  281TMC3    C7 4249   2.522   2.938  13.014 -0.9966 -0.4155  0.5283
  281TMC3    C8 4250   2.332   3.266  12.938 -0.1871 -0.4991 -0.3313
  281TMC3    O1 4251   2.481   2.855  12.936  0.1346  0.9549 -0.3160
  281TMC3    O2 4252   2.319   3.362  13.013  0.1373 -0.0267 -0.4272
  282MPD2     C 4253   4.049   0.193  15.125 -0.5591  0.6845 -0.2956
  282MPD2    C1 4254   4.007   0.325  15.150  0.3119  0.7314  0.4307
  282MPD2    C2 4255   4.056   0.413  15.061  0.1026 -0.0255 -0.0608
  282MPD2    C3 4256   4.148   0.393  14.957  0.2745  0.4498  0.2156
  282MPD2    C4 4257   4.164   0.255  14.926  0.5814 -0.5885 -0.4850
  282MPD2    C5 4258   4.118   0.159  15.017 -0.1060  0.3632  0.0567
  282MPD2     H 4259   4.025   0.516  15.075  1.4176  0.0242  2.5819
  282MPD2    H1 4260   4.214   0.223  14.835 -2.1191  2.1771 -2.9642
  282MPD2    H2 4261   4.020   0.109  15.188  1.3751 -0.8443 -1.4744
  282MPD2    H3 4262   4.126   0.054  14.991 -2.1101 -0.3172  2.1824
  282MPD2     N 4263   4.188   0.491  14.865 -0.7755  0.3128 -0.1808
  282MPD2    H5 4264   4.164   0.585  14.896 -0.0517  0.0595  1.1197
  282MPD2    N1 4265   3.918   0.366  15.250 -0.2703  0.4329 -0.4196
  282MPD2    H7 4266   3.874   0.458  15.246  2.2095  1.6614  0.7829
  283TMC3    C1 4267   3.760   0.361  15.414 -0.5463 -0.5402  0.0479
  283TMC3    C2 4268   3.782   0.484  15.464 -0.3895  0.3036 -0.5024
  283TMC3    C3 4269   3.691   0.524  15.559  0.7469  0.4729 -0.1288
  283TMC3    C4 4270   3.661   0.278  15.467  0.4325  0.6183 -0.0757
  283TMC3    C5 4271   3.571   0.325  15.563 -0.8292 -0.9565 -0.2540
  283TMC3    C6 4272   3.591   0.453  15.611  0.0797 -0.2716  0.5889
  283TMC3     C 4273   3.871   0.286  15.351  0.2156  0.3929 -0.9341
  283TMC3     O 4274   3.888   0.170  15.375 -0.0133 -0.6383  0.6699
  283TMC3     H 4275   3.869   0.545  15.443  1.7570 -2.7661 -0.4945
  283TMC3    H1 4276   3.662   0.179  15.422 -1.8019  1.3396 -1.7075
  283TMC3    H2 4277   3.527   0.503  15.682  1.0768  2.2324 -0.2875
  283TMC3    C7 4278   3.461   0.250  15.610  0.0943 -0.2454 -0.0646
  283TMC3    C8 4279   3.733   0.634  15.644 -0.4022  1.0208  1.0332
  283TMC3    O1 4280   3.420   0.290  15.721  0.0001 -0.2124  0.0414
  283TMC3    O2 4281   3.703   0.636  15.761 -0.2490 -0.3996  0.5257
  284MPD2     C 4282   2.224   4.410  11.760  0.1069  0.1190 -0.3476
  284MPD2    C1 4283   2.359   4.440  11.784  0.8422 -0.2517 -0.6119
  284MPD2    C2 4284   2.420   4.388  11.893 -0.2674 -0.0534 -0.5703
  284MPD2    C3 4285   2.359   4.307  11.979 -0.1078 -0.7810 -0.2762
  284MPD2    C4 4286   2.230   4.269  11.960  0.1472 -0.3542  0.4695
  284MPD2    C5 4287   2.166   4.317  11.853 -0.1048 -0.6917 -0.0249
  284MPD2     H 4288   2.524   4.405  11.919 -0.1584 -2.7065  0.6967
  284MPD2    H1 4289   2.181   4.197  12.025  0.2942 -0.4354  0.4918
  284MPD2    H2 4290   2.168   4.448  11.675 -0.2764 -2.5159 -1.2839
  284MPD2    H3 4291   2.062   4.289  11.841 -0.1677 -0.1665 -0.7335
  284MPD2     N 4292   2.435   4.244  12.079  0.3021  0.0086  0.4161
  284MPD2    H5 4293   2.528   4.283  12.093  1.0600 -2.4856  2.5053
  284MPD2    N1 4294   2.441   4.523  11.696 -0.0059  0.1683  0.5219
  284MPD2    H7 4295   2.542   4.519  11.709 -0.1042 -0.1533  1.2054
  285TMC3    C1 4296   2.505   4.570  11.473 -0.1576 -0.9595 -0.4963
  285TMC3    C2 4297   2.574   4.451  11.455  0.7588  0.7029 -0.1316
  285TMC3    C3 4298   2.705   4.455  11.420  0.1274 -0.4247 -0.1233
  285TMC3    C4 4299   2.573   4.691  11.476 -0.3242 -0.0664 -0.7695
  285TMC3    C5 4300   2.714   4.686  11.462 -0.2813  0.5277 -0.3458
  285TMC3    C6 4301   2.777   4.571  11.427 -0.3392  0.0010 -0.5165
  285TMC3     C 4302   2.395   4.567  11.574  0.6253 -0.4313  0.3769
  285TMC3     O 4303   2.283   4.581  11.528 -0.6355 -0.3700 -0.1989
  285TMC3     H 4304   2.528   4.355  11.475 -0.4707  1.7818  2.1771
  285TMC3    H1 4305   2.523   0.059  11.500 -2.0238 -1.5275  1.3115
  285TMC3    H2 4306   2.876   4.573  11.382  0.0749  4.1727  0.5567
  285TMC3    C7 4307   2.783   0.089  11.474 -0.2447 -0.8391  0.4303
  285TMC3    C8 4308   2.767   4.328  11.388  0.3404 -0.4744 -0.0203
  285TMC3    O1 4309   2.718   0.194  11.464 -0.6450 -0.4784 -0.3220
  285TMC3    O2 4310   2.697   4.250  11.324  0.1541 -0.5890  0.4755
  286MPD2     C 4311   2.370   2.977   1.754 -0.0305  0.3377  0.2996
  286MPD2    C1 4312   2.342   2.979   1.619  0.6977  0.0937 -0.1781
  286MPD2    C2 4313   2.389   2.879   1.542 -0.3935  0.1745 -0.1845
  286MPD2    C3 4314   2.452   2.768   1.591  0.3567 -0.3519  0.6002
  286MPD2    C4 4315   2.467   2.765   1.727 -0.0438 -0.4987  0.6950
  286MPD2    C5 4316   2.435   2.874   1.807  0.5596 -0.5241  0.1645
  286MPD2     H 4317   2.361   2.893   1.438 -0.0297 -0.6676 -0.3904
  286MPD2    H1 4318   2.495   2.673   1.777 -2.2180 -0.4465  1.9913
  286MPD2    H2 4319   2.331   3.055   1.818 -2.6845 -0.7707  0.0270
  286MPD2    H3 4320   2.444   2.870   1.915 -2.6474 -2.8815  0.3127
  286MPD2     N 4321   2.507   2.669   1.509  0.3689  0.5427  0.6426
  286MPD2    H5 4322   2.566   2.598   1.551  0.6467  0.8559  0.7758
  286MPD2    N1 4323   2.289   3.091   1.554  0.1629  0.5460  0.0125
  286MPD2    H7 4324   2.262   3.084   1.457  0.4737  0.9416 -0.1022
  287TMC3    C1 4325   2.587   2.579   1.312 -0.2605 -0.2379  0.0923
  287TMC3    C2 4326   2.567   2.553   1.180  0.1396 -0.2218  0.4907
  287TMC3    C3 4327   2.659   2.471   1.120 -0.4453 -0.2056 -0.4994
  287TMC3    C4 4328   2.702   2.545   1.384 -0.5056 -0.1157 -0.1008
  287TMC3    C5 4329   2.798   2.480   1.311  0.0335 -0.0970 -1.2342
  287TMC3    C6 4330   2.775   2.443   1.181  0.5096  0.3221  0.4918
  287TMC3     C 4331   2.492   2.665   1.374  0.1123  0.5138 -0.3491
  287TMC3     O 4332   2.417   2.730   1.300  0.4369  0.1060  0.0939
  287TMC3     H 4333   2.483   2.596   1.127  2.3328  0.8957 -2.0993
  287TMC3    H1 4334   2.734   2.565   1.485  1.8285 -3.1348 -0.2560
  287TMC3    H2 4335   2.852   2.393   1.124 -1.5924  0.6817 -2.6259
  287TMC3    C7 4336   2.899   2.405   1.392  0.4575  0.7294  0.4479
  287TMC3    C8 4337   2.632   2.423   0.983  0.5698  0.6123  0.1491
  287TMC3    O1 4338   2.883   2.397   1.510 -0.3041 -0.1579 -0.5104
  287TMC3    O2 4339   2.681   2.317   0.953 -0.0994 -0.5607 -0.4620
  288TMC3    C1 4340   0.046   3.090  14.175 -0.0549 -0.0129 -0.2552
  288TMC3    C2 4341   4.666   3.132  14.257  0.4114  0.3571  0.2052
  288TMC3    C3 4342   4.631   3.268  14.264  0.7031 -0.3010  0.3103
  288TMC3    C4 4343   0.106   3.185  14.099 -0.0779  0.4648 -0.0820
  288TMC3    C5 4344   0.062   3.319  14.109 -0.1418 -0.3110  0.2828
  288TMC3    C6 4345   4.688   3.364  14.193  0.9145  0.5033 -0.4146
  288TMC3     C 4346   0.082   2.955  14.148 -0.6315 -0.2596 -0.2512
  288TMC3     O 4347   0.188   2.931  14.093  0.1610 -0.0889  0.2366
  288TMC3     H 4348   4.638   3.063  14.336  0.5682 -2.7619 -2.4767
  288TMC3    H1 4349   0.195   3.156  14.045  0.1348  0.9465  0.0022
  288TMC3    H2 4350   4.663   3.470  14.196  2.4701  0.8626 -0.4816
  288TMC3    C7 4351   0.116   3.419  14.020  0.5175  0.0381  0.1462
  288TMC3    C8 4352   4.516   3.301  14.350  0.1374 -0.3517  0.5737
  288TMC3    O1 4353   0.042   3.511  13.989  0.6685 -0.7267 -0.4545
  288TMC3    O2 4354   4.525   3.419  14.385  0.5193  0.2780 -0.1936
  289MPD2     C 4355   4.335   2.280  14.770 -0.5384  0.1844  0.3215
  289MPD2    C1 4356   4.386   2.373  14.685 -1.0940  0.1950  0.0629
  289MPD2    C2 4357   4.334   2.387  14.553 -0.7631  0.2059  0.2558
  289MPD2    C3 4358   4.233   2.311  14.506 -0.1865 -0.3607  0.3937
  289MPD2    C4 4359   4.190   2.213  14.592  0.3084  0.3495  0.1901
  289MPD2    C5 4360   4.233   2.202  14.724  0.8598 -0.5053  0.2926
  289MPD2     H 4361   4.369   2.469  14.491  0.8657 -0.3419  0.4572
  289MPD2    H1 4362   4.110   2.143  14.568  0.8503  0.5506 -2.1773
  289MPD2    H2 4363   4.370   2.268  14.872  1.2672  1.2329 -0.1913
  289MPD2    H3 4364   4.202   2.126  14.795 -0.5306 -0.3931 -0.1895
  289MPD2     N 4365   4.169   2.314  14.376 -0.3738 -0.2853 -0.5175
  289MPD2    H5 4366   4.094   2.250  14.351 -1.8288  1.6497 -1.1479
  289MPD2    N1 4367   4.489   2.448  14.741 -0.3649  0.4636  0.5109
  289MPD2    H7 4368   4.511   2.428  14.838  0.6949  0.7231  0.3217
  290TMC3    C1 4369   4.105   2.403  14.173  0.3899 -0.2915 -0.0129
  290TMC3    C2 4370   4.066   2.520  14.123  0.5789 -0.3249 -0.7734
  290TMC3    C3 4371   3.969   2.513  14.031 -0.0832 -0.0881  0.3282
  290TMC3    C4 4372   4.060   2.278  14.137 -0.3330 -0.6422 -0.1512
  290TMC3    C5 4373   3.951   2.279  14.055 -0.2914  0.2323  0.2866
  290TMC3    C6 4374   3.904   2.394  14.002 -0.2918 -0.3671 -0.3784
  290TMC3     C 4375   4.196   2.409  14.285  0.6741 -1.3125 -0.2734
  290TMC3     O 4376   4.270   2.504  14.295 -0.0043  0.4915 -0.1599
  290TMC3     H 4377   4.117   2.613  14.145  0.2773 -0.4676  0.5306
  290TMC3    H1 4378   4.090   2.184  14.182  0.6805 -1.6361 -2.8957
  290TMC3    H2 4379   3.837   2.391  13.917  1.5638 -0.4000 -1.8120
  290TMC3    C7 4380   3.935   2.161  13.972  0.4851 -0.5969  0.6423
  290TMC3    C8 4381   3.896   2.632  13.990  0.0655  0.1329  0.9078
  290TMC3    O1 4382   3.890   2.187  13.860 -0.1360  0.2546 -0.1529
  290TMC3    O2 4383   3.811   2.614  13.907 -0.4686  0.0784 -0.3738
  291MPD2     C 4384   3.415   2.198   0.536  0.0057 -0.2879 -0.0867
  291MPD2    C1 4385   3.534   2.142   0.565 -0.1485  0.7109 -1.0327
  291MPD2    C2 4386   3.654   2.208   0.568 -0.1312  0.6280 -0.2872
  291MPD2    C3 4387   3.657   2.341   0.535  0.7074 -0.1469  0.0895
  291MPD2    C4 4388   3.546   2.400   0.487 -0.0555  0.9647  0.1134
  291MPD2    C5 4389   3.425   2.329   0.496 -0.0387  0.0399  0.3188
  291MPD2     H 4390   3.738   2.146   0.594 -0.2242 -0.0845 -1.7402
  291MPD2    H1 4391   3.537   2.502   0.451 -2.7547  0.9474  0.7415
  291MPD2    H2 4392   3.321   2.146   0.517 -0.4294  0.4264  0.1299
  291MPD2    H3 4393   3.334   2.370   0.455  0.0604 -1.9966 -1.9777
  291MPD2     N 4394   3.779   2.405   0.521 -0.4958  0.0538  0.4296
  291MPD2    H5 4395   3.770   2.498   0.482 -3.4176 -0.2262  0.4143
  291MPD2    N1 4396   3.543   2.009   0.602 -0.2280  0.2152  0.1666
  291MPD2    H7 4397   3.631   1.967   0.629  0.1326 -0.0653 -1.4119
  292TMC3    C1 4398   3.486   1.793   0.639  0.8122 -0.5638 -0.0088
  292TMC3    C2 4399   3.611   1.793   0.701  0.3637 -0.3927  0.3200
  292TMC3    C3 4400   3.684   1.681   0.695  1.2070 -0.0310  0.6200
  292TMC3    C4 4401   3.436   1.686   0.573  0.5991  0.3518 -0.4999
  292TMC3    C5 4402   3.519   1.581   0.560  0.7612 -0.5154  0.3898
  292TMC3    C6 4403   3.643   1.575   0.621 -0.4302 -0.1961 -0.4738
  292TMC3     C 4404   3.434   1.924   0.610 -0.1805  0.3476 -0.2239
  292TMC3     O 4405   3.311   1.940   0.591  0.5991 -0.1833  0.8949
  292TMC3     H 4406   3.646   1.879   0.757 -0.7777  0.3853 -0.1670
  292TMC3    H1 4407   3.337   1.699   0.533  0.0157 -0.1820  0.7718
  292TMC3    H2 4408   3.708   1.491   0.604  0.5467  0.2128  1.1586
  292TMC3    C7 4409   3.466   1.451   0.542 -0.4991 -0.4017  0.6916
  292TMC3    C8 4410   3.827   1.695   0.678 -0.2772  0.0129  0.1403
  292TMC3    O1 4411   3.517   1.358   0.605  0.3529  0.2982 -0.0840
  292TMC3    O2 4412   3.864   1.781   0.602  0.0617  0.4694  0.9037
  293MPD2     C 4413   1.022   3.661  12.422  0.6573  0.1872 -0.5745
  293MPD2    C1 4414   0.934   3.567  12.477  0.1976  0.6562 -0.0334
  293MPD2    C2 4415   0.918   3.558  12.612  0.4382 -0.4387 -0.6441
  293MPD2    C3 4416   0.987   3.644  12.693  0.4402 -0.1712  0.2351
  293MPD2    C4 4417   1.073   3.739  12.642  0.6366  0.3872 -0.4190
  293MPD2    C5 4418   1.098   3.744  12.504  0.2106 -0.7153 -0.3388
  293MPD2     H 4419   0.855   3.483  12.657  1.5790 -0.6338  0.6275
  293MPD2    H1 4420   1.135   3.811  12.695  0.5362  1.4176 -1.6859
  293MPD2    H2 4421   1.029   3.656  12.314 -0.1294  0.6753 -0.6489
  293MPD2    H3 4422   1.170   3.817  12.466 -1.5808  0.6528 -1.1001
  293MPD2     N 4423   0.967   3.637  12.835 -1.1327  0.6787  0.0501
  293MPD2    H5 4424   0.932   3.548  12.869  0.3967  0.1409  0.2424
  293MPD2    N1 4425   0.849   3.496  12.381 -0.0053 -0.0309  0.4560
  293MPD2    H7 4426   0.858   3.522  12.283 -0.5936  0.6358  0.5739
  294TMC3    C1 4427   0.657   3.382  12.315  0.5107  0.4252  0.5765
  294TMC3    C2 4428   0.536   3.336  12.373  0.3325  0.3031  0.3711
  294TMC3    C3 4429   0.427   3.328  12.290  0.3437 -0.1369  0.3713
  294TMC3    C4 4430   0.663   3.419  12.179 -0.1722 -0.4892  0.3741
  294TMC3    C5 4431   0.545   3.399  12.108  0.4040  0.5584  0.1885
  294TMC3    C6 4432   0.426   3.363  12.165  0.6690 -0.1758  0.0586
  294TMC3     C 4433   0.765   3.393  12.409 -0.6009  0.2632 -0.8452
  294TMC3     O 4434   0.745   3.333  12.513  0.1958  0.2334  0.7939
  294TMC3     H 4435   0.527   3.291  12.471  1.2886  0.6653  0.6311
  294TMC3    H1 4436   0.757   3.451  12.135 -0.3901 -0.2051  0.1201
  294TMC3    H2 4437   0.338   3.333  12.109  1.4396 -2.9496  0.3420
  294TMC3    C7 4438   0.547   3.353  11.968 -1.0104  1.0412  0.3231
  294TMC3    C8 4439   0.357   3.201  12.304 -0.0338  0.5369  0.5576
  294TMC3    O1 4440   0.443   3.352  11.907 -0.1227 -0.6983  0.5940
  294TMC3    O2 4441   0.347   3.125  12.210 -0.2222  0.0416 -0.2622
  295MPD2     C 4442   0.887   1.277   0.739 -0.1209 -0.5802 -0.0108
  295MPD2    C1 4443   0.959   1.396   0.722 -0.4192  0.1927 -0.4049
  295MPD2    C2 4444   0.928   1.494   0.814  0.1112  0.5494  0.3841
  295MPD2    C3 4445   0.836   1.485   0.917 -0.2204  0.0203 -0.4100
  295MPD2    C4 4446   0.775   1.366   0.936 -0.0957  0.7353 -0.1535
  295MPD2    C5 4447   0.802   1.264   0.847 -0.4594  0.5588 -0.4504
  295MPD2     H 4448   0.976   1.588   0.792  1.1651  0.3280  1.7132
  295MPD2    H1 4449   0.705   1.348   1.018  1.1814  2.6214  1.3620
  295MPD2    H2 4450   0.900   1.190   0.677  0.0621 -0.9579  0.5578
  295MPD2    H3 4451   0.747   1.172   0.861  1.6991 -0.7184 -0.4023
  295MPD2     N 4452   0.818   1.592   1.007 -0.0811 -0.9927  0.5094
  295MPD2    H5 4453   0.742   1.582   1.075  0.0060 -3.4449  0.2300
  295MPD2    N1 4454   1.054   1.429   0.620 -0.8923 -0.2168 -1.0601
  295MPD2    H7 4455   1.087   1.523   0.639  1.6948 -1.0664 -1.3344
  296TMC3    C1 4456   0.866   1.812   1.080 -0.6419  0.5001  0.6880
  296TMC3    C2 4457   0.947   1.922   1.055 -0.0359  0.3649 -0.1640
  296TMC3    C3 4458   0.899   2.040   1.096 -0.0426  0.2850  0.1080
  296TMC3    C4 4459   0.745   1.819   1.141  0.2563  0.1997 -0.8732
  296TMC3    C5 4460   0.713   1.942   1.191  0.8262 -1.2259 -0.3424
  296TMC3    C6 4461   0.788   2.049   1.166 -0.6160 -0.3237 -0.4410
  296TMC3     C 4462   0.910   1.690   1.016  0.5056 -0.1445 -0.6919
  296TMC3     O 4463   1.025   1.692   0.974  0.1252 -0.1671 -0.1490
  296TMC3     H 4464   1.036   1.909   0.993  1.4593 -1.0234  2.2347
  296TMC3    H1 4465   0.677   1.736   1.154 -0.7505  1.2789  0.7312
  296TMC3    H2 4466   0.763   2.142   1.217  0.1108 -1.4962  2.0762
  296TMC3    C7 4467   0.589   1.974   1.265 -0.0100  0.1619  0.4102
  296TMC3    C8 4468   0.982   2.153   1.071  0.0270 -0.6805 -0.5544
  296TMC3    O1 4469   0.530   2.072   1.232  0.4194  0.0547  0.7521
  296TMC3    O2 4470   1.096   2.124   1.036  0.1371 -0.8366 -0.3505
  297MPD2     C 4471   3.273   3.970  16.512  0.0165  0.9193 -0.7593
  297MPD2    C1 4472   3.278   3.962  16.374 -0.1463  0.8615 -0.4237
  297MPD2    C2 4473   3.378   4.034  16.307  0.5691  0.3902  0.1061
  297MPD2    C3 4474   3.472   4.106  16.377  0.0029  0.5262  0.4571
  297MPD2    C4 4475   3.467   4.107  16.514  0.2232 -0.3136 -0.7322
  297MPD2    C5 4476   3.369   4.035  16.581  0.0353 -0.3083  0.1079
  297MPD2     H 4477   3.382   4.027  16.199 -0.0720  1.3997  0.0174
  297MPD2    H1 4478   3.536   4.167  16.571 -0.7687 -0.6085  0.7851
  297MPD2    H2 4479   3.197   3.921  16.572  1.1648 -0.4433 -0.4042
  297MPD2    H3 4480   3.350   4.045  16.687  0.6770 -0.2140  0.2145
  297MPD2     N 4481   3.568   4.180  16.307  0.4053 -0.0663  0.5331
  297MPD2    H5 4482   3.638   4.219  16.368  1.8313 -1.9857  0.1379
  297MPD2    N1 4483   3.175   3.901  16.298 -0.2387  0.2568 -0.1762
  297MPD2    H7 4484   3.164   3.935  16.203 -0.3584 -1.0561 -0.6386
  298TMC3    C1 4485   2.954   3.816  16.258 -0.5881 -0.2274  0.3972
  298TMC3    C2 4486   2.945   3.873  16.137  0.2769 -0.3091  0.0027
  298TMC3    C3 4487   2.821   3.878  16.075 -0.2686 -0.0561 -0.4642
  298TMC3    C4 4488   2.845   3.745  16.305 -0.0632  0.5242 -0.6073
  298TMC3    C5 4489   2.718   3.762  16.249 -0.1691 -0.5211  0.3362
  298TMC3    C6 4490   2.711   3.828  16.129  0.2611  0.2727  0.3189
  298TMC3     C 4491   3.069   3.833  16.344 -0.0173  0.4375  0.1405
  298TMC3     O 4492   3.054   3.790  16.457 -0.4816  0.1634 -0.0934
  298TMC3     H 4493   3.039   3.896  16.087  1.0851 -1.6310  0.9232
  298TMC3    H1 4494   2.849   3.677  16.389 -0.9714 -0.6591 -1.5302
  298TMC3    H2 4495   2.615   3.828  16.078 -0.3219 -0.8735  1.4142
  298TMC3    C7 4496   2.602   3.741  16.336  0.9805 -0.2328 -0.2284
  298TMC3    C8 4497   2.800   3.936  15.945 -0.0165  0.3185  0.1133
  298TMC3    O1 4498   2.622   3.720  16.456  0.2707  0.2275 -0.3399
  298TMC3    O2 4499   2.720   3.881  15.871 -0.1260 -0.2160 -0.4408
  299MPD2     C 4500   4.319   3.198  10.992 -0.0196  0.5438 -0.1987
  299MPD2    C1 4501   4.341   3.323  10.967 -0.9516 -0.0630 -0.3596
  299MPD2    C2 4502   4.276   3.384  10.865  0.1164 -0.0274  0.3799
  299MPD2    C3 4503   4.178   3.315  10.799  0.3421  0.1601  0.1886
  299MPD2    C4 4504   4.156   3.188  10.832  0.1257 -0.1823  0.2215
  299MPD2    C5 4505   4.233   3.123  10.924  0.0535  0.2641  0.0191
  299MPD2     H 4506   4.291   3.491  10.854  0.9776 -0.3004 -1.1521
  299MPD2    H1 4507   4.084   3.123  10.785 -0.2148  1.3189 -1.3368
  299MPD2    H2 4508   4.363   3.154  11.081 -1.4823 -0.5099  0.0093
  299MPD2    H3 4509   4.212   3.020  10.950  0.8699  0.0422 -0.1916
  299MPD2     N 4510   4.095   3.373  10.697 -0.0454 -0.0661  0.1767
  299MPD2    H5 4511   4.007   3.327  10.675  0.1241  0.6987 -2.1056
  299MPD2    N1 4512   4.441   3.393  11.050  0.0771  0.0358 -0.9457
  299MPD2    H7 4513   4.497   3.344  11.119 -0.4283  1.4877  0.5103
  300TMC3    C1 4514   4.043   3.537  10.532  0.3330  0.3852 -0.7424
  300TMC3    C2 4515   4.035   3.669  10.518  0.0043  0.1429  0.5392
  300TMC3    C3 4516   3.924   3.731  10.452 -0.6214 -0.3016 -0.3220
  300TMC3    C4 4517   3.946   3.447  10.488 -0.2852 -0.4327  0.2553
  300TMC3    C5 4518   3.839   3.507  10.430 -0.2743 -0.1993 -0.5198
  300TMC3    C6 4519   3.822   3.642  10.415 -0.4416  0.3838  0.7421
  300TMC3     C 4520   4.131   3.488  10.636  0.1311  0.4859  0.2617
  300TMC3     O 4521   4.232   3.556  10.645 -0.2464  0.0876  0.0679
  300TMC3     H 4522   4.114   3.730  10.561 -2.4659  3.0733  0.9405
  300TMC3    H1 4523   3.951   3.339  10.501  1.0459 -0.8734 -3.9933
  300TMC3    H2 4524   3.746   3.677  10.346 -1.3781 -1.5653  0.7829
  300TMC3    C7 4525   3.719   3.431  10.412 -0.8244 -0.6023  0.0146
  300TMC3    C8 4526   3.889   3.864  10.491  0.2114  0.6028 -0.5541
  300TMC3    O1 4527   3.706   3.365  10.312 -0.2968  0.6897  0.2797
  300TMC3    O2 4528   3.961   3.933  10.565 -0.5151  0.2562  0.4186
  301MPD2     C 4529   0.929   0.478   1.837 -0.1355 -0.0860 -0.0766
  301MPD2    C1 4530   0.879   0.450   1.713 -0.5062  0.5160  0.1899
  301MPD2    C2 4531   0.936   0.352   1.636  1.2563  0.1190  0.1850
  301MPD2    C3 4532   1.044   0.275   1.686  0.7415 -0.1952 -0.0076
  301MPD2    C4 4533   1.094   0.306   1.810 -0.5636  0.2239 -0.1112
  301MPD2    C5 4534   1.037   0.405   1.885 -0.1717 -0.3588  0.0934
  301MPD2     H 4535   0.888   0.325   1.542 -0.3714  2.0068  0.4653
  301MPD2    H1 4536   1.171   0.253   1.865 -0.2107 -0.8681 -1.6807
  301MPD2    H2 4537   0.891   0.562   1.895 -0.0010 -0.4464  0.5370
  301MPD2    H3 4538   1.079   0.428   1.982  3.2565  2.5930 -2.0943
  301MPD2     N 4539   1.128   0.185   1.611 -0.1996  0.0018  0.4081
  301MPD2    H5 4540   1.200   0.142   1.668 -1.4788 -1.0087  1.2657
  301MPD2    N1 4541   0.776   0.523   1.652 -0.2379  0.8057  0.4452
  301MPD2    H7 4542   0.742   0.483   1.566 -0.9660  2.1535  0.1154
  302TMC3    C1 4543   1.200   0.045   1.427 -0.3674 -0.0243  0.0535
  302TMC3    C2 4544   1.315   4.724   1.498  0.9079 -0.4720 -0.1248
  302TMC3    C3 4545   1.397   4.636   1.429  1.3124  0.2354  0.0245
  302TMC3    C4 4546   1.178   4.721   1.291 -0.1366  1.0780 -0.1768
  302TMC3    C5 4547   1.270   4.638   1.231 -0.0909 -0.5033 -0.3140
  302TMC3    C6 4548   1.376   4.589   1.297 -0.6450 -0.0653  0.8763
  302TMC3     C 4549   1.102   0.142   1.485 -0.3262 -0.1840  0.0718
  302TMC3     O 4550   1.006   0.174   1.418 -0.2542  0.2014  0.6796
  302TMC3     H 4551   1.342   0.038   1.596 -0.5091  1.7784 -0.6415
  302TMC3    H1 4552   1.092   0.043   1.245 -1.4430  2.3103  3.5052
  302TMC3    H2 4553   1.440   4.519   1.245  0.3763  1.5819 -0.1006
  302TMC3    C7 4554   1.240   4.577   1.097  0.2175 -0.3572  0.2671
  302TMC3    C8 4555   1.526   4.586   1.480  0.3545 -0.8056  0.2187
  302TMC3    O1 4556   1.322   4.508   1.036 -0.2332  0.1464 -0.1483
  302TMC3    O2 4557   1.589   4.515   1.401  0.0080 -0.4706 -0.3077
  303MPD2     C 4558   1.731   3.854   9.883 -0.4902 -0.8391  0.2251
  303MPD2    C1 4559   1.622   3.774   9.889  0.7767  0.1960  0.2971
  303MPD2    C2 4560   1.638   3.647   9.841  0.0339 -0.2660  0.5991
  303MPD2    C3 4561   1.753   3.608   9.770 -0.1900  0.3598  0.4666
  303MPD2    C4 4562   1.858   3.702   9.754 -0.0630  0.4515  0.0212
  303MPD2    C5 4563   1.840   3.819   9.812  0.3483 -0.4880  0.5101
  303MPD2     H 4564   1.557   3.574   9.846 -0.8590  0.8184  2.1567
  303MPD2    H1 4565   1.948   3.663   9.707 -1.8341 -2.1353 -1.2181
  303MPD2    H2 4566   1.728   3.957   9.917  0.0205 -1.3207  1.7386
  303MPD2    H3 4567   1.927   3.885   9.814 -0.9404  1.3165 -2.6925
  303MPD2     N 4568   1.771   3.480   9.711 -1.1370  0.2597 -0.1224
  303MPD2    H5 4569   1.854   3.472   9.652 -1.7100 -0.2684 -0.8587
  303MPD2    N1 4570   1.507   3.823   9.954 -0.7053 -0.4603  0.1379
  303MPD2    H7 4571   1.510   3.911  10.003 -1.1616  0.7027 -1.9548
  304TMC3    C1 4572   1.286   3.836  10.019  0.2507 -0.5420 -0.8156
  304TMC3    C2 4573   1.269   3.949   9.949  0.5752 -0.0866 -0.1907
  304TMC3    C3 4574   1.135   3.988   9.945  0.5804 -0.4264 -0.3361
  304TMC3    C4 4575   1.197   3.769  10.097 -0.2290  0.1836 -0.3884
  304TMC3    C5 4576   1.068   3.817  10.104 -0.1350  0.3354  0.6903
  304TMC3    C6 4577   1.039   3.928  10.023 -0.1887 -0.4741 -0.3693
  304TMC3     C 4578   1.388   3.751   9.972  0.2323  0.2238 -0.0044
  304TMC3     O 4579   1.367   3.634   9.948  0.0252  0.4668 -0.5307
  304TMC3     H 4580   1.346   3.981   9.879 -1.5226 -1.5088 -3.1454
  304TMC3    H1 4581   1.225   3.674  10.141  1.4714  1.5031  1.4120
  304TMC3    H2 4582   0.937   3.960  10.010 -0.6957 -0.6503  3.2187
  304TMC3    C7 4583   0.973   3.711  10.072 -0.2762 -0.4023  0.2645
  304TMC3    C8 4584   1.105   3.990   9.802 -0.4728 -0.0925  0.1023
  304TMC3    O1 4585   0.890   3.737   9.984 -0.4906  0.1807 -0.6179
  304TMC3    O2 4586   1.174   4.063   9.730  0.4058 -0.2682 -0.6492
  305MPD2     C 4587   4.277   0.893  13.993 -0.2626 -0.3561 -0.0623
  305MPD2    C1 4588   4.402   0.846  13.962 -0.0260 -0.1085 -0.0896
  305MPD2    C2 4589   4.418   0.777  13.844 -0.2326 -0.5877  0.2890
  305MPD2    C3 4590   4.317   0.757  13.754  0.0691 -0.4782  0.4926
  305MPD2    C4 4591   4.197   0.817  13.784  0.1692 -0.6777 -0.7250
  305MPD2    C5 4592   4.179   0.877  13.903 -0.3779 -0.8919  0.2049
  305MPD2     H 4593   4.522   0.758  13.821 -0.2312  2.2367 -2.0685
  305MPD2    H1 4594   4.121   0.822  13.707 -0.3533  1.6936 -0.0700
  305MPD2    H2 4595   4.251   0.953  14.079 -0.4517  0.7373 -0.8818
  305MPD2    H3 4596   4.079   0.917  13.915 -0.0887 -0.6575  1.8042
  305MPD2     N 4597   4.341   0.686  13.629  0.1780 -0.1988 -0.3325
  305MPD2    H5 4598   4.272   0.705  13.557 -0.6351 -2.1951 -0.0769
  305MPD2    N1 4599   4.500   0.856  14.067  0.0889 -0.5520 -0.4169
  305MPD2    H7 4600   4.464   0.888  14.156  0.8474 -2.6877  0.6612
  306TMC3    C1 4601   4.692   0.840  14.201 -0.2438  1.1179 -0.5694
  306TMC3    C2 4602   4.647   0.749  14.293  0.3993 -0.8810  0.3346
  306TMC3    C3 4603   4.642   0.782  14.425  0.3947 -0.4458  0.5677
  306TMC3    C4 4604   4.723   0.967  14.238 -0.0975  0.0155  0.4499
  306TMC3    C5 4605   0.004   0.992  14.378  0.3650  0.7709  0.4926
  306TMC3    C6 4606   4.680   0.901  14.471 -0.2872  0.4442  0.8454
  306TMC3     C 4607   4.636   0.834  14.067 -0.9497 -0.2062  0.1780
  306TMC3     O 4608   4.694   0.779  13.973  0.0517  0.5134 -1.2558
  306TMC3     H 4609   4.617   0.650  14.260  0.9168 -0.3097 -1.8871
  306TMC3    H1 4610   0.023   1.041  14.164 -0.6289  1.1148  1.3773
  306TMC3    H2 4611   4.674   0.923  14.577 -1.4714  0.2679  0.8105
  306TMC3    C7 4612   0.088   1.096  14.419  0.3943 -0.0634  0.5459
  306TMC3    C8 4613   4.651   0.679  14.528 -0.1336 -0.0374  0.6728
  306TMC3    O1 4614   0.128   1.189  14.347  0.2852  0.0909  0.3265
  306TMC3    O2 4615   4.724   0.584  14.500 -0.6601 -0.5394  0.2892
  307MPD2     C 4616   1.726   3.205   0.960  0.1313 -0.1685 -0.0244
  307MPD2    C1 4617   1.735   3.273   0.843  0.0779  0.3304 -0.3733
  307MPD2    C2 4618   1.726   3.408   0.860 -0.2024  0.9322 -0.2468
  307MPD2    C3 4619   1.737   3.478   0.979 -0.1123 -0.4304  0.1629
  307MPD2    C4 4620   1.749   3.405   1.094  0.2742 -0.6731  0.9607
  307MPD2    C5 4621   1.739   3.271   1.078  0.2950 -0.0168 -0.4298
  307MPD2     H 4622   1.730   3.463   0.767 -0.7137 -1.6242 -1.7821
  307MPD2    H1 4623   1.740   3.449   1.193  0.8315 -0.3154  0.8525
  307MPD2    H2 4624   1.711   3.098   0.953 -0.6227 -0.1005  0.5562
  307MPD2    H3 4625   1.740   3.220   1.174 -0.8513  1.6928  0.4722
  307MPD2     N 4626   1.754   3.620   0.975  0.2767 -0.2421  0.5700
  307MPD2    H5 4627   1.764   3.658   0.881 -2.0738 -3.1045 -0.7980
  307MPD2    N1 4628   1.750   3.221   0.718  0.8988  0.3783  0.0963
  307MPD2    H7 4629   1.767   3.288   0.644 -0.2509  0.9055  0.3117
  308TMC3    C1 4630   1.654   4.025   1.065 -0.4452 -0.1787 -0.0752
  308TMC3    C2 4631   1.652   4.050   0.933  0.3594 -0.5776 -1.1917
  308TMC3    C3 4632   1.730   3.979   0.852  0.8447 -0.3984 -0.3203
  308TMC3    C4 4633   1.727   3.931   1.126  0.4110 -0.3295  0.1233
  308TMC3    C5 4634   1.796   3.852   1.042  0.1619 -0.0239  0.1240
  308TMC3    C6 4635   1.800   3.874   0.902  0.7873  0.2340  0.5264
  308TMC3     C 4636   1.585   4.119   1.154  0.4964 -0.3097  0.0382
  308TMC3     O 4637   1.640   4.148   1.260  0.2392  0.3123 -0.6481
  308TMC3     H 4638   1.611   4.145   0.901  0.3949 -0.6308 -1.3948
  308TMC3    H1 4639   1.714   3.916   1.232 -0.2090 -0.0127  0.0947
  308TMC3    H2 4640   1.876   3.816   0.850  0.8531 -0.1793  1.0863
  308TMC3    C7 4641   1.771   3.710   1.079  0.0751 -0.0585  0.2299
  308TMC3    C8 4642   1.768   4.024   0.718 -0.5246  0.2694 -0.1979
  308TMC3    O1 4643   1.777   3.681   1.198 -0.0940  1.0166 -0.2190
  308TMC3    O2 4644   1.837   3.949   0.649 -0.2307  0.2964  0.3403
  309MPD2     C 4645   1.102   3.301  17.271  0.6322  0.0500 -0.1188
  309MPD2    C1 4646   1.047   3.413  17.208  0.3319 -0.7792  0.6434
  309MPD2    C2 4647   0.945   3.472  17.270  0.6139 -0.1368  0.0606
  309MPD2    C3 4648   0.901   3.437  17.395  0.1785 -0.1203  0.8087
  309MPD2    C4 4649   0.941   3.315  17.450 -0.0391  0.4590  0.2507
  309MPD2    C5 4650   1.045   3.250  17.388  0.5287  1.0005 -0.0334
  309MPD2     H 4651   0.899   3.551  17.211 -0.6236  0.4333  1.7809
  309MPD2    H1 4652   0.911   3.288  17.551  1.3207  0.6995  0.7102
  309MPD2    H2 4653   1.201   3.269  17.242 -0.5153 -3.4966 -0.0921
  309MPD2    H3 4654   1.103   3.172  17.437 -1.9623  0.0122  1.3167
  309MPD2     N 4655   0.813   3.515  17.469 -0.0783  0.5162  0.3544
  309MPD2    H5 4656   0.802   3.497  17.569  0.2380 -1.4852  0.0346
  309MPD2    N1 4657   1.106   3.471  17.092 -0.4177  0.7305  0.0372
  309MPD2    H7 4658   1.057   3.556  17.065 -1.1711 -0.1536 -1.3768
  310TMC3    C1 4659   1.237   3.491  16.909  0.2383  0.3144 -0.4577
  310TMC3    C2 4660   1.243   3.631  16.922 -0.3739  0.0809  0.3650
  310TMC3    C3 4661   1.303   3.704  16.823 -1.0766 -0.0621 -0.1302
  310TMC3    C4 4662   1.310   3.430  16.815 -0.5292 -0.3735 -0.1462
  310TMC3    C5 4663   1.369   3.499  16.716 -0.9701  0.8550  0.0881
  310TMC3    C6 4664   1.367   3.640  16.725  0.1749  0.4488 -0.2469
  310TMC3     C 4665   1.203   3.409  17.019  0.7575 -1.1445 -0.0485
  310TMC3     O 4666   1.263   3.304  17.040 -0.3472 -0.6171  0.1279
  310TMC3     H 4667   1.195   3.680  17.006  0.1940 -0.7805  1.1941
  310TMC3    H1 4668   1.303   3.321  16.810 -1.4641 -0.3847  1.5831
  310TMC3    H2 4669   1.429   3.703  16.663  1.0396  1.3776  1.5588
  310TMC3    C7 4670   1.450   3.432  16.618 -0.0059 -0.4026  0.3226
  310TMC3    C8 4671   1.224   3.817  16.782 -0.6270  0.9257  0.2413
  310TMC3    O1 4672   1.477   3.312  16.638 -0.6579  0.2082 -0.0692
  310TMC3    O2 4673   1.216   3.825  16.656  0.4084 -0.1465  0.1134
  311MPD2     C 4674   3.631   0.064  12.759 -0.1318  0.7582 -0.0384
  311MPD2    C1 4675   3.610   0.194  12.799  0.1131 -0.3484 -0.8862
  311MPD2    C2 4676   3.491   0.225  12.864 -0.4516 -0.5068 -0.2202
  311MPD2    C3 4677   3.398   0.125  12.888 -0.4550 -0.6486 -0.6638
  311MPD2    C4 4678   3.424   4.721  12.849 -0.9207  0.6254  0.1559
  311MPD2    C5 4679   3.542   4.696  12.790  0.1991  0.4230 -0.0872
  311MPD2     H 4680   3.473   0.325  12.901  0.9573 -0.7993  1.2854
  311MPD2    H1 4681   3.360   4.634  12.861  1.2953 -0.9283  0.6529
  311MPD2    H2 4682   3.713   0.029  12.697 -0.2759 -2.6348  1.6363
  311MPD2    H3 4683   3.566   4.596  12.754 -2.1308 -1.0262  2.3749
  311MPD2     N 4684   3.277   0.156  12.941  0.8889 -0.5065 -0.0425
  311MPD2    H5 4685   3.275   0.253  12.969  1.5492 -0.2447 -0.9122
  311MPD2    N1 4686   3.704   0.300  12.769 -0.3945 -0.1362 -0.7986
  311MPD2    H7 4687   3.683   0.381  12.827 -1.4920 -0.9897  0.0017
  312TMC3    C1 4688   3.074   0.128  13.050  0.1604 -0.0639  0.4005
  312TMC3    C2 4689   2.950   0.100  12.999 -0.1747 -0.3391 -0.5484
  312TMC3    C3 4690   2.850   0.191  13.021  0.5001 -0.8277 -0.4598
  312TMC3    C4 4691   3.112   0.240  13.121  0.5797 -0.3014 -0.4518
  312TMC3    C5 4692   3.006   0.327  13.145  0.3822 -0.3343 -0.3300
  312TMC3    C6 4693   2.880   0.304  13.093 -0.1933  1.1751  0.1732
  312TMC3     C 4694   3.180   0.067  12.976  0.7276  0.8383 -0.2418
  312TMC3     O 4695   3.163   4.675  12.940 -0.5394 -0.0303  0.1540
  312TMC3     H 4696   2.937   0.004  12.951  3.3079 -1.0329 -0.0503
  312TMC3    H1 4697   3.212   0.277  13.141  0.6124 -0.7690  0.2576
  312TMC3    H2 4698   2.800   0.372  13.122  0.9137  2.5613 -0.0626
  312TMC3    C7 4699   3.016   0.419  13.258  0.0991  0.9999 -0.3337
  312TMC3    C8 4700   2.720   0.162  12.963  0.2086 -0.6637  0.7775
  312TMC3    O1 4701   2.940   0.521  13.259  0.3335 -0.4803  0.0889
  312TMC3    O2 4702   2.702   0.046  12.931  0.1660  0.0020  0.0963
  313MPD2     C 4703   3.381   3.958  10.765  0.0787 -0.3740  0.6757
  313MPD2    C1 4704   3.274   4.032  10.703  0.2871  0.7478  0.1248
  313MPD2    C2 4705   3.272   4.033  10.563 -0.4183  0.5732  0.0267
  313MPD2    C3 4706   3.359   3.955  10.487  0.2828  0.1730 -0.4881
  313MPD2    C4 4707   3.460   3.897  10.552 -0.2976  0.0746 -0.7877
  313MPD2    C5 4708   3.470   3.897  10.685  0.8010 -0.1949  0.1111
  313MPD2     H 4709   3.186   4.077  10.514  0.1577 -0.2272 -1.7013
  313MPD2    H1 4710   3.533   3.829  10.509  1.2993  1.6574 -0.5911
  313MPD2    H2 4711   3.394   3.938  10.871 -2.1589  0.3923  1.1055
  313MPD2    H3 4712   3.552   3.843  10.730  0.6418 -0.4000  0.1514
  313MPD2     N 4713   3.343   3.925  10.349  0.0406  0.0112  0.4132
  313MPD2    H5 4714   3.417   3.868  10.310 -1.6781 -2.0248  0.1607
  313MPD2    N1 4715   3.175   4.106  10.770  0.0449 -0.3690 -0.6049
  313MPD2    H7 4716   3.112   4.162  10.714  1.0422  1.7144  0.3411
  314TMC3    C1 4717   3.063   4.194  10.957  0.2303  0.4249  0.2195
  314TMC3    C2 4718   3.096   4.276  11.065  0.8287  0.3604  0.0929
  314TMC3    C3 4719   3.006   4.372  11.083 -0.0663 -0.0859 -0.0247
  314TMC3    C4 4720   2.947   4.192  10.886 -0.1519  0.2386 -0.3090
  314TMC3    C5 4721   2.858   4.293  10.917  0.6875 -0.0730 -0.0316
  314TMC3    C6 4722   2.886   4.385  11.009 -0.4697  0.1873 -0.4203
  314TMC3     C 4723   3.177   4.112  10.910  0.5937  0.4953  0.4227
  314TMC3     O 4724   3.249   4.058  10.995 -0.5879 -0.5280 -0.2251
  314TMC3     H 4725   3.189   4.277  11.119  0.8224  1.1409  0.0837
  314TMC3    H1 4726   2.928   4.116  10.811  0.2112  1.0400 -1.2087
  314TMC3    H2 4727   2.823   4.471  11.027 -0.0225  0.5873 -0.7663
  314TMC3    C7 4728   2.774   4.340  10.807  0.1202 -0.2484 -0.2433
  314TMC3    C8 4729   3.042   4.498  11.151 -0.6327  0.5749  0.5169
  314TMC3    O1 4730   2.695   4.260  10.760  0.6281 -0.0043 -0.1064
  314TMC3    O2 4731   2.981   4.601  11.128 -0.0087  0.4507  0.1748
  315MPD2     C 4732   2.104   3.589   0.034  0.7833  0.8915 -0.0718
  315MPD2    C1 4733   2.211   3.595   0.118 -0.5474 -0.1958  0.6864
  315MPD2    C2 4734   2.309   3.690   0.095  0.4525 -0.3788  0.4846
  315MPD2    C3 4735   2.300   3.788   0.002 -0.2482  0.1867 -0.0650
  315MPD2    C4 4736   2.189   3.788  17.623  0.0775 -0.7301 -0.8324
  315MPD2    C5 4737   2.100   3.679  17.635  0.1551 -0.2999  0.2389
  315MPD2     H 4738   2.393   3.698   0.163 -0.9610  0.8749  2.0769
  315MPD2    H1 4739   2.174   3.860  17.543  0.7593  2.5866  2.0045
  315MPD2    H2 4740   2.026   3.513   0.034  0.4049  1.2770 -0.0419
  315MPD2    H3 4741   2.011   3.679  17.574  0.3502 -1.8923 -0.0504
  315MPD2     N 4742   2.400   3.881  17.696  0.3576 -0.7033 -1.0366
  315MPD2    H5 4743   2.480   3.863   0.053  1.3612  1.1842 -1.7747
  315MPD2    N1 4744   2.229   3.499   0.224 -0.2640 -0.1313 -0.0058
  315MPD2    H7 4745   2.309   3.521   0.283 -0.2003  0.9354 -0.4899
  316TMC3    C1 4746   2.520   4.065  17.626  0.1246  0.0365 -0.7529
  316TMC3    C2 4747   2.570   4.085   0.050 -0.5247 -0.1047  1.5525
  316TMC3    C3 4748   2.678   4.165   0.060 -0.5218 -0.0813 -0.0961
  316TMC3    C4 4749   2.560   4.138  17.519 -0.0271 -0.7582  0.2207
  316TMC3    C5 4750   2.671   4.218  17.540 -0.3572 -0.6183  0.4914
  316TMC3    C6 4751   2.735   4.233  17.659 -0.1846  0.3087  0.4006
  316TMC3     C 4752   2.401   3.988  17.610  0.1396 -0.3776 -0.2644
  316TMC3     O 4753   2.326   4.031  17.526  0.6606  0.1529  0.3811
  316TMC3     H 4754   2.517   4.055   0.140 -0.7099  1.6285  2.0364
  316TMC3    H1 4755   2.522   4.101  17.424 -0.8603 -0.1155  0.2992
  316TMC3    H2 4756   2.821   4.296  17.677 -0.2147  0.2395  0.7886
  316TMC3    C7 4757   2.722   4.299  17.430  0.6294  0.2990  0.1464
  316TMC3    C8 4758   2.741   4.193   0.183  0.2254  0.2497  0.1399
  316TMC3    O1 4759   2.836   4.354  17.431 -0.0938 -0.3842  0.1427
  316TMC3    O2 4760   2.800   4.300   0.197  0.4354  0.0367  0.1070
  317MPD2     C 4761   0.066   2.155  12.431 -0.0266 -0.6986 -0.1020
  317MPD2    C1 4762   0.136   2.035  12.437 -0.2321 -0.0040  0.0733
  317MPD2    C2 4763   0.153   1.970  12.555 -0.2289  0.7026  0.0662
  317MPD2    C3 4764   0.129   2.037  12.679 -0.1552  0.3799  0.2233
  317MPD2    C4 4765   0.071   2.163  12.675  0.1270  0.0585 -0.5447
  317MPD2    C5 4766   0.039   2.217  12.547  0.2261  0.4682  0.0304
  317MPD2     H 4767   0.192   1.869  12.558 -0.9336  0.4698  1.4322
  317MPD2    H1 4768   0.049   2.230  12.758  1.2702 -1.0364  0.6408
  317MPD2    H2 4769   0.053   2.213  12.340 -2.9025 -0.4113  0.4978
  317MPD2    H3 4770   4.721   2.316  12.542  0.3822  0.4786 -1.1374
  317MPD2     N 4771   0.149   1.962  12.799 -0.1699 -0.4841 -0.0542
  317MPD2    H5 4772   0.180   1.868  12.775  1.2240 -0.0753  0.1620
  317MPD2    N1 4773   0.179   1.965  12.317 -0.4516 -0.3369  0.5033
  317MPD2    H7 4774   0.215   1.871  12.328  0.8165  0.4188  2.8844
  318TMC3    C1 4775   0.154   1.903  13.012 -0.4488  0.2264 -0.1055
  318TMC3    C2 4776   0.122   1.774  12.994 -0.4022  1.3162 -0.1249
  318TMC3    C3 4777   0.187   1.674  13.062 -0.4199  0.3234 -0.3531
  318TMC3    C4 4778   0.254   1.937  13.089 -0.7244  0.1734 -0.4038
  318TMC3    C5 4779   0.326   1.833  13.150 -0.3249 -0.0480  0.5230
  318TMC3    C6 4780   0.290   1.703  13.137  0.1043 -0.8668 -0.0525
  318TMC3     C 4781   0.118   1.999  12.925 -0.3449  0.4504 -0.3639
  318TMC3     O 4782   0.088   2.107  12.971  0.1824 -0.0403 -0.2032
  318TMC3     H 4783   0.044   1.750  12.923 -1.7850  0.7225  1.5959
  318TMC3    H1 4784   0.266   2.042  13.114 -0.8970  0.1908 -0.3919
  318TMC3    H2 4785   0.329   1.626  13.202 -0.1483  0.0162  1.1550
  318TMC3    C7 4786   0.405   1.872  13.269  0.8525  0.1275  0.0090
  318TMC3    C8 4787   0.120   1.549  13.078  0.4993 -0.5302  0.3946
  318TMC3    O1 4788   0.361   1.956  13.347 -0.0179 -0.0478  0.1018
  318TMC3    O2 4789   0.187   1.446  13.092  0.2137 -0.1051 -0.6339
  319MPD2     C 4790   0.282   3.125  17.150  0.2376  0.9867  0.3907
  319MPD2    C1 4791   0.269   3.001  17.107 -0.2461  0.6651  0.6069
  319MPD2    C2 4792   0.221   2.979  16.982 -0.1552  0.5249 -0.4155
  319MPD2    C3 4793   0.189   3.087  16.901  0.5841 -0.0660 -0.6464
  319MPD2    C4 4794   0.190   3.212  16.951  0.0355  0.0132 -0.1466
  319MPD2    C5 4795   0.251   3.235  17.074 -1.5586  0.0804 -0.2921
  319MPD2     H 4796   0.214   2.874  16.956  0.1379 -0.0145  1.6692
  319MPD2    H1 4797   0.162   3.302  16.897  0.7590  1.2704  1.5711
  319MPD2    H2 4798   0.327   3.146  17.246  1.4961 -0.1944  0.0515
  319MPD2    H3 4799   0.268   3.335  17.113  1.0915 -0.9577  1.2219
  319MPD2     N 4800   0.156   3.073  16.762 -0.0064 -0.3253 -0.7794
  319MPD2    H5 4801   0.136   3.160  16.713  0.4101 -0.1401 -0.6231
  319MPD2    N1 4802   0.308   2.893  17.192 -0.5081 -0.5640 -1.1108
  319MPD2    H7 4803   0.281   2.805  17.150 -0.4852 -0.7590 -0.7126
  320TMC3    C1 4804   0.080   2.981  16.554 -0.8945 -0.2823 -0.4616
  320TMC3    C2 4805   0.095   3.098  16.486 -0.2843 -0.3351 -0.0488
  320TMC3    C3 4806   0.048   3.101  16.356  0.1774 -0.3118 -0.1636
  320TMC3    C4 4807   0.015   2.872  16.501  0.3100 -0.1497  0.2038
  320TMC3    C5 4808   4.696   2.875  16.379 -0.2220 -0.5651  0.2096
  320TMC3    C6 4809   4.721   2.987  16.300 -0.4184  1.0294 -0.3497
  320TMC3     C 4810   0.130   2.964  16.689  0.6831  0.6510 -0.4178
  320TMC3     O 4811   0.136   2.854  16.735  0.4371 -0.2192 -0.1026
  320TMC3     H 4812   0.132   3.187  16.536  1.5170 -0.0733 -1.8454
  320TMC3    H1 4813   0.014   2.783  16.562  1.6282  0.0397  0.4944
  320TMC3    H2 4814   4.679   2.980  16.200  2.1286 -0.2391 -1.3508
  320TMC3    C7 4815   4.655   2.754  16.309 -0.4091  0.5264 -0.2716
  320TMC3    C8 4816   0.064   3.217  16.270  0.0523  0.2732 -0.2077
  320TMC3    O1 4817   4.674   2.762  16.188 -0.4544 -0.1498 -0.3145
  320TMC3    O2 4818   0.026   3.324  16.313  0.3210  0.5037  0.3011
  321TMC3    C1 4819   0.371   2.766  17.378 -0.0695 -0.4495  0.5458
  321TMC3    C2 4820   0.407   2.666  17.296  0.5971 -0.4699  0.3108
  321TMC3    C3 4821   0.419   2.547  17.360  0.0129 -0.3180  0.1185
  321TMC3    C4 4822   0.360   2.753  17.510  0.7250 -0.4493  0.8605
  321TMC3    C5 4823   0.367   2.630  17.569 -0.4153  0.0546 -0.0382
  321TMC3    C6 4824   0.392   2.521  17.493 -1.2656  0.0238  0.6616
  321TMC3     C 4825   0.348   2.900  17.321 -0.6309  0.6555  0.3384
  321TMC3     O 4826   0.368   2.992  17.404 -0.4254 -0.3028  0.6008
  321TMC3     H 4827   0.433   2.673  17.191  0.4304  1.0499  0.3837
  321TMC3    H1 4828   0.352   2.842  17.571  1.1646 -0.0344  0.3120
  321TMC3    H2 4829   0.381   2.424  17.540  0.7356 -0.8719 -0.7721
  321TMC3    C7 4830   0.457   2.627  17.682 -0.8027  0.2779  0.2111
  321TMC3    C8 4831   0.549   2.477  17.325  0.2812  0.4602 -0.1364
  321TMC3    O1 4832   0.508   2.513   0.002 -0.0724 -0.3552 -0.3171
  321TMC3    O2 4833   0.580   2.477  17.209 -0.0338  0.0287  0.5622
  322MPD2     C 4834   4.248   0.133  13.961 -0.5153  0.1553 -0.2752
  322MPD2    C1 4835   4.284   0.075  14.078 -0.0619  0.2032 -0.3948
  322MPD2    C2 4836   4.305   4.664  14.082  0.8038  0.6989  0.3448
  322MPD2    C3 4837   4.288   4.591  13.966  0.2257 -0.0472  0.5030
  322MPD2    C4 4838   4.264   4.657  13.846 -0.1761 -0.5401  0.1622
  322MPD2    C5 4839   4.235   0.065  13.839  0.7238 -0.2142  0.4209
  322MPD2     H 4840   4.325   4.622  14.180 -1.5302 -0.6259  0.2718
  322MPD2    H1 4841   4.257   4.610  13.748  1.0565  2.5541 -1.4158
  322MPD2    H2 4842   4.238   0.241  13.955 -1.9212  0.0647  0.3695
  322MPD2    H3 4843   4.207   0.113  13.746 -1.6386 -2.1794  0.1198
  322MPD2     N 4844   4.323   4.455  13.972  0.0486  0.3921  0.4390
  322MPD2    H5 4845   4.341   4.419  14.066  1.4394 -0.6522 -0.2230
  322MPD2    N1 4846   4.317   0.170  14.183  0.6655  0.2153  0.4436
  322MPD2    H7 4847   4.283   0.265  14.180  2.3237  0.8186  1.0400
  323TMC3    C1 4848   4.442   0.264  14.352 -0.5654 -0.1249  0.1519
  323TMC3    C2 4849   4.545   0.312  14.271  0.2793 -0.5402  0.1888
  323TMC3    C3 4850   4.675   0.309  14.310  0.2327  0.3547 -0.1788
  323TMC3    C4 4851   4.470   0.253  14.482 -0.1489  0.1880 -0.2697
  323TMC3    C5 4852   4.602   0.261  14.522  0.0408 -0.5114 -0.4025
  323TMC3    C6 4853   4.703   0.298  14.440 -0.2280 -0.1522  0.2116
  323TMC3     C 4854   4.381   0.138  14.306 -0.2356  0.0501  0.8169
  323TMC3     O 4855   4.412   0.029  14.354  0.4679 -0.7163  0.6078
  323TMC3     H 4856   4.520   0.338  14.169 -0.2083  1.0274  0.7029
  323TMC3    H1 4857   4.392   0.203  14.539  0.5455  0.2775  0.7801
  323TMC3    H2 4858   0.077   0.316  14.480  0.2205 -0.5023 -0.7424
  323TMC3    C7 4859   4.642   0.183  14.635  0.5108  0.0958 -0.4446
  323TMC3    C8 4860   0.058   0.351  14.223 -0.2439  0.2516 -0.2371
  323TMC3    O1 4861   0.027   0.128  14.633  0.3672  0.3379 -0.1725
  323TMC3    O2 4862   0.061   0.306  14.108 -0.1927  0.0121 -0.1659
  324MPD2     C 4863   1.354   0.923  14.615  0.0693 -0.5178 -0.7313
  324MPD2    C1 4864   1.352   1.060  14.630  0.1068  0.4939  0.0027
  324MPD2    C2 4865   1.263   1.133  14.552 -0.1028 -0.0576 -0.2564
  324MPD2    C3 4866   1.179   1.072  14.457 -0.3401 -0.5585 -0.2289
  324MPD2    C4 4867   1.192   0.933  14.439  0.2146  0.1232 -0.2159
  324MPD2    C5 4868   1.276   0.862  14.517  0.1588 -0.0375  0.0711
  324MPD2     H 4869   1.261   1.240  14.568  0.3827 -0.0177 -0.4604
  324MPD2    H1 4870   1.145   0.882  14.356 -3.0765  0.7356  1.2741
  324MPD2    H2 4871   1.426   0.859  14.665  1.1227  1.3484  0.1273
  324MPD2    H3 4872   1.295   0.759  14.489  0.5431 -0.0490  0.3853
  324MPD2     N 4873   1.073   1.141  14.392 -0.0580 -0.6871  0.0524
  324MPD2    H5 4874   1.022   1.081  14.328  0.8349  0.7632 -2.0272
  324MPD2    N1 4875   1.460   1.126  14.697  0.0184  0.1800  0.0339
  324MPD2    H7 4876   1.452   1.227  14.696  0.3475  0.2033 -0.4707
  325TMC3    C1 4877   0.922   1.316  14.332 -0.2410  0.8132  0.1959
  325TMC3    C2 4878   0.867   1.235  14.239  0.2013 -0.5061 -0.4590
  325TMC3    C3 4879   0.744   1.259  14.195 -0.2669  0.8704  0.7396
  325TMC3    C4 4880   0.861   1.431  14.366 -0.0126  0.1173  0.4748
  325TMC3    C5 4881   0.736   1.451  14.321 -0.2301  0.2545 -0.2339
  325TMC3    C6 4882   0.668   1.361  14.244 -0.2742  0.4234 -0.2041
  325TMC3     C 4883   1.033   1.274  14.411  0.1255  0.3833  0.3501
  325TMC3     O 4884   1.090   1.350  14.487  0.2579  0.8542 -0.2055
  325TMC3     H 4885   0.920   1.144  14.213 -1.9933 -2.0502  0.4853
  325TMC3    H1 4886   0.901   1.501  14.439  0.5662  0.8044 -0.4936
  325TMC3    H2 4887   0.568   1.387  14.212 -0.9057 -0.4576  1.0520
  325TMC3    C7 4888   0.668   1.563  14.379  0.5559  0.7065  0.8166
  325TMC3    C8 4889   0.693   1.170  14.085 -0.3810 -0.5954  0.5121
  325TMC3    O1 4890   0.735   1.656  14.427  0.4686  0.5946 -0.6351
  325TMC3    O2 4891   0.769   1.092  14.037 -0.1443 -0.7575  0.2311
  326MPD2     C 4892   2.391   2.320  11.236 -0.3969  0.1161 -0.2869
  326MPD2    C1 4893   2.450   2.260  11.133 -0.7733 -0.3342 -0.3385
  326MPD2    C2 4894   2.589   2.251  11.130  0.4930  0.1820 -0.1388
  326MPD2    C3 4895   2.663   2.303  11.232  0.7627 -0.3967  0.1540
  326MPD2    C4 4896   2.596   2.373  11.333  0.0309 -0.2433 -0.2168
  326MPD2    C5 4897   2.459   2.383  11.334  0.0050 -0.1336 -0.1451
  326MPD2     H 4898   2.633   2.213  11.038  1.1854 -1.0271  0.6900
  326MPD2    H1 4899   2.647   2.425  11.413  1.4996 -0.4086 -1.0376
  326MPD2    H2 4900   2.284   2.329  11.251 -0.6029 -2.1166 -0.5362
  326MPD2    H3 4901   2.410   2.431  11.419 -1.7786 -1.4096 -0.4652
  326MPD2     N 4902   2.802   2.308  11.227 -0.2119  0.0320 -0.3395
  326MPD2    H5 4903   2.840   2.373  11.295  0.9166 -0.2821 -0.6768
  326MPD2    N1 4904   2.382   2.204  11.018  0.1178 -0.2429 -0.0838
  326MPD2    H7 4905   2.433   2.183  10.932 -2.9392 -2.6070 -1.3166
  327TMC3    C1 4906   2.220   2.132  10.876  0.3572 -0.7509  0.0321
  327TMC3    C2 4907   2.129   2.202  10.802 -0.0401  0.2791 -1.1056
  327TMC3    C3 4908   2.118   2.169  10.668  0.1269 -0.1033 -0.0195
  327TMC3    C4 4909   2.317   2.049  10.824  0.7733  0.1701 -0.2879
  327TMC3    C5 4910   2.311   2.033  10.688  0.7847 -0.0201 -0.4724
  327TMC3    C6 4911   2.204   2.076  10.618 -0.5375  0.3898  0.5487
  327TMC3     C 4912   2.246   2.200  10.997 -0.2469  0.2611  0.1214
  327TMC3     O 4913   2.152   2.247  11.062  0.5483 -0.1861  0.2151
  327TMC3     H 4914   2.063   2.274  10.847 -2.1446 -2.0235 -0.5122
  327TMC3    H1 4915   2.391   2.000  10.886 -0.0810 -1.2232 -0.3631
  327TMC3    H2 4916   2.195   2.059  10.512 -1.7282 -0.9006  0.8581
  327TMC3    C7 4917   2.432   2.010  10.614  0.3605  0.1402 -0.5708
  327TMC3    C8 4918   2.078   2.273  10.574  0.1505 -0.3037 -0.8035
  327TMC3    O1 4919   2.439   2.046  10.496 -0.1634  0.1373 -0.5114
  327TMC3    O2 4920   2.131   2.270  10.460 -0.3746 -0.1583  0.4590
  328MPD2     C 4921   0.108   1.752  17.515  0.1332 -0.3048  0.2299
  328MPD2    C1 4922   4.718   1.679  17.527 -0.5300 -0.0373  0.4573
  328MPD2    C2 4923   4.643   1.683  17.412 -0.3023 -0.2844  0.0031
  328MPD2    C3 4924   4.671   1.757  17.303 -0.5438  0.1390  0.3367
  328MPD2    C4 4925   0.067   1.818  17.291 -0.2043 -0.2546 -0.3101
  328MPD2    C5 4926   0.146   1.818  17.398  0.7902  0.0428 -0.5908
  328MPD2     H 4927   4.555   1.621  17.417 -0.1698 -0.2552  2.8035
  328MPD2    H1 4928   0.089   1.890  17.214  1.4361  1.4944  1.8041
  328MPD2    H2 4929   0.177   1.763  17.598  0.2466  2.6512 -0.2561
  328MPD2    H3 4930   0.235   1.880  17.388  0.3049  0.7737 -0.4204
  328MPD2     N 4931   4.583   1.781  17.198 -0.1436 -0.1254 -0.3384
  328MPD2    H5 4932   4.616   1.854  17.136 -0.7565  0.0598 -0.4489
  328MPD2    N1 4933   4.669   1.627  17.651 -0.1273  0.0722 -0.2276
  328MPD2    H7 4934   0.000   1.640   0.031 -1.0288  0.4997  0.3138
  329TMC3    C1 4935   4.561   1.494   0.099  0.2355  0.8133  1.4111
  329TMC3    C2 4936   4.607   1.576   0.199  0.0521 -0.4662  0.4135
  329TMC3    C3 4937   4.576   1.535   0.328 -1.0632  0.2933  0.6754
  329TMC3    C4 4938   4.494   1.381   0.126  0.0598 -0.5286 -0.3205
  329TMC3    C5 4939   4.434   1.360   0.252  0.4605  0.7338 -0.4141
  329TMC3    C6 4940   4.481   1.443   0.350 -0.2961  0.2726 -0.0927
  329TMC3     C 4941   4.575   1.528  17.666 -0.5277 -0.2614 -0.7703
  329TMC3     O 4942   4.506   1.474  17.584  0.4970 -0.5593  0.2532
  329TMC3     H 4943   4.672   1.662   0.185 -0.4971  0.0388  0.9542
  329TMC3    H1 4944   4.457   1.314   0.049 -1.7955  0.4595 -0.2719
  329TMC3    H2 4945   4.452   1.426   0.453 -0.2988  3.2428  0.3938
  329TMC3    C7 4946   4.383   1.224   0.280 -0.3224  0.3992  0.4504
  329TMC3    C8 4947   4.608   1.629   0.428 -0.1260  0.1109  0.0341
  329TMC3    O1 4948   4.419   1.140   0.204  0.2254 -0.1119  0.1074
  329TMC3    O2 4949   4.721   1.628   0.470 -0.0458 -0.1893 -0.4907
  330TMC3    C1 4950   2.623   1.644   9.783  0.1978  0.1942 -0.9540
  330TMC3    C2 4951   2.548   1.557   9.709 -0.3606 -0.0905 -0.4365
  330TMC3    C3 4952   2.587   1.430   9.702 -0.2969  0.0145  0.0196
  330TMC3    C4 4953   2.740   1.597   9.834 -0.4368  0.6158 -0.2589
  330TMC3    C5 4954   2.772   1.465   9.831  0.5576  0.3348  0.4399
  330TMC3    C6 4955   2.691   1.373   9.769 -0.2099 -0.6307  0.6004
  330TMC3     C 4956   2.563   1.754   9.851 -0.1307 -0.2834  0.1536
  330TMC3     O 4957   2.622   1.807   9.944  0.1684  0.4900 -0.0123
  330TMC3     H 4958   2.477   1.604   9.641 -2.8577 -1.1848  1.3936
  330TMC3    H1 4959   2.803   1.664   9.892 -2.3878  2.0289  0.2299
  330TMC3    H2 4960   2.730   1.273   9.754  1.0270 -0.1410  0.5378
  330TMC3    C7 4961   2.890   1.412   9.906 -0.6219 -0.7883 -0.3508
  330TMC3    C8 4962   2.492   1.362   9.623 -0.1503  0.2093 -0.7094
  330TMC3    O1 4963   2.982   1.497   9.910 -1.2593  0.1965  0.3528
  330TMC3    O2 4964   2.403   1.423   9.566 -0.4195 -0.6699 -0.2275
  331MPD2     C 4965   0.253   0.018  12.620  0.3824 -0.4234  0.1033
  331MPD2    C1 4966   0.346   0.119  12.633  0.2516  0.3280 -0.1756
  331MPD2    C2 4967   0.471   0.088  12.659  0.1675 -0.2228  0.0629
  331MPD2    C3 4968   0.512   4.680  12.662  0.1231  0.8214 -0.1884
  331MPD2    C4 4969   0.421   4.583  12.649 -0.7587 -0.0459 -0.2945
  331MPD2    C5 4970   0.290   4.615  12.629 -0.0857  0.2461  0.4911
  331MPD2     H 4971   0.544   0.165  12.681 -0.7467  0.6794 -0.0260
  331MPD2    H1 4972   0.456   4.481  12.654 -0.5637 -0.0559 -1.6912
  331MPD2    H2 4973   0.146   0.028  12.606  0.2126 -0.2569  1.5613
  331MPD2    H3 4974   0.220   4.534  12.610 -2.0862  1.4085  2.9149
  331MPD2     N 4975   0.651   4.658  12.662  0.1935 -0.0035  0.0942
  331MPD2    H5 4976   0.707   0.015  12.680 -1.0236  0.5125  1.5674
  331MPD2    N1 4977   0.313   0.258  12.622 -0.7197  0.1731  0.2788
  331MPD2    H7 4978   0.213   0.276  12.613 -0.9011 -0.7313  0.4776
  332TMC3    C1 4979   0.860   4.549  12.633 -0.4832  0.3570  0.2363
  332TMC3    C2 4980   0.904   4.650  12.556  0.1767 -0.1002 -0.0127
  332TMC3    C3 4981   1.031   4.641  12.509  0.5151  0.2052 -0.0753
  332TMC3    C4 4982   0.936   4.441  12.665  0.6346  0.3023 -0.8227
  332TMC3    C5 4983   1.072   4.445  12.623 -0.0375  0.5836 -0.2407
  332TMC3    C6 4984   1.121   4.549  12.546 -0.3311 -0.0310  0.5154
  332TMC3     C 4985   0.713   4.535  12.636  0.8201  0.0059 -0.6528
  332TMC3     O 4986   0.673   4.422  12.653  0.5511  0.9838  0.1073
  332TMC3     H 4987   0.833   4.721  12.515  0.5627  0.8559  0.9444
  332TMC3    H1 4988   0.901   4.362  12.730 -0.0549  1.9714  0.8264
  332TMC3    H2 4989   1.217   4.546  12.497 -1.5739 -1.7311 -1.8638
  332TMC3    C7 4990   1.169   4.361  12.693 -0.2218 -0.3823  0.3477
  332TMC3    C8 4991   1.071   0.010  12.406 -0.8360  0.0296  0.5639
  332TMC3    O1 4992   1.121   4.266  12.753  0.1662  0.0839 -0.0549
  332TMC3    O2 4993   1.188   0.025  12.383 -0.2750 -0.0565 -0.0110
  333MPD2     C 4994   1.095   0.430  10.861 -0.3419 -0.9063 -0.0948
  333MPD2    C1 4995   1.203   0.353  10.845  0.1048 -0.8646  0.4048
  333MPD2    C2 4996   1.215   0.242  10.934  0.1464  0.3634  0.2134
  333MPD2    C3 4997   1.116   0.216  11.029  0.2935 -0.0178 -0.3037
  333MPD2    C4 4998   0.999   0.294  11.030  0.5634 -0.0897  0.3359
  333MPD2    C5 4999   1.000   0.407  10.955  0.5833  0.1712 -0.4205
  333MPD2     H 5000   1.294   0.168  10.924  1.1849  1.2315  1.9057
  333MPD2    H1 5001   0.918   0.276  11.100 -1.4353  0.7228 -1.7919
  333MPD2    H2 5002   1.072   0.515  10.797  1.0761  1.7539  2.9106
  333MPD2    H3 5003   0.922   0.482  10.956  0.4672  0.0186  1.5519
  333MPD2     N 5004   1.129   0.104  11.121 -0.1695 -0.0954 -0.1343
  333MPD2    H5 5005   1.206   0.039  11.112  1.7657  1.8505  2.4122
  333MPD2    N1 5006   1.302   0.377  10.747 -0.2761 -0.7927  0.0145
  333MPD2    H7 5007   1.292   0.455  10.683 -2.3518 -0.2748  0.9684
  334TMC3    C1 5008   1.487   0.345  10.607 -0.1311  0.8316 -0.3402
  334TMC3    C2 5009   1.575   0.262  10.543 -0.2492  0.2859 -0.3366
  334TMC3    C3 5010   1.659   0.315  10.454 -0.5590 -0.0064 -0.3120
  334TMC3    C4 5011   1.495   0.479  10.582  0.6757  0.1730 -0.5779
  334TMC3    C5 5012   1.590   0.527  10.494  0.0317 -0.2524 -0.3619
  334TMC3    C6 5013   1.680   0.448  10.431 -0.1591 -0.4382 -0.2760
  334TMC3     C 5014   1.417   0.300  10.720  0.1674 -0.0604 -1.0298
  334TMC3     O 5015   1.447   0.189  10.756  0.1933  0.5989 -0.3241
  334TMC3     H 5016   1.583   0.156  10.564 -0.1421  0.1279 -1.1851
  334TMC3    H1 5017   1.436   0.547  10.642 -1.6867 -1.7296 -0.7635
  334TMC3    H2 5018   1.744   0.476  10.348  0.0942  0.2586  0.1656
  334TMC3    C7 5019   1.606   0.669  10.478  0.2118 -0.6976  0.2272
  334TMC3    C8 5020   1.752   0.230  10.385  0.1005  0.0676 -0.0356
  334TMC3    O1 5021   1.722   0.707  10.462 -0.1478  0.1720 -0.4043
  334TMC3    O2 5022   1.725   0.116  10.353 -0.0332 -0.1620 -0.7064
  335TMC3    C1 5023   1.075   2.090   0.041  0.4438 -0.1159 -0.0084
  335TMC3    C2 5024   0.980   2.014  17.684  0.0005  0.2173 -0.5988
  335TMC3    C3 5025   0.990   2.001  17.545  0.0027 -0.1296  0.0553
  335TMC3    C4 5026   1.186   2.126  17.675 -0.1268  0.3981  0.0046
  335TMC3    C5 5027   1.198   2.096  17.544 -0.5447  0.0098  0.2561
  335TMC3    C6 5028   1.102   2.032  17.468  1.0185 -0.5482  0.4830
  335TMC3     C 5029   1.060   2.130   0.179 -0.7731  1.0893 -0.2407
  335TMC3     O 5030   1.150   2.191   0.231 -0.3537 -0.8029  0.2390
  335TMC3     H 5031   0.903   1.965   0.039  1.2929 -0.3708  0.6013
  335TMC3    H1 5032   1.254   2.188   0.029  1.5907 -1.1283 -0.3953
  335TMC3    H2 5033   1.122   1.990  17.370 -0.2571 -0.4823  0.1961
  335TMC3    C7 5034   1.319   2.125  17.474 -0.1556  0.3183 -0.1584
  335TMC3    C8 5035   0.886   1.923  17.485  0.8541 -0.0098 -0.5067
  335TMC3    O1 5036   1.311   2.105  17.356 -0.6627  0.5643 -0.4307
  335TMC3    O2 5037   0.806   1.863  17.556 -0.2450  0.1941 -0.8019
  336MPD2     C 5038   4.640   4.606  16.781  0.1220  0.4673  0.1998
  336MPD2    C1 5039   4.706   4.565  16.668 -0.0209  0.6769 -0.3876
  336MPD2    C2 5040   0.065   4.457  16.671 -0.0361 -0.4649  0.1658
  336MPD2    C3 5041   0.072   4.374  16.788 -0.4331  0.2346 -0.2592
  336MPD2    C4 5042   4.710   4.406  16.891  0.7230  0.0242  0.0507
  336MPD2    C5 5043   4.638   4.522  16.889  0.2809  0.5695  0.3909
  336MPD2     H 5044   0.113   4.418  16.581  2.3157  1.3063  0.6268
  336MPD2    H1 5045   4.701   4.337  16.974 -1.2707 -0.3963 -0.5186
  336MPD2    H2 5046   4.584   4.698  16.788 -1.0595 -0.3737  1.8521
  336MPD2    H3 5047   4.582   4.541  16.980 -1.1711 -0.3857 -0.3131
  336MPD2     N 5048   0.142   4.249  16.801  0.2126 -0.1114 -0.0862
  336MPD2    H5 5049   0.119   4.196  16.885  0.8238  0.5382  0.4916
  336MPD2    N1 5050   4.678   4.641  16.549  0.1550  0.2108 -0.0524
  336MPD2    H7 5051   4.723   4.615  16.462  1.0125  1.9005 -0.1257
  337TMC3    C1 5052   4.555   0.026  16.388 -0.2636 -0.2330  0.0242
  337TMC3    C2 5053   4.425   0.032  16.344 -0.0369 -0.2749 -0.0774
  337TMC3    C3 5054   4.416   0.035  16.205  0.9156  0.0914  0.1148
  337TMC3    C4 5055   4.664   0.021  16.303  0.4583 -0.2338 -0.3727
  337TMC3    C5 5056   4.646   0.025  16.165  0.1953  0.2979  0.2996
  337TMC3    C6 5057   4.520   0.027  16.114 -0.1306 -0.3457  0.5332
  337TMC3     C 5058   4.576   0.001  16.533 -0.6101 -0.3315  0.3862
  337TMC3     O 5059   4.484   0.028  16.611 -0.5694 -0.8115  0.7307
  337TMC3     H 5060   4.335   0.032  16.404 -0.8492 -0.7580 -1.3037
  337TMC3    H1 5061   0.041   0.042  16.332  0.2582 -0.0549  0.1963
  337TMC3    H2 5062   4.510   0.007  16.008  1.1585  1.4457  0.0670
  337TMC3    C7 5063   0.027   0.046  16.076 -0.1878  0.6910 -0.2221
  337TMC3    C8 5064   4.286   0.003  16.156  1.1613 -0.7391 -0.0247
  337TMC3    O1 5065   4.708   0.072  15.966  0.0213 -0.1812  0.2217
  337TMC3    O2 5066   4.199   4.703  16.240  0.2806 -0.1262 -0.1112
  338MPD2     C 5067   0.202   4.032   1.238 -0.1655  0.0326  0.1536
  338MPD2    C1 5068   0.212   4.051   1.101  0.1142 -0.3226  0.8030
  338MPD2    C2 5069   0.115   4.000   1.020  0.3262  0.3337 -0.1428
  338MPD2    C3 5070   0.025   3.903   1.070 -0.0629  0.0453 -0.1193
  338MPD2    C4 5071   0.021   3.881   1.207 -0.5561  0.2823  0.2244
  338MPD2    C5 5072   0.097   3.956   1.289  0.3751 -0.1669  0.5045
  338MPD2     H 5073   0.107   3.999   0.912  0.5470 -1.4532 -0.1318
  338MPD2    H1 5074   4.664   3.822   1.244  0.2263 -1.8877 -1.4114
  338MPD2    H2 5075   0.274   4.076   1.305 -0.6961  2.8841 -1.1041
  338MPD2    H3 5076   0.089   3.938   1.396 -0.1196 -0.1303  0.4768
  338MPD2     N 5077   4.677   3.825   0.974  1.1688 -0.0182  0.6014
  338MPD2    H5 5078   4.704   3.843   0.878  1.8645 -1.3133  0.5522
  338MPD2    N1 5079   0.313   4.120   1.039  0.3101  0.3251  0.1866
  338MPD2    H7 5080   0.314   4.106   0.938 -1.4834 -0.0153  0.2099
  339TMC3    C1 5081   4.571   3.634   0.882 -0.7445  0.1234 -0.3199
  339TMC3    C2 5082   4.553   3.500   0.898  0.3301 -0.2008 -0.8226
  339TMC3    C3 5083   4.551   3.424   0.788  0.4798 -0.9134 -0.3608
  339TMC3    C4 5084   4.573   3.695   0.753 -0.6565  0.2593 -0.0865
  339TMC3    C5 5085   4.578   3.616   0.642  0.0937 -0.3651  0.3135
  339TMC3    C6 5086   4.571   3.477   0.662  0.5980  0.2322 -0.4311
  339TMC3     C 5087   4.602   3.711   0.996 -0.5889  0.1908 -0.4282
  339TMC3     O 5088   4.558   3.670   1.105  0.3156 -0.4291  0.0986
  339TMC3     H 5089   4.554   3.461   0.999  1.1441  2.8684  0.3450
  339TMC3    H1 5090   4.573   3.803   0.741 -1.4959  0.4525  1.7212
  339TMC3    H2 5091   4.556   3.412   0.577  1.9584 -0.9023  0.1889
  339TMC3    C7 5092   4.657   3.673   0.529  0.5027 -0.5510  0.0039
  339TMC3    C8 5093   4.566   3.280   0.795 -0.3114 -0.3983 -0.1175
  339TMC3    O1 5094   4.635   3.791   0.508 -0.0315  0.0776 -0.3906
  339TMC3    O2 5095   4.630   3.228   0.706 -0.6451  0.4004  0.1705
  340MPD2     C 5096   0.568   1.159   9.698  0.2454  0.1599  0.2863
  340MPD2    C1 5097   0.639   1.169   9.812  0.3069  0.0539  0.1111
  340MPD2    C2 5098   0.679   1.296   9.857  0.5870  0.5277 -0.4873
  340MPD2    C3 5099   0.663   1.404   9.772  0.1644 -0.1861 -0.5992
  340MPD2    C4 5100   0.595   1.386   9.660  1.0449  0.5281 -0.8699
  340MPD2    C5 5101   0.548   1.263   9.619  0.0962 -0.1533  0.1653
  340MPD2     H 5102   0.718   1.306   9.958 -0.2310  1.0516 -0.2193
  340MPD2    H1 5103   0.586   1.470   9.591  3.4886  1.3239 -0.2300
  340MPD2    H2 5104   0.537   1.065   9.653  0.0614  0.4971 -0.2839
  340MPD2    H3 5105   0.511   1.253   9.518 -0.3458 -0.6028  0.3707
  340MPD2     N 5106   0.717   1.532   9.798 -0.7222 -0.6659 -0.4427
  340MPD2    H5 5107   0.701   1.607   9.732  2.3671  0.7606  0.4288
  340MPD2    N1 5108   0.662   1.046   9.886 -0.1521  0.4227 -0.3432
  340MPD2    H7 5109   0.624   0.962   9.843  2.2937  0.1517 -1.9614
  341TMC3    C1 5110   0.784   0.902  10.023  1.3484  0.3245 -0.2872
  341TMC3    C2 5111   0.710   0.797   9.973  0.1039 -0.1185 -0.2343
  341TMC3    C3 5112   0.781   0.685   9.935 -0.0698 -0.5127  0.1363
  341TMC3    C4 5113   0.914   0.892  10.050 -0.5173 -0.5978 -0.0733
  341TMC3    C5 5114   0.976   0.776  10.020  0.3042 -0.3326  0.4542
  341TMC3    C6 5115   0.914   0.671   9.958 -0.7361  0.4534  0.3517
  341TMC3     C 5116   0.734   1.034   9.998 -0.5474 -0.6282  0.5962
  341TMC3     O 5117   0.782   1.131  10.058  0.4150 -0.1421  0.4245
  341TMC3     H 5118   0.602   0.797   9.985  0.3312 -0.9174  1.8862
  341TMC3    H1 5119   0.969   0.969  10.103 -2.4127 -0.4210  1.6297
  341TMC3    H2 5120   0.967   0.577   9.947 -0.8700  0.1118  2.6686
  341TMC3    C7 5121   1.108   0.751  10.081  0.0983  0.2377 -0.5966
  341TMC3    C8 5122   0.699   0.575   9.879  0.0539  0.3823 -1.3770
  341TMC3    O1 5123   1.168   0.856  10.097 -0.4531 -0.2051  0.2317
  341TMC3    O2 5124   0.579   0.584   9.894 -0.3494  0.1453 -0.1390
  342MPD2     C 5125   2.919   0.099   0.162 -0.0021  0.0198  0.5719
  342MPD2    C1 5126   3.056   0.075   0.169 -0.6305  0.1427  0.1851
  342MPD2    C2 5127   3.140   0.169   0.229 -0.2333  0.6352 -0.1202
  342MPD2    C3 5128   3.088   0.285   0.294  0.0058  0.1377  0.5160
  342MPD2    C4 5129   2.956   0.310   0.269 -0.1171 -0.3333 -0.8326
  342MPD2    C5 5130   2.873   0.211   0.215 -0.0075  0.7703  0.0191
  342MPD2     H 5131   3.248   0.161   0.228 -0.2918  0.2414 -2.4969
  342MPD2    H1 5132   2.911   0.394   0.320  0.7818  0.5868 -1.5349
  342MPD2    H2 5133   2.845   0.030   0.122  0.8949 -1.7751  2.0051
  342MPD2    H3 5134   2.767   0.230   0.222  0.1254  0.4977  2.7540
  342MPD2     N 5135   3.164   0.389   0.345 -0.6249  0.3835 -0.1665
  342MPD2    H5 5136   3.115   0.474   0.371  0.1321  0.3113  1.5357
  342MPD2    N1 5137   3.112   4.677   0.130  0.0450  0.7437 -0.2074
  342MPD2    H7 5138   3.212   4.664   0.145 -0.4888 -1.4877  1.3143
  343TMC3    C1 5139   3.141   4.488   0.010  0.0987  0.0291  0.5625
  343TMC3    C2 5140   3.261   4.545  17.684  0.0854  0.0152  0.3790
  343TMC3    C3 5141   3.359   4.463  17.639  0.5542  0.0155  0.1040
  343TMC3    C4 5142   3.126   4.354   0.024 -0.0582 -0.0422  0.4716
  343TMC3    C5 5143   3.235   4.274   0.007  0.4665  0.4506 -0.6311
  343TMC3    C6 5144   3.349   4.328  17.656  0.4717  0.3387 -0.5809
  343TMC3     C 5145   3.050   4.575   0.078 -0.0893  0.2120 -0.3421
  343TMC3     O 5146   2.931   4.552   0.080  0.2209  0.0901 -0.0073
  343TMC3     H 5147   3.277   4.652  17.672  1.5306 -0.3194 -0.6602
  343TMC3    H1 5148   3.044   4.309   0.079  0.0300 -0.4564  0.2633
  343TMC3    H2 5149   3.439   4.269  17.644  1.1252  0.8734  1.6616
  343TMC3    C7 5150   3.214   4.134   0.010  0.6256  0.2406 -0.0327
  343TMC3    C8 5151   3.493   4.530  17.631 -0.7586 -0.3135 -0.3231
  343TMC3    O1 5152   3.287   4.071  17.640  0.0077 -0.3916 -0.1278
  343TMC3    O2 5153   3.506   4.643  17.675  0.2607  0.0008 -0.0169
  344MPD2     C 5154   0.261   4.083  11.107 -0.1680  0.0142 -0.2672
  344MPD2    C1 5155   0.150   4.037  11.042 -0.4094 -0.0250  0.0798
  344MPD2    C2 5156   0.107   4.102  10.927  0.1840 -0.0927 -0.4734
  344MPD2    C3 5157   0.193   4.204  10.877 -0.4389  0.0343  0.3614
  344MPD2    C4 5158   0.308   4.233  10.940  1.0792 -0.8063 -0.9246
  344MPD2    C5 5159   0.338   4.184  11.059  0.6410  0.0912  0.2439
  344MPD2     H 5160   0.017   4.066  10.879 -1.4907  2.0451  1.1024
  344MPD2    H1 5161   0.377   4.308  10.901  0.2373 -0.5790 -1.9808
  344MPD2    H2 5162   0.298   4.034  11.197  0.2896  1.6768  0.4469
  344MPD2    H3 5163   0.426   4.221  11.110  0.8243  1.7271 -1.2728
  344MPD2     N 5164   0.168   4.269  10.751  0.3718 -0.1800 -0.6415
  344MPD2    H5 5165   0.234   4.343  10.728  0.9661 -0.5173 -0.0211
  344MPD2    N1 5166   0.074   3.925  11.077 -0.0184  0.0005  0.2024
  344MPD2    H7 5167   4.718   3.902  11.022  0.6785 -0.7647 -0.5063
  345TMC3    C1 5168   0.062   4.345  10.551  0.0089 -0.6422  0.0082
  345TMC3    C2 5169   0.180   4.319  10.483  0.4160  0.5226 -0.4207
  345TMC3    C3 5170   0.183   4.372  10.353 -0.2804 -0.6668 -0.5794
  345TMC3    C4 5171   4.678   4.413  10.501 -0.2383 -0.1092  0.6005
  345TMC3    C5 5172   4.696   4.459  10.371 -0.3538  0.1596  0.2994
  345TMC3    C6 5173   0.085   4.445  10.295 -0.1476 -0.0461  0.1860
  345TMC3     C 5174   0.050   4.267  10.682 -0.5187  0.3925  0.6332
  345TMC3     O 5175   4.662   4.232  10.709  0.7146  0.2483 -0.2319
  345TMC3     H 5176   0.258   4.257  10.525 -1.9745 -2.3108 -0.1488
  345TMC3    H1 5177   4.586   4.430  10.556  1.1703  2.2766  2.2249
  345TMC3    H2 5178   0.101   4.491  10.198 -4.0836  0.8993 -0.0031
  345TMC3    C7 5179   4.618   4.569  10.333  0.1335 -0.0102 -0.9155
  345TMC3    C8 5180   0.305   4.365  10.274  0.9771  0.1133  0.0449
  345TMC3    O1 5181   4.649   4.628  10.231  0.0608  0.0061  0.0050
  345TMC3    O2 5182   0.409   4.404  10.333 -0.3339 -0.1527  0.3905
  346MPD2     C 5183   0.007   1.152  13.812  0.2828  0.2218 -0.3421
  346MPD2    C1 5184   0.083   1.235  13.884 -0.0373  0.3036 -0.2784
  346MPD2    C2 5185   0.041   1.279  14.007 -0.4101 -0.1611 -0.1389
  346MPD2    C3 5186   4.645   1.243  14.058 -0.2325 -0.2208 -0.8594
  346MPD2    C4 5187   4.565   1.158  13.979  0.1883 -0.4564 -0.2502
  346MPD2    C5 5188   4.608   1.119  13.857  0.3115 -0.1423  0.4465
  346MPD2     H 5189   0.110   1.323  14.078  1.1984 -1.3886 -0.9390
  346MPD2    H1 5190   4.469   1.125  14.018  0.4315  0.4210  1.0811
  346MPD2    H2 5191   0.033   1.135  13.708  1.7315  1.4009 -0.1713
  346MPD2    H3 5192   4.552   1.049  13.797  0.9625 -2.2700  2.3110
  346MPD2     N 5193   4.605   1.300  14.184 -0.1260  0.5455 -0.0859
  346MPD2    H5 5194   4.667   1.360  14.239  1.5461  0.1793 -1.5712
  346MPD2    N1 5195   0.213   1.281  13.847  0.3090  0.2546 -0.3608
  346MPD2    H7 5196   0.254   1.344  13.916 -1.6506  3.7997 -2.4452
  347TMC3    C1 5197   4.479   1.357  14.374 -0.6557  0.0377  0.6918
  347TMC3    C2 5198   4.538   1.477  14.367  0.0702  0.2387  0.0157
  347TMC3    C3 5199   4.607   1.529  14.479 -0.6001  0.4593  0.2834
  347TMC3    C4 5200   4.464   1.288  14.492 -0.2523 -0.3360  0.2438
  347TMC3    C5 5201   4.498   1.354  14.608  0.0374  0.5517  0.1272
  347TMC3    C6 5202   4.590   1.460  14.600 -0.2826 -0.4698 -0.3551
  347TMC3     C 5203   4.484   1.283  14.249 -0.9298 -0.5429 -0.2493
  347TMC3     O 5204   4.382   1.231  14.212 -0.1588 -1.0517  0.3914
  347TMC3     H 5205   4.537   1.529  14.272  0.2769 -0.2489 -0.2538
  347TMC3    H1 5206   4.418   1.190  14.485 -0.3791 -0.1963 -0.8862
  347TMC3    H2 5207   4.654   1.486  14.683 -0.0507  0.3852 -0.8045
  347TMC3    C7 5208   4.523   1.256  14.711 -0.2798  0.9502 -0.2358
  347TMC3    C8 5209   0.013   1.561  14.440  0.5461 -0.0755 -0.1259
  347TMC3    O1 5210   4.515   1.143  14.675 -0.7163 -0.0041  0.3153
  347TMC3    O2 5211   0.066   1.522  14.337  0.4984 -0.4993 -0.4858
  348MPD2     C 5212   3.287   1.044  12.235  0.1694  0.1881 -0.0845
  348MPD2    C1 5213   3.407   1.044  12.167 -0.4387  0.0468  0.3254
  348MPD2    C2 5214   3.402   1.133  12.060  0.2586 -0.1417  0.8984
  348MPD2    C3 5215   3.290   1.198  12.015  0.5457 -0.5473  0.5668
  348MPD2    C4 5216   3.178   1.201  12.096 -0.0013  0.1077  0.5582
  348MPD2    C5 5217   3.174   1.116  12.198  0.2624  0.3761  0.2702
  348MPD2     H 5218   3.486   1.157  11.996 -0.0791 -2.7576 -0.4989
  348MPD2    H1 5219   3.094   1.266  12.075 -2.7411 -2.9798  2.0307
  348MPD2    H2 5220   3.285   0.990  12.328  1.8897  0.9848  0.4326
  348MPD2    H3 5221   3.087   1.116  12.263  0.7676  0.7039  0.9466
  348MPD2     N 5222   3.296   1.283  11.901  0.0609  0.3268 -0.2856
  348MPD2    H5 5223   3.383   1.279  11.849  1.4975  1.0305  2.0363
  348MPD2    N1 5224   3.522   0.976  12.196 -1.0897 -0.2523 -0.6146
  348MPD2    H7 5225   3.599   1.004  12.137 -1.2372  1.2387 -0.1103
  349TMC3    C1 5226   3.677   0.824  12.274 -0.2873  0.2940 -0.1547
  349TMC3    C2 5227   3.688   0.691  12.304 -0.2530 -0.1166  0.1565
  349TMC3    C3 5228   3.745   0.609  12.217  0.3974  0.2843  0.6351
  349TMC3    C4 5229   3.737   0.874  12.164  0.4477 -0.8490 -0.5958
  349TMC3    C5 5230   3.806   0.793  12.091 -0.2592  0.2358  0.3933
  349TMC3    C6 5231   3.820   0.664  12.116  0.3940 -0.3035 -0.1767
  349TMC3     C 5232   3.548   0.886  12.298 -0.1377  0.2510  1.0494
  349TMC3     O 5233   3.472   0.836  12.383  0.1030 -0.1647 -0.0686
  349TMC3     H 5234   3.631   0.657  12.389 -0.9902  0.2254 -0.2003
  349TMC3    H1 5235   3.754   0.981  12.155  0.7284 -0.8030  0.5564
  349TMC3    H2 5236   3.883   0.610  12.046 -1.3630 -0.7077 -1.4414
  349TMC3    C7 5237   3.780   0.822  11.955 -0.1526  0.1741  0.0758
  349TMC3    C8 5238   3.768   0.470  12.265 -0.2645  0.4825  0.0820
  349TMC3    O1 5239   3.781   0.734  11.872  0.0103 -0.1823  0.1151
  349TMC3    O2 5240   3.754   0.452  12.382 -0.1155  0.3175 -0.2141
  350MPD2     C 5241   2.421   3.768   9.833 -0.6515  0.1676  0.1410
  350MPD2    C1 5242   2.476   3.651   9.892  0.7946  0.6163 -0.2036
  350MPD2    C2 5243   2.606   3.658   9.926  1.0794  0.2480  0.8078
  350MPD2    C3 5244   2.679   3.776   9.916 -0.2750 -0.0870  0.2296
  350MPD2    C4 5245   2.623   3.896   9.869  0.0033 -0.0577  0.2178
  350MPD2    C5 5246   2.494   3.885   9.825 -0.1619 -0.1582  0.5370
  350MPD2     H 5247   2.648   3.567   9.970  0.3033 -0.1570  0.7064
  350MPD2    H1 5248   2.676   3.989   9.855  0.7952 -0.4405  0.6605
  350MPD2    H2 5249   2.322   3.769   9.790 -1.0072  1.3931  0.9905
  350MPD2    H3 5250   2.451   3.971   9.775  1.0562  0.6857  0.9388
  350MPD2     N 5251   2.810   3.773   9.978  0.5091  0.1378 -0.5631
  350MPD2    H5 5252   2.829   3.692  10.036  0.2167 -0.4270 -1.2666
  350MPD2    N1 5253   2.408   3.523   9.893  0.6232  0.4988 -0.5913
  350MPD2    H7 5254   2.464   3.456   9.944  0.1578  1.4902  1.2562
  351TMC3    C1 5255   2.244   3.344   9.870 -0.0943  0.5182  0.3524
  351TMC3    C2 5256   2.348   3.248   9.875  0.3623  0.0493  0.6351
  351TMC3    C3 5257   2.315   3.121   9.902 -0.0380  0.7755 -0.2655
  351TMC3    C4 5258   2.108   3.312   9.865  0.5531 -0.3163  0.7891
  351TMC3    C5 5259   2.082   3.179   9.885 -0.2961  0.7856  0.1494
  351TMC3    C6 5260   2.183   3.086   9.905  0.1046 -0.1396  0.1223
  351TMC3     C 5261   2.278   3.484   9.848  0.0668  0.1959 -0.2429
  351TMC3     O 5262   2.195   3.557   9.796 -0.0438  0.1436  0.3946
  351TMC3     H 5263   2.448   3.278   9.846  0.5097 -2.0395 -0.9547
  351TMC3    H1 5264   2.030   3.387   9.853 -0.9597 -2.0895 -0.6792
  351TMC3    H2 5265   2.144   2.987   9.922  0.2608  0.0359  1.4403
  351TMC3    C7 5266   1.940   3.142   9.888 -0.1141  0.1227 -0.4738
  351TMC3    C8 5267   2.419   3.021   9.895  0.2574  1.0893 -0.2364
  351TMC3    O1 5268   1.863   3.229   9.909  0.1704  0.1286  0.0693
  351TMC3    O2 5269   2.381   2.905   9.867 -0.2574  0.4976 -0.0745
  352MPD2     C 5270   0.018   1.177   1.468  0.0702  0.4979 -0.1563
  352MPD2    C1 5271   0.134   1.236   1.422 -0.4133 -0.2106  0.4476
  352MPD2    C2 5272   0.254   1.173   1.456 -0.0886 -0.1464 -0.0731
  352MPD2    C3 5273   0.264   1.057   1.531  0.0448 -0.5146  1.3178
  352MPD2    C4 5274   0.142   1.009   1.575  0.3106  0.2762 -0.0812
  352MPD2    C5 5275   0.022   1.067   1.544  0.0320  0.0644  0.3037
  352MPD2     H 5276   0.346   1.217   1.419  1.0758 -1.6064  1.0903
  352MPD2    H1 5277   0.142   0.919   1.635 -1.1550 -0.0538 -0.5910
  352MPD2    H2 5278   4.651   1.232   1.454  1.2272  2.5831  0.3475
  352MPD2    H3 5279   4.659   1.018   1.584  0.6831 -1.9946 -0.7527
  352MPD2     N 5280   0.385   0.992   1.562  0.2318 -0.5472  0.0356
  352MPD2    H5 5281   0.385   0.896   1.595 -0.0403 -0.5085  0.1454
  352MPD2    N1 5282   0.128   1.344   1.333  0.4047  0.0427 -0.0046
  352MPD2    H7 5283   0.038   1.377   1.299  0.2842  1.7611  1.9627
  353TMC3    C1 5284   0.609   0.945   1.529  0.1053 -0.2564  0.2603
  353TMC3    C2 5285   0.607   0.839   1.620  0.0459 -1.1308  0.1354
  353TMC3    C3 5286   0.678   0.720   1.589  0.0254 -0.2626 -0.1747
  353TMC3    C4 5287   0.660   0.920   1.404 -0.9976 -0.0633 -0.3951
  353TMC3    C5 5288   0.724   0.802   1.378  0.1551  0.5628 -0.8072
  353TMC3    C6 5289   0.751   0.710   1.472 -0.3843 -0.9224 -0.7157
  353TMC3     C 5290   0.506   1.046   1.538 -0.0921 -0.3921  0.7097
  353TMC3     O 5291   0.544   1.144   1.474  0.2333  0.0739 -0.1291
  353TMC3     H 5292   0.565   0.843   1.720  2.7122  1.7491  1.1470
  353TMC3    H1 5293   0.626   0.992   1.330 -1.6166 -0.8483 -0.8611
  353TMC3    H2 5294   0.815   0.629   1.440  0.3572 -0.7462  0.3310
  353TMC3    C7 5295   0.719   0.749   1.240  0.0513  0.2989 -0.1815
  353TMC3    C8 5296   0.724   0.642   1.701  0.1375  0.9542  0.6197
  353TMC3    O1 5297   0.737   0.628   1.218 -0.3778 -0.0424  0.4500
  353TMC3    O2 5298   0.742   0.708   1.804 -0.8839 -0.0916 -0.1790
  354TMC3    C1 5299   2.319   2.262  13.545  0.6506 -0.1453  0.0785
  354TMC3    C2 5300   2.380   2.383  13.522  0.0515 -0.4295  0.1446
  354TMC3    C3 5301   2.411   2.405  13.392  0.1541 -0.1474  0.7807
  354TMC3    C4 5302   2.261   2.182  13.447  0.4507  0.1035 -0.3770
  354TMC3    C5 5303   2.310   2.207  13.317 -1.0331  0.1839  0.2937
  354TMC3    C6 5304   2.371   2.325  13.290 -0.7218 -0.2965 -0.6889
  354TMC3     C 5305   2.324   2.211  13.680 -0.7597  0.2680  0.1660
  354TMC3     O 5306   2.248   2.115  13.697  0.1870 -0.5818  0.1103
  354TMC3     H 5307   2.409   2.446  13.605 -1.0162 -0.1653  0.3183
  354TMC3    H1 5308   2.219   2.086  13.477 -0.2869  0.9270  1.1931
  354TMC3    H2 5309   2.369   2.358  13.187  1.9371  0.0096 -0.6362
  354TMC3    C7 5310   2.351   2.092  13.239 -0.7632  0.0141 -0.1763
  354TMC3    C8 5311   2.498   2.512  13.349  0.4314  0.6987  0.7879
  354TMC3    O1 5312   2.311   1.983  13.280 -0.3444  0.3773 -0.1352
  354TMC3    O2 5313   2.520   2.522  13.230 -0.5216 -0.5698  0.0472
  355MPD2     C 5314   2.661   3.032  12.058  0.3806 -0.5872 -0.8940
  355MPD2    C1 5315   2.745   3.068  11.950  0.4436  0.0896  0.5534
  355MPD2    C2 5316   2.881   3.049  11.964 -0.5361 -0.3744  0.0479
  355MPD2    C3 5317   2.931   3.027  12.086 -0.2858 -0.2199 -0.7198
  355MPD2    C4 5318   2.846   3.024  12.197 -0.3240 -0.0403 -0.2185
  355MPD2    C5 5319   2.715   2.999  12.177  0.0019 -0.0102 -0.7355
  355MPD2     H 5320   2.940   3.051  11.874  0.4790 -3.5721  0.6329
  355MPD2    H1 5321   2.878   3.013  12.300  0.2908  1.7794 -0.2223
  355MPD2    H2 5322   2.554   3.046  12.053  0.5012  1.0722  1.2169
  355MPD2    H3 5323   2.652   2.981  12.264 -0.0747 -2.3856 -1.2822
  355MPD2     N 5324   3.067   3.037  12.108  0.4029  0.6263 -0.2133
  355MPD2    H5 5325   3.105   3.023  12.202  0.3481 -1.9849 -0.5610
  355MPD2    N1 5326   2.678   3.094  11.829  0.1615  0.3578  0.5985
  355MPD2    H7 5327   2.578   3.083  11.831  0.3928 -1.7028  1.0478
  356TMC3    C1 5328   3.295   3.061  12.059 -0.8324 -0.1128  0.2232
  356TMC3    C2 5329   3.383   3.060  11.955 -0.5935 -0.2796  0.0233
  356TMC3    C3 5330   3.457   3.175  11.931  0.4570 -0.5937  1.0916
  356TMC3    C4 5331   3.304   3.159  12.157 -0.3528 -0.0898 -0.8628
  356TMC3    C5 5332   3.379   3.270  12.132 -0.4468  0.1272 -0.2743
  356TMC3    C6 5333   3.449   3.279  12.016 -0.3323 -0.3094 -0.6083
  356TMC3     C 5334   3.161   3.041  12.010  0.0925  0.4117  0.5417
  356TMC3     O 5335   3.151   3.034  11.890 -0.5640 -0.4066 -0.0301
  356TMC3     H 5336   3.381   2.978  11.883  2.7009 -0.8092  0.5154
  356TMC3    H1 5337   3.225   3.170  12.230 -0.6679 -0.5373 -1.1300
  356TMC3    H2 5338   3.497   3.371  11.986 -0.3241 -0.1030  0.0298
  356TMC3    C7 5339   3.442   3.322  12.252 -0.1744 -0.6429 -0.3500
  356TMC3    C8 5340   3.502   3.198  11.795 -0.2008 -0.1129 -0.6844
  356TMC3    O1 5341   3.422   3.262  12.354 -0.6919  0.1638 -0.6181
  356TMC3    O2 5342   3.471   3.115  11.710  0.5325 -0.2647  0.4336
  357MPD2     C 5343   1.831   3.422   1.703  0.5505 -0.2847  0.2013
  357MPD2    C1 5344   1.821   3.333   1.602 -0.0978  0.2408  0.2275
  357MPD2    C2 5345   1.739   3.369   1.503  0.7331 -0.4722 -0.4122
  357MPD2    C3 5346   1.656   3.478   1.513 -0.2675 -0.0318  0.3877
  357MPD2    C4 5347   1.673   3.572   1.608  0.0764  0.1298 -0.0581
  357MPD2    C5 5348   1.758   3.535   1.716 -0.1084 -0.4638  0.1768
  357MPD2     H 5349   1.724   3.300   1.421 -1.1792 -0.2327 -0.2528
  357MPD2    H1 5350   1.609   3.658   1.623 -0.3547 -0.5537  2.0196
  357MPD2    H2 5351   1.900   3.418   1.787  0.5692  1.3542  0.2524
  357MPD2    H3 5352   1.780   3.596   1.803  1.8899 -0.4269 -0.3497
  357MPD2     N 5353   1.556   3.507   1.414  0.8012 -0.1410 -0.4913
  357MPD2    H5 5354   1.527   3.604   1.403  0.8427 -0.0540  0.1526
  357MPD2    N1 5355   1.881   3.208   1.615  0.2036  0.4559 -0.6467
  357MPD2    H7 5356   1.915   3.181   1.707  1.1425 -1.0090 -1.4217
  358TMC3    C1 5357   1.912   2.974   1.561  0.3767  0.1355 -1.0722
  358TMC3    C2 5358   1.902   2.884   1.458  0.2095 -1.0117 -0.4734
  358TMC3    C3 5359   1.973   2.766   1.474 -0.2368  0.0698 -0.2694
  358TMC3    C4 5360   1.982   2.950   1.679 -0.0333  0.3805 -0.3340
  358TMC3    C5 5361   2.041   2.822   1.687  0.3383  0.4544 -0.8242
  358TMC3    C6 5362   2.049   2.736   1.583  0.5881  0.1146 -0.1674
  358TMC3     C 5363   1.874   3.112   1.519  0.1618 -0.1553 -0.1391
  358TMC3     O 5364   1.856   3.126   1.399 -0.0006 -0.2004 -0.2953
  358TMC3     H 5365   1.826   2.898   1.382  0.6696  1.2316 -0.5045
  358TMC3    H1 5366   1.996   3.027   1.755  0.7260  1.0470 -1.1377
  358TMC3    H2 5367   2.108   2.646   1.600  1.8412  1.2331  1.4145
  358TMC3    C7 5368   2.072   2.764   1.819 -0.2966 -0.4019 -0.0774
  358TMC3    C8 5369   1.990   2.693   1.352 -0.2105 -0.4266  0.9497
  358TMC3    O1 5370   2.155   2.678   1.821 -0.1780  0.5159 -0.2434
  358TMC3    O2 5371   1.902   2.712   1.267 -0.2200 -0.2762  0.1708
  359MPD2     C 5372   2.728   1.986  12.474  0.1552 -0.4628 -0.3346
  359MPD2    C1 5373   2.782   1.884  12.402  0.2462  0.9971 -0.1778
  359MPD2    C2 5374   2.717   1.761  12.411  0.4587 -0.2836  0.3278
  359MPD2    C3 5375   2.607   1.735  12.496 -0.5565 -0.4415  0.2150
  359MPD2    C4 5376   2.566   1.840  12.569 -0.8595  0.2533  0.0654
  359MPD2    C5 5377   2.622   1.967  12.556 -0.3259  0.0811 -0.0724
  359MPD2     H 5378   2.742   1.685  12.338 -0.1405  0.8314 -1.0516
  359MPD2    H1 5379   2.481   1.832  12.635 -0.5942 -0.5765  0.3019
  359MPD2    H2 5380   2.763   2.088  12.484 -1.1943 -0.0864  0.6616
  359MPD2    H3 5381   2.597   2.046  12.625 -0.8079  0.0820 -0.2497
  359MPD2     N 5382   2.534   1.615  12.506  0.5347  0.4421 -0.0754
  359MPD2    H5 5383   2.447   1.621  12.558  0.2784  0.9195 -0.5589
  359MPD2    N1 5384   2.876   1.907  12.304 -0.5878 -0.1378 -0.0654
  359MPD2    H7 5385   2.876   1.842  12.226 -1.6514 -1.5849  1.1352
  360TMC3    C1 5386   3.046   1.984  12.186  0.0472 -0.6989  0.1732
  360TMC3    C2 5387   3.125   2.084  12.141 -0.3981 -0.4456 -0.4644
  360TMC3    C3 5388   3.245   2.048  12.073  0.1507  0.6089 -0.1565
  360TMC3    C4 5389   3.066   1.848  12.142  0.2107 -0.8674 -0.5836
  360TMC3    C5 5390   3.168   1.824  12.056  0.6340  0.5709  0.1620
  360TMC3    C6 5391   3.261   1.921  12.020 -0.0249  1.1181  0.1385
  360TMC3     C 5392   2.965   2.007  12.306 -0.4291 -0.8355 -0.5207
  360TMC3     O 5393   2.990   2.101  12.378  0.0746 -0.5210 -0.3094
  360TMC3     H 5394   3.118   2.183  12.184  0.0652  0.3845 -2.3136
  360TMC3    H1 5395   3.013   1.762  12.182  0.2412 -0.3090  0.6611
  360TMC3    H2 5396   3.345   1.884  11.962  0.4321  0.1815  1.4131
  360TMC3    C7 5397   3.152   1.717  11.955  0.1401 -0.2441 -0.1289
  360TMC3    C8 5398   3.326   2.155  12.023  0.4511 -0.7498 -0.5747
  360TMC3    O1 5399   3.251   1.689  11.890  0.2382 -0.5526  0.3610
  360TMC3    O2 5400   3.287   2.266  12.043 -0.6593  0.6814 -0.4069
  361MPD2     C 5401   0.022   0.496  17.313  0.4223  0.3931  0.1639
  361MPD2    C1 5402   0.039   0.572  17.424 -0.1080 -0.0764 -0.2106
  361MPD2    C2 5403   0.087   0.506  17.533 -0.8035 -0.0825  0.6475
  361MPD2    C3 5404   0.134   0.372  17.525  0.0815 -0.3361  0.4766
  361MPD2    C4 5405   0.107   0.298  17.410  0.5026  0.1929 -0.0888
  361MPD2    C5 5406   0.048   0.359  17.305 -0.4281  0.5607 -0.1750
  361MPD2     H 5407   0.102   0.556  17.628  3.2691 -0.9769  0.4564
  361MPD2    H1 5408   0.130   0.192  17.404 -0.8134 -0.1591  1.0035
  361MPD2    H2 5409   4.702   0.550  17.231  1.1214  3.1688  1.6057
  361MPD2    H3 5410   0.029   0.294  17.221 -1.1173 -0.7097  0.9584
  361MPD2     N 5411   0.216   0.308  17.620 -0.7538 -0.0229  0.6090
  361MPD2    H5 5412   0.254   0.216  17.600 -1.2154 -0.2128  0.5876
  361MPD2    N1 5413   0.006   0.707  17.432 -0.3444  0.0596  0.3407
  361MPD2    H7 5414   0.004   0.740  17.528 -0.0692 -2.4230  1.1991
  362TMC3    C1 5415   4.653   0.918  17.358  0.7052  0.0731 -0.2181
  362TMC3    C2 5416   4.562   0.906  17.461 -0.1695  0.1818  0.6832
  362TMC3    C3 5417   4.445   0.973  17.449  0.8164  0.6080 -0.1981
  362TMC3    C4 5418   4.623   0.981  17.242  0.0755  0.5645 -0.3166
  362TMC3    C5 5419   4.501   1.045  17.242 -0.3234  0.3747  0.2083
  362TMC3    C6 5420   4.412   1.050  17.346 -0.6438 -0.3759 -0.5838
  362TMC3     C 5421   4.720   0.791  17.325 -0.0951  0.2373 -0.2049
  362TMC3     O 5422   0.013   0.774  17.208 -0.0720  0.4388 -0.3437
  362TMC3     H 5423   4.587   0.867  17.559  1.6081 -1.3855 -0.4062
  362TMC3    H1 5424   4.698   0.987  17.165  0.3622 -1.5630 -0.2056
  362TMC3    H2 5425   4.311   1.081  17.325 -0.6000  0.4685  0.4437
  362TMC3    C7 5426   4.438   1.036  17.115 -0.1228 -0.4323  0.0010
  362TMC3    C8 5427   4.355   0.957  17.563 -0.1141 -0.8439  0.8474
  362TMC3    O1 5428   4.342   1.112  17.093  0.3230  0.0090 -0.1711
  362TMC3    O2 5429   4.405   0.902  17.661 -0.4250  0.3853 -0.3298
  363TMC3    C1 5430   2.564   2.905   9.268  0.2454  0.5376  0.2863
  363TMC3    C2 5431   2.657   2.840   9.346 -1.1360 -0.7919 -0.1419
  363TMC3    C3 5432   2.757   2.925   9.393  0.1214 -0.0494  1.1562
  363TMC3    C4 5433   2.569   3.037   9.227 -0.9903  0.2957  0.1399
  363TMC3    C5 5434   2.669   3.117   9.284  0.8993 -0.5378 -0.6278
  363TMC3    C6 5435   2.761   3.056   9.364  0.8139  0.0514  0.6122
  363TMC3     C 5436   2.439   2.832   9.230 -0.0328  0.4749 -0.5625
  363TMC3     O 5437   2.455   2.715   9.194  0.1760 -0.1499 -0.2819
  363TMC3     H 5438   2.646   2.737   9.378 -2.6419  0.6462  3.8576
  363TMC3    H1 5439   2.510   3.083   9.148 -0.7002 -0.9516 -0.8137
  363TMC3    H2 5440   2.839   3.120   9.401 -0.4851  1.3642  1.0797
  363TMC3    C7 5441   2.677   3.260   9.248  0.2330  0.4876 -0.1510
  363TMC3    C8 5442   2.842   2.886   9.495 -0.1625 -0.6136  0.3820
  363TMC3    O1 5443   2.565   3.304   9.216 -0.3223  0.0995 -0.2394
  363TMC3    O2 5444   2.866   2.971   9.582  1.0720  0.6374  0.2209
  364MPD2     C 5445   1.930   2.767  10.501  0.5351  0.1858  0.0207
  364MPD2    C1 5446   2.036   2.691  10.458  0.0471 -0.0519  0.3593
  364MPD2    C2 5447   2.052   2.556  10.495 -0.0463  0.1753  1.1512
  364MPD2    C3 5448   1.955   2.495  10.571 -0.2878  1.0391 -0.3518
  364MPD2    C4 5449   1.857   2.575  10.621  0.2545  0.7920  0.4841
  364MPD2    C5 5450   1.843   2.707  10.586  0.3642  0.2958 -0.1565
  364MPD2     H 5451   2.145   2.505  10.470 -0.5508 -0.3980  0.4574
  364MPD2    H1 5452   1.786   2.549  10.699 -0.4048  1.2485  0.0282
  364MPD2    H2 5453   1.925   2.874  10.485 -1.4948 -0.1682 -1.8106
  364MPD2    H3 5454   1.769   2.769  10.634 -0.9623 -1.1520 -0.3435
  364MPD2     N 5455   1.976   2.363  10.618 -0.2740 -0.9798 -0.1184
  364MPD2    H5 5456   1.911   2.323  10.685 -0.3257  0.4266  0.6865
  364MPD2    N1 5457   2.136   2.765  10.391 -0.0977 -0.2252  0.3592
  364MPD2    H7 5458   2.118   2.864  10.376  0.6098  0.2137  2.4339
  365TMC3    C1 5459   2.353   2.817  10.299  0.6120  0.1191  0.1713
  365TMC3    C2 5460   2.488   2.782  10.297 -0.0048  0.7556 -0.1434
  365TMC3    C3 5461   2.586   2.877  10.297 -0.1679  0.3907 -0.5699
  365TMC3    C4 5462   2.319   2.949  10.299 -0.1143 -0.0381  0.3128
  365TMC3    C5 5463   2.420   3.039  10.291 -0.0365 -0.9962 -0.7419
  365TMC3    C6 5464   2.552   3.008  10.291  0.1873 -0.3027  0.2923
  365TMC3     C 5465   2.259   2.717  10.350 -0.2566 -0.0505 -0.4328
  365TMC3     O 5466   2.300   2.599  10.352 -0.6617 -0.1622 -0.3918
  365TMC3     H 5467   2.517   2.677  10.298 -2.2948  0.1149 -1.0251
  365TMC3    H1 5468   2.215   2.978  10.302 -0.5679 -1.6408 -0.1400
  365TMC3    H2 5469   2.628   3.085  10.294  0.5768 -0.6690  0.0352
  365TMC3    C7 5470   2.385   3.176  10.328 -0.6748  0.1423 -0.4570
  365TMC3    C8 5471   2.729   2.849  10.300 -0.2715 -0.6096 -0.2530
  365TMC3    O1 5472   2.458   3.269  10.294  0.5032 -0.3347  0.5339
  365TMC3    O2 5473   2.804   2.935  10.344  0.3498 -0.1074 -0.8672
  366MPD2     C 5474   0.622   3.616  15.278  0.0132 -1.1404 -0.6249
  366MPD2    C1 5475   0.603   3.660  15.408  0.3211  0.2952  1.1942
  366MPD2    C2 5476   0.716   3.681  15.482 -0.1535  0.2812  0.0879
  366MPD2    C3 5477   0.842   3.692  15.426  0.4946  0.2727 -0.1220
  366MPD2    C4 5478   0.859   3.653  15.298  0.0837  1.2110 -0.1815
  366MPD2    C5 5479   0.748   3.610  15.227  0.3721  0.5012 -0.6373
  366MPD2     H 5480   0.692   3.685  15.588  0.8439 -0.4300  0.3413
  366MPD2    H1 5481   0.955   3.650  15.248  0.4398  1.4141  0.4791
  366MPD2    H2 5482   0.542   3.571  15.220 -0.8050 -2.2082  1.3302
  366MPD2    H3 5483   0.767   3.564  15.131  0.8970  2.0509 -1.2752
  366MPD2     N 5484   0.959   3.723  15.501 -0.2762 -0.0597 -0.0957
  366MPD2    H5 5485   1.042   3.689  15.453  0.5054  0.0702  1.1833
  366MPD2    N1 5486   0.481   3.692  15.466 -0.9707 -0.6674 -0.6040
  366MPD2    H7 5487   0.485   3.736  15.557  1.0234  0.1960 -1.1130
  367TMC3    C1 5488   0.261   3.787  15.455 -0.0113  0.6253 -0.0009
  367TMC3    C2 5489   0.307   3.864  15.558 -0.0153 -0.1223 -0.2212
  367TMC3    C3 5490   0.230   3.961  15.601  0.3881 -0.2171  0.6842
  367TMC3    C4 5491   0.140   3.801  15.392 -0.0909  0.5291  0.3139
  367TMC3    C5 5492   0.061   3.902  15.450 -0.8109 -0.5110 -0.2202
  367TMC3    C6 5493   0.104   3.984  15.548  0.3946  0.1525  0.4696
  367TMC3     C 5494   0.354   3.682  15.401  0.3648  0.4194 -0.3732
  367TMC3     O 5495   0.316   3.602  15.316 -0.2618 -0.2931 -0.1009
  367TMC3     H 5496   0.404   3.857  15.607 -1.0151  0.8102  1.9262
  367TMC3    H1 5497   0.107   3.741  15.309  1.1133 -1.2236  1.1002
  367TMC3    H2 5498   0.040   4.066  15.581  0.0987  1.1053 -2.5042
  367TMC3    C7 5499   4.647   3.907  15.422  0.0001  0.3197  0.3699
  367TMC3    C8 5500   0.267   4.027  15.716  0.1552  0.1211 -0.7992
  367TMC3    O1 5501   4.583   3.987  15.490  0.2562  0.6525 -0.6647
  367TMC3    O2 5502   0.333   3.965  15.799 -0.0383 -0.6437  0.5846
  368MPD2     C 5503   1.890   0.143  13.213 -0.0738 -0.5507  0.9204
  368MPD2    C1 5504   1.859   0.272  13.201  0.5625 -0.4184  0.5545
  368MPD2    C2 5505   1.969   0.360  13.204  0.1431 -0.0696 -0.3139
  368MPD2    C3 5506   2.098   0.318  13.201  0.2569 -0.4717 -0.7482
  368MPD2    C4 5507   2.126   0.182  13.196 -0.0037  0.2487  0.6426
  368MPD2    C5 5508   2.022   0.096  13.214  0.4104 -0.3805  0.2682
  368MPD2     H 5509   1.955   0.467  13.199 -1.8886 -0.3353 -0.1797
  368MPD2    H1 5510   2.225   0.138  13.195 -1.8507 -3.8879 -0.9322
  368MPD2    H2 5511   1.808   0.072  13.215  0.8517 -1.6607 -0.0245
  368MPD2    H3 5512   2.047   4.716  13.213  0.8113 -0.2776 -0.7280
  368MPD2     N 5513   2.201   0.422  13.201  0.2428 -0.2113 -0.5303
  368MPD2    H5 5514   2.166   0.517  13.210 -2.6682 -1.4710  1.3077
  368MPD2    N1 5515   1.726   0.320  13.179  0.0546 -0.3454  0.3305
  368MPD2    H7 5516   1.662   0.250  13.144  1.3807 -1.3243 -0.1317
  369TMC3    C1 5517   1.548   0.490  13.149 -0.9458  0.9562 -0.0996
  369TMC3    C2 5518   1.535   0.623  13.130  0.0390 -0.1619  0.3020
  369TMC3    C3 5519   1.463   0.668  13.026  0.1238  0.1407 -0.0201
  369TMC3    C4 5520   1.479   0.407  13.071  0.1986 -0.2004  0.5072
  369TMC3    C5 5521   1.380   0.461  12.989 -0.4969 -0.4505 -0.0453
  369TMC3    C6 5522   1.371   0.596  12.962 -0.4540  0.9522  0.6727
  369TMC3     C 5523   1.681   0.453  13.192  0.0055  0.2064 -0.1223
  369TMC3     O 5524   1.750   0.543  13.238 -0.1795 -0.2661  0.5266
  369TMC3     H 5525   1.595   0.690  13.192  1.5568 -0.0771 -1.2644
  369TMC3    H1 5526   1.483   0.299  13.078 -1.2476 -0.3524 -0.8591
  369TMC3    H2 5527   1.296   0.640  12.897  0.3366  0.8017 -0.3290
  369TMC3    C7 5528   1.248   0.411  13.030  1.0002  0.2940 -0.1539
  369TMC3    C8 5529   1.520   0.779  12.952  0.4704 -0.1643 -0.5245
  369TMC3    O1 5530   1.242   0.327  13.120  0.5174 -0.2037 -0.5685
  369TMC3    O2 5531   1.451   0.842  12.873  0.4348 -0.3080  0.3865
  370TMC3    C1 5532   0.854   1.433  16.476  0.2286  0.3454  0.5854
  370TMC3    C2 5533   0.799   1.401  16.597 -0.0976 -0.5930  0.2438
  370TMC3    C3 5534   0.713   1.301  16.608  0.0696  0.4444 -0.3248
  370TMC3    C4 5535   0.812   1.378  16.355 -1.5240  0.2912 -0.2606
  370TMC3    C5 5536   0.726   1.275  16.376 -0.8502 -0.6029 -0.4457
  370TMC3    C6 5537   0.670   1.233  16.496 -0.0504  0.0619  0.7128
  370TMC3     C 5538   0.970   1.516  16.478  0.5581  0.3243  0.3375
  370TMC3     O 5539   1.035   1.517  16.583  0.4111 -0.0234 -0.3779
  370TMC3     H 5540   0.824   1.455  16.688  1.3820  1.3076 -1.2978
  370TMC3    H1 5541   0.871   1.398  16.267 -0.7528  1.9046  0.6115
  370TMC3    H2 5542   0.598   1.152  16.491  0.8842 -0.7372  0.1765
  370TMC3    C7 5543   0.723   1.181  16.259  0.4336 -0.3209  0.1767
  370TMC3    C8 5544   0.662   1.258  16.733 -0.1401  0.0029 -0.5751
  370TMC3    O1 5545   0.720   1.241  16.149  0.2640  0.5614  0.8531
  370TMC3    O2 5546   0.560   1.187  16.724  0.1395 -0.0791  0.3446
  371TMC3    C1 5547   1.884   4.506  15.492  0.4150  0.4678 -0.1792
  371TMC3    C2 5548   1.824   4.514  15.611  0.9151 -0.3858  0.3856
  371TMC3    C3 5549   1.775   4.632  15.647 -0.0344  0.0466  0.5929
  371TMC3    C4 5550   1.927   4.622  15.423 -0.0630 -0.0939  0.0087
  371TMC3    C5 5551   1.895   0.019  15.475 -0.2701 -0.2422  0.0246
  371TMC3    C6 5552   1.818   0.024  15.591  0.0514 -0.2148 -0.2798
  371TMC3     C 5553   1.958   4.380  15.464 -0.4092 -0.6111  0.6311
  371TMC3     O 5554   2.049   4.383  15.383  0.2755 -0.1517  0.6551
  371TMC3     H 5555   1.796   4.431  15.675 -3.3050 -0.4589 -1.5612
  371TMC3    H1 5556   1.987   4.604  15.335 -1.5463 -0.2960 -0.9751
  371TMC3    H2 5557   1.796   0.122  15.631 -0.2999  0.1114 -1.2638
  371TMC3    C7 5558   1.966   0.139  15.431  0.8511 -0.1898  0.0980
  371TMC3    C8 5559   1.775   4.642  15.789  0.0901  0.4447  0.0470
  371TMC3    O1 5560   1.992   0.222  15.516  0.2233  0.0871  0.0542
  371TMC3    O2 5561   1.823   4.551  15.856  0.5025 -0.3036 -0.2498
  372MPD2     C 5562   1.265   0.758  13.326  0.1225 -0.3582  0.1057
  372MPD2    C1 5563   1.390   0.791  13.381 -0.4904  0.4188  0.3455
  372MPD2    C2 5564   1.461   0.692  13.453  0.2208  0.3144  0.4990
  372MPD2    C3 5565   1.403   0.565  13.458  0.1800  0.0057  0.8553
  372MPD2    C4 5566   1.277   0.544  13.406 -0.3085  0.1065 -0.1877
  372MPD2    C5 5567   1.206   0.634  13.340 -0.1175 -0.2885 -0.2586
  372MPD2     H 5568   1.555   0.714  13.502  0.3928  0.8342 -0.0526
  372MPD2    H1 5569   1.223   0.452  13.424 -0.8179  0.8328  1.9834
  372MPD2    H2 5570   1.217   0.841  13.276 -1.6799 -2.9827 -2.5248
  372MPD2    H3 5571   1.110   0.604  13.299 -1.0078 -0.2274  1.7827
  372MPD2     N 5572   1.473   0.466  13.526 -1.0153 -0.3300 -0.0301
  372MPD2    H5 5573   1.561   0.484  13.573 -1.8346  0.7450  1.1202
  372MPD2    N1 5574   1.445   0.917  13.380  0.1424 -0.1587  0.4714
  372MPD2    H7 5575   1.537   0.926  13.423  1.0374 -1.3979 -1.1646
  373TMC3    C1 5576   1.539   0.257  13.606 -0.2598  0.5088 -0.0578
  373TMC3    C2 5577   1.591   0.294  13.731 -0.7377 -0.5661 -0.1032
  373TMC3    C3 5578   1.693   0.219  13.780  1.1794  0.2656 -0.7100
  373TMC3    C4 5579   1.600   0.167  13.527 -0.2019 -0.6278  0.6510
  373TMC3    C5 5580   1.714   0.109  13.573  0.1588  0.3946 -0.1076
  373TMC3    C6 5581   1.763   0.125  13.704 -0.1049  0.0733 -0.1075
  373TMC3     C 5582   1.431   0.334  13.546 -0.2761  0.3956  0.3091
  373TMC3     O 5583   1.340   0.273  13.492  0.0971 -0.0157  0.2140
  373TMC3     H 5584   1.541   0.375  13.783  0.1167 -0.6699  0.8724
  373TMC3    H1 5585   1.542   0.133  13.442  0.2864  3.0431 -1.1475
  373TMC3    H2 5586   1.835   0.059  13.752  1.3544 -1.0597 -3.8347
  373TMC3    C7 5587   1.761   4.721  13.498  0.0989  0.2582 -0.7771
  373TMC3    C8 5588   1.713   0.219  13.925  0.4814 -0.0893  0.2347
  373TMC3    O1 5589   1.684   4.667  13.422  0.1841  0.2065  0.1628
  373TMC3    O2 5590   1.792   0.141  13.968 -0.4469  0.6671  0.4349
  374TMC3    C1 5591   2.200   0.921   9.791 -0.1809  0.8393  0.2558
  374TMC3    C2 5592   2.279   1.010   9.860  0.0185 -0.2253  0.2448
  374TMC3    C3 5593   2.240   1.145   9.834  0.4561  0.2324 -0.7543
  374TMC3    C4 5594   2.098   0.943   9.703  0.4711  0.6241 -0.0768
  374TMC3    C5 5595   2.063   1.076   9.692 -0.3074  0.5853 -0.1030
  374TMC3    C6 5596   2.135   1.178   9.756 -0.4270 -0.2184 -0.0501
  374TMC3     C 5597   2.252   0.790   9.816 -0.4765  0.1042 -0.3072
  374TMC3     O 5598   2.371   0.776   9.845 -0.0626 -0.4471 -0.1923
  374TMC3     H 5599   2.347   0.973   9.935  2.5260  1.5180 -1.1706
  374TMC3    H1 5600   2.043   0.871   9.643 -1.9440  0.7964  1.9459
  374TMC3    H2 5601   2.105   1.281   9.738 -3.2631 -0.8556  1.0207
  374TMC3    C7 5602   1.965   1.115   9.586 -0.5241 -0.5432 -0.0758
  374TMC3    C8 5603   2.296   1.252   9.916  0.2905 -0.3940  0.2438
  374TMC3    O1 5604   1.877   1.040   9.546  0.2842  0.0748  0.5953
  374TMC3    O2 5605   2.254   1.363   9.882 -0.1904 -0.1105 -0.8630
  375MPD2     C 5606   1.991   1.528  17.016 -0.1398 -0.3676 -0.1191
  375MPD2    C1 5607   2.031   1.601  16.906  0.2456  0.0909  0.1994
  375MPD2    C2 5608   2.103   1.540  16.805 -0.4843 -0.2455  0.5926
  375MPD2    C3 5609   2.116   1.400  16.810 -0.5902 -0.4252  0.0113
  375MPD2    C4 5610   2.078   1.332  16.921  0.3944  0.3620 -0.8376
  375MPD2    C5 5611   2.022   1.396  17.022  0.7926 -0.1068  0.7461
  375MPD2     H 5612   2.134   1.603  16.723  0.4814 -0.2409  0.9545
  375MPD2    H1 5613   2.082   1.225  16.935 -0.1872  0.6494  1.4410
  375MPD2    H2 5614   1.942   1.562  17.106  0.3624  1.2961 -0.4728
  375MPD2    H3 5615   1.987   1.350  17.113  2.8157 -0.8969  1.1220
  375MPD2     N 5616   2.163   1.321  16.703  0.6044 -0.1152  0.6843
  375MPD2    H5 5617   2.162   1.220  16.718  0.6587 -0.4548 -1.6127
  375MPD2    N1 5618   2.010   1.738  16.897 -0.2737  0.1749 -0.3161
  375MPD2    H7 5619   2.031   1.777  16.806  0.0154  1.0807  0.1372
  376TMC3    C1 5620   2.239   1.259  16.493 -0.1117  0.1475  0.3879
  376TMC3    C2 5621   2.358   1.194  16.523  0.1338 -0.2153  0.6028
  376TMC3    C3 5622   2.428   1.127  16.420 -0.0020  0.5325  0.0969
  376TMC3    C4 5623   2.194   1.269  16.367 -0.6548  0.5428  0.1264
  376TMC3    C5 5624   2.259   1.207  16.265  0.2696 -0.0169  0.5755
  376TMC3    C6 5625   2.376   1.132  16.288 -0.2445 -0.2598  0.2806
  376TMC3     C 5626   2.204   1.366  16.580 -0.3648  0.1400  0.7469
  376TMC3     O 5627   2.221   1.476  16.534  0.2531 -0.6440  0.1591
  376TMC3     H 5628   2.400   1.208  16.622  0.0387 -1.8073  0.8652
  376TMC3    H1 5629   2.109   1.332  16.342  0.2217  1.7279  0.1043
  376TMC3    H2 5630   2.432   1.097  16.202  0.5235  0.9645  0.2755
  376TMC3    C7 5631   2.250   1.263  16.127  0.1863 -0.5700 -0.2083
  376TMC3    C8 5632   2.574   1.157  16.425  0.4188  0.3196  0.0839
  376TMC3    O1 5633   2.192   1.368  16.111 -0.0103 -0.1641 -0.4467
  376TMC3    O2 5634   2.626   1.175  16.315 -0.4507  0.9360 -0.7102
  377MPD2     C 5635   0.102   1.520  12.175 -0.3743  0.2554 -0.4413
  377MPD2    C1 5636   0.162   1.493  12.299  0.4162  0.3018  0.1203
  377MPD2    C2 5637   0.103   1.559  12.414  0.7963  0.2924 -0.1766
  377MPD2    C3 5638   4.714   1.630  12.405 -0.7470 -0.0480  0.5975
  377MPD2    C4 5639   4.665   1.652  12.279  0.6044  0.6521  0.3160
  377MPD2    C5 5640   4.719   1.597  12.169 -0.4743 -0.0057  0.1040
  377MPD2     H 5641   0.145   1.536  12.511  3.0136  0.0851 -1.1705
  377MPD2    H1 5642   4.573   1.707  12.261  0.6320  0.2712 -0.9594
  377MPD2    H2 5643   0.135   1.468  12.085 -0.5212  1.1506 -1.0072
  377MPD2    H3 5644   4.692   1.624  12.067  2.9688  0.2415 -0.7341
  377MPD2     N 5645   4.635   1.675  12.511  0.9970 -0.5108 -0.4298
  377MPD2    H5 5646   4.543   1.690  12.469  1.8613 -0.9444 -2.4888
  377MPD2    N1 5647   0.274   1.412  12.310  0.3566 -0.1311  0.4514
  377MPD2    H7 5648   0.308   1.362  12.229 -0.7572  0.6769 -0.5258
  378TMC3    C1 5649   0.492   1.057  12.310  0.1685  0.3598 -0.4620
  378TMC3    C2 5650   0.405   1.163  12.325 -0.7033  0.2969  0.2798
  378TMC3    C3 5651   0.441   1.271  12.396  0.5874  0.4065  0.1748
  378TMC3    C4 5652   0.620   1.066  12.370  0.3952  0.5324 -0.4805
  378TMC3    C5 5653   0.647   1.174  12.453  0.8256 -0.2791  0.6399
  378TMC3    C6 5654   0.551   1.269  12.479 -0.0265 -0.6025  0.5083
  378TMC3     C 5655   0.488   1.023  12.169  1.0247 -0.6723  0.2346
  378TMC3     O 5656   0.400   0.946  12.133  0.3630  0.1496  0.1268
  378TMC3     H 5657   0.324   1.166  12.254 -0.3802  0.5138 -0.0762
  378TMC3    H1 5658   0.696   0.990  12.357  0.5324  1.1174 -3.0298
  378TMC3    H2 5659   0.573   1.361  12.531 -2.6047 -0.2647  0.9761
  378TMC3    C7 5660   0.772   1.187  12.525 -0.2012  0.5317  0.2959
  378TMC3    C8 5661   0.348   1.381  12.417 -0.3362  0.1163 -0.7295
  378TMC3    O1 5662   0.748   1.232  12.637  0.6141  0.4589 -0.0379
  378TMC3    O2 5663   0.340   1.420  12.532 -0.3053 -0.1083  0.1384
  379MPD2     C 5664   0.883   4.183  16.843 -0.0691  0.4724 -0.0952
  379MPD2    C1 5665   0.933   4.120  16.727  0.0904 -0.3474  0.0125
  379MPD2    C2 5666   1.035   4.031  16.739  0.5698 -0.3942  0.1609
  379MPD2    C3 5667   1.084   3.992  16.868 -0.2515  0.7772  0.1969
  379MPD2    C4 5668   1.027   4.049  16.978 -0.3468  1.3341  0.0317
  379MPD2    C5 5669   0.934   4.152  16.969 -0.0620  0.7505 -0.2371
  379MPD2     H 5670   1.066   3.981  16.648 -0.6279 -1.1975  0.1939
  379MPD2    H1 5671   1.044   4.006  17.076  0.7405  0.6397 -0.4709
  379MPD2    H2 5672   0.807   4.260  16.846  0.9321  1.4879 -0.5765
  379MPD2    H3 5673   0.884   4.188  17.058 -0.0563 -0.7983  0.3912
  379MPD2     N 5674   1.173   3.888  16.883  0.2218 -0.3087  0.7354
  379MPD2    H5 5675   1.208   3.872  16.977 -1.4017 -1.1990  1.1822
  379MPD2    N1 5676   0.907   4.165  16.594  0.4487  1.0883 -0.5932
  379MPD2    H7 5677   0.966   4.121  16.525 -0.2448 -1.0306  0.1509
  380TMC3    C1 5678   0.805   4.284  16.419  0.1114  0.6226  0.2683
  380TMC3    C2 5679   0.896   4.237  16.331  0.4354  0.6308  0.3098
  380TMC3    C3 5680   0.877   4.249  16.200  0.2194  0.4796  0.3696
  380TMC3    C4 5681   0.683   4.337  16.369 -0.0610 -0.0739 -0.7697
  380TMC3    C5 5682   0.664   4.332  16.233 -0.0076 -0.8167  0.1203
  380TMC3    C6 5683   0.760   4.294  16.148  0.1090  0.1141  0.0798
  380TMC3     C 5684   0.807   4.254  16.561  1.2024 -0.2234  0.1634
  380TMC3     O 5685   0.724   4.301  16.635  0.5052  0.3415  0.6018
  380TMC3     H 5686   0.998   4.214  16.358 -0.2660 -0.6331  1.8594
  380TMC3    H1 5687   0.609   4.366  16.443  1.6908  0.7554  0.6650
  380TMC3    H2 5688   0.739   4.305  16.042 -5.7321 -0.3028  1.1749
  380TMC3    C7 5689   0.528   4.371  16.188 -0.3193  0.8318 -0.0687
  380TMC3    C8 5690   0.980   4.219  16.094  0.2603  0.1026 -0.0868
  380TMC3    O1 5691   0.460   4.424  16.278 -0.0041  0.0615 -0.5606
  380TMC3    O2 5692   0.944   4.215  15.979  0.1741  0.1481 -0.4729
  381TMC3    C1 5693   0.388   0.665  16.218  0.3758  0.1428  0.1410
  381TMC3    C2 5694   0.502   0.623  16.289  0.8261 -0.1557  0.4565
  381TMC3    C3 5695   0.509   0.668  16.418 -0.1782  0.1181  1.0475
  381TMC3    C4 5696   0.283   0.731  16.284  0.0742  0.3144 -0.7269
  381TMC3    C5 5697   0.291   0.751  16.416  0.2860 -0.4867 -0.2215
  381TMC3    C6 5698   0.403   0.721  16.485  1.2027 -1.0781 -0.0828
  381TMC3     C 5699   0.377   0.649  16.073  0.5589  0.0274  0.8811
  381TMC3     O 5700   0.284   0.705  16.014  0.1301  0.0587  1.0712
  381TMC3     H 5701   0.589   0.586  16.237  0.3738 -1.2054  0.4380
  381TMC3    H1 5702   0.186   0.734  16.236  0.2385 -2.0724 -1.2096
  381TMC3    H2 5703   0.410   0.730  16.593  0.0148  0.7768 -0.1600
  381TMC3    C7 5704   0.173   0.814  16.476  0.2705  0.0362  0.2906
  381TMC3    C8 5705   0.641   0.661  16.482  0.0655  0.5454 -0.3503
  381TMC3    O1 5706   0.068   0.813  16.424  0.1902  0.1332 -0.5632
  381TMC3    O2 5707   0.719   0.586  16.426  1.0039  0.2116  0.6221
  382MPD2     C 5708   0.002   2.848  17.301 -0.1658  0.0509 -0.4605
  382MPD2    C1 5709   0.028   2.822  17.434 -0.7296 -0.2463  0.3214
  382MPD2    C2 5710   0.027   2.695  17.487  0.4532  0.1626  0.4325
  382MPD2    C3 5711   0.010   2.589  17.395 -0.2221  0.3197  0.5449
  382MPD2    C4 5712   4.725   2.617  17.263  0.0095  0.3156 -0.0235
  382MPD2    C5 5713   4.707   2.743  17.214  0.2141 -0.4262 -0.0920
  382MPD2     H 5714   0.038   2.673  17.593 -1.1713 -3.3677 -0.1602
  382MPD2    H1 5715   4.708   2.531  17.198  0.5505  2.3842 -2.8811
  382MPD2    H2 5716   4.717   2.950  17.267 -2.1717  0.1004  0.3111
  382MPD2    H3 5717   4.687   2.758  17.109  2.9631 -0.4229 -0.6286
  382MPD2     N 5718   4.718   2.449  17.425  0.1173 -0.5743  0.4545
  382MPD2    H5 5719   4.694   2.383  17.352  1.3366  0.8762 -1.2542
  382MPD2    N1 5720   0.042   2.927  17.528  0.0997  0.0229 -0.3645
  382MPD2    H7 5721   0.047   2.890  17.622 -1.6117  0.9537  0.0840
  383TMC3    C1 5722   4.703   2.265  17.560  0.0605 -0.3448 -0.0948
  383TMC3    C2 5723   4.594   2.228  17.488 -0.4909 -0.2341 -0.2630
  383TMC3    C3 5724   4.555   2.098  17.502  0.8131  0.0214 -0.2088
  383TMC3    C4 5725   0.023   2.193  17.668  0.6010 -0.1651  0.0871
  383TMC3    C5 5726   4.695   2.061  17.682  0.5812  0.0978  0.0876
  383TMC3    C6 5727   4.605   2.008  17.597  0.5844 -0.4346  0.3844
  383TMC3     C 5728   0.024   2.399  17.549  0.7185  0.3332  0.2228
  383TMC3     O 5729   0.077   2.452  17.643  0.9808  0.5099 -0.3571
  383TMC3     H 5730   4.551   2.282  17.405 -4.1115 -0.2410  1.6352
  383TMC3    H1 5731   0.100   2.230   0.033  0.6154  1.5210 -0.8500
  383TMC3    H2 5732   4.577   1.903  17.598  1.4731 -0.6283  5.7281
  383TMC3    C7 5733   0.024   1.972   0.083 -0.5877 -0.0500 -0.7460
  383TMC3    C8 5734   4.419   2.072  17.454  0.1074  0.1320 -0.4772
  383TMC3    O1 5735   4.675   1.885   0.123 -0.6169 -0.2346 -0.3966
  383TMC3    O2 5736   4.365   2.157  17.383  0.7404  0.2874 -0.0001
  384MPD2     C 5737   1.928   4.004  11.983  0.1569 -1.1103 -0.7499
  384MPD2    C1 5738   1.896   3.920  12.088 -0.3686  0.0071  0.3823
  384MPD2    C2 5739   1.946   3.795  12.089  0.8195  0.3331 -0.0842
  384MPD2    C3 5740   2.014   3.737  11.979 -0.0520 -0.2875  0.3594
  384MPD2    C4 5741   2.045   3.819  11.882 -0.6185 -0.3159 -0.2465
  384MPD2    C5 5742   2.006   3.954  11.888 -0.4620 -0.2430  0.1003
  384MPD2     H 5743   1.927   3.739  12.180 -0.6492  2.3762  0.8461
  384MPD2    H1 5744   2.108   3.796  11.796  0.5838 -1.1711  0.8670
  384MPD2    H2 5745   1.894   4.107  11.984 -1.9523 -1.8429  1.6360
  384MPD2    H3 5746   2.046   4.023  11.813 -1.1380 -0.1595 -0.1883
  384MPD2     N 5747   2.064   3.612  11.995  0.1658  0.0672  0.5426
  384MPD2    H5 5748   2.056   3.565  12.085 -0.0441 -1.6397 -0.3634
  384MPD2    N1 5749   1.813   3.962  12.193  0.0553  0.0554 -0.0727
  384MPD2    H7 5750   1.825   3.904  12.275 -1.4623 -1.4560 -0.9257
  385TMC3    C1 5751   2.114   3.392  11.940  0.7082 -1.0007 -0.9780
  385TMC3    C2 5752   2.041   3.305  11.862 -0.1792  0.9373  0.3247
  385TMC3    C3 5753   1.951   3.221  11.922 -0.2410 -0.2776 -0.2459
  385TMC3    C4 5754   2.097   3.390  12.078  0.4837  0.2100  0.2660
  385TMC3    C5 5755   1.996   3.315  12.133 -0.2703 -0.0710 -0.1227
  385TMC3    C6 5756   1.928   3.220  12.059 -0.2613  0.0059  0.4292
  385TMC3     C 5757   2.103   3.527  11.888  0.7924  0.4133  0.6063
  385TMC3     O 5758   2.096   3.553  11.769 -0.3568 -0.0668 -0.5094
  385TMC3     H 5759   2.062   3.308  11.756 -1.0336  0.1959  0.1365
  385TMC3    H1 5760   2.154   3.450  12.147 -0.3486  0.7752  0.4567
  385TMC3    H2 5761   1.857   3.155  12.108 -0.1908 -1.3516 -1.2859
  385TMC3    C7 5762   1.934   3.390  12.240  0.1922  0.2223  0.3800
  385TMC3    C8 5763   1.914   3.099  11.850  0.3393 -0.6517  0.0652
  385TMC3    O1 5764   1.972   3.506  12.245  0.1195  0.0632  0.0234
  385TMC3    O2 5765   1.889   3.004  11.921  0.2653 -0.4683  0.5930
  386TMC3    C1 5766   2.658   1.165  11.669  0.5049 -0.2905 -0.7155
  386TMC3    C2 5767   2.621   1.240  11.561  0.1070 -0.2906 -0.2680
  386TMC3    C3 5768   2.496   1.309  11.551  0.1828  0.1040 -0.2716
  386TMC3    C4 5769   2.579   1.158  11.774 -0.2430  0.2971  0.1770
  386TMC3    C5 5770   2.464   1.241  11.774 -0.3687  0.1031  0.5199
  386TMC3    C6 5771   2.420   1.310  11.664  0.3316 -0.2292 -0.1162
  386TMC3     C 5772   2.791   1.119  11.686 -0.1858  0.1304  0.3806
  386TMC3     O 5773   2.873   1.185  11.629  0.3925 -0.5394 -0.3745
  386TMC3     H 5774   2.698   1.238  11.485 -0.1769  0.9192 -0.5919
  386TMC3    H1 5775   2.613   1.117  11.869  0.4542 -2.4020 -1.2455
  386TMC3    H2 5776   2.322   1.355  11.654  0.5148  0.0326 -0.7491
  386TMC3    C7 5777   2.376   1.228  11.887 -0.0935  0.8901 -1.5045
  386TMC3    C8 5778   2.442   1.303  11.421 -0.1815  0.3461 -0.2756
  386TMC3    O1 5779   2.299   1.319  11.912  0.4919  0.5186  0.6095
  386TMC3    O2 5780   2.339   1.372  11.408 -0.1683 -0.2404 -0.4086
  387MPD2     C 5781   4.297   1.210   9.793 -0.1345 -0.1830 -0.2569
  387MPD2    C1 5782   4.359   1.155   9.905  0.2240 -0.1111  0.5304
  387MPD2    C2 5783   4.331   1.025   9.946 -0.5233  0.3502 -0.8973
  387MPD2    C3 5784   4.250   0.940   9.872 -0.0478  0.1367 -0.0812
  387MPD2    C4 5785   4.183   1.001   9.768  0.1194  0.0526  0.3888
  387MPD2    C5 5786   4.204   1.130   9.728 -0.6816  0.8986 -0.7931
  387MPD2     H 5787   4.376   0.984  10.036 -0.2037  0.5061 -0.9849
  387MPD2    H1 5788   4.124   0.950   9.693  1.0793  1.5474 -1.3745
  387MPD2    H2 5789   4.313   1.305   9.743 -1.5399  0.7734  1.1418
  387MPD2    H3 5790   4.153   1.168   9.641  0.3979  0.2310 -1.7216
  387MPD2     N 5791   4.254   0.803   9.902 -0.0752  0.3511 -0.3052
  387MPD2    H5 5792   4.330   0.774   9.963 -0.4405 -1.8445 -0.8803
  387MPD2    N1 5793   4.459   1.224   9.971  0.1211  0.2766  0.6006
  387MPD2    H7 5794   4.495   1.170  10.049  1.2061  1.2186  0.7508
  388TMC3    C1 5795   4.639   1.351  10.003 -0.1181 -0.2340 -0.5175
  388TMC3    C2 5796   4.658   1.459  10.085  0.1964  0.0602  0.5976
  388TMC3    C3 5797   0.028   1.446  10.182  0.3228  0.0642 -0.5851
  388TMC3    C4 5798   4.691   1.229  10.036  0.2552 -0.4583  0.6497
  388TMC3    C5 5799   0.058   1.222  10.140 -0.8491 -0.7575  0.3220
  388TMC3    C6 5800   0.098   1.333  10.208  0.3915 -0.1640  0.2133
  388TMC3     C 5801   4.514   1.343   9.937  0.3504  0.0687 -0.1421
  388TMC3     O 5802   4.478   1.430   9.859 -0.4054  0.1466 -0.4150
  388TMC3     H 5803   4.622   1.554  10.047 -0.4395 -0.1483  0.6780
  388TMC3    H1 5804   4.693   1.152   9.960  0.0409 -1.1554  1.3500
  388TMC3    H2 5805   0.178   1.323  10.280  2.4039 -2.1471 -2.2985
  388TMC3    C7 5806   0.151   1.114  10.143  0.0257 -1.0862 -0.7009
  388TMC3    C8 5807   0.092   1.559  10.237 -0.7813 -0.5937  0.0176
  388TMC3    O1 5808   0.263   1.119  10.190  0.1536  1.0750 -0.2956
  388TMC3    O2 5809   0.203   1.543  10.286  0.1327  0.4156  0.0217
  389MPD2     C 5810   3.984   4.639  11.520 -0.0159  0.3175  0.7033
  389MPD2    C1 5811   3.919   4.537  11.457 -0.6966 -0.4907 -0.0708
  389MPD2    C2 5812   3.866   4.438  11.535  0.3942 -0.1390 -0.4290
  389MPD2    C3 5813   3.878   4.447  11.676  0.0118 -0.3569  0.3387
  389MPD2    C4 5814   3.946   4.554  11.731 -0.5852 -0.1285  0.0476
  389MPD2    C5 5815   3.988   4.651  11.651 -1.0061  0.0425  0.1488
  389MPD2     H 5816   3.811   4.355  11.492  2.0466 -0.6930 -1.4706
  389MPD2    H1 5817   3.956   4.561  11.838 -0.1614 -2.5330  0.1883
  389MPD2    H2 5818   4.043   4.715  11.470 -0.1381 -0.7227 -1.0409
  389MPD2    H3 5819   4.039   0.014  11.690 -2.2464  1.3946 -1.2908
  389MPD2     N 5820   3.806   4.368  11.768  0.3077  0.2584 -0.0767
  389MPD2    H5 5821   3.813   4.395  11.866 -1.1682  0.1714  0.0634
  389MPD2    N1 5822   3.935   4.523  11.316 -0.4032  0.5023  0.1674
  389MPD2    H7 5823   3.968   4.606  11.268 -0.3569 -0.4776 -1.4955
  390TMC3    C1 5824   3.665   4.199  11.853  0.2211 -0.1257 -0.2539
  390TMC3    C2 5825   3.635   4.068  11.858 -0.5101  0.3383  0.9102
  390TMC3    C3 5826   3.533   4.037  11.937  0.4898  0.2570  0.0659
  390TMC3    C4 5827   3.608   4.300  11.933 -0.1315  0.1779 -0.2790
  390TMC3    C5 5828   3.510   4.268  12.015  0.2260  0.1439  0.3180
  390TMC3    C6 5829   3.470   4.134  12.013 -0.1612  0.0607  0.2697
  390TMC3     C 5830   3.742   4.245  11.738 -0.7752  0.6698  0.2257
  390TMC3     O 5831   3.739   4.173  11.639 -0.3911  0.2645 -0.2656
  390TMC3     H 5832   3.702   4.008  11.798  0.1815  3.0533 -0.9961
  390TMC3    H1 5833   3.638   4.402  11.915  0.4220  0.1452  0.4484
  390TMC3    H2 5834   3.370   4.106  12.046 -0.8401  0.6613 -1.2986
  390TMC3    C7 5835   3.422   4.365  12.071  0.6046  0.5101  1.0354
  390TMC3    C8 5836   3.478   3.901  11.937 -0.6513 -0.1520  0.3898
  390TMC3    O1 5837   3.426   4.473  12.013  0.1248 -0.4931 -0.3959
  390TMC3    O2 5838   3.498   3.838  11.837  0.7448  0.2831 -0.3239
  391MPD2     C 5839   2.915   1.073  11.325  0.5410 -0.5426 -0.3294
  391MPD2    C1 5840   2.995   1.171  11.286 -0.0351 -0.0211  0.0215
  391MPD2    C2 5841   3.009   1.191  11.151 -0.4210  0.0930  0.2294
  391MPD2    C3 5842   2.942   1.112  11.055  0.4982  0.2044  0.1902
  391MPD2    C4 5843   2.847   1.018  11.100 -0.3920 -0.0946 -0.0873
  391MPD2    C5 5844   2.836   1.002  11.238  0.2347 -0.0483  0.5368
  391MPD2     H 5845   3.080   1.264  11.114 -2.2369  1.0787 -1.3241
  391MPD2    H1 5846   2.788   0.950  11.039 -0.4488  0.5261 -0.7275
  391MPD2    H2 5847   2.914   1.050  11.431  0.4028 -0.8761 -0.4054
  391MPD2    H3 5848   2.766   0.925  11.270  1.1659 -2.0001 -2.1611
  391MPD2     N 5849   2.969   1.136  10.915  0.4675  0.0787  0.2810
  391MPD2    H5 5850   3.049   1.198  10.904  1.8826 -1.7950  0.0141
  391MPD2    N1 5851   3.045   1.250  11.389 -0.0052 -1.0505  1.0473
  391MPD2    H7 5852   3.012   1.237  11.484 -0.3679  0.6881  1.1686
  392TMC3    C1 5853   2.948   1.113  10.681 -0.1482  0.2734  0.4658
  392TMC3    C2 5854   2.867   1.092  10.573 -0.1243 -0.2655 -0.1305
  392TMC3    C3 5855   2.902   1.142  10.451  0.4520 -0.1862 -0.3065
  392TMC3    C4 5856   3.070   1.175  10.666 -0.3661  0.1597  0.0039
  392TMC3    C5 5857   3.097   1.225  10.543 -0.6442  0.0602 -0.8194
  392TMC3    C6 5858   3.014   1.209  10.433  0.3727 -0.2339  0.0497
  392TMC3     C 5859   2.891   1.086  10.811  0.2097 -0.0422 -0.7912
  392TMC3     O 5860   2.784   1.029  10.814 -0.2172  0.0328 -0.3463
  392TMC3     H 5861   2.768   1.048  10.573 -1.4491  2.6732 -0.5948
  392TMC3    H1 5862   3.136   1.195  10.750 -0.4313 -0.5378  0.2211
  392TMC3    H2 5863   3.029   1.248  10.333  3.0515 -0.5954  0.3148
  392TMC3    C7 5864   3.207   1.311  10.528 -1.0784  0.3650  0.3818
  392TMC3    C8 5865   2.784   1.146  10.360 -0.1510  0.1824 -0.2328
  392TMC3    O1 5866   3.298   1.300  10.612  0.4591 -0.1147  0.3368
  392TMC3    O2 5867   2.718   1.044  10.341  0.5029 -0.1412  0.1140
  393TMC3    C1 5868   2.294   3.909  10.455 -0.5826  0.6506 -0.3175
  393TMC3    C2 5869   2.182   3.893  10.532 -1.1396 -0.1993 -0.2010
  393TMC3    C3 5870   2.194   3.852  10.665  0.0711 -0.5223  0.2051
  393TMC3    C4 5871   2.418   3.868  10.501 -0.0165 -0.3844 -0.5872
  393TMC3    C5 5872   2.424   3.825  10.629  0.6083  0.3553 -0.2651
  393TMC3    C6 5873   2.317   3.814  10.708  0.8366 -0.5267  0.2577
  393TMC3     C 5874   2.284   3.984  10.333  0.4885 -0.3032 -0.6753
  393TMC3     O 5875   2.178   3.982  10.277  0.1795 -0.3459  0.3783
  393TMC3     H 5876   2.090   3.940  10.498  0.4434  1.2578 -2.4821
  393TMC3    H1 5877   2.502   3.879  10.433 -1.5870 -2.2932 -2.8435
  393TMC3    H2 5878   2.334   3.800  10.814 -0.8925 -1.1795  0.4420
  393TMC3    C7 5879   2.562   3.809  10.694  0.3996 -0.4515  0.1820
  393TMC3    C8 5880   2.076   3.812  10.736  0.0690  0.5927 -0.4009
  393TMC3    O1 5881   2.581   3.836  10.811  0.1349  0.4296 -0.2253
  393TMC3    O2 5882   1.981   3.812  10.658 -0.0212 -0.2556  0.3704
  394TMC3    C1 5883   3.900   4.449  11.098  0.2333 -0.6994  0.2603
  394TMC3    C2 5884   3.809   4.383  11.016  0.0850  0.2226 -0.1912
  394TMC3    C3 5885   3.829   4.374  10.881  0.2426  0.1845  0.0288
  394TMC3    C4 5886   4.005   4.524  11.046 -0.1560  0.1812 -0.3315
  394TMC3    C5 5887   4.012   4.522  10.916 -0.2492  0.8815  0.3303
  394TMC3    C6 5888   3.928   4.457  10.831  0.0297 -0.0391 -0.1691
  394TMC3     C 5889   3.890   4.420  11.240 -0.0961 -0.0813 -0.4834
  394TMC3     O 5890   3.837   4.316  11.268 -0.1968 -0.0225  0.0798
  394TMC3     H 5891   3.748   4.306  11.062  0.9063  0.4174  1.2453
  394TMC3    H1 5892   4.073   4.585  11.104 -0.1351 -0.5356  0.4066
  394TMC3    H2 5893   3.954   4.444  10.726 -0.2276  1.6809 -0.4463
  394TMC3    C7 5894   4.142   4.565  10.861 -0.2359  0.3198 -0.2532
  394TMC3    C8 5895   3.777   4.266  10.802 -0.3848  0.5914  0.1970
  394TMC3    O1 5896   4.136   4.603  10.745 -0.3760 -0.1005  0.3597
  394TMC3    O2 5897   3.803   4.158  10.849  0.1576  0.5004 -0.1444
  395TMC3    C1 5898   3.603   1.562  14.654  0.2753 -0.0489 -0.8641
  395TMC3    C2 5899   3.565   1.501  14.539  0.2031  0.5098 -0.7201
  395TMC3    C3 5900   3.586   1.566  14.421 -0.4916 -0.2208  0.1533
  395TMC3    C4 5901   3.650   1.695  14.662  0.1369  0.1522 -0.0626
  395TMC3    C5 5902   3.677   1.753  14.545  0.6279 -0.1055  0.3572
  395TMC3    C6 5903   3.655   1.688  14.424  0.7912 -0.0919  0.3088
  395TMC3     C 5904   3.543   1.504  14.774 -0.8669 -0.7419 -0.8602
  395TMC3     O 5905   3.515   1.581  14.862  0.3398  0.2382  0.3839
  395TMC3     H 5906   3.506   1.410  14.537  0.5892  0.2692 -1.1711
  395TMC3    H1 5907   3.672   1.746  14.755 -0.1753  0.7417 -0.3115
  395TMC3    H2 5908   3.673   1.749  14.337 -0.8712 -0.6827 -0.4510
  395TMC3    C7 5909   3.689   1.897  14.552  0.3824  0.3999  0.7297
  395TMC3    C8 5910   3.532   1.519  14.294 -0.1805 -0.7916  0.2645
  395TMC3    O1 5911   3.719   1.948  14.659  0.2717  0.2805 -0.1153
  395TMC3    O2 5912   3.518   1.592  14.193  0.3549 -0.9160  0.1197
  396MPD2     C 5913   3.525   2.394  16.778  0.3770  0.8134 -0.8142
  396MPD2    C1 5914   3.504   2.475  16.887 -0.2774  0.5186 -0.6191
  396MPD2    C2 5915   3.536   2.612  16.880 -0.3249  0.3458  0.8565
  396MPD2    C3 5916   3.584   2.666  16.766  0.3007 -0.0057 -0.1943
  396MPD2    C4 5917   3.614   2.587  16.662 -0.6162 -0.3424  0.0412
  396MPD2    C5 5918   3.579   2.452  16.667  0.2033  0.1326  0.5785
  396MPD2     H 5919   3.532   2.679  16.966  1.7323  0.0277  1.1917
  396MPD2    H1 5920   3.662   2.623  16.572 -0.0528  0.1567  0.5453
  396MPD2    H2 5921   3.507   2.288  16.780  0.7457  0.7664  0.0756
  396MPD2    H3 5922   3.604   2.393  16.580 -1.0575  0.8990 -0.2958
  396MPD2     N 5923   3.610   2.803  16.766  0.5679  0.1518 -0.0792
  396MPD2    H5 5924   3.583   2.861  16.846  1.8796 -1.2047  1.3500
  396MPD2    N1 5925   3.449   2.416  16.999  0.0516 -0.5340 -0.1616
  396MPD2    H7 5926   3.419   2.320  16.985 -2.0281  0.0025  0.6515
  397TMC3    C1 5927   3.380   2.366  17.216  1.0988  0.5300  0.0095
  397TMC3    C2 5928   3.408   2.231  17.192 -0.3503 -0.8806 -0.2100
  397TMC3    C3 5929   3.310   2.136  17.185 -0.1448 -0.7402 -0.9434
  397TMC3    C4 5930   3.251   2.390  17.268 -0.0338  0.1486  1.0286
  397TMC3    C5 5931   3.158   2.289  17.285  0.7831  0.5800  0.1962
  397TMC3    C6 5932   3.186   2.163  17.233  0.1685 -0.3066  0.1437
  397TMC3     C 5933   3.416   2.467  17.122 -0.2887 -0.0517 -0.0037
  397TMC3     O 5934   3.422   2.584  17.164 -0.1910  0.8393  0.0241
  397TMC3     H 5935   3.503   2.206  17.146  0.5005 -1.1291  1.6681
  397TMC3    H1 5936   3.227   2.495  17.273 -3.3600 -0.6601  2.8800
  397TMC3    H2 5937   3.106   2.091  17.221  1.6876 -1.8484 -0.6203
  397TMC3    C7 5938   3.020   2.334  17.288  0.2478  0.6074 -0.4223
  397TMC3    C8 5939   3.303   2.093  17.050 -0.4715 -0.0144  0.3120
  397TMC3    O1 5940   2.999   2.442  17.233  0.1012 -0.0275 -0.2435
  397TMC3    O2 5941   3.371   2.151  16.968  0.2796  0.4314 -0.2497
  398MPD2     C 5942   1.059   3.422   0.575 -0.6586 -1.0992  0.7252
  398MPD2    C1 5943   0.963   3.503   0.513 -0.1026 -0.3628 -0.1996
  398MPD2    C2 5944   1.005   3.591   0.418  0.1497  0.1118  0.2447
  398MPD2    C3 5945   1.136   3.599   0.371 -0.7096  0.9727 -0.4159
  398MPD2    C4 5946   1.228   3.513   0.428  0.3757 -0.0145  0.6337
  398MPD2    C5 5947   1.187   3.430   0.530  0.6161  0.2895 -0.4561
  398MPD2     H 5948   0.938   3.666   0.377 -0.1599  0.2757  1.0630
  398MPD2    H1 5949   1.328   3.499   0.387  0.0588  0.4086 -0.2993
  398MPD2    H2 5950   1.042   3.363   0.664 -0.7613  0.5151  1.7858
  398MPD2    H3 5951   1.266   3.382   0.586 -0.9274 -2.4193 -0.5938
  398MPD2     N 5952   1.171   3.693   0.263 -1.0303 -0.1807  0.2868
  398MPD2    H5 5953   1.104   3.756   0.220 -1.3610 -0.2742  0.6669
  398MPD2    N1 5954   0.834   3.518   0.578 -0.1242 -0.1876  0.6311
  398MPD2    H7 5955   0.781   3.603   0.562  2.2092  1.8563  3.6551
  399TMC3    C1 5956   0.666   3.505   0.730  0.1626  0.1031  0.4773
  399TMC3    C2 5957   0.686   3.633   0.782 -0.0693  1.1401 -0.5077
  399TMC3    C3 5958   0.636   3.659   0.908 -0.2002  0.2382 -0.3267
  399TMC3    C4 5959   0.592   3.411   0.797  0.1415 -0.3275  0.6827
  399TMC3    C5 5960   0.555   3.437   0.925 -1.4631  0.9646  0.2381
  399TMC3    C6 5961   0.569   3.563   0.978 -0.4283 -0.3945 -0.1136
  399TMC3     C 5962   0.776   3.437   0.671  0.4269  0.2876  0.7757
  399TMC3     O 5963   0.816   3.323   0.706 -0.0849 -0.0867  0.7744
  399TMC3     H 5964   0.745   3.711   0.735  0.1744 -0.1009 -2.2934
  399TMC3    H1 5965   0.577   3.312   0.755  1.2962 -0.4941  0.6520
  399TMC3    H2 5966   0.531   3.582   1.078  1.1791  0.1978  0.3820
  399TMC3    C7 5967   0.564   3.327   1.026  0.2600 -0.3199 -0.6472
  399TMC3    C8 5968   0.666   3.788   0.973  0.3850 -0.4116 -0.0835
  399TMC3    O1 5969   0.553   3.363   1.139  0.3181 -0.2476  0.3148
  399TMC3    O2 5970   0.759   3.855   0.926  0.9782  0.6469  0.0715
  400TMC3    C1 5971   4.388   1.819  17.083  1.0514  0.2416 -0.1233
  400TMC3    C2 5972   4.282   1.771  17.011 -0.0793 -0.3207 -0.0954
  400TMC3    C3 5973   4.224   1.846  16.913 -0.5927  0.5723 -0.9043
  400TMC3    C4 5974   4.430   1.942  17.053 -0.6118  0.6113 -0.5583
  400TMC3    C5 5975   4.367   2.018  16.956  0.2540  0.2593 -0.0377
  400TMC3    C6 5976   4.267   1.971  16.880  0.1291  0.0377 -0.3014
  400TMC3     C 5977   4.460   1.728  17.171  0.2623  0.8083  0.8641
  400TMC3     O 5978   4.418   1.618  17.196  1.0787  0.6244 -0.1907
  400TMC3     H 5979   4.238   1.676  17.040 -1.4368  0.8741  1.7505
  400TMC3    H1 5980   4.517   1.981  17.105  1.1919 -4.1201  0.0105
  400TMC3    H2 5981   4.225   2.021  16.793 -0.3113 -0.2793 -0.2705
  400TMC3    C7 5982   4.384   2.157  16.970 -0.0562  0.1174  0.0442
  400TMC3    C8 5983   4.109   1.800  16.832  0.3495 -0.6656  0.5677
  400TMC3    O1 5984   4.461   2.197  17.056 -0.3059  0.1042  0.5228
  400TMC3    O2 5985   4.049   1.893  16.780  0.7246  0.9013  0.0891
  401MPD2     C 5986   4.421   0.556   0.680 -0.1008  0.6135  0.2710
  401MPD2    C1 5987   4.328   0.548   0.780  0.2311  0.0944  0.4971
  401MPD2    C2 5988   4.265   0.427   0.811 -0.5967 -0.5127 -0.0316
  401MPD2    C3 5989   4.290   0.312   0.742  0.0519  0.2963  0.0549
  401MPD2    C4 5990   4.389   0.317   0.638 -0.2299  0.4919 -0.1922
  401MPD2    C5 5991   4.447   0.440   0.615  0.6425  0.1393  0.2743
  401MPD2     H 5992   4.195   0.417   0.893  0.4113 -2.4351  0.5865
  401MPD2    H1 5993   4.415   0.233   0.575  0.6594 -0.4128  1.3867
  401MPD2    H2 5994   4.478   0.647   0.669  1.9855 -0.4873  1.9931
  401MPD2    H3 5995   4.538   0.439   0.555  1.0772 -1.9558  0.9671
  401MPD2     N 5996   4.209   0.197   0.768 -0.4546 -0.2717 -0.1420
  401MPD2    H5 5997   4.137   0.207   0.840 -2.5870 -0.7191 -2.2120
  401MPD2    N1 5998   4.283   0.656   0.860  0.3114  0.1501 -0.6162
  401MPD2    H7 5999   4.205   0.636   0.923 -0.1339  0.6134 -1.0183
  402TMC3    C1 6000   4.090   4.721   0.726 -0.5959  0.0739 -0.3567
  402TMC3    C2 6001   3.992   0.046   0.795 -0.3724  0.1975 -0.7450
  402TMC3    C3 6002   3.880   4.698   0.812 -0.7991 -0.1650  0.7759
  402TMC3    C4 6003   4.080   4.599   0.671 -1.0224 -0.1716  0.2058
  402TMC3    C5 6004   3.964   4.527   0.680 -0.3617  0.2668 -0.0817
  402TMC3    C6 6005   3.861   4.571   0.755  0.2737  0.1764 -0.9628
  402TMC3     C 6006   4.216   0.076   0.708  0.1004  0.2513  0.0841
  402TMC3     O 6007   4.300   0.026   0.633 -0.0446  0.6910  0.1462
  402TMC3     H 6008   4.002   0.139   0.851 -0.7112  1.0339 -2.0709
  402TMC3    H1 6009   4.158   4.556   0.609 -1.5050 -0.6739 -0.0571
  402TMC3    H2 6010   3.765   4.522   0.759  1.0358 -1.1091  1.3132
  402TMC3    C7 6011   3.967   4.396   0.621  0.6595  0.2446  0.1548
  402TMC3    C8 6012   3.769   0.021   0.881  0.6791  0.1239 -0.2029
  402TMC3    O1 6013   4.018   4.391   0.512  0.5201  0.1302 -0.4630
  402TMC3    O2 6014   3.673   4.670   0.875 -0.0874 -0.0741  0.1340
  403MPD2     C 6015   1.126   4.222  13.369 -0.8628 -0.5316  0.0302
  403MPD2    C1 6016   1.141   4.097  13.419 -0.1539 -0.0703 -0.8222
  403MPD2    C2 6017   1.205   4.075  13.539  0.7977  0.6370 -0.8311
  403MPD2    C3 6018   1.245   4.185  13.614 -1.2769  0.5632  0.4274
  403MPD2    C4 6019   1.222   4.307  13.558 -0.1010  0.5177 -0.7201
  403MPD2    C5 6020   1.174   4.322  13.431  0.3126 -0.1991  0.0069
  403MPD2     H 6021   1.219   3.978  13.584 -1.6601  1.3254  1.3567
  403MPD2    H1 6022   1.256   4.398  13.605  0.5152 -1.6074  2.8849
  403MPD2    H2 6023   1.076   4.241  13.275  0.0209 -0.3034 -0.3986
  403MPD2    H3 6024   1.170   4.420  13.386  1.9255  0.6086  1.6208
  403MPD2     N 6025   1.320   4.170  13.733 -0.3759 -0.4321 -0.4003
  403MPD2    H5 6026   1.351   4.075  13.747  1.0697  0.3884  1.9487
  403MPD2    N1 6027   1.106   3.985  13.336  0.0163  0.0617 -0.5354
  403MPD2    H7 6028   1.064   4.002  13.245  0.2903  2.9404 -0.1401
  404TMC3    C1 6029   1.038   3.771  13.272  0.3191 -0.3018 -0.7238
  404TMC3    C2 6030   1.001   3.644  13.319  0.9016  0.0318  0.0165
  404TMC3    C3 6031   0.944   3.558  13.230  0.3275  0.6241 -0.0573
  404TMC3    C4 6032   1.011   3.808  13.141  0.3264  0.6121 -0.4230
  404TMC3    C5 6033   0.971   3.711  13.056  0.3808 -0.2233  0.1296
  404TMC3    C6 6034   0.941   3.584  13.098 -0.7644 -1.1511 -0.1209
  404TMC3     C 6035   1.101   3.855  13.370 -0.3408 -0.1015 -0.2226
  404TMC3     O 6036   1.138   3.799  13.472 -0.0105 -0.1103 -0.1334
  404TMC3     H 6037   1.006   3.625  13.426 -0.9746 -0.7642 -0.0286
  404TMC3    H1 6038   1.029   3.908  13.104  1.3241  0.6208  0.1001
  404TMC3    H2 6039   0.903   3.507  13.031  0.5598 -1.0123 -1.0291
  404TMC3    C7 6040   0.989   3.742  12.916 -0.1077 -0.1157 -0.2200
  404TMC3    C8 6041   0.968   3.421  13.269  0.4824 -0.5460  0.2190
  404TMC3    O1 6042   1.021   3.854  12.884 -0.0999 -0.3912  0.3648
  404TMC3    O2 6043   1.028   3.355  13.184 -0.5066 -0.2956 -0.1523
  405MPD2     C 6044   1.325   4.450  14.849 -0.0133  0.2738 -0.2203
  405MPD2    C1 6045   1.358   4.377  14.737 -0.4656 -0.0992  0.4854
  405MPD2    C2 6046   1.303   4.420  14.617  0.5562 -0.7091  0.0695
  405MPD2    C3 6047   1.231   4.539  14.604 -0.9062  0.2612 -0.9948
  405MPD2    C4 6048   1.184   4.600  14.716 -0.2666 -0.4653 -0.6238
  405MPD2    C5 6049   1.231   4.559  14.839 -0.3210  0.6894 -0.0902
  405MPD2     H 6050   1.326   4.378  14.520  4.2216  1.4656  0.0084
  405MPD2    H1 6051   1.119   4.687  14.712 -1.1282 -1.1325 -1.2557
  405MPD2    H2 6052   1.349   4.413  14.948  0.1002 -0.8129 -0.6594
  405MPD2    H3 6053   1.184   4.590  14.932  1.7704  3.5625  0.0083
  405MPD2     N 6054   1.188   4.574  14.471 -0.3211  0.2524 -0.1482
  405MPD2    H5 6055   1.216   4.513  14.394  1.1153  2.3451 -1.2947
  405MPD2    N1 6056   1.448   4.264  14.747 -0.2067 -0.7477  0.8905
  405MPD2    H7 6057   1.493   4.232  14.833  1.1437  1.8120  1.1440
  406TMC3    C1 6058   0.866   4.672  14.174 -1.0405  0.0160 -0.6209
  406TMC3    C2 6059   0.908   4.567  14.094 -0.1297  0.2600  0.2608
  406TMC3    C3 6060   1.034   4.519  14.123 -0.3914 -0.0465  0.0571
  406TMC3    C4 6061   0.939   4.722  14.272 -0.6396 -0.0273  0.3112
  406TMC3    C5 6062   1.063   4.667  14.296 -0.5508 -1.1610 -0.4148
  406TMC3    C6 6063   1.116   4.571  14.213  0.7166  0.4122  0.4653
  406TMC3     C 6064   0.720   4.690  14.174 -0.1214 -0.2638  0.6032
  406TMC3     O 6065   0.657   4.669  14.072 -0.2081  0.3212 -0.2598
  406TMC3     H 6066   0.845   4.526  14.016  1.4302  0.2941 -1.0123
  406TMC3    H1 6067   0.903   0.077  14.335  0.9008  0.6578  0.3250
  406TMC3    H2 6068   1.219   4.539  14.226  0.0269 -2.1181 -0.3446
  406TMC3    C7 6069   1.094   4.665  14.440  0.2678 -0.1556 -0.1829
  406TMC3    C8 6070   1.067   4.386  14.072 -0.3554  0.0714  0.6484
  406TMC3    O1 6071   1.034   0.020  14.512 -0.2706  0.5366 -0.1461
  406TMC3    O2 6072   1.018   4.349  13.967  0.2471 -0.0423 -0.0286
  407MPD2     C 6073   3.842   0.618  10.087  0.4858 -0.8898 -0.5989
  407MPD2    C1 6074   3.860   0.690   9.967  0.5487  0.3387 -0.8176
  407MPD2    C2 6075   3.872   0.826   9.971 -0.0352 -0.3330 -0.2045
  407MPD2    C3 6076   3.887   0.897  10.094  0.0238  0.3844 -0.1375
  407MPD2    C4 6077   3.883   0.822  10.212 -0.0781  0.1788 -0.2217
  407MPD2    C5 6078   3.857   0.686  10.205  0.5261  0.1112  0.0681
  407MPD2     H 6079   3.890   0.881   9.879  0.3376  2.1055  1.3440
  407MPD2    H1 6080   3.889   0.871  10.309 -2.0645  1.5017 -0.7571
  407MPD2    H2 6081   3.820   0.512  10.091 -0.9308 -0.6456 -1.7603
  407MPD2    H3 6082   3.846   0.627  10.295 -0.9901 -0.0129 -0.2056
  407MPD2     N 6083   3.907   1.038  10.107  0.2566 -0.5316  0.0604
  407MPD2    H5 6084   3.944   1.086  10.188 -3.4963  1.3481  0.6751
  407MPD2    N1 6085   3.847   0.631   9.836  0.4566 -0.4718 -0.4377
  407MPD2    H7 6086   3.873   0.685   9.754 -1.6671  0.8140 -0.2749
  408TMC3    C1 6087   3.855   0.477   9.671 -0.1424 -0.8989  0.2635
  408TMC3    C2 6088   3.963   0.396   9.667  0.0060 -0.2991  0.4555
  408TMC3    C3 6089   4.061   0.417   9.571 -0.1770  0.5186 -0.1024
  408TMC3    C4 6090   3.848   0.583   9.579 -0.4395 -0.5077 -0.1812
  408TMC3    C5 6091   3.940   0.598   9.483 -1.0776  0.3837  0.1834
  408TMC3    C6 6092   4.048   0.515   9.475  0.4548 -0.2337  0.0648
  408TMC3     C 6093   3.810   0.506   9.804 -0.1696 -0.4277 -0.4382
  408TMC3     O 6094   3.793   0.417   9.882 -0.4307 -0.4891 -0.4170
  408TMC3     H 6095   3.978   0.324   9.746  1.1254  0.8242  1.2658
  408TMC3    H1 6096   3.774   0.660   9.593  2.3529  2.1099  0.2493
  408TMC3    H2 6097   4.127   0.527   9.402  0.2152  0.5547 -0.0631
  408TMC3    C7 6098   3.950   0.734   9.424 -0.4087  0.6034  0.3378
  408TMC3    C8 6099   4.168   0.327   9.567 -0.2702 -0.0166  0.1687
  408TMC3    O1 6100   3.870   0.819   9.464 -0.5528 -0.0024  0.5741
  408TMC3    O2 6101   4.139   0.217   9.620  0.2427  0.0216  0.3476
  409MPD2     C 6102   3.271   1.435  17.057 -0.0330  0.5409 -0.6127
  409MPD2    C1 6103   3.368   1.470  17.145 -0.6682  0.7614 -0.2556
  409MPD2    C2 6104   3.443   1.586  17.124  0.3052 -0.4348 -0.6853
  409MPD2    C3 6105   3.433   1.663  17.009 -0.5849 -0.4947 -0.5932
  409MPD2    C4 6106   3.332   1.620  16.917  0.1781  0.4321  0.3789
  409MPD2    C5 6107   3.257   1.507  16.943 -1.0192 -0.9470  0.0904
  409MPD2     H 6108   3.511   1.606  17.207 -1.0292 -1.0310  0.5548
  409MPD2    H1 6109   3.323   1.679  16.827  0.6637 -2.1674 -1.3893
  409MPD2    H2 6110   3.224   1.337  17.064  0.1658  0.5658  1.0908
  409MPD2    H3 6111   3.183   1.486  16.866 -1.5871  0.6881  0.1807
  409MPD2     N 6112   3.499   1.781  16.988 -0.0570  0.0036 -0.6998
  409MPD2    H5 6113   3.472   1.825  16.901 -0.3193  2.9802  0.8699
  409MPD2    N1 6114   3.398   1.401  17.259  0.3937  0.9670  0.5025
  409MPD2    H7 6115   3.481   1.437  17.305 -1.1666  2.6734  2.0217
  410TMC3    C1 6116   3.657   1.961  17.018 -0.5549  0.5983  0.0474
  410TMC3    C2 6117   3.741   2.011  17.110  0.9848  0.6184  0.0507
  410TMC3    C3 6118   3.854   2.081  17.065  0.5887  0.0327  0.1653
  410TMC3    C4 6119   3.670   1.988  16.887  0.2340  0.9484  0.1676
  410TMC3    C5 6120   3.772   2.071  16.847 -0.9913  0.1958  0.1046
  410TMC3    C6 6121   3.861   2.113  16.932 -0.7761  0.3061 -0.0562
  410TMC3     C 6122   3.593   1.835  17.066  0.0720 -0.2634 -0.1757
  410TMC3     O 6123   3.627   1.805  17.179  0.7187  0.6971  0.2265
  410TMC3     H 6124   3.732   1.989  17.215 -0.8410  0.0304 -0.2374
  410TMC3    H1 6125   3.591   1.955  16.820  0.3072  0.3141  0.3900
  410TMC3    H2 6126   3.954   2.157  16.897 -0.9387 -1.3429 -2.5498
  410TMC3    C7 6127   3.792   2.094  16.706  0.3188 -0.0024 -0.6643
  410TMC3    C8 6128   3.985   2.040  17.119  0.2959 -0.5051 -0.7124
  410TMC3    O1 6129   3.722   2.024  16.634 -0.1546 -0.7209  0.0026
  410TMC3    O2 6130   4.089   2.104  17.099  0.0136  0.2054 -0.2158
  411MPD2     C 6131   3.835   3.081  14.607  0.0107 -0.0113  1.0022
  411MPD2    C1 6132   3.737   3.032  14.686  0.1862 -0.0534  0.6874
  411MPD2    C2 6133   3.655   2.929  14.646  0.4645  0.7015 -0.6089
  411MPD2    C3 6134   3.674   2.871  14.518  0.7951 -0.2431  0.0885
  411MPD2    C4 6135   3.774   2.917  14.441 -0.4390 -0.3666  0.0041
  411MPD2    C5 6136   3.859   3.017  14.489  0.5984  0.4342  0.7809
  411MPD2     H 6137   3.563   2.902  14.695  0.0654 -0.0644 -1.7740
  411MPD2    H1 6138   3.816   2.862  14.357  0.8174 -0.7344  0.8717
  411MPD2    H2 6139   3.908   3.152  14.643 -1.4717  0.8860  2.2451
  411MPD2    H3 6140   3.948   3.028  14.429  0.4491  2.2343  0.8988
  411MPD2     N 6141   3.591   2.774  14.467  0.1417  0.1979  0.1696
  411MPD2    H5 6142   3.593   2.752  14.368 -1.9905  0.8202 -0.0155
  411MPD2    N1 6143   3.720   3.097  14.808 -1.2449 -0.4742 -0.3431
  411MPD2    H7 6144   3.769   3.185  14.819 -1.7968 -0.2689  0.5298
  412TMC3    C1 6145   3.408   2.631  14.486 -0.2445  0.0095 -0.1760
  412TMC3    C2 6146   3.326   2.708  14.415 -0.4785  0.1112  0.2398
  412TMC3    C3 6147   3.195   2.663  14.403 -0.1303 -0.4034 -0.4918
  412TMC3    C4 6148   3.371   2.506  14.535  0.6669  0.0790 -0.1801
  412TMC3    C5 6149   3.244   2.462  14.521 -0.1435 -0.2629 -0.3558
  412TMC3    C6 6150   3.150   2.545  14.458 -0.4040  0.0981 -0.3395
  412TMC3     C 6151   3.516   2.695  14.553 -0.0490  0.1756 -0.0452
  412TMC3     O 6152   3.551   2.658  14.664  0.2940 -0.2787  0.5327
  412TMC3     H 6153   3.366   2.786  14.352  0.2187  0.2318  0.8227
  412TMC3    H1 6154   3.448   2.449  14.586  1.0468  0.1738 -0.6417
  412TMC3    H2 6155   3.044   2.522  14.463 -0.9044  2.8395  1.8784
  412TMC3    C7 6156   3.218   2.325  14.475  0.2864 -0.1888  0.1104
  412TMC3    C8 6157   3.145   2.683  14.269 -0.2758  0.1833  0.0528
  412TMC3    O1 6158   3.128   2.314  14.388  0.2665 -0.4199 -0.3025
  412TMC3    O2 6159   3.154   2.784  14.200 -0.5147 -0.5952 -0.0970
  413MPD2     C 6160   0.818   0.787  15.601  0.4267  0.2357 -0.3035
  413MPD2    C1 6161   0.756   0.739  15.485  0.3222  0.5548 -0.2329
  413MPD2    C2 6162   0.808   0.626  15.424 -0.6295 -0.1416  0.1122
  413MPD2    C3 6163   0.918   0.560  15.471  0.2308 -0.3764  0.0679
  413MPD2    C4 6164   0.975   0.605  15.588 -0.5322  0.2962  0.3478
  413MPD2    C5 6165   0.934   0.721  15.647 -0.0459  0.9338  0.0102
  413MPD2     H 6166   0.770   0.582  15.333 -0.6963 -2.6744  1.3670
  413MPD2    H1 6167   1.057   0.553  15.638  1.7056  1.7081 -1.8361
  413MPD2    H2 6168   0.774   0.868  15.656 -1.6204  0.0478 -1.6579
  413MPD2    H3 6169   0.983   0.765  15.733 -1.0577  1.1468  0.4862
  413MPD2     N 6170   0.957   0.440  15.405  0.5719 -0.0800  0.1111
  413MPD2    H5 6171   0.909   0.433  15.316  2.2689  0.7488 -0.8560
  413MPD2    N1 6172   0.639   0.813  15.448  0.1012  0.3711  0.3451
  413MPD2    H7 6173   0.619   0.900  15.496 -0.2759  1.1711 -1.2513
  414TMC3    C1 6174   1.093   0.260  15.322  0.6899  0.3344 -0.4977
  414TMC3    C2 6175   1.170   0.143  15.346 -0.0961  0.0504 -0.3830
  414TMC3    C3 6176   1.222   0.083  15.235 -0.4850 -0.2841  0.4877
  414TMC3    C4 6177   1.066   0.299  15.196 -0.1713 -0.2774  0.1611
  414TMC3    C5 6178   1.121   0.234  15.094 -0.6898  0.2821 -0.4763
  414TMC3    C6 6179   1.189   0.116  15.106 -0.3757 -0.4104  1.1605
  414TMC3     C 6180   1.058   0.350  15.432  0.1854  0.6515  0.2877
  414TMC3     O 6181   1.116   0.338  15.536  0.1582  0.3098 -0.6113
  414TMC3     H 6182   1.197   0.116  15.447  0.4115  0.9377 -0.2731
  414TMC3    H1 6183   1.012   0.391  15.178  0.5579  0.0799 -0.1711
  414TMC3    H2 6184   1.219   0.060  15.018 -2.3747 -1.0186  0.8762
  414TMC3    C7 6185   1.054   0.260  14.967  0.6026  0.3235  0.5301
  414TMC3    C8 6186   1.295   4.684  15.265 -0.4471  0.1414 -0.1346
  414TMC3    O1 6187   0.931   0.261  14.985 -0.1332 -0.4048 -0.1582
  414TMC3    O2 6188   1.261   4.619  15.364  0.8600 -0.3515 -0.2066
  415TMC3    C1 6189   1.725   3.285   9.595 -0.3462  0.3341  1.3452
  415TMC3    C2 6190   1.858   3.253   9.575  0.2607 -0.4230  0.0824
  415TMC3    C3 6191   1.883   3.151   9.495  0.1741  0.1799 -0.3227
  415TMC3    C4 6192   1.630   3.199   9.542 -0.5714  0.0538 -0.4803
  415TMC3    C5 6193   1.665   3.101   9.461  0.1594  0.3494 -0.5242
  415TMC3    C6 6194   1.797   3.061   9.457 -0.6501  0.0847 -0.0038
  415TMC3     C 6195   1.680   3.379   9.698  0.0498 -0.1464  0.3098
  415TMC3     O 6196   1.572   3.362   9.756 -0.2041 -0.9376 -0.5095
  415TMC3     H 6197   1.933   3.310   9.628  0.2032 -0.4959  0.2433
  415TMC3    H1 6198   1.534   3.248   9.530 -0.8790 -0.6683 -0.9440
  415TMC3    H2 6199   1.824   2.978   9.392  0.3634 -0.3398  0.9632
  415TMC3    C7 6200   1.560   3.023   9.395  0.9833  0.0227  0.0663
  415TMC3    C8 6201   2.014   3.092   9.497  0.2301 -0.0383 -0.0746
  415TMC3    O1 6202   1.599   2.941   9.306  0.0421 -0.3037 -0.0307
  415TMC3    O2 6203   2.025   2.968   9.475  0.7732 -0.0824  0.2332
  416MPD2     C 6204   3.529   2.531  11.390 -0.1530  0.0587 -0.0579
  416MPD2    C1 6205   3.429   2.470  11.462 -0.1018  0.5583 -0.2623
  416MPD2    C2 6206   3.384   2.341  11.423  0.3988  0.2331 -0.1808
  416MPD2    C3 6207   3.430   2.275  11.318  0.1928 -0.5447 -0.2241
  416MPD2    C4 6208   3.531   2.333  11.241  0.5770  1.2798 -0.2366
  416MPD2    C5 6209   3.584   2.453  11.289  0.1330  1.0809  0.5775
  416MPD2     H 6210   3.294   2.302  11.469  0.3534 -0.2457 -0.6689
  416MPD2    H1 6211   3.581   2.278  11.162 -0.8207  0.1935 -0.3524
  416MPD2    H2 6212   3.577   2.619  11.433  3.0495 -1.5657 -0.2683
  416MPD2    H3 6213   3.672   2.499  11.245 -1.2934  1.3659 -2.0270
  416MPD2     N 6214   3.374   2.149  11.288  0.5179  0.6437 -0.2553
  416MPD2    H5 6215   3.306   2.122  11.358  2.8693 -3.3275  0.5003
  416MPD2    N1 6216   3.361   2.545  11.564 -0.0781 -0.1435 -0.0781
  416MPD2    H7 6217   3.386   2.644  11.563 -0.1890 -0.1354 -4.4243
  417TMC3    C1 6218   3.220   2.603  11.749 -0.2888 -0.3935  0.0155
  417TMC3    C2 6219   3.181   2.562  11.869 -0.5199 -0.0185 -0.3060
  417TMC3    C3 6220   3.069   2.607  11.927  0.2682  0.3146  0.0145
  417TMC3    C4 6221   3.144   2.690  11.677 -0.1234 -0.5191 -0.3225
  417TMC3    C5 6222   3.034   2.740  11.738  0.2135 -0.0082 -0.2674
  417TMC3    C6 6223   2.992   2.692  11.861 -0.4068 -0.2117  0.4722
  417TMC3     C 6224   3.276   2.499  11.657  0.1061 -1.0961  0.3610
  417TMC3     O 6225   3.252   2.382  11.679 -0.1592  0.1687 -0.6633
  417TMC3     H 6226   3.237   2.481  11.914  1.4605  1.0016 -0.9269
  417TMC3    H1 6227   3.171   2.718  11.576 -0.6318 -0.9181 -0.5717
  417TMC3    H2 6228   2.912   2.749  11.906 -1.8911 -2.3536  0.5100
  417TMC3    C7 6229   2.939   2.798  11.652  0.2454  0.6000  0.2755
  417TMC3    C8 6230   3.052   2.608  12.075  0.4209 -0.2081 -0.2898
  417TMC3    O1 6231   2.983   2.858  11.553  0.5072 -0.4946  0.2973
  417TMC3    O2 6232   2.963   2.675  12.123 -0.3548  0.2495  0.0645
  418TMC3    C1 6233   1.442   3.819  17.616 -0.5289 -0.2997 -0.3408
  418TMC3    C2 6234   1.353   3.757  17.699  0.1653 -0.2086 -0.2148
  418TMC3    C3 6235   1.301   3.811   0.107 -0.0215  0.4072  0.1590
  418TMC3    C4 6236   1.479   3.949  17.640  0.4854 -0.4792  0.3142
  418TMC3    C5 6237   1.457   3.989   0.064  0.3530  0.0183  0.9524
  418TMC3    C6 6238   1.362   3.931   0.144 -0.0103 -0.0016  0.1520
  418TMC3     C 6239   1.553   3.749  17.569  0.1044  0.3019 -0.1421
  418TMC3     O 6240   1.614   3.794  17.471  0.5533  0.7009  0.4672
  418TMC3     H 6241   1.314   3.658  17.679  0.0368 -0.3465  0.7188
  418TMC3    H1 6242   1.553   4.009  17.589 -0.2078 -0.2464 -0.4056
  418TMC3    H2 6243   1.342   3.955   0.248  1.8385  2.4730 -0.0854
  418TMC3    C7 6244   1.549   4.095   0.109 -0.2348  0.0600 -0.1242
  418TMC3    C8 6245   1.298   3.712   0.210 -0.3522 -0.2465  0.6796
  418TMC3    O1 6246   1.587   4.181   0.030 -0.1571  0.2921 -0.5449
  418TMC3    O2 6247   1.403   3.650   0.235  0.4325  0.2115 -0.0652
  419MPD2     C 6248   0.490   2.232  12.890 -0.9290  0.1840 -0.4716
  419MPD2    C1 6249   0.380   2.305  12.857 -0.6184  0.5967 -0.8600
  419MPD2    C2 6250   0.315   2.372  12.961 -0.3216 -0.5898 -0.3779
  419MPD2    C3 6251   0.354   2.353  13.091  1.3814 -0.0225 -0.4704
  419MPD2    C4 6252   0.467   2.286  13.119 -0.4581  0.3133 -0.0555
  419MPD2    C5 6253   0.538   2.229  13.020 -0.0648 -0.4220 -0.1599
  419MPD2     H 6254   0.232   2.436  12.934  1.4364  1.6786 -0.4456
  419MPD2    H1 6255   0.502   2.267  13.220  0.9692 -0.3067 -0.6773
  419MPD2    H2 6256   0.549   2.182  12.814  0.5030  2.3966 -0.8502
  419MPD2    H3 6257   0.627   2.175  13.049  0.9335  0.5286 -1.4701
  419MPD2     N 6258   0.267   2.400  13.186  0.0423 -0.1507 -0.1234
  419MPD2    H5 6259   0.184   2.443  13.145 -1.4003 -0.2255  2.7119
  419MPD2    N1 6260   0.349   2.338  12.717  0.6368 -0.1226  0.6874
  419MPD2    H7 6261   0.274   2.404  12.698  0.7869  0.0169  0.5733
  420TMC3    C1 6262   0.154   2.439  13.387  0.2312  0.5837 -0.0557
  420TMC3    C2 6263   0.083   2.537  13.327  0.7629 -0.7407 -0.7593
  420TMC3    C3 6264   4.682   2.566  13.371  0.2289  0.3122  0.2417
  420TMC3    C4 6265   0.123   2.380  13.500 -0.4712  0.1627 -0.0357
  420TMC3    C5 6266   4.724   2.413  13.552  0.8908 -0.3548  1.0351
  420TMC3    C6 6267   4.636   2.501  13.485 -0.1016 -0.0479  0.2998
  420TMC3     C 6268   0.272   2.389  13.324 -0.1013 -0.4480 -0.6447
  420TMC3     O 6269   0.352   2.329  13.391 -0.1310  0.4117 -0.3350
  420TMC3     H 6270   0.119   2.588  13.239 -1.1791 -0.9150 -1.6460
  420TMC3    H1 6271   0.191   2.305  13.540  0.6173  1.3696  0.4029
  420TMC3    H2 6272   4.548   2.534  13.539 -0.1018  0.0211  0.2565
  420TMC3    C7 6273   4.689   2.357  13.679 -0.5812 -0.0451  0.1381
  420TMC3    C8 6274   4.609   2.665  13.301 -0.0255 -0.2328 -0.5372
  420TMC3    O1 6275   0.047   2.347  13.765 -0.2810  0.0318 -0.5274
  420TMC3    O2 6276   4.665   2.728  13.214  0.4180 -0.3666 -0.4443
  421TMC3    C1 6277   1.437   4.233  13.932  0.2559  0.3120 -0.2546
  421TMC3    C2 6278   1.447   4.317  14.040 -0.0131 -0.6724 -0.5466
  421TMC3    C3 6279   1.533   4.286  14.136  0.3497  0.4325 -0.3151
  421TMC3    C4 6280   1.523   4.125  13.929 -1.2406  0.0050 -0.5403
  421TMC3    C5 6281   1.613   4.102  14.030  0.4087  0.0892 -0.7220
  421TMC3    C6 6282   1.625   4.184  14.136  0.0864 -0.3524 -0.7948
  421TMC3     C 6283   1.345   4.270  13.824 -0.2677  0.9223 -0.2569
  421TMC3     O 6284   1.300   4.385  13.828  0.1398  0.1722  0.0040
  421TMC3     H 6285   1.383   4.402  14.060  0.6659 -0.4251  0.5438
  421TMC3    H1 6286   1.522   4.071  13.835  1.6937  1.0250 -1.1458
  421TMC3    H2 6287   1.687   4.157  14.220 -0.3086  0.6525 -0.1737
  421TMC3    C7 6288   1.689   3.980  14.034 -0.6743  0.2590  0.2670
  421TMC3    C8 6289   1.528   4.390  14.245 -0.6362  1.0602  0.4278
  421TMC3    O1 6290   1.790   3.976  14.103 -0.2983  0.6089 -0.1788
  421TMC3    O2 6291   1.422   4.446  14.271  0.2991  0.1027 -0.4561
  422TMC3    C1 6292   4.018   0.528  12.503 -0.3638  0.1172 -0.4950
  422TMC3    C2 6293   3.949   0.644  12.520  0.8170 -0.1501 -0.5219
  422TMC3    C3 6294   3.853   0.649  12.618  0.1074 -0.7659 -0.8876
  422TMC3    C4 6295   3.998   0.413  12.580  0.0838  0.2854 -0.1109
  422TMC3    C5 6296   3.887   0.422  12.668  0.6831 -0.0514  0.1689
  422TMC3    C6 6297   3.821   0.541  12.688 -0.0704 -0.2575  0.0939
  422TMC3     C 6298   4.116   0.528  12.397  0.5688 -0.5759 -0.1040
  422TMC3     O 6299   4.145   0.638  12.344 -0.1304 -0.3465 -0.3705
  422TMC3     H 6300   3.967   0.729  12.455  2.1682 -1.7362 -2.2237
  422TMC3    H1 6301   4.054   0.320  12.575 -1.3605 -0.7488  3.5658
  422TMC3    H2 6302   3.753   0.550  12.772 -2.0032  1.9572 -1.7082
  422TMC3    C7 6303   3.816   0.297  12.681 -0.2877  0.0152  0.4132
  422TMC3    C8 6304   3.794   0.776  12.649  0.3164 -0.2362  0.2685
  422TMC3    O1 6305   3.856   0.200  12.617 -0.0932 -0.1109 -0.1953
  422TMC3    O2 6306   3.846   0.872  12.592  0.2794 -0.4121  0.2949
  423MPD2     C 6307   0.572   1.881   0.841  0.2482 -0.6408  0.4832
  423MPD2    C1 6308   0.515   1.751   0.859 -0.1053  0.4443 -0.3741
  423MPD2    C2 6309   0.545   1.649   0.769 -0.8042  0.0360 -0.6264
  423MPD2    C3 6310   0.620   1.675   0.659 -0.2094 -0.1449  0.3679
  423MPD2    C4 6311   0.675   1.801   0.645 -0.5092 -0.3360 -0.1950
  423MPD2    C5 6312   0.639   1.905   0.727 -0.9158 -0.8042  0.1092
  423MPD2     H 6313   0.513   1.546   0.786  3.2750 -0.9139  1.5816
  423MPD2    H1 6314   0.734   1.811   0.555  1.9626 -0.4334  1.4383
  423MPD2    H2 6315   0.562   1.961   0.913  1.8163  0.8905 -1.0024
  423MPD2    H3 6316   0.672   2.008   0.714  1.5873 -1.8954 -2.1540
  423MPD2     N 6317   0.641   1.580   0.558 -0.0284  0.3687 -0.2075
  423MPD2    H5 6318   0.713   1.608   0.493 -0.2168 -0.5274 -0.8060
  423MPD2    N1 6319   0.439   1.716   0.967  0.2804  0.6258 -0.1435
  423MPD2    H7 6320   0.421   1.619   0.987  1.2968  0.2340 -1.1563
  424TMC3    C1 6321   0.279   1.748   1.135 -0.3002 -0.4433 -0.2189
  424TMC3    C2 6322   0.298   1.617   1.170  0.5181  0.1276  0.4808
  424TMC3    C3 6323   0.196   1.547   1.229  0.4494  0.2634 -0.2090
  424TMC3    C4 6324   0.164   1.814   1.161 -0.5053 -0.1257  0.3951
  424TMC3    C5 6325   0.069   1.742   1.225  0.3433  0.1624 -0.3436
  424TMC3    C6 6326   0.082   1.615   1.268  0.3327 -0.2471  0.0827
  424TMC3     C 6327   0.355   1.806   1.029  0.0101 -0.4088  1.0020
  424TMC3     O 6328   0.343   1.926   1.011  0.1783 -0.5466  0.2410
  424TMC3     H 6329   0.395   1.573   1.151  0.2006 -0.7586  0.9059
  424TMC3    H1 6330   0.151   1.918   1.134 -0.8445 -0.4838 -0.8641
  424TMC3    H2 6331   4.715   1.561   1.287 -0.7167  0.8180 -2.0352
  424TMC3    C7 6332   4.660   1.810   1.222  0.2323  0.1303 -0.8119
  424TMC3    C8 6333   0.232   1.416   1.279  0.2205 -0.2422 -0.4303
  424TMC3    O1 6334   4.650   1.908   1.143  0.1074  0.0444  0.3309
  424TMC3    O2 6335   0.353   1.400   1.294  0.3354  0.0540  0.1146
  425MPD2     C 6336   4.156   0.411   0.300  0.2883 -0.2514 -0.1005
  425MPD2    C1 6337   4.060   0.336   0.243 -1.3891 -0.1883 -0.2425
  425MPD2    C2 6338   3.928   0.386   0.241  0.1387  0.0638  0.0288
  425MPD2    C3 6339   3.890   0.490   0.320  0.4624  0.4896 -0.2633
  425MPD2    C4 6340   3.984   0.554   0.391  0.4289  0.4719  0.3446
  425MPD2    C5 6341   4.121   0.528   0.368 -0.3296 -0.2763  0.1363
  425MPD2     H 6342   3.852   0.340   0.179  0.8292  0.5919 -1.2037
  425MPD2    H1 6343   3.974   0.629   0.468 -0.2844 -1.0275  1.7138
  425MPD2    H2 6344   4.259   0.379   0.308  0.9237  1.0928 -2.9465
  425MPD2    H3 6345   4.197   0.580   0.425 -1.6048  2.4885 -0.6730
  425MPD2     N 6346   3.752   0.507   0.328  0.7528 -0.4278 -0.0415
  425MPD2    H5 6347   3.690   0.441   0.280 -0.1763  0.5266 -0.1582
  425MPD2    N1 6348   4.107   0.220   0.168  0.1515 -0.1421  0.4857
  425MPD2    H7 6349   4.207   0.202   0.166  0.0863 -0.3285 -0.6624
  426TMC3    C1 6350   4.130   0.068  17.691  1.0390  0.2381 -0.6479
  426TMC3    C2 6351   4.091   0.032  17.561 -0.0133  0.5824 -0.1472
  426TMC3    C3 6352   4.176   4.675  17.484 -0.7155  0.2267 -0.2025
  426TMC3    C4 6353   4.236   0.010   0.044  0.1622 -1.1310  0.4455
  426TMC3    C5 6354   4.313   4.651  17.674  0.0361 -0.2710 -0.4517
  426TMC3    C6 6355   4.298   4.635  17.535 -0.1991 -0.2443 -0.4481
  426TMC3     C 6356   4.040   0.146   0.072  0.8754  0.2636  0.4574
  426TMC3     O 6357   3.927   0.167   0.027  0.0200  0.1263  0.2521
  426TMC3     H 6358   4.007   0.080  17.513  0.9878  2.1890 -0.2814
  426TMC3    H1 6359   4.260   0.026   0.149 -0.0782 -2.9708  0.7763
  426TMC3    H2 6360   4.368   4.573  17.480  0.9021  0.0744  0.5879
  426TMC3    C7 6361   4.414   4.571   0.040  0.5312  0.5874  0.5805
  426TMC3    C8 6362   4.144   4.616  17.358  0.0193 -0.6030 -0.8918
  426TMC3    O1 6363   4.514   4.531  17.685 -0.6542  0.4182  0.5511
  426TMC3    O2 6364   4.233   4.571  17.284  0.0816 -0.1460  0.3547
  427MPD2     C 6365   2.917   2.804  15.038  0.8591 -0.4461  0.1157
  427MPD2    C1 6366   2.850   2.739  15.146 -0.0093  0.1715 -0.3569
  427MPD2    C2 6367   2.711   2.743  15.144 -0.8184 -0.1070  0.2812
  427MPD2    C3 6368   2.636   2.797  15.041 -0.2430  0.4790  0.3234
  427MPD2    C4 6369   2.700   2.860  14.933 -0.0351 -0.1899 -0.0294
  427MPD2    C5 6370   2.840   2.858  14.934  0.3099 -0.2489 -0.1943
  427MPD2     H 6371   2.653   2.705  15.227  1.6498 -0.4246  1.8533
  427MPD2    H1 6372   2.643   2.904  14.853 -0.8516 -2.7671 -0.8788
  427MPD2    H2 6373   3.025   2.799  15.028  1.0290  1.3323  1.1053
  427MPD2    H3 6374   2.895   2.911  14.858 -1.2173 -4.2357 -4.0792
  427MPD2     N 6375   2.491   2.811  15.032  0.3075 -0.3843  0.1545
  427MPD2    H5 6376   2.463   2.861  14.948 -1.8289 -3.1434 -0.7605
  427MPD2    N1 6377   2.925   2.670  15.247 -0.4009  0.2357 -0.2410
  427MPD2    H7 6378   3.022   2.700  15.253  0.7144 -3.9581  2.5791
  428TMC3    C1 6379   2.974   2.515  15.418  0.5465 -0.4342 -0.1232
  428TMC3    C2 6380   2.959   2.382  15.454  0.0519  0.0277  0.6591
  428TMC3    C3 6381   3.050   2.332  15.547 -0.3476 -0.3523  0.2486
  428TMC3    C4 6382   3.074   2.591  15.470 -0.1824  0.3027 -0.3503
  428TMC3    C5 6383   3.158   2.534  15.563 -0.0068 -0.3727 -0.1679
  428TMC3    C6 6384   3.156   2.406  15.600 -0.0680  0.2821  0.6274
  428TMC3     C 6385   2.877   2.563  15.317  0.2707 -0.2238  0.4402
  428TMC3     O 6386   2.788   2.487  15.281  0.7489 -0.0883 -0.6125
  428TMC3     H 6387   2.875   2.321  15.421 -1.1114  2.1006 -0.1927
  428TMC3    H1 6388   3.085   2.698  15.454  0.4033  0.5735  1.8313
  428TMC3    H2 6389   3.219   2.365  15.678  0.1424 -2.2097 -0.8557
  428TMC3    C7 6390   3.277   2.612  15.607  0.1779 -0.8287 -0.0473
  428TMC3    C8 6391   3.043   2.186  15.566  0.0575  0.6737 -0.1811
  428TMC3    O1 6392   3.327   2.585  15.716  0.5531  0.0777 -0.4671
  428TMC3    O2 6393   3.005   2.116  15.477  0.2756 -0.0384 -0.3948
  429MPD2     C 6394   3.774   2.586   0.131  0.2096 -0.1315 -0.4243
  429MPD2    C1 6395   3.845   2.496   0.059 -0.0146  0.5039 -0.2930
  429MPD2    C2 6396   3.932   2.539  17.669 -0.7186  0.4076 -0.0234
  429MPD2    C3 6397   3.946   2.675  17.638  0.0057  0.1901  0.5025
  429MPD2    C4 6398   3.872   2.762   0.001  0.0281 -0.7314  0.1621
  429MPD2    C5 6399   3.785   2.721   0.095  0.1751  0.1459 -0.2686
  429MPD2     H 6400   3.984   2.470  17.604 -4.0219 -1.9605 -0.1039
  429MPD2    H1 6401   3.871   2.866  17.672  1.2419 -1.3700 -1.9456
  429MPD2    H2 6402   3.720   2.555   0.220  1.8903 -1.7018  0.0375
  429MPD2    H3 6403   3.724   2.791   0.151  1.4134 -0.0553  1.3247
  429MPD2     N 6404   4.038   2.713  17.536  0.3980 -0.3391  0.2600
  429MPD2    H5 6405   4.083   2.640  17.482  0.6928  0.3912 -0.4785
  429MPD2    N1 6406   3.845   2.358   0.092  0.2637 -0.4855 -0.2432
  429MPD2    H7 6407   3.916   2.303   0.045  0.7182 -0.4654  0.4231
  430TMC3    C1 6408   4.178   2.856  17.414  0.0911 -0.7751 -0.5758
  430TMC3    C2 6409   4.162   2.958  17.321  0.1463  0.5201 -0.3619
  430TMC3    C3 6410   4.258   2.968  17.224  0.5477  0.6490 -0.4618
  430TMC3    C4 6411   4.275   2.759  17.408 -0.1288  0.3588 -0.2469
  430TMC3    C5 6412   4.364   2.768  17.307 -0.2845 -0.2631  0.8862
  430TMC3    C6 6413   4.364   2.877  17.220 -0.3160  0.2496  0.5577
  430TMC3     C 6414   4.070   2.846  17.504  0.7119 -0.0479  0.2988
  430TMC3     O 6415   4.010   2.945  17.543 -0.5170 -0.1052 -0.2625
  430TMC3     H 6416   4.076   3.023  17.328 -0.2675 -0.0667 -0.0109
  430TMC3    H1 6417   4.269   2.673  17.474 -0.8585 -0.4344 -1.3333
  430TMC3    H2 6418   4.439   2.890  17.143 -1.1046 -0.2484 -0.3004
  430TMC3    C7 6419   4.372   2.643  17.226  0.4038 -0.3929  0.1687
  430TMC3    C8 6420   4.210   2.999  17.089  0.2126 -0.3835 -0.1452
  430TMC3    O1 6421   4.376   2.535  17.279 -0.4892 -0.1016  0.4492
  430TMC3    O2 6422   4.256   2.940  16.992 -0.0351 -0.0983  0.0891
  431MPD2     C 6423   0.202   3.080  12.619  0.1266 -0.2226 -1.2374
  431MPD2    C1 6424   0.248   3.071  12.491 -0.7145 -1.0364  0.0567
  431MPD2    C2 6425   0.229   2.949  12.424 -0.0026 -0.3062  0.2383
  431MPD2    C3 6426   0.186   2.837  12.496  0.3946 -0.2778 -0.2901
  431MPD2    C4 6427   0.148   2.855  12.627 -0.1700  0.0628  0.0022
  431MPD2    C5 6428   0.162   2.975  12.689 -0.2468  0.0621 -0.1984
  431MPD2     H 6429   0.284   2.934  12.331 -1.0880 -0.9585 -0.2881
  431MPD2    H1 6430   0.105   2.774  12.685 -0.3068  0.9160  1.1030
  431MPD2    H2 6431   0.208   3.175  12.671 -1.3062 -1.5091  1.2385
  431MPD2    H3 6432   0.132   2.989  12.792  1.1907  0.7698  0.1235
  431MPD2     N 6433   0.202   2.701  12.451 -0.1995  0.1257  0.3858
  431MPD2    H5 6434   0.146   2.634  12.504 -0.9758 -1.2460 -2.1870
  431MPD2    N1 6435   0.303   3.186  12.430 -0.2365 -0.1136  0.0910
  431MPD2    H7 6436   0.306   3.266  12.492 -0.0076  0.0412 -0.1171
  432TMC3    C1 6437   0.295   2.524  12.339 -0.6721 -0.3648 -0.4887
  432TMC3    C2 6438   0.323   2.444  12.226 -0.3742  0.4826  0.4448
  432TMC3    C3 6439   0.361   2.312  12.249  0.3507  0.3452  0.3626
  432TMC3    C4 6440   0.325   2.478  12.464  0.3181 -0.7227 -0.2187
  432TMC3    C5 6441   0.360   2.345  12.477  0.0559 -0.6023  1.0241
  432TMC3    C6 6442   0.381   2.263  12.371 -0.3248 -0.0166 -0.2110
  432TMC3     C 6443   0.264   2.663  12.333  0.3173  0.1225 -0.3623
  432TMC3     O 6444   0.320   2.720  12.238  0.0038 -0.1982  0.3268
  432TMC3     H 6445   0.299   2.476  12.125 -0.7919 -0.0521  0.3696
  432TMC3    H1 6446   0.334   2.540  12.553  1.5256 -0.5959 -0.4308
  432TMC3    H2 6447   0.410   2.160  12.384 -0.0372  0.5591  3.6869
  432TMC3    C7 6448   0.400   2.282  12.606 -0.4864 -0.0412  0.1836
  432TMC3    C8 6449   0.400   2.227  12.143 -0.3235 -0.2282 -0.2380
  432TMC3    O1 6450   0.454   2.170  12.602  0.1055  0.0762  0.5632
  432TMC3    O2 6451   0.447   2.118  12.167 -0.0490 -0.7522  0.4200
  433MPD2     C 6452   4.085   1.732  10.786  0.0227 -0.3178  0.3693
  433MPD2    C1 6453   3.991   1.648  10.855 -0.8876  0.0827 -0.1048
  433MPD2    C2 6454   3.966   1.674  10.990 -0.1514 -0.0125  0.0761
  433MPD2    C3 6455   4.020   1.780  11.058  0.1883 -0.9537  0.3059
  433MPD2    C4 6456   4.101   1.872  10.989  0.1196  0.3565 -0.4660
  433MPD2    C5 6457   4.139   1.841  10.864  0.2084 -0.5508  0.8363
  433MPD2     H 6458   3.915   1.604  11.055  1.7007 -0.4725  1.0115
  433MPD2    H1 6459   4.143   1.958  11.038  1.2506 -0.3957 -0.1315
  433MPD2    H2 6460   4.117   1.715  10.684  0.5150 -2.0842  0.8140
  433MPD2    H3 6461   4.217   1.902  10.821 -0.5624  1.2457  1.9793
  433MPD2     N 6462   3.993   1.794  11.194  0.1157  0.0887  0.4642
  433MPD2    H5 6463   3.941   1.718  11.237  0.3749  0.1603  0.9014
  433MPD2    N1 6464   3.935   1.544  10.776  0.2269  0.0817  0.3905
  433MPD2    H7 6465   3.960   1.544  10.677  2.4420  3.1573  0.9239
  434TMC3    C1 6466   3.789   1.352  10.725  0.2473  0.3437  0.2729
  434TMC3    C2 6467   3.710   1.252  10.784 -0.3309 -0.1005 -0.4214
  434TMC3    C3 6468   3.699   1.128  10.733  0.6409  0.3299 -0.3292
  434TMC3    C4 6469   3.849   1.330  10.603 -0.4502  0.0914  0.5311
  434TMC3    C5 6470   3.833   1.212  10.544  0.6738  0.3674 -0.0589
  434TMC3    C6 6471   3.748   1.112  10.601  0.0576 -0.4833 -0.1586
  434TMC3     C 6472   3.840   1.449  10.823 -0.0691  0.0157 -0.2308
  434TMC3     O 6473   3.788   1.453  10.930  0.5086 -0.4346  0.3269
  434TMC3     H 6474   3.682   1.271  10.887  1.0293  1.5698 -0.3516
  434TMC3    H1 6475   3.940   1.382  10.577  0.1785 -1.0582  0.4234
  434TMC3    H2 6476   3.725   1.022  10.545  1.5439 -1.8642  1.4396
  434TMC3    C7 6477   3.947   1.151  10.475  0.6595 -0.9108  0.2101
  434TMC3    C8 6478   3.769   1.048  10.832  0.3577 -0.0696  0.6186
  434TMC3    O1 6479   4.001   1.213  10.384  0.2939 -0.1899  0.1080
  434TMC3    O2 6480   3.826   1.109  10.923 -0.0178 -0.3539 -0.3177
  435MPD2     C 6481   0.964   1.205  15.689 -0.1454 -0.2479  0.3627
  435MPD2    C1 6482   0.918   1.206  15.824 -0.4338  0.3196 -0.2944
  435MPD2    C2 6483   0.982   1.128  15.917 -0.0086  0.0183  0.0637
  435MPD2    C3 6484   1.085   1.039  15.889  0.2031  0.6090 -0.5699
  435MPD2    C4 6485   1.132   1.039  15.759 -0.1583 -0.0005 -0.3632
  435MPD2    C5 6486   1.077   1.127  15.665 -0.4872  0.1967  0.9442
  435MPD2     H 6487   0.939   1.136  16.016 -3.3517  1.9470 -1.5402
  435MPD2    H1 6488   1.213   0.971  15.736 -0.8613 -0.9826  0.0450
  435MPD2    H2 6489   0.926   1.273  15.614 -0.5913  0.0714  0.8767
  435MPD2    H3 6490   1.119   1.135  15.565 -0.1757  0.8785  1.1291
  435MPD2     N 6491   1.118   0.947  15.991  0.1897  0.6639  0.5629
  435MPD2    H5 6492   1.085   0.975  16.082 -0.8761  2.3803 -0.3491
  435MPD2    N1 6493   0.812   1.289  15.869 -0.5522 -0.4441 -0.0223
  435MPD2    H7 6494   0.796   1.286  15.969  1.2628 -3.9789  0.1602
  436TMC3    C1 6495   0.605   1.580  16.065 -0.4610  0.1573  0.2702
  436TMC3    C2 6496   0.695   1.509  15.987 -0.1958 -0.0162 -0.2887
  436TMC3    C3 6497   0.641   1.451  15.876 -0.2044 -0.2982 -1.0032
  436TMC3    C4 6498   0.473   1.589  16.035 -0.2734 -0.3517  0.6506
  436TMC3    C5 6499   0.431   1.538  15.918  0.3695  0.0034 -0.0027
  436TMC3    C6 6500   0.503   1.458  15.846  0.4313  0.5229  0.4324
  436TMC3     C 6501   0.654   1.610  16.194 -0.3478  0.1250  0.2892
  436TMC3     O 6502   0.775   1.627  16.203  0.2819 -0.0767 -0.6583
  436TMC3     H 6503   0.790   1.477  16.026 -0.1422  0.4718 -0.0174
  436TMC3    H1 6504   0.420   1.669  16.086 -2.5099 -2.5807  1.7930
  436TMC3    H2 6505   0.462   1.400  15.764  0.4881  1.6697 -0.4019
  436TMC3    C7 6506   0.306   1.575  15.867  0.7532  0.4148  0.3648
  436TMC3    C8 6507   0.730   1.368  15.787  0.1956  0.1951  0.2031
  436TMC3    O1 6508   0.234   1.632  15.948  0.6720 -0.1405  0.7237
  436TMC3    O2 6509   0.697   1.343  15.672  0.0191  0.4689  0.1595
  437TMC3    C1 6510   4.654   4.046  12.057 -0.9066  0.4936  0.1141
  437TMC3    C2 6511   4.623   4.159  11.988 -1.5650  1.1456 -0.0529
  437TMC3    C3 6512   4.622   4.151  11.849  0.0966 -0.0121  0.0748
  437TMC3    C4 6513   4.693   3.932  11.990  0.4221  0.5343  0.1893
  437TMC3    C5 6514   4.700   3.934  11.850 -0.0516  0.3397  0.4326
  437TMC3    C6 6515   4.650   4.038  11.781  0.8676 -0.0419 -0.3773
  437TMC3     C 6516   4.634   4.050  12.203  0.5687 -0.1305 -0.1865
  437TMC3     O 6517   4.622   4.164  12.254 -0.7693 -0.0127 -0.4394
  437TMC3     H 6518   4.599   4.256  12.032  0.1075  2.4570 -2.0590
  437TMC3    H1 6519   4.704   3.839  12.044 -1.0517  0.5773  0.5571
  437TMC3    H2 6520   4.659   4.039  11.673 -2.9441  2.0960 -0.6306
  437TMC3    C7 6521   0.097   3.880  11.798 -0.1361 -0.2057  0.3374
  437TMC3    C8 6522   4.560   4.255  11.772 -0.7375  0.5313  0.1436
  437TMC3    O1 6523   0.124   3.878  11.680  0.5019  0.5951 -0.2736
  437TMC3    O2 6524   4.556   4.366  11.822  0.3444  0.1694 -0.4759
  438MPD2     C 6525   1.786   3.443  16.813  0.6058  0.2949 -0.5344
  438MPD2    C1 6526   1.850   3.552  16.767  0.0162 -0.5731  0.0299
  438MPD2    C2 6527   1.804   3.677  16.792  0.3483  0.1429 -0.4325
  438MPD2    C3 6528   1.694   3.703  16.872  0.2067 -0.7943 -0.2401
  438MPD2    C4 6529   1.625   3.597  16.917  0.7740 -0.3462  0.1566
  438MPD2    C5 6530   1.671   3.466  16.882 -0.6079 -0.3349 -0.3590
  438MPD2     H 6531   1.859   3.762  16.752  1.0558 -1.1252 -2.1419
  438MPD2    H1 6532   1.535   3.608  16.977  0.3078 -1.9432 -0.2653
  438MPD2    H2 6533   1.824   3.342  16.799 -0.9549 -0.3119 -0.4070
  438MPD2    H3 6534   1.620   3.380  16.923 -0.0691  0.4357  1.9169
  438MPD2     N 6535   1.657   3.828  16.917 -0.3080 -0.5026 -0.2011
  438MPD2    H5 6536   1.572   3.833  16.973 -1.6373 -1.8632 -2.1114
  438MPD2    N1 6537   1.972   3.543  16.698  1.1490 -0.3470  0.4974
  438MPD2    H7 6538   2.026   3.627  16.679  1.4692 -0.7250 -0.2486
  439TMC3    C1 6539   2.177   3.438  16.636 -0.2592  0.6909  0.2591
  439TMC3    C2 6540   2.213   3.396  16.510  0.3646 -0.6320  0.1866
  439TMC3    C3 6541   2.344   3.421  16.470  0.7983 -0.1018 -0.3245
  439TMC3    C4 6542   2.263   3.511  16.712  0.7846  0.0775 -0.2769
  439TMC3    C5 6543   2.393   3.526  16.666  0.8932  0.3268  0.2465
  439TMC3    C6 6544   2.429   3.476  16.551  0.3063  0.0153  0.2962
  439TMC3     C 6545   2.038   3.420  16.672  0.4814  0.6894 -0.2414
  439TMC3     O 6546   1.990   3.311  16.645 -0.4447 -0.0881 -0.1756
  439TMC3     H 6547   2.131   3.351  16.454 -0.2110  0.1645  0.3935
  439TMC3    H1 6548   2.237   3.545  16.812 -1.0797  0.4337 -0.8851
  439TMC3    H2 6549   2.535   3.481  16.529 -0.5381  1.1690 -3.5187
  439TMC3    C7 6550   2.491   3.578  16.762 -0.0937 -0.3862 -0.0443
  439TMC3    C8 6551   2.405   3.369  16.359  0.0267  0.3067  0.5691
  439TMC3    O1 6552   2.453   3.583  16.882 -0.0238 -0.1225 -0.7463
  439TMC3    O2 6553   2.515   3.322  16.362 -0.3499 -0.4772 -0.5675
  440MPD2     C 6554   0.978   4.348  14.803 -0.0918 -0.6090  0.2852
  440MPD2    C1 6555   0.954   4.378  14.934  1.0166  0.1408 -0.9684
  440MPD2    C2 6556   1.011   4.287  15.024  0.7449 -0.0165 -0.1006
  440MPD2    C3 6557   1.089   4.176  14.990  0.0558  0.3189  1.0632
  440MPD2    C4 6558   1.108   4.152  14.854 -0.3285  0.4446 -0.3764
  440MPD2    C5 6559   1.055   4.237  14.763  0.1210 -0.2130 -0.3253
  440MPD2     H 6560   0.985   4.288  15.129  1.3717 -0.0068  0.0532
  440MPD2    H1 6561   1.163   4.060  14.836  2.1261  1.7382  0.5204
  440MPD2    H2 6562   0.935   4.413  14.727 -3.2057 -1.3780  1.4190
  440MPD2    H3 6563   1.047   4.215  14.657 -2.9935  2.4061 -0.6201
  440MPD2     N 6564   1.152   4.082  15.075 -0.6542  0.3878  0.1690
  440MPD2    H5 6565   1.227   4.027  15.035  0.0818  1.1141  0.5670
  440MPD2    N1 6566   0.878   4.484  14.977 -0.1593  0.4527  0.1241
  440MPD2    H7 6567   0.832   4.463  15.065  1.0549  0.3784  0.7470
  441TMC3    C1 6568   1.202   3.982  15.289 -0.1480 -0.7545  0.4558
  441TMC3    C2 6569   1.333   3.986  15.253 -0.2613 -0.1690 -0.1858
  441TMC3    C3 6570   1.434   3.990  15.344  0.0538  0.2269 -0.2070
  441TMC3    C4 6571   1.169   3.999  15.419  0.3886 -0.1647 -0.0505
  441TMC3    C5 6572   1.267   4.002  15.514  0.3802 -0.5969 -0.1322
  441TMC3    C6 6573   1.398   3.998  15.475  0.5689  0.0005 -0.4095
  441TMC3     C 6574   1.104   4.048  15.195  0.8891  0.1453  0.3500
  441TMC3     O 6575   1.013   4.101  15.257  0.3776  0.1700 -0.1258
  441TMC3     H 6576   1.362   3.985  15.148 -2.2124 -2.0596 -0.7295
  441TMC3    H1 6577   1.068   3.996  15.457  0.3014  0.0455 -0.2613
  441TMC3    H2 6578   1.480   4.026  15.540 -0.4904 -1.2039  1.4478
  441TMC3    C7 6579   1.231   4.054  15.642 -0.5409  0.6266 -0.5734
  441TMC3    C8 6580   1.536   4.086  15.312 -0.0088  0.6167  0.5707
  441TMC3    O1 6581   1.121   4.105  15.655 -0.1497  0.0328  0.1536
  441TMC3    O2 6582   1.655   4.067  15.349 -0.2373 -0.0021 -0.0821
  442MPD2     C 6583   4.028   0.097  16.756 -0.1967 -0.4091 -0.0076
  442MPD2    C1 6584   3.900   0.054  16.734  0.2735  0.3563 -0.0420
  442MPD2    C2 6585   3.880   4.689  16.634 -0.1988  0.4320 -0.4797
  442MPD2    C3 6586   3.980   4.640  16.554 -0.2768  0.2851  0.2569
  442MPD2    C4 6587   4.108   4.689  16.572 -0.1221  0.1397 -0.0167
  442MPD2    C5 6588   4.128   0.055  16.673 -0.4160 -0.2225  0.3046
  442MPD2     H 6589   3.778   4.654  16.632 -0.1754  0.3853 -0.9123
  442MPD2    H1 6590   4.191   4.655  16.512 -0.5583 -2.7597  1.0215
  442MPD2    H2 6591   4.057   0.169  16.831 -0.3388  1.1787 -1.4789
  442MPD2    H3 6592   4.229   0.081  16.703  0.4407 -1.9254 -1.1476
  442MPD2     N 6593   3.957   4.558  16.441 -0.3092 -0.5997 -0.4818
  442MPD2    H5 6594   4.033   4.564  16.374  0.3424 -0.8553  0.2373
  442MPD2    N1 6595   3.790   0.102  16.806 -0.1835  0.4412  0.1096
  442MPD2    H7 6596   3.695   0.081  16.777  0.1387  1.5403 -1.7374
  443TMC3    C1 6597   3.670   0.218  16.973 -0.1042  0.2214  0.3311
  443TMC3    C2 6598   3.596   0.278  16.877 -0.4288 -0.1396 -0.1631
  443TMC3    C3 6599   3.458   0.289  16.903 -0.1158  0.1368  0.1515
  443TMC3    C4 6600   3.619   0.175  17.094 -0.2103 -0.5205 -0.1153
  443TMC3    C5 6601   3.485   0.184  17.107 -0.4217  0.0659 -0.7820
  443TMC3    C6 6602   3.395   0.228  17.013 -0.2194  0.0606 -0.1190
  443TMC3     C 6603   3.799   0.165  16.931 -0.4750  0.0970 -0.3496
  443TMC3     O 6604   3.900   0.202  16.994 -0.3416  0.1561  0.2351
  443TMC3     H 6605   3.641   0.315  16.786  3.8264  0.0638  2.0405
  443TMC3    H1 6606   3.677   0.116  17.165  0.0733  0.1690  0.2258
  443TMC3    H2 6607   3.289   0.230  17.038  0.3581  2.7340  2.1076
  443TMC3    C7 6608   3.439   0.086  17.201 -0.1616  0.1818 -0.2631
  443TMC3    C8 6609   3.371   0.325  16.796  0.4826  0.5376  0.5072
  443TMC3    O1 6610   3.487   4.697  17.176 -0.8321  0.1096  0.3888
  443TMC3    O2 6611   3.259   0.282  16.801 -0.0531  0.3226  0.0043
  444MPD2     C 6612   3.781   4.537  17.696  0.2348  0.2760 -0.2723
  444MPD2    C1 6613   3.727   4.452  17.600  0.1162 -0.1636  0.3175
  444MPD2    C2 6614   3.807   4.374  17.530 -0.2714  0.1228 -0.3586
  444MPD2    C3 6615   3.946   4.368  17.552 -0.8446  0.8961 -0.1802
  444MPD2    C4 6616   3.999   4.447  17.648  0.1320  0.4566 -0.3047
  444MPD2    C5 6617   3.917   4.532   0.015 -0.0668 -0.4342  0.1220
  444MPD2     H 6618   3.768   4.321  17.444  0.9348  0.0642 -0.8679
  444MPD2    H1 6619   4.104   4.437  17.669  0.7042 -0.0747 -3.3597
  444MPD2    H2 6620   3.722   4.607   0.052 -1.3714 -1.1027 -0.2670
  444MPD2    H3 6621   3.974   4.586   0.089 -0.6141 -0.3318  0.4729
  444MPD2     N 6622   4.010   4.267  17.480 -0.4860 -0.4392  0.4389
  444MPD2    H5 6623   3.941   4.204  17.440  0.4988 -1.4228  0.2935
  444MPD2    N1 6624   3.587   4.452  17.567 -0.4974 -0.3672  0.2928
  444MPD2    H7 6625   3.545   4.396  17.494  1.4565 -0.2229 -0.9409
  445TMC3    C1 6626   4.180   4.109  17.464 -0.3236 -0.1079 -0.1200
  445TMC3    C2 6627   4.106   4.010  17.523 -0.2870  0.5120  0.3295
  445TMC3    C3 6628   4.157   3.887  17.526  0.0340 -0.9442 -0.5081
  445TMC3    C4 6629   4.306   4.086  17.414  0.3555 -0.3783 -0.4934
  445TMC3    C5 6630   4.356   3.957  17.416 -0.4353 -0.1873  0.3555
  445TMC3    C6 6631   4.284   3.860  17.479  0.2846  0.9366 -0.2844
  445TMC3     C 6632   4.143   4.243  17.486 -0.1922  0.8278 -0.0568
  445TMC3     O 6633   4.231   4.325  17.509 -0.1619  0.3976  0.3607
  445TMC3     H 6634   4.005   4.042  17.543 -0.8665 -0.9020 -0.3469
  445TMC3    H1 6635   4.373   4.163  17.376 -2.2410  2.9423  1.7138
  445TMC3    H2 6636   4.331   3.765  17.505 -1.1167  1.0884  2.7619
  445TMC3    C7 6637   4.470   3.930  17.332  1.0825  0.7473 -0.2699
  445TMC3    C8 6638   4.091   3.781  17.602 -0.1378 -0.1504 -0.3540
  445TMC3    O1 6639   4.517   4.027  17.277  0.5934 -0.3204  0.0306
  445TMC3    O2 6640   4.132   3.668  17.587 -0.5786  0.3393 -0.1678
  446MPD2     C 6641   3.705   0.822  11.414 -0.6683 -0.1221 -0.4002
  446MPD2    C1 6642   3.689   0.840  11.276  0.3084 -0.0405 -0.4315
  446MPD2    C2 6643   3.760   0.944  11.207  0.1220 -0.2325 -0.4910
  446MPD2    C3 6644   3.846   1.028  11.274 -0.6700 -0.3291  0.4746
  446MPD2    C4 6645   3.851   1.014  11.416  0.1393  0.1718 -0.1299
  446MPD2    C5 6646   3.783   0.913  11.482  0.3513  0.4594  0.0528
  446MPD2     H 6647   3.750   0.969  11.102 -1.3556  0.9407 -0.0861
  446MPD2    H1 6648   3.891   1.093  11.479  0.3329  1.0812 -1.3933
  446MPD2    H2 6649   3.650   0.744  11.466 -1.0477 -0.6524 -1.6153
  446MPD2    H3 6650   3.799   0.906  11.589  1.2026 -0.8438 -0.1592
  446MPD2     N 6651   3.917   1.120  11.204 -0.3942 -0.2431  0.4718
  446MPD2    H5 6652   3.894   1.126  11.105  1.2981  1.9051  0.2326
  446MPD2    N1 6653   3.601   0.759  11.191 -0.1614 -0.2883  0.2440
  446MPD2    H7 6654   3.585   0.777  11.092 -3.1270 -0.1463  0.7756
  447TMC3    C1 6655   4.062   1.306  11.157 -0.2519 -0.5815  0.3281
  447TMC3    C2 6656   4.078   1.273  11.022 -0.3474 -0.5031  0.1754
  447TMC3    C3 6657   4.169   1.349  10.955  0.1602 -0.6698  0.0687
  447TMC3    C4 6658   4.131   1.407  11.218  0.4142  0.2945 -0.2308
  447TMC3    C5 6659   4.231   1.469  11.150 -0.6569  0.3976 -0.0648
  447TMC3    C6 6660   4.241   1.452  11.010 -0.0747 -0.0885 -0.8013
  447TMC3     C 6661   4.001   1.214  11.255 -0.4378  0.5242  0.7383
  447TMC3     O 6662   4.045   1.221  11.373 -0.1649  0.0832  0.0106
  447TMC3     H 6663   4.041   1.180  10.980 -0.7787  0.3547 -1.3280
  447TMC3    H1 6664   4.107   1.427  11.321  3.2748 -1.5881  0.7978
  447TMC3    H2 6665   4.319   1.501  10.954  1.1773 -0.8413  0.3009
  447TMC3    C7 6666   4.362   1.436  11.198 -0.0626 -0.8053  0.1038
  447TMC3    C8 6667   4.200   1.304  10.822 -0.0075 -0.1240  0.8606
  447TMC3    O1 6668   4.451   1.472  11.124  0.0157  0.4255  0.4153
  447TMC3    O2 6669   4.110   1.261  10.749 -0.3981 -0.2386  0.1107
  448TMC3    C1 6670   1.959   0.581  16.523 -1.0126  0.3407  0.7622
  448TMC3    C2 6671   1.932   0.445  16.497  0.3106 -0.1639 -0.0894
  448TMC3    C3 6672   2.009   0.354  16.557  0.0178  0.4059  0.0202
  448TMC3    C4 6673   2.064   0.617  16.610 -0.4203  0.7050 -0.2110
  448TMC3    C5 6674   2.131   0.517  16.672  0.3754 -0.1568  0.9062
  448TMC3    C6 6675   2.107   0.381  16.645  0.0997  0.5023 -0.8367
  448TMC3     C 6676   1.875   0.685  16.473 -0.3642 -0.4887 -0.4591
  448TMC3     O 6677   1.860   0.788  16.540 -0.3640 -0.6363  0.4344
  448TMC3     H 6678   1.845   0.419  16.437 -0.5400 -0.0423  1.0969
  448TMC3    H1 6679   2.066   0.717  16.651 -0.4172  1.8552 -2.9830
  448TMC3    H2 6680   2.159   0.304  16.701  0.4262  1.7809  0.6074
  448TMC3    C7 6681   2.217   0.564  16.780  0.4652 -0.1134 -0.0572
  448TMC3    C8 6682   1.982   0.213  16.532 -0.5057  0.4777 -0.6615
  448TMC3    O1 6683   2.230   0.689  16.789  0.3629 -0.2936 -0.1008
  448TMC3    O2 6684   2.079   0.142  16.539 -0.2687  0.4168 -0.0024
  449MPD2     C 6685   3.713   4.001  14.084 -0.3509 -0.1075  0.4098
  449MPD2    C1 6686   3.649   3.977  13.963 -0.5215  0.8275 -0.1173
  449MPD2    C2 6687   3.517   3.936  13.971 -0.2848 -0.5400  0.5995
  449MPD2    C3 6688   3.449   3.926  14.091 -0.0827  0.9420 -0.3304
  449MPD2    C4 6689   3.515   3.965  14.213  0.7550 -0.4560 -0.5959
  449MPD2    C5 6690   3.648   3.994  14.204  0.0091  0.5228 -0.1805
  449MPD2     H 6691   3.470   3.918  13.875  2.8920 -0.4899 -0.9793
  449MPD2    H1 6692   3.469   3.966  14.311  2.3614  3.0493  0.1395
  449MPD2    H2 6693   3.818   4.026  14.079 -0.3118 -0.4180 -0.3594
  449MPD2    H3 6694   3.708   3.998  14.294 -2.8214  2.1834  1.5974
  449MPD2     N 6695   3.313   3.887  14.087 -0.2279 -0.2548  0.5907
  449MPD2    H5 6696   3.282   3.844  14.000 -0.0439  1.4180 -0.3043
  449MPD2    N1 6697   3.710   3.966  13.833  0.5499 -0.2338  0.3660
  449MPD2    H7 6698   3.658   3.911  13.765  0.3547  0.7824 -0.2914
  450TMC3    C1 6699   3.842   4.019  13.650 -0.1138 -0.1199 -0.5242
  450TMC3    C2 6700   3.878   4.142  13.602  0.7607 -0.1831  0.4296
  450TMC3    C3 6701   3.795   4.197  13.506  0.0712  0.3552 -0.2791
  450TMC3    C4 6702   3.746   3.944  13.588 -0.4004  1.0306  0.2310
  450TMC3    C5 6703   3.658   4.003  13.499 -0.1849  0.5551 -0.8698
  450TMC3    C6 6704   3.684   4.133  13.462  0.3262 -0.2212 -0.2063
  450TMC3     C 6705   3.830   4.018  13.797  1.0060  0.6602  0.5680
  450TMC3     O 6706   3.901   4.085  13.870  0.3948  0.3190 -0.1494
  450TMC3     H 6707   3.938   4.205  13.667  0.2726  0.0236  0.6791
  450TMC3    H1 6708   3.725   3.844  13.624 -0.7416  1.4170  1.1027
  450TMC3    H2 6709   3.614   4.196  13.409  0.0934 -1.8864 -1.8812
  450TMC3    C7 6710   3.521   3.960  13.527 -0.2755  0.6940  0.1605
  450TMC3    C8 6711   3.856   4.276  13.399 -0.3972 -0.0002  0.4683
  450TMC3    O1 6712   3.509   3.894  13.628  0.0182 -0.1319  0.5419
  450TMC3    O2 6713   3.799   4.342  13.310 -0.0972  0.0147 -0.0183
  451MPD2     C 6714   3.902   1.957   1.741 -0.3315 -0.3378  0.7152
  451MPD2    C1 6715   3.980   2.047   1.669  0.0755  0.7374  0.2376
  451MPD2    C2 6716   4.112   2.022   1.657  0.2051  0.0539 -0.0257
  451MPD2    C3 6717   4.178   1.924   1.735 -0.7736  0.4597 -0.1360
  451MPD2    C4 6718   4.108   1.849   1.824 -0.3830  1.0028 -0.2734
  451MPD2    C5 6719   3.967   1.862   1.817  0.0766  0.0493 -0.2335
  451MPD2     H 6720   4.168   2.091   1.596  1.4151 -1.0239 -0.1459
  451MPD2    H1 6721   4.161   1.774   1.881 -1.0205  0.3745 -0.4903
  451MPD2    H2 6722   3.795   1.967   1.754 -0.1261  0.4976  1.6972
  451MPD2    H3 6723   3.906   1.795   1.876  0.9342  0.1109  0.7121
  451MPD2     N 6724   4.319   1.900   1.726  0.0175  0.1732 -0.1940
  451MPD2    H5 6725   4.354   1.816   1.770  0.4903  0.6424  0.3357
  451MPD2    N1 6726   3.918   2.152   1.597  0.0500 -0.7667 -0.2641
  451MPD2    H7 6727   3.817   2.154   1.582  0.2739  0.2451 -1.6422
  452TMC3    C1 6728   4.536   1.926   1.652  0.3038  0.1535 -0.2706
  452TMC3    C2 6729   4.559   1.819   1.733  0.1533  0.1033  0.2558
  452TMC3    C3 6730   4.663   1.826   1.820 -0.4677 -1.0943  0.0729
  452TMC3    C4 6731   4.625   2.028   1.639 -0.2861  0.8188  0.4124
  452TMC3    C5 6732   4.721   2.041   1.735  0.1895 -0.9563 -0.3865
  452TMC3    C6 6733   0.016   1.941   1.825 -0.0782 -0.2902 -0.0596
  452TMC3     C 6734   4.403   1.978   1.655 -0.2177  0.4263  0.6395
  452TMC3     O 6735   4.390   2.099   1.647  0.5427 -0.3018 -0.2193
  452TMC3     H 6736   4.501   1.729   1.716 -0.2819  0.2528  0.9748
  452TMC3    H1 6737   4.606   2.110   1.570 -0.4820  0.6902  0.3124
  452TMC3    H2 6738   0.095   1.940   1.899  0.8847  1.4871 -1.0761
  452TMC3    C7 6739   0.053   2.173   1.754  0.3658 -0.1388 -0.0121
  452TMC3    C8 6740   4.668   1.727   1.929  0.1697 -0.2283  0.4142
  452TMC3    O1 6741   0.036   2.254   1.666  0.3896  0.0028  0.2736
  452TMC3    O2 6742   4.557   1.674   1.949 -0.2648  0.5935  0.5080
  453TMC3    C1 6743   1.648   4.517  11.814  0.0949 -0.5867  0.6190
  453TMC3    C2 6744   1.581   4.405  11.864 -0.4543 -0.7481 -0.5926
  453TMC3    C3 6745   1.445   4.399  11.840 -0.0228  1.2610  0.2644
  453TMC3    C4 6746   1.580   4.618  11.742 -0.2826 -0.7352  0.6755
  453TMC3    C5 6747   1.446   4.601  11.721  0.2779 -0.1776 -0.0958
  453TMC3    C6 6748   1.378   4.487  11.756 -0.1172  0.3803 -0.5303
  453TMC3     C 6749   1.767   4.563  11.876 -0.4610  0.4639 -0.4023
  453TMC3     O 6750   1.796   4.681  11.851  0.7974  0.1795  0.2078
  453TMC3     H 6751   1.616   4.331  11.935 -0.3211 -1.2810 -1.2106
  453TMC3    H1 6752   1.631   4.702  11.697  1.9364 -1.9583  0.9078
  453TMC3    H2 6753   1.277   4.462  11.725 -0.4095 -2.5981  2.7877
  453TMC3    C7 6754   1.375   4.704  11.653 -0.0743 -0.0768  0.3599
  453TMC3    C8 6755   1.354   4.317  11.927 -0.9447  0.1418 -0.0120
  453TMC3    O1 6756   1.443   0.038  11.568  0.0277  0.0442  0.4844
  453TMC3    O2 6757   1.246   4.372  11.955  0.9335 -0.0682 -0.0207
  454MPD2     C 6758   0.022   4.022  16.466  0.0984 -0.8524 -0.1113
  454MPD2    C1 6759   4.695   4.110  16.373  0.6772  0.1159  0.6145
  454MPD2    C2 6760   4.613   4.213  16.407 -0.6502 -0.0383  0.5524
  454MPD2    C3 6761   4.561   4.224  16.535  0.1361  0.3628  0.1061
  454MPD2    C4 6762   4.604   4.134  16.628  0.2310 -0.2245  0.3616
  454MPD2    C5 6763   4.708   4.042  16.598  0.9109  0.2303 -0.3300
  454MPD2     H 6764   4.576   4.270  16.323  0.6286  1.4580  0.9971
  454MPD2    H1 6765   4.581   4.143  16.734  1.3638 -1.7504  0.7508
  454MPD2    H2 6766   0.086   3.936  16.451  0.7291 -0.1382 -1.5023
  454MPD2    H3 6767   0.005   3.967  16.674 -0.3390  1.9966  1.8024
  454MPD2     N 6768   4.461   4.313  16.571  0.7798  0.5656 -0.1237
  454MPD2    H5 6769   4.432   4.305  16.668  0.1463 -2.7247 -0.5782
  454MPD2    N1 6770   0.000   4.099  16.238  0.0831 -0.1416 -0.1231
  454MPD2    H7 6771   4.682   4.167  16.177  0.1170 -0.4138 -0.4466
  455TMC3    C1 6772   4.258   4.415  16.525  1.1332  0.0837  0.5834
  455TMC3    C2 6773   4.238   4.428  16.663 -0.3858 -0.1241  0.7363
  455TMC3    C3 6774   4.127   4.373  16.724  0.8827  0.4116  0.4137
  455TMC3    C4 6775   4.182   4.327  16.457 -0.3585  0.5871  0.3480
  455TMC3    C5 6776   4.077   4.266  16.526  0.0258  0.3180 -0.5845
  455TMC3    C6 6777   4.047   4.291  16.653 -0.3813 -0.3542  0.5789
  455TMC3     C 6778   4.394   4.395  16.482  0.1270  0.6434  0.1102
  455TMC3     O 6779   4.408   4.412  16.361 -0.1588  0.2611 -0.3971
  455TMC3     H 6780   4.314   4.484  16.716 -1.5129  0.2873  1.9264
  455TMC3    H1 6781   4.187   4.316  16.350  2.6590  0.0893  0.5464
  455TMC3    H2 6782   3.978   4.228  16.707 -0.3958 -0.0813  0.8782
  455TMC3    C7 6783   3.989   4.165  16.458  0.3634  0.4399  0.4519
  455TMC3    C8 6784   4.092   4.427  16.850  0.0022 -0.2207 -0.5996
  455TMC3    O1 6785   3.876   4.162  16.506 -0.0280 -0.0708 -0.2154
  455TMC3    O2 6786   4.185   4.485  16.906 -0.2918  0.0907  0.4537
  456MPD2     C 6787   2.253   3.671  16.243  0.6196  0.0839 -0.3329
  456MPD2    C1 6788   2.354   3.720  16.321  0.7754  0.3635  0.0507
  456MPD2    C2 6789   2.323   3.792  16.436  0.2919 -0.9537  0.3974
  456MPD2    C3 6790   2.195   3.804  16.479 -0.6069 -0.3646 -0.4196
  456MPD2    C4 6791   2.095   3.752  16.396 -0.2166 -0.2541 -0.0601
  456MPD2    C5 6792   2.123   3.678  16.289 -0.6259 -0.1762  0.2649
  456MPD2     H 6793   2.404   3.834  16.494  0.6068 -0.3472 -0.4775
  456MPD2    H1 6794   1.993   3.753  16.433 -1.3018  1.4441 -3.0729
  456MPD2    H2 6795   2.271   3.615  16.152  2.2924  1.0027 -0.5691
  456MPD2    H3 6796   2.049   3.628  16.229 -1.7974  2.5474 -0.5459
  456MPD2     N 6797   2.186   3.889  16.592 -0.2873  0.3627 -0.1397
  456MPD2    H5 6798   2.275   3.927  16.621  0.1265  0.6978 -1.8560
  456MPD2    N1 6799   2.483   3.718  16.266  0.3399  0.4063 -0.5404
  456MPD2    H7 6800   2.502   3.703  16.168 -0.5768  1.9771 -0.9630
  457TMC3    C1 6801   2.107   4.071  16.693  0.5042  0.1775 -0.0829
  457TMC3    C2 6802   2.028   4.180  16.665 -0.2433  0.0318  0.6060
  457TMC3    C3 6803   2.076   4.302  16.705 -1.1217  0.3995  0.1427
  457TMC3    C4 6804   2.221   4.082  16.770 -0.3166 -0.3672 -0.3717
  457TMC3    C5 6805   2.255   4.201  16.815  0.3311 -0.3031 -0.2509
  457TMC3    C6 6806   2.197   4.318  16.771  0.2090 -0.8718  0.4155
  457TMC3     C 6807   2.069   3.947  16.627 -0.3108 -0.8491  0.0900
  457TMC3     O 6808   1.957   3.929  16.577 -0.0873 -0.3851 -0.6320
  457TMC3     H 6809   1.943   4.168  16.599  1.5462  0.7347 -1.8195
  457TMC3    H1 6810   2.275   3.992  16.795  0.1502  0.1525  0.4770
  457TMC3    H2 6811   2.230   4.413  16.810  0.6991 -1.1904  0.7730
  457TMC3    C7 6812   2.359   4.213  16.908  0.0584 -0.0559 -0.1065
  457TMC3    C8 6813   2.030   4.426  16.643 -0.0363  0.6843 -0.7301
  457TMC3    O1 6814   2.368   4.114  16.982  0.1177 -0.8269  0.1599
  457TMC3    O2 6815   2.112   4.518  16.635 -0.4819 -0.2128  0.1375
  458MPD2     C 6816   0.593   3.751  11.910  0.6019  0.5027  0.0693
  458MPD2    C1 6817   0.520   3.769  12.023  0.0085 -0.0615 -0.5044
  458MPD2    C2 6818   0.382   3.795  12.015  0.8852  0.0344  0.1809
  458MPD2    C3 6819   0.321   3.824  11.893  0.3000  0.2266  0.1907
  458MPD2    C4 6820   0.403   3.812  11.776 -0.2398 -0.1580 -0.0008
  458MPD2    C5 6821   0.531   3.768  11.790 -0.0939 -0.0335 -0.8710
  458MPD2     H 6822   0.319   3.818  12.100  1.6752 -2.8231  1.5095
  458MPD2    H1 6823   0.363   3.820  11.676 -2.6224 -0.8354  0.8786
  458MPD2    H2 6824   0.699   3.730  11.910  0.3928 -0.5540 -0.0772
  458MPD2    H3 6825   0.592   3.760  11.701  1.6243 -0.0204  0.2898
  458MPD2     N 6826   0.186   3.856  11.906  0.2202 -0.3079 -0.7754
  458MPD2    H5 6827   0.155   3.866  12.002  0.3980  1.5074 -0.9080
  458MPD2    N1 6828   0.593   3.757  12.147 -0.0508 -0.4900 -0.5207
  458MPD2    H7 6829   0.693   3.745  12.142 -0.2839 -2.2327 -1.0176
  459TMC3    C1 6830   0.615   3.751  12.385  0.1039 -0.3609 -0.5150
  459TMC3    C2 6831   0.699   3.860  12.399  0.0396  0.5419 -0.0704
  459TMC3    C3 6832   0.747   3.885  12.525  0.1579  0.2841  0.7897
  459TMC3    C4 6833   0.573   3.664  12.492 -0.7853  0.4337  0.2352
  459TMC3    C5 6834   0.620   3.702  12.620  0.4391  0.0643  0.4423
  459TMC3    C6 6835   0.708   3.815  12.636 -0.0836 -0.3986 -0.5395
  459TMC3     C 6836   0.527   3.740  12.270 -0.5045 -0.3741  0.0519
  459TMC3     O 6837   0.409   3.712  12.286 -0.1664 -0.4325  0.1538
  459TMC3     H 6838   0.711   3.920  12.310  2.7938 -2.0555 -1.4211
  459TMC3    H1 6839   0.508   3.578  12.483 -0.6794  0.3960 -0.2049
  459TMC3    H2 6840   0.753   3.847  12.729 -1.4530 -1.3763  0.4645
  459TMC3    C7 6841   0.579   3.626  12.738 -0.9715  0.3483  0.2220
  459TMC3    C8 6842   0.852   3.994  12.534  0.2320 -0.4864 -0.2900
  459TMC3    O1 6843   0.533   3.514  12.727 -0.1125 -0.3110  0.0301
  459TMC3    O2 6844   0.922   4.008  12.632 -0.4860  0.3464  0.5979
  460MPD2     C 6845   4.500   1.365  10.624 -0.5175  0.0318 -0.4350
  460MPD2    C1 6846   4.364   1.340  10.642 -0.3457 -0.2677 -0.3197
  460MPD2    C2 6847   4.284   1.310  10.529  0.0661 -0.0962  0.4542
  460MPD2    C3 6848   4.325   1.340  10.405 -0.3880  0.3103  0.3315
  460MPD2    C4 6849   4.456   1.369  10.388  0.0738 -0.1140 -0.4900
  460MPD2    C5 6850   4.551   1.367  10.499 -0.4678 -0.4179  0.2616
  460MPD2     H 6851   4.180   1.289  10.549 -0.1727  0.4829 -0.1701
  460MPD2    H1 6852   4.504   1.395  10.294 -0.7019  1.5317 -0.4278
  460MPD2    H2 6853   4.564   1.392  10.707  0.2334 -0.6341 -0.7898
  460MPD2    H3 6854   4.656   1.391  10.486 -0.6188 -0.2169 -0.5903
  460MPD2     N 6855   4.232   1.343  10.306  0.0040  0.2671 -0.4170
  460MPD2    H5 6856   4.137   1.314  10.327 -0.2130  0.9877 -0.3769
  460MPD2    N1 6857   4.320   1.345  10.779  0.1787 -0.5024  0.3750
  460MPD2    H7 6858   4.387   1.389  10.841  1.3505 -3.5992  1.3054
  461TMC3    C1 6859   4.129   1.394  10.094 -0.2205 -0.1513  0.9475
  461TMC3    C2 6860   4.060   1.269  10.099 -0.4615  0.1672 -1.1299
  461TMC3    C3 6861   3.950   1.261  10.018  0.3908  0.1553  0.0302
  461TMC3    C4 6862   4.093   1.491  10.003  0.1538 -0.5207 -0.4669
  461TMC3    C5 6863   3.977   1.478   9.930 -1.1882 -0.2222 -0.4089
  461TMC3    C6 6864   3.901   1.359   9.939 -0.1212 -0.3983 -0.1409
  461TMC3     C 6865   4.244   1.413  10.181  0.0982 -0.2089 -0.5982
  461TMC3     O 6866   4.331   1.478  10.129  0.0998  0.3356 -0.6175
  461TMC3     H 6867   4.109   1.189  10.154  0.5032  2.1796  0.9424
  461TMC3    H1 6868   4.149   1.584  10.006 -0.8471  0.0693 -0.1861
  461TMC3    H2 6869   3.818   1.344   9.871 -0.8458  0.7667  0.4853
  461TMC3    C7 6870   3.925   1.581   9.843  0.3093 -0.1551  0.3005
  461TMC3    C8 6871   3.888   1.126  10.002 -0.0255  0.3394 -0.0158
  461TMC3    O1 6872   3.816   1.549   9.800  0.4441  0.7675  0.3556
  461TMC3    O2 6873   3.833   1.108   9.897  0.1265  0.0789 -0.0299
  462TMC3    C1 6874   4.136   2.553   0.323 -0.7128  0.2871 -0.0191
  462TMC3    C2 6875   4.251   2.484   0.341  0.1388  0.1936  0.9368
  462TMC3    C3 6876   4.244   2.371   0.414 -0.4221 -0.5862 -0.0917
  462TMC3    C4 6877   4.013   2.526   0.387 -0.0346 -0.1346  0.1048
  462TMC3    C5 6878   4.018   2.416   0.465 -0.3233 -0.2083  0.0239
  462TMC3    C6 6879   4.127   2.327   0.472 -0.5990  0.0805 -0.0433
  462TMC3     C 6880   4.141   2.677   0.254 -0.3800  0.3521 -0.1645
  462TMC3     O 6881   4.076   2.759   0.313 -0.2227 -0.2496 -0.6192
  462TMC3     H 6882   4.343   2.519   0.296 -0.4507  1.3517  0.6269
  462TMC3    H1 6883   3.935   2.601   0.388  0.9253  0.8730  0.2221
  462TMC3    H2 6884   4.143   2.259   0.555 -1.3622 -0.6529 -0.4977
  462TMC3    C7 6885   3.906   2.342   0.516  0.1521  0.3433  0.5390
  462TMC3    C8 6886   4.369   2.315   0.466  0.1154 -0.0031 -0.1018
  462TMC3    O1 6887   3.928   2.220   0.528  0.6749  0.3740  0.0870
  462TMC3    O2 6888   4.473   2.381   0.486  0.5005  0.5731 -0.1000
  463MPD2     C 6889   4.481   0.712   1.940  0.7442 -0.0108  0.6405
  463MPD2    C1 6890   4.440   0.834   1.893 -0.1728 -0.3777 -0.1191
  463MPD2    C2 6891   4.527   0.941   1.885  0.1762 -0.5465 -0.3227
  463MPD2    C3 6892   4.657   0.931   1.923 -0.6743 -0.2079  0.1846
  463MPD2    C4 6893   4.702   0.809   1.964 -0.2244 -0.2190 -0.7095
  463MPD2    C5 6894   4.614   0.702   1.975  0.7863  0.1791  0.0850
  463MPD2     H 6895   4.480   1.026   1.837  0.8476 -0.5671 -1.0202
  463MPD2    H1 6896   0.080   0.794   1.994 -0.3229  2.0185  0.6679
  463MPD2    H2 6897   4.421   0.622   1.951  1.8861 -0.8350  0.1097
  463MPD2    H3 6898   4.649   0.613   2.027 -2.5155 -0.2153  1.6012
  463MPD2     N 6899   0.025   1.037   1.913 -0.4763  0.1402  0.2764
  463MPD2    H5 6900   0.121   1.014   1.936 -0.1849 -0.4497 -1.5712
  463MPD2    N1 6901   4.312   0.857   1.835 -0.0078  0.2007  0.3907
  463MPD2    H7 6902   4.288   0.947   1.795  1.0239  0.0170 -0.6592
  464TMC3    C1 6903   4.094   0.803   1.765 -0.1133 -0.0676 -0.1142
  464TMC3    C2 6904   4.086   0.924   1.694  0.6980 -0.4806 -0.1557
  464TMC3    C3 6905   3.961   0.954   1.642  0.5197  0.0964 -0.3269
  464TMC3    C4 6906   3.988   0.722   1.784 -0.5271 -0.6072 -1.6679
  464TMC3    C5 6907   3.868   0.757   1.723 -0.0282 -0.0236  0.3672
  464TMC3    C6 6908   3.854   0.869   1.654 -0.0719 -0.3493 -0.3975
  464TMC3     C 6909   4.211   0.764   1.836  1.1882 -0.1609  0.3069
  464TMC3     O 6910   4.205   0.666   1.907 -0.0530 -0.0328 -0.0260
  464TMC3     H 6911   4.173   0.982   1.667  1.1873  0.0824  2.5947
  464TMC3    H1 6912   3.991   0.628   1.838 -2.1623 -0.5988 -1.5533
  464TMC3    H2 6913   3.758   0.895   1.611 -0.9424 -1.7601  0.7245
  464TMC3    C7 6914   3.741   0.684   1.749  0.7343  0.6290  0.8496
  464TMC3    C8 6915   3.954   1.067   1.548  0.1241 -0.0178  0.2414
  464TMC3    O1 6916   3.633   0.748   1.743  0.5650  0.3383 -0.3478
  464TMC3    O2 6917   4.064   1.115   1.522 -0.4719  0.1741  0.1196
  465MPD2     C 6918   1.131   4.532  16.598  0.0686 -0.0819 -0.4727
  465MPD2    C1 6919   1.058   4.506  16.717 -0.7185 -0.5912  0.9306
  465MPD2    C2 6920   0.923   4.535  16.726  0.2884  0.6124  0.0767
  465MPD2    C3 6921   0.864   4.589  16.617  0.3652  0.0646 -0.3682
  465MPD2    C4 6922   0.927   4.605  16.494  0.2839 -0.3864  0.2626
  465MPD2    C5 6923   1.059   4.568  16.487 -1.2108 -0.8059 -0.0189
  465MPD2     H 6924   0.877   4.529  16.824 -0.8760  0.1815 -0.4903
  465MPD2    H1 6925   0.882   4.627  16.398  1.3663  2.5121  0.4111
  465MPD2    H2 6926   1.238   4.522  16.584  0.0951 -0.7694  0.2404
  465MPD2    H3 6927   1.105   4.566  16.389  1.4994  0.0916  1.2333
  465MPD2     N 6928   0.728   4.603  16.625  0.5439 -0.2033  0.3324
  465MPD2    H5 6929   0.680   4.574  16.709  0.2482  0.9911  0.5698
  465MPD2    N1 6930   1.130   4.468  16.836 -0.3222 -0.3124 -0.7803
  465MPD2    H7 6931   1.071   4.471  16.919 -0.2527 -2.9017 -0.6544
  466TMC3    C1 6932   0.384   4.569  16.750 -1.0489 -0.3205 -0.0874
  466TMC3    C2 6933   0.287   4.662  16.718 -0.0796 -0.2890 -0.8679
  466TMC3    C3 6934   0.308   0.017  16.607 -0.0543  0.0745 -0.2975
  466TMC3    C4 6935   0.492   4.558  16.670 -0.0698  0.2946 -0.4564
  466TMC3    C5 6936   0.511   4.632  16.558  0.0622 -0.2185  0.1432
  466TMC3    C6 6937   0.421   4.725  16.526 -0.4684  0.5378  0.2258
  466TMC3     C 6938   0.404   4.509  16.873 -1.1521 -0.2637 -0.4379
  466TMC3     O 6939   0.513   4.460  16.899 -0.0978  1.0483 -0.5406
  466TMC3     H 6940   0.195   4.668  16.775 -0.4480 -0.8307 -1.3963
  466TMC3    H1 6941   0.544   4.463  16.680 -0.1065  0.4337  1.0378
  466TMC3    H2 6942   0.426   0.050  16.430  3.1729 -2.2509 -1.0410
  466TMC3    C7 6943   0.647   4.654  16.526  0.3671 -0.2163  0.1958
  466TMC3    C8 6944   0.226   0.138  16.589  0.2458  0.4276 -0.1583
  466TMC3    O1 6945   0.667   0.001  16.431 -0.1438  0.2655 -0.4292
  466TMC3    O2 6946   0.214   0.169  16.469  0.1282 -0.2735  0.3131
  467TMC3    C1 6947   2.406   3.111  13.927  0.1513  0.5136 -0.3846
  467TMC3    C2 6948   2.358   3.092  13.798  0.3701  0.1175 -0.1515
  467TMC3    C3 6949   2.254   3.001  13.789  0.4535  0.9693 -0.8202
  467TMC3    C4 6950   2.374   3.027  14.026  0.9181  0.6010 -0.1846
  467TMC3    C5 6951   2.268   2.935  14.009 -0.5370 -0.2752 -0.1215
  467TMC3    C6 6952   2.213   2.921  13.885  1.5997 -0.6602  0.7174
  467TMC3     C 6953   2.528   3.190  13.948  0.1076  0.3835 -0.3784
  467TMC3     O 6954   2.581   3.185  14.056 -0.2379 -0.1015  0.3113
  467TMC3     H 6955   2.388   3.152  13.713  1.8410  0.0030  0.2811
  467TMC3    H1 6956   2.416   3.035  14.126  0.4324 -0.1539  0.0764
  467TMC3    H2 6957   2.140   2.843  13.867  1.5998 -0.0869 -1.7917
  467TMC3    C7 6958   2.216   2.871  14.132  0.3921 -0.5255 -0.1366
  467TMC3    C8 6959   2.192   2.965  13.663 -0.4067 -0.0225  0.1922
  467TMC3    O1 6960   2.293   2.837  14.217 -0.1134  0.2287 -0.3775
  467TMC3    O2 6961   2.074   2.930  13.650 -0.0149  0.0976 -0.1840
  468MPD2     C 6962   1.438   1.147  10.518  0.1406 -0.1288  0.0515
  468MPD2    C1 6963   1.556   1.090  10.561  0.0761 -0.5492  0.7237
  468MPD2    C2 6964   1.572   0.954  10.541 -0.4841  0.1343  0.5371
  468MPD2    C3 6965   1.470   0.876  10.484  0.1143  1.0482 -1.0504
  468MPD2    C4 6966   1.354   0.937  10.439  0.5786 -0.4048 -0.8058
  468MPD2    C5 6967   1.343   1.073  10.453  0.7541 -0.1252 -0.7070
  468MPD2     H 6968   1.661   0.909  10.584  0.2194  0.7280 -0.3077
  468MPD2    H1 6969   1.287   0.872  10.384  0.6812 -2.3091  1.2940
  468MPD2    H2 6970   1.418   1.253  10.522 -1.7187 -0.4938  0.3469
  468MPD2    H3 6971   1.256   1.119  10.408  1.3978  1.0017 -0.8146
  468MPD2     N 6972   1.490   0.739  10.474  0.0565 -0.4508 -0.1252
  468MPD2    H5 6973   1.403   0.687  10.476 -0.4743  0.4174 -0.7143
  468MPD2    N1 6974   1.659   1.170  10.618  0.3735  0.0454  0.3088
  468MPD2    H7 6975   1.743   1.121  10.647  0.1300  0.5923  1.9428
  469TMC3    C1 6976   1.766   1.350  10.722  0.9319  0.2103 -0.5737
  469TMC3    C2 6977   1.880   1.275  10.733  0.4282 -0.7986 -0.1287
  469TMC3    C3 6978   1.954   1.308  10.845 -0.2505  0.0232 -0.1261
  469TMC3    C4 6979   1.730   1.452  10.808 -0.8035  0.4181  1.2406
  469TMC3    C5 6980   1.808   1.481  10.910  0.4908  0.5689 -0.3405
  469TMC3    C6 6981   1.928   1.413  10.932 -0.4208 -0.3609  0.1288
  469TMC3     C 6982   1.653   1.304  10.641 -0.8720  0.0923 -0.5207
  469TMC3     O 6983   1.559   1.376  10.622  0.1476  0.0651  0.2851
  469TMC3     H 6984   1.909   1.197  10.664 -3.0964 -0.7272 -1.7231
  469TMC3    H1 6985   1.640   1.510  10.790 -0.7367 -0.4212 -1.6344
  469TMC3    H2 6986   2.001   1.450  11.003 -0.4814 -1.1589  0.6040
  469TMC3    C7 6987   1.761   1.585  10.997 -0.4109 -0.0921  0.0461
  469TMC3    C8 6988   2.068   1.221  10.873 -0.3432  0.3843 -0.1456
  469TMC3    O1 6989   1.677   1.668  10.960  0.4218 -0.0476  0.3421
  469TMC3    O2 6990   2.069   1.113  10.809 -0.1595  0.3106 -0.4022
  470TMC3    C1 6991   2.911   2.189   0.429 -0.2549  0.6410 -0.1673
  470TMC3    C2 6992   2.912   2.319   0.465  0.1154 -0.3008  0.2372
  470TMC3    C3 6993   2.909   2.357   0.595  0.1271 -0.2673 -0.6280
  470TMC3    C4 6994   2.893   2.098   0.527 -0.5368  0.4556 -0.0672
  470TMC3    C5 6995   2.866   2.138   0.657 -0.3173  0.1506  0.0243
  470TMC3    C6 6996   2.877   2.271   0.696 -0.6061 -0.0266 -0.4421
  470TMC3     C 6997   2.959   2.140   0.297 -0.2542 -0.7679  0.2998
  470TMC3     O 6998   2.916   2.031   0.258  0.7864 -0.5776  0.1465
  470TMC3     H 6999   2.933   2.388   0.384  2.5259  0.1727  1.2895
  470TMC3    H1 7000   2.909   1.994   0.499  0.7212  0.3389  1.0882
  470TMC3    H2 7001   2.856   2.306   0.797 -0.3233 -0.8672 -0.0933
  470TMC3    C7 7002   2.899   2.045   0.771  0.4219 -0.9088 -0.2297
  470TMC3    C8 7003   2.956   2.484   0.643  0.4100  0.1659  0.3084
  470TMC3    O1 7004   2.967   1.944   0.755 -0.0426 -0.4103  0.0566
  470TMC3    O2 7005   2.995   2.482   0.759  0.3497  0.2645 -0.6125
  471MPD2     C 7006   3.957   3.285  16.750  0.8591  0.3274 -0.5264
  471MPD2    C1 7007   4.010   3.157  16.739  0.0080 -1.0744 -0.0913
  471MPD2    C2 7008   4.055   3.088  16.848  0.1648  0.6754 -0.2143
  471MPD2    C3 7009   4.046   3.149  16.974 -0.4246 -0.6378 -0.1020
  471MPD2    C4 7010   3.975   3.270  16.990 -0.4012 -0.2567 -0.2558
  471MPD2    C5 7011   3.935   3.333  16.874 -0.3290  0.2326 -0.5465
  471MPD2     H 7012   4.100   2.990  16.836 -0.1230  0.3065  1.7076
  471MPD2    H1 7013   3.955   3.309  17.089  0.2542 -0.4813 -0.0334
  471MPD2    H2 7014   3.920   3.344  16.667 -0.0185 -1.7959 -1.6450
  471MPD2    H3 7015   3.884   3.429  16.879  0.2438  0.5032 -0.0160
  471MPD2     N 7016   4.110   3.096  17.087  1.2828  0.5866  0.8217
  471MPD2    H5 7017   4.104   3.153  17.171  0.3337 -0.4454  1.4644
  471MPD2    N1 7018   4.016   3.094  16.613 -0.2882 -0.6616  0.5220
  471MPD2    H7 7019   4.067   3.007  16.603  1.2874  0.3990 -0.7418
  472TMC3    C1 7020   3.992   3.051  16.389 -0.3084 -0.5119  0.1338
  472TMC3    C2 7021   3.900   3.075  16.284 -0.1510  0.1991  0.0769
  472TMC3    C3 7022   3.817   2.970  16.252 -0.5845  0.4105  0.0143
  472TMC3    C4 7023   4.016   2.921  16.430  0.2287 -1.0659 -0.5976
  472TMC3    C5 7024   3.933   2.829  16.384 -0.0515  0.0279  0.7635
  472TMC3    C6 7025   3.830   2.849  16.300 -0.3457 -0.0635  0.4681
  472TMC3     C 7026   3.979   3.152  16.496 -0.4854 -0.0483  0.8850
  472TMC3     O 7027   3.925   3.258  16.456 -0.1466 -0.2487 -0.0554
  472TMC3     H 7028   3.865   3.173  16.256  1.0782  0.1046 -1.8019
  472TMC3    H1 7029   4.089   2.885  16.501 -0.2165  2.2045  1.5331
  472TMC3    H2 7030   3.755   2.775  16.275  0.3087 -0.7731  0.6000
  472TMC3    C7 7031   3.949   2.693  16.447 -0.5010  0.1404 -0.0662
  472TMC3    C8 7032   3.682   3.016  16.215 -0.1435  0.7731  0.4177
  472TMC3    O1 7033   3.996   2.694  16.561  0.3358 -0.3655  0.0064
  472TMC3    O2 7034   3.676   3.109  16.136 -0.0290 -0.7828  0.2295
  473MPD2     C 7035   3.756   0.606  14.012  0.1131  0.0626 -0.0085
  473MPD2    C1 7036   3.761   0.719  13.928 -0.2652 -0.2321 -0.2017
  473MPD2    C2 7037   3.787   0.840  13.989  0.2413 -0.2781 -0.6088
  473MPD2    C3 7038   3.822   0.848  14.123  0.2684 -0.2415 -0.0071
  473MPD2    C4 7039   3.825   0.731  14.198 -0.6217 -0.3874 -0.2029
  473MPD2    C5 7040   3.788   0.612  14.140  0.4245 -0.2634  0.1319
  473MPD2     H 7041   3.785   0.930  13.928  0.6250  0.7520  0.9109
  473MPD2    H1 7042   3.845   0.723  14.304  0.1900 -2.4862 -0.5069
  473MPD2    H2 7043   3.721   0.506  13.987  0.0745  0.1368 -0.2495
  473MPD2    H3 7044   3.777   0.520  14.196  0.7071 -0.1369  0.3993
  473MPD2     N 7045   3.869   0.966  14.188  0.3401 -0.2852 -0.3788
  473MPD2    H5 7046   3.903   0.955  14.283  0.5194  0.2463 -0.3831
  473MPD2    N1 7047   3.721   0.715  13.792  0.1347  0.1909  0.8092
  473MPD2    H7 7048   3.707   0.805  13.747 -0.4484  0.1668  0.9334
  474TMC3    C1 7049   3.915   1.199  14.232  0.1930 -0.5608 -0.1076
  474TMC3    C2 7050   3.883   1.328  14.209 -0.3883 -0.8076 -0.1736
  474TMC3    C3 7051   3.941   1.424  14.284  0.0019 -0.0132 -0.5097
  474TMC3    C4 7052   4.003   1.160  14.329 -0.1648 -1.2255 -0.6150
  474TMC3    C5 7053   4.049   1.257  14.411  0.1276  0.3486 -0.1855
  474TMC3    C6 7054   4.019   1.393  14.394 -0.6542 -0.7715  0.5400
  474TMC3     C 7055   3.852   1.091  14.145  0.2616 -0.5628 -0.3517
  474TMC3     O 7056   3.781   1.125  14.052 -0.1116  0.2455 -0.7475
  474TMC3     H 7057   3.803   1.344  14.138 -0.9129 -2.0715  0.1323
  474TMC3    H1 7058   4.037   1.058  14.342  1.5417 -0.6250 -0.3072
  474TMC3    H2 7059   4.057   1.475  14.454  1.2955 -0.8399 -0.6335
  474TMC3    C7 7060   4.125   1.213  14.528 -0.7531 -0.4785  0.4506
  474TMC3    C8 7061   3.916   1.560  14.253  0.6789 -0.1803 -0.1001
  474TMC3    O1 7062   4.194   1.119  14.500 -0.2352 -0.0124  0.2936
  474TMC3    O2 7063   3.912   1.638  14.347 -0.1448 -0.4945  0.4960
  475MPD2     C 7064   3.063   3.789  10.601  0.1996  0.2235 -0.1612
  475MPD2    C1 7065   3.000   3.731  10.495  0.1491 -0.1246  0.0073
  475MPD2    C2 7066   2.860   3.713  10.502 -0.0782  0.3789  0.2947
  475MPD2    C3 7067   2.788   3.778  10.604  0.3992 -0.5742  0.2779
  475MPD2    C4 7068   2.853   3.845  10.708  0.6895 -0.6876  0.1761
  475MPD2    C5 7069   2.987   3.841  10.706 -0.2769  0.6419  0.2346
  475MPD2     H 7070   2.803   3.655  10.431 -3.3934  0.2946  2.9826
  475MPD2    H1 7071   2.804   3.898  10.790 -1.2843 -0.8504 -0.9032
  475MPD2    H2 7072   3.171   3.798  10.599  0.0334  2.0945 -0.8218
  475MPD2    H3 7073   3.043   3.895  10.782  1.0541  0.2382 -0.4521
  475MPD2     N 7074   2.652   3.771  10.595 -0.1688  0.5338  0.6745
  475MPD2    H5 7075   2.615   3.716  10.518  2.2801  0.4635 -0.4486
  475MPD2    N1 7076   3.085   3.681  10.394  0.6221  0.0060  0.5501
  475MPD2    H7 7077   3.184   3.703  10.400  0.1295  1.4637  3.1746
  476TMC3    C1 7078   3.135   3.663  10.162  0.0851  0.3164 -0.2270
  476TMC3    C2 7079   3.049   3.692  10.054 -0.3869 -0.3769 -0.1880
  476TMC3    C3 7080   3.037   3.828  10.030  0.0915  0.8385  0.5778
  476TMC3    C4 7081   3.223   3.753  10.207 -0.0602 -0.3666 -0.1166
  476TMC3    C5 7082   3.212   3.882  10.167 -0.4722 -0.3093 -0.5197
  476TMC3    C6 7083   3.114   3.927  10.085 -0.0149 -0.0439  0.2267
  476TMC3     C 7084   3.041   3.628  10.271 -0.0419 -0.1619  0.0997
  476TMC3     O 7085   2.926   3.593  10.245  0.0901  0.3826 -0.1834
  476TMC3     H 7086   2.988   3.619  10.003 -2.4758  1.4665 -0.3162
  476TMC3    H1 7087   3.303   3.713  10.269  0.4456  2.8289  1.2840
  476TMC3    H2 7088   3.106   4.033  10.066  3.4792  0.0627 -0.6450
  476TMC3    C7 7089   3.240   3.976  10.275  0.0453 -0.2283  0.2180
  476TMC3    C8 7090   2.914   3.873   9.972 -0.7936 -0.2068 -0.1053
  476TMC3    O1 7091   3.171   4.076  10.296 -0.6008  0.2704  0.0773
  476TMC3    O2 7092   2.914   3.988   9.926  0.7687  0.2146  0.0473
  477MPD2     C 7093   4.531   0.273  11.410 -0.2328 -0.2844 -0.2856
  477MPD2    C1 7094   4.533   0.376  11.502  0.0332 -0.0248  0.3442
  477MPD2    C2 7095   4.594   0.354  11.626 -0.0658  0.0748  0.6892
  477MPD2    C3 7096   4.673   0.247  11.648 -0.3575  0.2440 -0.2186
  477MPD2    C4 7097   4.669   0.148  11.553  0.3784  0.4925  0.4082
  477MPD2    C5 7098   4.594   0.160  11.440  0.4898 -0.2606 -0.0270
  477MPD2     H 7099   4.580   0.422  11.709 -2.8959  0.2414  0.0522
  477MPD2    H1 7100   0.005   0.059  11.552 -2.0348 -1.1816  0.0533
  477MPD2    H2 7101   4.483   0.280  11.313 -0.6763  3.4349  0.2246
  477MPD2    H3 7102   4.571   0.074  11.379 -1.6713  1.2316 -1.2985
  477MPD2     N 7103   0.024   0.238  11.767 -0.4694 -0.8478  0.1661
  477MPD2    H5 7104   4.718   0.304  11.838  1.1526  3.1133 -2.7901
  477MPD2    N1 7105   4.469   0.497  11.466  0.5574 -0.2180  0.0497
  477MPD2    H7 7106   4.415   0.502  11.380  0.7759 -1.5677 -0.1618
  478TMC3    C1 7107   4.402   0.728  11.484 -0.4332 -0.0497  0.8882
  478TMC3    C2 7108   4.334   0.799  11.579 -0.7564  0.0119  0.0110
  478TMC3    C3 7109   4.233   0.882  11.535  0.1156 -0.2704 -0.5341
  478TMC3    C4 7110   4.373   0.734  11.356 -0.0532 -0.2124 -0.3397
  478TMC3    C5 7111   4.258   0.807  11.320 -0.1290  0.0332 -0.7762
  478TMC3    C6 7112   4.193   0.891  11.408 -0.0600  0.1016 -0.5214
  478TMC3     C 7113   4.477   0.612  11.545 -0.7942 -0.1449  0.7418
  478TMC3     O 7114   4.544   0.626  11.645 -0.1670 -0.3947 -0.0371
  478TMC3     H 7115   4.353   0.780  11.684  2.1214  0.5018 -0.4152
  478TMC3    H1 7116   4.429   0.675  11.285 -0.2122  2.1291 -2.3859
  478TMC3    H2 7117   4.098   0.931  11.375 -0.3350  0.2407  0.4584
  478TMC3    C7 7118   4.174   0.737  11.231 -0.5553 -0.0027  0.0154
  478TMC3    C8 7119   4.166   0.942  11.636 -0.8199  0.4981  0.7307
  478TMC3    O1 7120   4.164   0.615  11.245 -0.1954 -0.0294  0.0199
  478TMC3    O2 7121   4.162   0.888  11.747  0.1552  0.1754  0.0994
  479MPD2     C 7122   3.473   2.853  15.415 -0.3378  0.5271  0.1682
  479MPD2    C1 7123   3.442   2.768  15.519  0.5792 -0.3603 -0.4187
  479MPD2    C2 7124   3.505   2.790  15.643 -0.6067 -0.0505  0.0116
  479MPD2    C3 7125   3.596   2.888  15.660  0.4591 -0.3568  0.0266
  479MPD2    C4 7126   3.638   2.971  15.554 -0.1483 -0.0221  0.2909
  479MPD2    C5 7127   3.574   2.952  15.430  0.4207  0.7314  0.4017
  479MPD2     H 7128   3.495   2.726  15.729  0.0939  0.6385  0.6145
  479MPD2    H1 7129   3.714   3.048  15.566  0.6753 -0.4941 -1.9072
  479MPD2    H2 7130   3.434   2.838  15.315 -0.5994 -1.2589  0.5363
  479MPD2    H3 7131   3.613   3.018  15.353  1.0132  0.4678  0.4713
  479MPD2     N 7132   3.648   2.927  15.788  0.2948  0.2419  0.3935
  479MPD2    H5 7133   3.735   2.979  15.782  1.1903 -1.2037  0.8058
  479MPD2    N1 7134   3.327   2.684  15.503  0.0545  0.3593  0.6681
  479MPD2    H7 7135   3.272   2.690  15.418 -0.4611  3.7076  1.2714
  480TMC3    C1 7136   3.309   2.725  16.033 -0.4168  0.6557  0.1899
  480TMC3    C2 7137   3.223   2.807  15.984 -0.0302  1.0019 -0.2711
  480TMC3    C3 7138   3.259   2.920  15.908  0.3411 -0.1397  0.4742
  480TMC3    C4 7139   3.440   2.745  16.024  0.4307  0.5255  0.3866
  480TMC3    C5 7140   3.480   2.855  15.949 -0.3765  1.0310  0.3105
  480TMC3    C6 7141   3.394   2.947  15.896  0.7413 -0.1821  0.1334
  480TMC3     C 7142   3.276   2.596  16.078  0.0091  0.3864 -0.4659
  480TMC3     O 7143   3.364   2.512  16.087  0.2872 -0.4964  0.3188
  480TMC3     H 7144   3.118   2.795  16.004  0.0453  1.1546  0.2149
  480TMC3    H1 7145   3.513   2.674  16.060 -3.3748 -3.7966 -0.3303
  480TMC3    H2 7146   3.432   3.035  15.845  1.0947 -0.4475 -0.0561
  480TMC3    C7 7147   3.622   2.854  15.904 -1.4534  0.0154  0.1518
  480TMC3    C8 7148   3.175   2.932  15.789  0.2169 -0.6910  0.1087
  480TMC3    O1 7149   3.707   2.815  15.986 -0.2837 -0.4013 -0.7152
  480TMC3    O2 7150   3.067   2.877  15.804  0.4316 -0.3028 -0.2153
  481MPD2     C 7151   0.390   2.273  14.747  0.3366 -0.3181  0.2238
  481MPD2    C1 7152   0.256   2.250  14.753 -0.4796  0.2817  0.4921
  481MPD2    C2 7153   0.184   2.262  14.876 -0.3684 -0.6087  0.1079
  481MPD2    C3 7154   0.250   2.300  14.991  0.6748  0.0444 -0.8697
  481MPD2    C4 7155   0.385   2.330  14.978 -0.2529 -0.0982  0.2428
  481MPD2    C5 7156   0.458   2.309  14.861  0.1066 -0.0517  0.4660
  481MPD2     H 7157   0.083   2.226  14.885 -0.6364 -0.1898 -1.3690
  481MPD2    H1 7158   0.447   2.338  15.067 -1.6641 -0.7029  1.2837
  481MPD2    H2 7159   0.457   2.280  14.663 -0.0439  2.1316  0.1347
  481MPD2    H3 7160   0.561   2.341  14.856  0.0665  0.0098  0.0247
  481MPD2     N 7161   0.195   2.313  15.123 -0.2425  0.4032  0.1659
  481MPD2    H5 7162   0.258   2.343  15.196 -0.5417 -0.8389  0.9306
  481MPD2    N1 7163   0.199   2.201  14.634 -0.1486 -0.0753  0.0811
  481MPD2    H7 7164   0.256   2.181  14.553  0.6588  0.8955  0.4091
  482TMC3    C1 7165   0.029   2.104  14.505 -0.7610  0.2316  0.2235
  482TMC3    C2 7166   0.125   2.020  14.464  0.0456 -0.0165  1.0835
  482TMC3    C3 7167   0.104   1.963  14.347 -0.4798 -0.4400  0.3997
  482TMC3    C4 7168   4.631   2.116  14.442 -0.4156 -0.0189  0.2775
  482TMC3    C5 7169   4.613   2.044  14.328  0.1503 -0.3233 -0.2848
  482TMC3    C6 7170   4.713   1.972  14.278 -0.6227 -0.7936  0.1135
  482TMC3     C 7171   0.064   2.181  14.617  0.4344  0.3580 -0.3779
  482TMC3     O 7172   4.696   2.240  14.675  0.5601  0.9623  0.0378
  482TMC3     H 7173   0.221   2.013  14.514 -1.0267 -0.1783  3.0876
  482TMC3    H1 7174   4.556   2.184  14.482  0.4475  1.0008  0.1409
  482TMC3    H2 7175   4.704   1.917  14.185 -1.3992 -3.3637  1.6954
  482TMC3    C7 7176   4.512   2.084  14.235 -0.7938  0.1544  0.6834
  482TMC3    C8 7177   0.214   1.891  14.270  0.2072  0.5530  0.0023
  482TMC3    O1 7178   4.393   2.065  14.269 -0.3450  0.0577 -0.1345
  482TMC3    O2 7179   0.171   1.817  14.180  0.1005 -0.0485  0.6757
  483TMC3    C1 7180   4.255   0.880   0.942  0.3927  0.2499 -0.1229
  483TMC3    C2 7181   4.263   1.013   0.916  0.3423 -0.1285  0.5088
  483TMC3    C3 7182   4.197   1.099   1.001  1.0048 -0.2973  0.1011
  483TMC3    C4 7183   4.207   0.837   1.065  0.1482 -0.7640  0.2824
  483TMC3    C5 7184   4.137   0.921   1.145 -0.2963 -0.0568 -0.4010
  483TMC3    C6 7185   4.131   1.054   1.116  0.3152 -0.9518  0.8794
  483TMC3     C 7186   4.322   0.794   0.847 -0.1549 -0.6386  0.0698
  483TMC3     O 7187   4.411   0.839   0.779 -0.1630 -0.1612  0.0730
  483TMC3     H 7188   4.294   1.043   0.817 -1.8063  1.0264  0.1655
  483TMC3    H1 7189   4.204   0.730   1.081 -0.4976 -0.9855 -1.2996
  483TMC3    H2 7190   4.079   1.119   1.186  1.5912  1.3260 -0.2945
  483TMC3    C7 7191   4.033   0.855   1.218  0.2284 -0.3020  0.5978
  483TMC3    C8 7192   4.170   1.236   0.968 -0.1302 -0.2443  0.2395
  483TMC3    O1 7193   4.045   0.736   1.243 -0.0668  0.0052 -0.2734
  483TMC3    O2 7194   4.089   1.287   1.046 -0.0937 -0.1540  0.2428
  484MPD2     C 7195   0.886   4.299  12.321  0.0579  0.1248 -0.2007
  484MPD2    C1 7196   0.925   4.185  12.390 -0.3134  0.0445  0.0687
  484MPD2    C2 7197   1.058   4.152  12.414 -0.1691  0.1762 -0.5427
  484MPD2    C3 7198   1.152   4.237  12.365 -0.0379  0.3248 -0.0105
  484MPD2    C4 7199   1.118   4.344  12.293  0.2280 -0.2160  0.3357
  484MPD2    C5 7200   0.983   4.374  12.272 -0.4497 -0.0889 -0.6189
  484MPD2     H 7201   1.091   4.060  12.461 -1.8796 -0.0315  0.2630
  484MPD2    H1 7202   1.199   4.408  12.261  0.6218 -0.7048  0.3530
  484MPD2    H2 7203   0.783   4.313  12.293 -0.4146 -1.1676  0.9041
  484MPD2    H3 7204   0.950   4.453  12.205 -0.8688  1.8851  1.9134
  484MPD2     N 7205   1.292   4.206  12.387 -0.3232 -0.0813  0.6227
  484MPD2    H5 7206   1.352   4.265  12.330 -0.8183  1.9033  2.1660
  484MPD2    N1 7207   0.826   4.092  12.442 -0.1138 -0.1208 -0.5881
  484MPD2    H7 7208   0.734   4.101  12.399 -0.6513 -0.6857  0.4291
  485TMC3    C1 7209   1.496   4.081  12.433  0.4084 -0.3540 -0.4349
  485TMC3    C2 7210   1.552   3.986  12.511  0.2520  0.2318  0.3681
  485TMC3    C3 7211   1.682   3.956  12.501 -0.2142 -0.4694 -0.3489
  485TMC3    C4 7212   1.570   4.143  12.333 -0.4492  0.7107 -0.2314
  485TMC3    C5 7213   1.703   4.113  12.320 -0.1691 -0.0068  0.7413
  485TMC3    C6 7214   1.758   4.033  12.412 -0.1320  0.2149  1.1641
  485TMC3     C 7215   1.352   4.105  12.463  0.5764 -0.5403 -0.3456
  485TMC3     O 7216   1.294   4.029  12.540 -0.0820  0.0129 -0.0245
  485TMC3     H 7217   1.490   3.923  12.573  0.7115  1.1004  1.7063
  485TMC3    H1 7218   1.528   4.213  12.261 -1.7297  0.0889 -0.0841
  485TMC3    H2 7219   1.866   4.033  12.420 -0.3126  0.0399  3.4791
  485TMC3    C7 7220   1.739   4.075  12.188 -0.1679 -0.6837  0.1862
  485TMC3    C8 7221   1.739   3.819  12.507  0.2368 -0.8787 -0.0369
  485TMC3    O1 7222   1.700   4.147  12.099 -0.8737 -0.1687  0.1200
  485TMC3    O2 7223   1.850   3.797  12.459  0.6890  0.2344  0.3122
  486MPD2     C 7224   3.317   2.717  13.231 -0.4736  0.3132  1.0145
  486MPD2    C1 7225   3.292   2.691  13.096  0.0738 -0.0227 -0.5832
  486MPD2    C2 7226   3.276   2.798  13.013  0.1354  0.5458 -0.0493
  486MPD2    C3 7227   3.292   2.929  13.054 -0.0801  0.2888  0.5118
  486MPD2    C4 7228   3.320   2.950  13.184  0.4423 -0.3106  0.3736
  486MPD2    C5 7229   3.342   2.843  13.276  0.2836 -0.7848 -0.2142
  486MPD2     H 7230   3.247   2.788  12.909 -0.7381  0.0095  0.2475
  486MPD2    H1 7231   3.331   3.049  13.227 -0.4970 -0.6407  1.3725
  486MPD2    H2 7232   3.340   2.638  13.301  0.4044 -0.9171 -0.6710
  486MPD2    H3 7233   3.370   2.863  13.378  2.0543  0.0869 -0.8629
  486MPD2     N 7234   3.284   3.037  12.957  0.8667  1.1067  0.5059
  486MPD2    H5 7235   3.261   3.012  12.862 -0.2504 -0.6871  1.2292
  486MPD2    N1 7236   3.266   2.561  13.051 -0.2683 -0.1883  0.0317
  486MPD2    H7 7237   3.302   2.484  13.106  0.4302  0.5918  0.6638
  487TMC3    C1 7238   3.168   2.386  12.934  0.3912  0.6223  1.0073
  487TMC3    C2 7239   3.071   2.344  12.850  0.2343  0.2265  0.2423
  487TMC3    C3 7240   3.018   2.224  12.871 -0.0365 -0.5966 -0.1309
  487TMC3    C4 7241   3.232   2.298  13.015  1.1226  0.3687  0.7172
  487TMC3    C5 7242   3.181   2.168  13.023 -0.5026 -0.8083  0.0741
  487TMC3    C6 7243   3.069   2.132  12.957 -0.3293  0.9020  0.4402
  487TMC3     C 7244   3.192   2.528  12.938  0.2688  0.2744 -0.6047
  487TMC3     O 7245   3.147   2.601  12.851  0.6242  0.0393 -0.0167
  487TMC3     H 7246   3.019   2.410  12.781  0.9911  0.6893  0.1168
  487TMC3    H1 7247   3.320   2.325  13.073  0.9161  0.1490  1.1352
  487TMC3    H2 7248   3.021   2.048  13.004 -2.2689  1.9396  0.3112
  487TMC3    C7 7249   3.187   2.106  13.158 -0.2072  0.4729  0.1598
  487TMC3    C8 7250   2.878   2.214  12.869 -0.9450 -0.5704 -0.3614
  487TMC3    O1 7251   3.087   2.057  13.210  0.1382 -0.5339 -0.1402
  487TMC3    O2 7252   2.815   2.316  12.906  0.3307 -0.2726 -0.0428
  488MPD2     C 7253   2.847   4.216  16.339  0.2086 -0.5967 -0.1800
  488MPD2    C1 7254   2.866   4.332  16.413  0.1151 -0.0518 -0.0983
  488MPD2    C2 7255   2.866   4.332  16.549  0.7003  0.1380  0.6320
  488MPD2    C3 7256   2.862   4.216  16.623 -0.3400 -0.2271 -0.7796
  488MPD2    C4 7257   2.839   4.103  16.553  0.2201  0.3758  0.8258
  488MPD2    C5 7258   2.822   4.106  16.416  0.6161 -0.7340  0.2876
  488MPD2     H 7259   2.868   4.426  16.603  1.1403  1.0311 -0.9168
  488MPD2    H1 7260   2.811   4.014  16.609 -0.4601 -0.8820 -1.5100
  488MPD2    H2 7261   2.835   4.222  16.231 -1.4844  1.3790  0.1326
  488MPD2    H3 7262   2.785   4.014  16.373  0.1108  0.4342 -1.7769
  488MPD2     N 7263   2.870   4.224  16.763 -0.2943  0.1043 -0.1982
  488MPD2    H5 7264   2.895   4.313  16.805  1.1729  0.8049 -2.5743
  488MPD2    N1 7265   2.887   4.463  16.351 -0.1405  0.4143 -0.5120
  488MPD2    H7 7266   2.904   4.541  16.413  0.9110  1.2037 -1.8044
  489TMC3    C1 7267   2.916   4.151  16.985 -0.7185 -0.9429  0.4623
  489TMC3    C2 7268   3.022   4.237  17.003  0.3094 -0.0764  0.0747
  489TMC3    C3 7269   3.072   4.268  17.131 -0.0703  0.0005 -0.7458
  489TMC3    C4 7270   2.883   4.068  17.090  0.4705 -0.2727  0.2713
  489TMC3    C5 7271   2.938   4.098  17.211 -0.3933 -0.1519  1.2377
  489TMC3    C6 7272   3.030   4.195  17.236  0.3489 -0.2589  0.1661
  489TMC3     C 7273   2.861   4.115  16.851  0.1700  0.2878  0.2994
  489TMC3     O 7274   2.807   4.008  16.832  0.6038  0.4838  0.6910
  489TMC3     H 7275   3.057   4.302  16.924  0.0357  0.1883  0.1690
  489TMC3    H1 7276   2.801   3.998  17.074 -0.1501  0.5030  0.0403
  489TMC3    H2 7277   3.060   4.212  17.339 -1.8404  1.3420  0.5372
  489TMC3    C7 7278   2.901   4.019  17.330  0.1121 -0.0544 -0.1443
  489TMC3    C8 7279   3.135   4.393  17.155  0.5117 -0.7591  0.3478
  489TMC3    O1 7280   2.968   4.032  17.435  0.3520 -0.2999 -0.6288
  489TMC3    O2 7281   3.204   4.439  17.066  0.5688  0.3126  0.3836
  490MPD2     C 7282   3.582   4.230   0.194 -0.5188 -0.5377 -0.4703
  490MPD2    C1 7283   3.660   4.161   0.102 -0.2543 -0.7599  0.1908
  490MPD2    C2 7284   3.797   4.174   0.110 -0.3598  0.1078  0.2037
  490MPD2    C3 7285   3.853   4.261   0.206 -0.4865 -0.4261 -0.0880
  490MPD2    C4 7286   3.770   4.338   0.283  0.5126 -0.8071 -0.1095
  490MPD2    C5 7287   3.634   4.324   0.278 -0.0619  0.5250  0.3702
  490MPD2     H 7288   3.864   4.113   0.051 -0.7570  0.5049 -0.6611
  490MPD2    H1 7289   3.811   4.407   0.356  0.3676 -0.7761 -0.0563
  490MPD2    H2 7290   3.474   4.217   0.195 -0.3964 -1.5748 -0.9333
  490MPD2    H3 7291   3.568   4.363   0.355  0.7771 -0.6704  1.6856
  490MPD2     N 7292   3.989   4.273   0.235 -0.1601  0.3401 -0.5477
  490MPD2    H5 7293   4.024   4.332   0.310 -0.8484 -0.4935  0.4250
  490MPD2    N1 7294   3.595   4.068   0.016 -0.6794 -0.3544  0.0211
  490MPD2    H7 7295   3.493   4.070   0.022 -0.6948  1.1593 -0.8205
  491TMC3    C1 7296   3.585   3.844  17.647 -0.0809  1.2268  0.2703
  491TMC3    C2 7297   3.500   3.809   0.042  0.2291  0.5611 -0.1890
  491TMC3    C3 7298   3.471   3.675   0.071  0.7053 -0.0083 -0.3072
  491TMC3    C4 7299   3.628   3.746  17.565 -0.1003  0.2751  0.0900
  491TMC3    C5 7300   3.597   3.611  17.585 -0.2161 -0.3428 -0.5545
  491TMC3    C6 7301   3.514   3.573  17.686 -0.7773  0.4453  0.6679
  491TMC3     C 7302   3.658   3.968  17.649 -0.1478 -0.0296  0.3768
  491TMC3     O 7303   3.771   3.961  17.602 -0.3243 -0.2396 -0.2764
  491TMC3     H 7304   3.467   3.888   0.108 -0.2612  1.1004 -1.0661
  491TMC3    H1 7305   3.698   3.776  17.487 -2.0628 -0.8349 -2.0873
  491TMC3    H2 7306   3.477   3.472  17.697  1.8141 -0.2873  2.6685
  491TMC3    C7 7307   3.627   3.521  17.481  0.7736 -0.0775  0.4789
  491TMC3    C8 7308   3.418   3.647   0.200  0.5482  0.3091 -0.2311
  491TMC3    O1 7309   3.667   3.560  17.372 -0.2993 -0.5490  0.2969
  491TMC3    O2 7310   3.400   3.737   0.284 -0.0792  0.2892 -0.0222
  492MPD2     C 7311   0.036   3.544  11.803 -0.7434  0.3479 -0.0108
  492MPD2    C1 7312   4.648   3.552  11.726 -0.6452 -0.2859  0.7425
  492MPD2    C2 7313   4.524   3.560  11.785  0.3659 -0.1241 -0.6098
  492MPD2    C3 7314   4.513   3.555  11.922 -0.5964 -0.2450  0.6690
  492MPD2    C4 7315   4.622   3.522  12.000  0.8265 -0.0886  0.0268
  492MPD2    C5 7316   0.019   3.524  11.939  0.4361  1.2944  1.0217
  492MPD2     H 7317   4.432   3.601  11.745  0.5981  2.0138  1.0667
  492MPD2    H1 7318   4.622   3.501  12.106  1.4097  1.3710  0.3183
  492MPD2    H2 7319   0.138   3.545  11.767 -1.0175 -0.2716 -0.7918
  492MPD2    H3 7320   0.107   3.503  12.000  0.9401  0.8637  0.1435
  492MPD2     N 7321   4.392   3.555  12.001  0.1885 -0.4428 -0.1778
  492MPD2    H5 7322   4.404   3.539  12.101 -0.8549 -2.7853 -0.4177
  492MPD2    N1 7323   4.668   3.569  11.590  0.1918 -0.3267 -0.5909
  492MPD2    H7 7324   0.037   3.570  11.553  0.8065  3.1390  1.0782
  493TMC3    C1 7325   4.614   3.601  11.365 -0.6771  0.4206 -0.5258
  493TMC3    C2 7326   4.697   3.706  11.343  0.1932 -0.4661 -0.2094
  493TMC3    C3 7327   4.724   3.741  11.213  0.4945 -0.4275  0.0157
  493TMC3    C4 7328   4.551   3.536  11.264 -0.4123 -0.3406  0.5469
  493TMC3    C5 7329   4.568   3.571  11.137  0.0405  0.2379  0.0770
  493TMC3    C6 7330   4.653   3.679  11.107  0.1618  0.8190 -0.9941
  493TMC3     C 7331   4.562   3.574  11.502  0.3096 -0.0456  0.0333
  493TMC3     O 7332   4.442   3.536  11.506 -0.4211  0.1127 -0.0844
  493TMC3     H 7333   0.009   3.770  11.423  0.0172 -1.0099  0.3052
  493TMC3    H1 7334   4.461   3.480  11.285  0.5014 -1.9104  0.2427
  493TMC3    H2 7335   4.668   3.715  11.006 -2.1850  0.4891 -1.4524
  493TMC3    C7 7336   4.466   3.525  11.044  0.5462 -0.6267 -0.1535
  493TMC3    C8 7337   0.092   3.849  11.193 -0.5968  0.4647  0.2437
  493TMC3    O1 7338   4.435   3.610  10.961  0.1421  0.2253 -0.0584
  493TMC3    O2 7339   0.176   3.866  11.283  0.0569 -0.3814  0.3768
  494TMC3    C1 7340   4.664   1.174   0.619  0.0145  0.4345 -0.7030
  494TMC3    C2 7341   4.650   1.038   0.626 -0.1269  0.2842 -0.2082
  494TMC3    C3 7342   4.672   0.960   0.511  0.1907  0.2752 -0.0705
  494TMC3    C4 7343   4.710   1.234   0.503  0.0514  0.2378 -0.3250
  494TMC3    C5 7344   0.013   1.155   0.391 -0.6882  0.1234  0.1299
  494TMC3    C6 7345   4.716   1.015   0.394 -0.7125 -0.3574 -0.3308
  494TMC3     C 7346   4.620   1.257   0.725 -0.6586 -0.4094  0.1897
  494TMC3     O 7347   4.517   1.226   0.789 -0.0323  0.5642  0.4826
  494TMC3     H 7348   4.623   0.988   0.718 -0.2343 -0.3236 -0.5703
  494TMC3    H1 7349   4.692   1.338   0.479  0.9424  0.8591  1.6260
  494TMC3    H2 7350   0.020   0.958   0.307  1.1745 -1.5293  1.0830
  494TMC3    C7 7351   0.080   1.224   0.278 -0.4365 -0.6023 -0.7673
  494TMC3    C8 7352   4.691   0.812   0.527  1.0181 -0.4428  0.0063
  494TMC3    O1 7353   0.055   1.184   0.166  0.1468 -0.7933  0.0493
  494TMC3    O2 7354   4.706   0.764   0.640  0.7309  0.1742  0.4444
  495TMC3    C1 7355   3.565   3.210  14.948  0.3315  1.2317  0.0597
  495TMC3    C2 7356   3.542   3.307  14.851  0.0257  0.0098 -0.7836
  495TMC3    C3 7357   3.413   3.360  14.840  0.1937  0.3051  0.5761
  495TMC3    C4 7358   3.475   3.180  15.045 -0.0640 -0.3910  0.3984
  495TMC3    C5 7359   3.355   3.252  15.038  0.3174  0.7171  0.1686
  495TMC3    C6 7360   3.323   3.332  14.932  0.4033 -0.1172  0.9586
  495TMC3     C 7361   3.611   3.078  14.896 -0.1807 -0.2457  0.4415
  495TMC3     O 7362   3.546   2.979  14.922  0.2398  0.3536 -0.2738
  495TMC3     H 7363   3.618   3.352  14.788  0.0053  0.3859 -0.5384
  495TMC3    H1 7364   3.496   3.110  15.124  0.4935  0.5168  1.0572
  495TMC3    H2 7365   3.228   3.385  14.934 -0.0406 -0.9126  0.9453
  495TMC3    C7 7366   3.249   3.198  15.113  0.9280 -0.3501 -0.8662
  495TMC3    C8 7367   3.363   3.336  14.708 -0.5434 -0.0281 -0.8021
  495TMC3    O1 7368   3.134   3.207  15.076 -0.4641  0.1349  0.3698
  495TMC3    O2 7369   3.243   3.334  14.699 -0.0264 -0.2188 -0.3698
  496MPD2     C 7370   1.033   2.955  15.567  0.6988 -0.5109  0.4306
  496MPD2    C1 7371   1.009   2.836  15.497  0.4582  0.1398 -0.0488
  496MPD2    C2 7372   0.904   2.758  15.542  0.5443  0.3122  0.1013
  496MPD2    C3 7373   0.824   2.797  15.649  0.4469 -0.0204 -0.2072
  496MPD2    C4 7374   0.851   2.917  15.718 -0.0789 -0.3882 -0.3817
  496MPD2    C5 7375   0.954   2.994  15.668 -0.2177  0.4408 -0.6331
  496MPD2     H 7376   0.885   2.661  15.497  1.7458 -0.2844  0.8645
  496MPD2    H1 7377   0.789   2.950  15.800 -2.3169 -1.9373 -1.4516
  496MPD2    H2 7378   1.120   3.011  15.536  1.5939 -0.8107  2.4407
  496MPD2    H3 7379   0.989   3.083  15.718  1.3127 -0.0903 -0.7684
  496MPD2     N 7380   0.714   2.720  15.699 -0.1621 -0.0539 -0.4750
  496MPD2    H5 7381   0.675   2.752  15.787  2.9629 -1.9715  1.6417
  496MPD2    N1 7382   1.098   2.791  15.401  0.5386 -0.8635  0.4381
  496MPD2    H7 7383   1.163   2.861  15.365 -0.5805 -0.3994 -0.7099
  497TMC3    C1 7384   0.532   2.563  15.715  0.0248 -0.3394  0.3835
  497TMC3    C2 7385   0.456   2.465  15.650  0.2525 -0.0162 -0.4282
  497TMC3    C3 7386   0.353   2.408  15.727 -0.5830 -0.2319 -0.2162
  497TMC3    C4 7387   0.501   2.613  15.838  0.2678 -0.2946  0.5360
  497TMC3    C5 7388   0.395   2.554  15.901  0.3508  0.3459 -0.7066
  497TMC3    C6 7389   0.315   2.454  15.850 -0.6449 -0.0495  0.6216
  497TMC3     C 7390   0.647   2.614  15.634  0.1134  0.8862  0.4057
  497TMC3     O 7391   0.677   2.558  15.531 -0.3986 -0.1197  0.3519
  497TMC3     H 7392   0.481   2.436  15.548  0.3441 -1.7422  0.0902
  497TMC3    H1 7393   0.541   2.703  15.883  2.1987 -0.9835  0.1848
  497TMC3    H2 7394   0.240   2.398  15.904  1.1266 -0.6561  2.4642
  497TMC3    C7 7395   0.351   2.601  16.030  0.0298  0.4772 -0.4262
  497TMC3    C8 7396   0.262   2.308  15.669  0.4030 -0.5178 -0.0542
  497TMC3    O1 7397   0.238   2.574  16.062 -0.4988 -0.6365  0.0363
  497TMC3    O2 7398   0.142   2.299  15.705 -0.3308  0.5111  0.5610
  498MPD2     C 7399   2.511   3.164   9.570 -0.5365  0.0213 -0.2776
  498MPD2    C1 7400   2.460   3.291   9.548  0.5753 -0.4571 -0.7918
  498MPD2    C2 7401   2.328   3.298   9.508  0.1624  0.4482  0.1823
  498MPD2    C3 7402   2.246   3.186   9.512  0.2775  0.7427  0.0059
  498MPD2    C4 7403   2.297   3.070   9.542 -0.5207 -0.1103  0.0318
  498MPD2    C5 7404   2.431   3.056   9.568 -0.1149 -0.2660 -0.2132
  498MPD2     H 7405   2.278   3.388   9.475 -1.6240 -0.5819  0.0990
  498MPD2    H1 7406   2.235   2.982   9.553  0.7771 -1.4038 -3.0317
  498MPD2    H2 7407   2.611   3.149   9.609 -0.5028  3.7662  1.0411
  498MPD2    H3 7408   2.457   2.956   9.601  1.7816  0.0848 -0.6410
  498MPD2     N 7409   2.105   3.199   9.489 -0.5607 -0.0868 -0.3433
  498MPD2    H5 7410   2.061   3.290   9.477  0.4899  0.5704  0.8212
  498MPD2    N1 7411   2.530   3.405   9.544 -0.3163  0.2285 -0.1262
  498MPD2    H7 7412   2.481   3.492   9.526  2.6171  1.7534 -0.7414
  499TMC3    C1 7413   2.721   3.548   9.553  0.0779 -0.3875 -0.5656
  499TMC3    C2 7414   2.847   3.566   9.604  0.4240  0.7839 -0.4165
  499TMC3    C3 7415   2.883   3.693   9.634  0.0689 -0.0298  0.3301
  499TMC3    C4 7416   2.637   3.656   9.520 -0.3171  0.0302  0.2184
  499TMC3    C5 7417   2.687   3.784   9.537  0.2403 -0.3303 -0.3128
  499TMC3    C6 7418   2.805   3.797   9.605  0.0648  0.7512  0.1180
  499TMC3     C 7419   2.659   3.421   9.572 -0.1957  0.1914 -0.1498
  499TMC3     O 7420   2.738   3.328   9.598 -0.3581 -0.7641 -0.1341
  499TMC3     H 7421   2.927   3.494   9.590  0.4467  0.9386 -1.0730
  499TMC3    H1 7422   2.540   3.641   9.475  0.6628 -0.2673 -1.7847
  499TMC3    H2 7423   2.829   3.893   9.650 -0.5395  1.9292 -2.0809
  499TMC3    C7 7424   2.614   3.910   9.502  0.2660  0.0840 -0.2643
  499TMC3    C8 7425   3.018   3.733   9.644  0.2217  0.5365 -0.1429
  499TMC3    O1 7426   2.682   4.007   9.521 -0.3476  0.2489  0.0400
  499TMC3    O2 7427   3.038   3.846   9.608 -0.2784  0.0931  0.2730
  500MPD2     C 7428   3.582   0.123  10.872 -0.2982 -0.3440 -0.4681
  500MPD2    C1 7429   3.637   0.183  10.756  0.3081 -0.9029  0.2620
  500MPD2    C2 7430   3.561   0.198  10.645  0.0286  0.1647 -0.3436
  500MPD2    C3 7431   3.428   0.154  10.649  0.0772 -0.2603  0.1065
  500MPD2    C4 7432   3.374   0.102  10.761  0.1812 -0.1512  0.2160
  500MPD2    C5 7433   3.450   0.083  10.869 -0.8183  1.1662 -0.4311
  500MPD2     H 7434   3.604   0.253  10.561  1.7422  2.0601  1.7770
  500MPD2    H1 7435   3.276   0.058  10.757  1.3855 -2.5081 -3.5149
  500MPD2    H2 7436   3.646   0.113  10.958 -0.1582  1.2096 -0.3806
  500MPD2    H3 7437   3.415   0.027  10.955 -1.5766  0.9251 -0.9018
  500MPD2     N 7438   3.341   0.169  10.539 -0.3825  0.3900  0.1278
  500MPD2    H5 7439   3.248   0.127  10.545  0.4430 -1.5935 -1.0647
  500MPD2    N1 7440   3.773   0.222  10.746 -0.8078  0.1698 -0.0936
  500MPD2    H7 7441   3.794   0.270  10.659  2.0481 -1.2727 -0.1965
  501TMC3    C1 7442   4.000   0.256  10.808  0.5358  0.3882 -0.1256
  501TMC3    C2 7443   4.018   0.329  10.692 -0.5536 -0.5052 -0.1730
  501TMC3    C3 7444   4.126   0.412  10.692 -0.2369  0.6387  0.1227
  501TMC3    C4 7445   4.087   0.251  10.909 -0.0722  0.2468 -0.4400
  501TMC3    C5 7446   4.206   0.314  10.884 -0.2578 -0.1685 -0.4708
  501TMC3    C6 7447   4.231   0.402  10.780  0.2530  0.7968 -0.2116
  501TMC3     C 7448   3.868   0.197  10.843 -0.3250 -0.0370 -0.1069
  501TMC3     O 7449   3.861   0.138  10.952  0.3354  0.4075  0.0572
  501TMC3     H 7450   3.939   0.337  10.618  0.3792  0.2334 -1.0948
  501TMC3    H1 7451   4.078   0.196  11.002 -1.1639 -0.9183 -1.2478
  501TMC3    H2 7452   4.322   0.458  10.763  0.3277  0.4489 -0.9198
  501TMC3    C7 7453   4.317   0.265  10.951 -0.6107 -0.2096 -0.1119
  501TMC3    C8 7454   4.086   0.539  10.637 -0.0207  0.6712 -0.2615
  501TMC3    O1 7455   4.311   0.150  10.999 -0.0360 -0.1359  0.0148
  501TMC3    O2 7456   3.967   0.565  10.626  0.4685 -0.1592  0.4025
  502TMC3    C1 7457   2.933   4.125  15.115  0.1106  0.1896 -0.0050
  502TMC3    C2 7458   2.887   4.244  15.077  0.2336  0.1839 -0.6876
  502TMC3    C3 7459   2.792   4.241  14.977 -0.5723 -0.2272  0.8404
  502TMC3    C4 7460   2.894   4.002  15.069 -0.3190  0.5074 -0.3281
  502TMC3    C5 7461   2.795   4.004  14.973 -0.4018 -0.1031 -0.2407
  502TMC3    C6 7462   2.749   4.127  14.923  0.0385  0.3303  0.1941
  502TMC3     C 7463   3.047   4.132  15.202  0.2925 -0.2446  0.5033
  502TMC3     O 7464   3.119   4.232  15.189  0.4765  0.3238  0.4014
  502TMC3     H 7465   2.942   4.334  15.105 -0.0353 -0.2562  1.2075
  502TMC3    H1 7466   2.932   3.906  15.103 -1.6769  0.1282  0.1345
  502TMC3    H2 7467   2.659   4.136  14.863  1.4299  0.8075 -1.8467
  502TMC3    C7 7468   2.715   3.878  14.943 -0.2914 -0.0807 -0.2125
  502TMC3    C8 7469   2.744   4.358  14.914  0.2131  0.5176 -0.2176
  502TMC3    O1 7470   2.772   3.770  14.959 -0.1388  0.6691  0.2253
  502TMC3    O2 7471   2.702   4.340  14.802 -0.4832  0.0204 -0.4330
  503MPD2     C 7472   0.211   4.403   0.037 -0.0774  0.8795 -0.6845
  503MPD2    C1 7473   0.338   4.449   0.041  0.3199 -0.4578  0.2254
  503MPD2    C2 7474   0.446   4.369   0.011 -0.4348 -0.5351  0.5293
  503MPD2    C3 7475   0.414   4.235  17.671 -0.1813  0.7328 -0.7238
  503MPD2    C4 7476   0.285   4.196  17.668 -0.3520 -0.4196 -0.6648
  503MPD2    C5 7477   0.181   4.276   0.004 -0.1665 -0.2295  0.4388
  503MPD2     H 7478   0.548   4.403   0.014 -0.9038  0.7505  1.8397
  503MPD2    H1 7479   0.253   4.096  17.642 -0.2286  0.1244 -2.9197
  503MPD2    H2 7480   0.130   4.474   0.047 -1.0440 -0.3730  0.2518
  503MPD2    H3 7481   0.079   4.242  17.696 -0.1614 -0.1013 -0.0261
  503MPD2     N 7482   0.519   4.147  17.629  0.1837  0.0407 -0.6612
  503MPD2    H5 7483   0.613   4.172  17.657 -1.2955  1.3160  3.1933
  503MPD2    N1 7484   0.346   4.586   0.076 -0.2319  0.8567  0.3199
  503MPD2    H7 7485   0.254   4.629   0.082 -0.5307  0.0753  1.1778
  504TMC3    C1 7486   0.615   3.934  17.582  0.6633  0.0755  0.8736
  504TMC3    C2 7487   0.694   3.943  17.691 -0.5301  0.1960  0.1260
  504TMC3    C3 7488   0.763   3.831   0.024  0.6568 -0.1896 -0.2508
  504TMC3    C4 7489   0.619   3.819  17.508  0.7570 -0.5141 -0.5268
  504TMC3    C5 7490   0.704   3.713  17.538 -0.6196 -0.5175 -0.1770
  504TMC3    C6 7491   0.770   3.718  17.653  0.7799 -0.8429 -0.0757
  504TMC3     C 7492   0.504   4.030  17.557 -0.1329 -0.1853 -0.0630
  504TMC3     O 7493   0.410   4.002  17.487  0.4918 -0.3376  0.1158
  504TMC3     H 7494   0.699   4.037   0.043  1.1843  0.6646 -0.8267
  504TMC3    H1 7495   0.538   3.798  17.439  1.3154  0.2151 -1.3882
  504TMC3    H2 7496   0.846   3.647  17.684  1.5349  1.6487  3.8728
  504TMC3    C7 7497   0.750   3.630  17.427 -0.8260  0.3104  0.3214
  504TMC3    C8 7498   0.866   3.854   0.124 -0.3734 -0.6766  0.1344
  504TMC3    O1 7499   0.709   3.673  17.324  0.2554 -0.3152  0.0226
  504TMC3    O2 7500   0.979   3.813   0.106  0.4115 -0.8027 -0.0158
  505MPD2     C 7501   0.945   3.711   9.403  0.0949 -0.3090  0.2454
  505MPD2    C1 7502   0.876   3.656   9.511 -0.7582  0.1205  0.0423
  505MPD2    C2 7503   0.907   3.722   9.636 -0.7310 -1.1181  0.0513
  505MPD2    C3 7504   0.996   3.828   9.642  0.2569  0.6360 -0.2949
  505MPD2    C4 7505   1.064   3.874   9.532  0.0569 -0.4880  1.2497
  505MPD2    C5 7506   1.040   3.807   9.418  0.7579 -0.5747 -0.4696
  505MPD2     H 7507   0.866   3.689   9.730 -2.4487 -0.3915 -0.4363
  505MPD2    H1 7508   1.145   3.946   9.532 -0.2753 -0.1034  0.0989
  505MPD2    H2 7509   0.928   3.667   9.306  1.2580 -1.0603  0.3836
  505MPD2    H3 7510   1.081   3.844   9.325  1.0854  1.7976  0.6276
  505MPD2     N 7511   1.018   3.885   9.772  0.2390 -0.0281  0.8333
  505MPD2    H5 7512   0.986   3.840   9.857  0.4482 -1.6302  0.0623
  505MPD2    N1 7513   0.791   3.539   9.497  0.2476  0.0238  0.0880
  505MPD2    H7 7514   0.789   3.501   9.402  0.5020 -1.0524  0.5120
  506TMC3    C1 7515   0.676   3.345   9.575  0.0970 -0.2567 -0.3213
  506TMC3    C2 7516   0.740   3.255   9.491  0.0205  0.8482  0.2934
  506TMC3    C3 7517   0.732   3.120   9.512 -0.0779  0.3641  0.0511
  506TMC3    C4 7518   0.613   3.300   9.686 -0.2393 -0.3991  0.7266
  506TMC3    C5 7519   0.623   3.164   9.709 -0.1682  0.4792  0.6227
  506TMC3    C6 7520   0.684   3.073   9.629  0.2664  0.2569  0.4833
  506TMC3     C 7521   0.718   3.479   9.595 -0.5677  0.1522  0.3725
  506TMC3     O 7522   0.715   3.519   9.710  0.1299  0.2540 -0.6319
  506TMC3     H 7523   0.794   3.286   9.402  0.5836  2.5616  1.2336
  506TMC3    H1 7524   0.556   3.368   9.747 -0.0291 -0.0687  0.5592
  506TMC3    H2 7525   0.703   2.969   9.653 -1.6480 -0.2689 -0.2839
  506TMC3    C7 7526   0.682   3.154   9.837 -0.0015  0.5408 -0.5434
  506TMC3    C8 7527   0.832   3.034   9.456  0.5103  0.5852 -0.1456
  506TMC3    O1 7528   0.686   3.046   9.897 -0.7575 -0.5774 -0.3501
  506TMC3    O2 7529   0.793   2.918   9.448  0.4792  0.4769  0.0419
  507TMC3    C1 7530   1.406   3.873  14.728  0.0315  0.7519  0.6921
  507TMC3    C2 7531   1.435   3.802  14.614 -0.0753  0.0656  0.5952
  507TMC3    C3 7532   1.505   3.870  14.519  0.1931  0.1966 -0.3930
  507TMC3    C4 7533   1.457   3.991  14.762  0.3852 -0.1130  0.0941
  507TMC3    C5 7534   1.531   4.056  14.666  0.3635  0.4201 -0.4525
  507TMC3    C6 7535   1.565   3.992  14.550  0.6733 -0.3329 -0.5675
  507TMC3     C 7536   1.285   3.842  14.809  0.3511 -0.1244 -0.5120
  507TMC3     O 7537   1.284   3.889  14.921  0.4741  0.1725 -0.0857
  507TMC3     H 7538   1.400   3.700  14.601  0.6476 -0.5149  3.3526
  507TMC3    H1 7539   1.418   4.041  14.849  0.6993 -1.1519  0.8273
  507TMC3    H2 7540   1.627   4.041  14.476  0.8409 -0.7381 -0.6994
  507TMC3    C7 7541   1.486   4.191  14.634 -0.3077  0.8346  0.2901
  507TMC3    C8 7542   1.450   3.860  14.385  0.3043  0.5470 -0.2366
  507TMC3    O1 7543   1.471   4.205  14.512 -0.6741  0.1763 -0.0906
  507TMC3    O2 7544   1.408   3.755  14.340  0.0183  0.4610 -0.1594
  508MPD2     C 7545   2.280   1.105  15.810  0.5066 -0.0843 -0.1404
  508MPD2    C1 7546   2.271   1.207  15.896  0.0179 -0.2862  0.0587
  508MPD2    C2 7547   2.252   1.335  15.844  0.4263  0.0087 -0.7056
  508MPD2    C3 7548   2.249   1.359  15.708  0.1175 -1.5072 -1.0663
  508MPD2    C4 7549   2.265   1.253  15.623  1.2256 -0.5999 -0.2732
  508MPD2    C5 7550   2.281   1.128  15.674  0.5210 -0.3885  1.3737
  508MPD2     H 7551   2.253   1.422  15.910 -2.4956 -0.3453 -0.2068
  508MPD2    H1 7552   2.264   1.262  15.515 -2.6954  0.6867 -0.1184
  508MPD2    H2 7553   2.302   1.003  15.840 -1.8904 -0.5244  0.1885
  508MPD2    H3 7554   2.308   1.042  15.614 -2.9435 -0.4084 -0.1451
  508MPD2     N 7555   2.239   1.493  15.664  0.0371 -0.5015  0.2019
  508MPD2    H5 7556   2.246   1.567  15.733 -2.5582 -1.3835  1.4426
  508MPD2    N1 7557   2.283   1.176  16.033  0.5178 -0.1888 -0.3701
  508MPD2    H7 7558   2.290   1.079  16.062  0.7084 -0.4482 -1.2870
  509TMC3    C1 7559   2.176   1.842  15.371 -0.3411 -0.1819  0.1081
  509TMC3    C2 7560   2.244   1.923  15.450  0.0467 -0.7978 -0.2416
  509TMC3    C3 7561   2.293   1.880  15.567 -0.2237 -0.5945  0.4380
  509TMC3    C4 7562   2.153   1.716  15.405  0.7597 -0.0671  0.0195
  509TMC3    C5 7563   2.213   1.671  15.516 -0.4422  0.1648  0.1696
  509TMC3    C6 7564   2.293   1.747  15.593  0.4483  0.2362 -0.4275
  509TMC3     C 7565   2.092   1.888  15.262  0.0627  0.1546 -0.3944
  509TMC3     O 7566   2.046   1.811  15.186  0.8596 -0.6029 -0.4191
  509TMC3     H 7567   2.264   2.022  15.411  1.5013 -0.5403  1.1280
  509TMC3    H1 7568   2.090   1.655  15.341  0.7425  0.3394 -0.3557
  509TMC3    H2 7569   2.344   1.711  15.681  0.1360  2.6501  0.7404
  509TMC3    C7 7570   2.211   1.533  15.536  0.4962 -0.5219 -0.2487
  509TMC3    C8 7571   2.394   1.963  15.639  0.4621 -0.0730  0.2992
  509TMC3    O1 7572   2.189   1.472  15.430 -0.1348 -0.7829  0.4301
  509TMC3    O2 7573   2.463   1.904  15.722 -0.3091  0.0637 -0.0468
  510MPD2     C 7574   0.166   3.530  14.438 -0.1958  0.3100  0.1183
  510MPD2    C1 7575   0.169   3.395  14.475 -0.4545 -0.4242  0.3378
  510MPD2    C2 7576   0.266   3.312  14.420 -0.0913  0.3043 -0.2442
  510MPD2    C3 7577   0.347   3.358  14.323  1.1484 -0.7967 -0.2165
  510MPD2    C4 7578   0.344   3.493  14.289 -0.0475  0.0201  0.1807
  510MPD2    C5 7579   0.262   3.581  14.351 -1.2015 -0.6949  0.5226
  510MPD2     H 7580   0.277   3.209  14.450 -0.3757  0.8811  1.8021
  510MPD2    H1 7581   0.418   3.535  14.223  0.4542  0.9344  1.3162
  510MPD2    H2 7582   0.106   3.602  14.492  2.2359 -0.2262  3.5484
  510MPD2    H3 7583   0.251   3.686  14.328  2.8457 -0.0127  1.7658
  510MPD2     N 7584   0.449   3.275  14.268 -0.4122  0.1772 -0.1057
  510MPD2    H5 7585   0.446   3.183  14.311 -2.1937 -0.4558 -1.5877
  510MPD2    N1 7586   0.078   3.358  14.578  0.0428  0.0559  0.1898
  510MPD2    H7 7587   0.021   3.434  14.614 -0.9107  0.2307 -1.7178
  511TMC3    C1 7588   4.655   3.225  14.700 -0.2359  0.1614  0.4054
  511TMC3    C2 7589   4.630   3.331  14.787 -1.5117 -0.3298 -0.5121
  511TMC3    C3 7590   4.548   3.303  14.890  0.1213 -0.6141  0.3002
  511TMC3    C4 7591   4.608   3.105  14.714 -0.5405 -0.1660 -0.1905
  511TMC3    C5 7592   4.517   3.081  14.819 -0.4619  0.8436  0.5965
  511TMC3    C6 7593   4.484   3.182  14.907  0.3231 -0.0075  0.1152
  511TMC3     C 7594   0.046   3.231  14.610 -0.4301 -0.1912 -0.0740
  511TMC3     O 7595   0.089   3.127  14.563 -0.6875  0.2663  0.4089
  511TMC3     H 7596   4.696   3.417  14.793 -1.2132 -0.5815 -0.2032
  511TMC3    H1 7597   4.661   3.022  14.668  0.9870 -0.4113  1.9822
  511TMC3    H2 7598   4.398   3.171  14.972 -1.0740 -0.9236 -1.8860
  511TMC3    C7 7599   4.462   2.943  14.822  0.7219  0.1388  0.3429
  511TMC3    C8 7600   4.532   3.392  14.998  0.3156 -0.1359 -0.7024
  511TMC3    O1 7601   4.481   2.878  14.721 -0.0321  0.6865  0.4223
  511TMC3    O2 7602   4.425   3.451  14.995  0.2599  0.0376  0.0830
  512TMC3    C1 7603   3.750   2.730  13.182  0.5631  0.4423 -0.1072
  512TMC3    C2 7604   3.829   2.705  13.291 -1.0241  0.0478 -0.1048
  512TMC3    C3 7605   3.832   2.577  13.335 -0.3481 -0.1479  0.4530
  512TMC3    C4 7606   3.676   2.637  13.119  0.3184  0.0101  0.5106
  512TMC3    C5 7607   3.679   2.511  13.177  0.8782 -0.4500  0.1784
  512TMC3    C6 7608   3.760   2.478  13.279 -0.3631  0.0820  0.2233
  512TMC3     C 7609   3.746   2.867  13.121 -0.0928 -0.1407 -0.0865
  512TMC3     O 7610   3.816   2.957  13.176  0.4308  0.0967  0.5254
  512TMC3     H 7611   3.884   2.789  13.332 -1.2668  0.7008 -1.0989
  512TMC3    H1 7612   3.632   2.643  13.020  3.4891 -1.5234 -0.9682
  512TMC3    H2 7613   3.755   2.380  13.324  0.3210 -0.5063 -0.9709
  512TMC3    C7 7614   3.607   2.407  13.101 -0.0633 -0.0335 -0.4891
  512TMC3    C8 7615   3.906   2.541  13.454 -0.8958 -0.1220 -0.2525
  512TMC3    O1 7616   3.518   2.457  13.029  0.2793 -0.2454 -0.2243
  512TMC3    O2 7617   3.925   2.426  13.474 -0.8135 -0.9687  0.0389
  513MPD2     C 7618   0.763   3.223  12.818  0.4054 -0.0680 -0.3328
  513MPD2    C1 7619   0.734   3.102  12.769  0.0252  0.3721 -0.5157
  513MPD2    C2 7620   0.744   2.987  12.849 -0.0587  0.4032  0.4562
  513MPD2    C3 7621   0.784   3.006  12.980  1.0365  0.3972 -0.2446
  513MPD2    C4 7622   0.796   3.136  13.033 -0.6967  0.1636  0.0587
  513MPD2    C5 7623   0.793   3.239  12.949 -0.0192  0.0475  0.1905
  513MPD2     H 7624   0.722   2.890  12.805  0.4450  0.1730  0.7072
  513MPD2    H1 7625   0.804   3.150  13.140 -0.5628 -2.3707  0.3932
  513MPD2    H2 7626   0.754   3.312  12.756 -0.3899 -0.9766 -1.5237
  513MPD2    H3 7627   0.797   3.343  12.979 -1.2587  1.0038 -2.9535
  513MPD2     N 7628   0.789   2.893  13.056 -0.5829  0.7802 -0.5215
  513MPD2    H5 7629   0.757   2.806  13.016  1.0741 -1.1039  2.2497
  513MPD2    N1 7630   0.699   3.096  12.632  0.3759  0.6811 -0.0127
  513MPD2    H7 7631   0.722   3.178  12.577 -1.1610  0.8698 -0.3685
  514TMC3    C1 7632   0.650   2.988  12.419 -0.0947 -0.9741 -0.0857
  514TMC3    C2 7633   0.763   3.033  12.352 -0.0391  0.4993 -0.1191
  514TMC3    C3 7634   0.803   2.968  12.238  0.1599 -0.1229  0.5059
  514TMC3    C4 7635   0.581   2.877  12.373  0.2761 -0.5795 -0.5360
  514TMC3    C5 7636   0.630   2.806  12.269  0.2679  0.5566  0.2428
  514TMC3    C6 7637   0.735   2.855  12.189 -0.6427 -0.6515 -0.2819
  514TMC3     C 7638   0.667   2.977  12.565  0.3912 -0.3330 -0.2418
  514TMC3     O 7639   0.613   2.869  12.602  0.7975 -0.1292 -0.0183
  514TMC3     H 7640   0.820   3.112  12.399 -0.1059  0.8806 -0.6782
  514TMC3    H1 7641   0.500   2.831  12.430  1.4867 -2.2275 -0.1163
  514TMC3    H2 7642   0.767   2.791  12.107  1.8300  1.3091 -0.8596
  514TMC3    C7 7643   0.647   2.668  12.301 -0.4892  0.8954 -0.6043
  514TMC3    C8 7644   0.914   3.030  12.162 -0.2459  0.5099 -0.4028
  514TMC3    O1 7645   0.696   2.601  12.208 -0.7253  0.0000 -0.1455
  514TMC3    O2 7646   0.987   3.104  12.225  0.4415 -0.6344  0.2193
  515MPD2     C 7647   3.942   4.323  14.539  0.2695  0.0009 -0.2467
  515MPD2    C1 7648   3.841   4.354  14.626  1.3443  0.6465 -0.3614
  515MPD2    C2 7649   3.874   4.418  14.739  0.7727 -0.6219  1.0146
  515MPD2    C3 7650   3.999   4.448  14.773 -0.0606  0.8088 -0.3901
  515MPD2    C4 7651   4.096   4.412  14.686 -0.2520  0.0871 -1.1268
  515MPD2    C5 7652   4.069   4.355  14.568  0.5083  0.0002 -0.1847
  515MPD2     H 7653   3.791   4.457  14.795  0.4486  0.0054  0.0903
  515MPD2    H1 7654   4.200   4.424  14.713 -0.4935  1.2513 -0.7335
  515MPD2    H2 7655   3.934   4.271  14.444  0.8093  0.5499 -0.5934
  515MPD2    H3 7656   4.139   4.338  14.487  0.0020 -1.0589 -0.4093
  515MPD2     N 7657   4.036   4.492  14.900 -0.7485 -0.0741 -0.1578
  515MPD2    H5 7658   4.135   4.507  14.913 -0.7621 -0.5264  0.4481
  515MPD2    N1 7659   3.704   4.348  14.592  0.7700  0.3935 -0.4029
  515MPD2    H7 7660   3.635   4.390  14.654 -1.6401 -1.3593 -1.8691
  516TMC3    C1 7661   3.514   4.272  14.461  0.2840  0.3368  0.5222
  516TMC3    C2 7662   3.465   4.252  14.336 -0.2559 -0.2045  0.0893
  516TMC3    C3 7663   3.332   4.245  14.320  0.3460  0.1844 -1.0828
  516TMC3    C4 7664   3.425   4.291  14.565 -0.5169  0.0375  0.7365
  516TMC3    C5 7665   3.297   4.259  14.546 -0.7402 -0.3123  0.0956
  516TMC3    C6 7666   3.247   4.232  14.426  0.5017 -0.1168  0.0692
  516TMC3     C 7667   3.659   4.289  14.475  0.0493  1.0783 -0.0624
  516TMC3     O 7668   3.731   4.237  14.386 -0.0162 -0.0260 -0.5700
  516TMC3     H 7669   3.543   4.251  14.261 -0.7077 -1.1030 -0.3672
  516TMC3    H1 7670   3.471   4.324  14.657  3.4099 -0.4709 -1.0169
  516TMC3    H2 7671   3.141   4.220  14.409  0.4230  0.0378  0.4479
  516TMC3    C7 7672   3.256   4.158  14.642  0.0242 -0.6714 -0.2862
  516TMC3    C8 7673   3.276   4.239  14.192  0.2187  0.2680 -0.0845
  516TMC3    O1 7674   3.283   4.183  14.759 -0.0028 -0.1383  0.0346
  516TMC3    O2 7675   3.155   4.212  14.180  0.5381 -0.2415 -0.0790
  517MPD2     C 7676   3.177   1.111   0.300  0.0869 -0.2656 -0.1768
  517MPD2    C1 7677   3.274   1.094   0.393  0.0975  0.1720 -0.3449
  517MPD2    C2 7678   3.334   1.207   0.448 -0.0801  0.1705 -0.0022
  517MPD2    C3 7679   3.291   1.335   0.415 -0.4212  0.7470  0.1995
  517MPD2    C4 7680   3.189   1.348   0.322 -0.7767 -0.1033  0.2194
  517MPD2    C5 7681   3.140   1.236   0.266 -0.1310 -0.2260 -0.3496
  517MPD2     H 7682   3.432   1.188   0.490 -0.8578  2.8383  2.9634
  517MPD2    H1 7683   3.142   1.442   0.297 -2.1008 -0.2878  2.0789
  517MPD2    H2 7684   3.127   1.033   0.244  1.2953 -0.2890 -1.2092
  517MPD2    H3 7685   3.049   1.243   0.208  0.2352 -0.4875 -0.9690
  517MPD2     N 7686   3.350   1.450   0.462 -0.0990  0.5932 -0.8582
  517MPD2    H5 7687   3.316   1.538   0.424 -1.2115  1.0949  1.3395
  517MPD2    N1 7688   3.330   0.964   0.420 -0.0626 -0.4241  0.0711
  517MPD2    H7 7689   3.414   0.956   0.478 -1.4544 -1.4725  1.9441
  518TMC3    C1 7690   3.351   0.729   0.414  0.2602 -0.1457 -0.3579
  518TMC3    C2 7691   3.285   0.614   0.428 -0.1638  0.0620 -0.5909
  518TMC3    C3 7692   3.356   0.500   0.426 -0.5585  0.2801 -0.8008
  518TMC3    C4 7693   3.490   0.731   0.394 -0.1991 -0.4147  0.6115
  518TMC3    C5 7694   3.556   0.615   0.406 -0.0911 -0.1722 -0.3207
  518TMC3    C6 7695   3.493   0.496   0.406 -0.8186 -0.6228 -0.0883
  518TMC3     C 7696   3.281   0.846   0.378  0.1343 -0.1406  0.2415
  518TMC3     O 7697   3.184   0.826   0.311  0.4443  0.2223  0.0206
  518TMC3     H 7698   3.179   0.616   0.451  0.3285 -0.6337  1.6794
  518TMC3    H1 7699   3.546   0.822   0.374 -3.2235  1.3582  0.1571
  518TMC3    H2 7700   3.542   0.400   0.397 -0.0961 -0.4293  1.6924
  518TMC3    C7 7701   3.699   0.620   0.386 -0.8246 -0.5114 -0.4384
  518TMC3    C8 7702   3.290   0.370   0.391  0.3248  0.5342 -0.5664
  518TMC3    O1 7703   3.760   0.717   0.427  0.0697 -0.6300 -0.1778
  518TMC3    O2 7704   3.356   0.266   0.398  0.2531 -0.0247  0.1583
  519MPD2     C 7705   0.711   4.161  14.539  0.4122 -0.3049  0.2559
  519MPD2    C1 7706   0.632   4.207  14.433 -0.1902  0.2106 -0.4084
  519MPD2    C2 7707   0.675   4.164  14.308  0.0988 -0.6653 -0.6068
  519MPD2    C3 7708   0.785   4.086  14.281 -0.0955 -0.6795 -0.6398
  519MPD2    C4 7709   0.860   4.052  14.389  0.1883 -0.0794  0.3665
  519MPD2    C5 7710   0.824   4.080  14.521 -0.2063 -0.6690 -0.3620
  519MPD2     H 7711   0.624   4.205  14.221 -0.9856  0.8013  0.7168
  519MPD2    H1 7712   0.945   3.986  14.380  1.1826  1.1729  0.5635
  519MPD2    H2 7713   0.686   4.200  14.637 -2.4418 -0.1434 -0.5404
  519MPD2    H3 7714   0.891   4.067  14.605  0.4394 -1.5035 -1.0217
  519MPD2     N 7715   0.832   4.054  14.151 -0.7322 -0.2724  0.8333
  519MPD2    H5 7716   0.928   4.019  14.150 -0.3003  0.9035  1.2555
  519MPD2    N1 7717   0.528   4.302  14.456 -0.0892  0.0334 -0.3264
  519MPD2    H7 7718   0.517   4.328  14.554  0.1503  1.5091 -0.6903
  520TMC3    C1 7719   0.846   4.014  13.928 -0.0225 -0.3306  0.3452
  520TMC3    C2 7720   0.791   4.042  13.812 -0.5304 -0.2559  0.3074
  520TMC3    C3 7721   0.813   3.963  13.706 -0.4583 -0.5187  0.1354
  520TMC3    C4 7722   0.927   3.904  13.945  1.2774  0.0247 -0.5089
  520TMC3    C5 7723   0.967   3.839  13.830  0.3245  0.2466  0.2899
  520TMC3    C6 7724   0.906   3.861  13.708  0.5227 -0.3519  0.6232
  520TMC3     C 7725   0.763   4.057  14.035  0.1393 -0.7277 -0.1088
  520TMC3     O 7726   0.643   4.084  14.019 -0.0296  0.1731  0.3546
  520TMC3     H 7727   0.720   4.124  13.812  1.2722  1.3098 -1.0499
  520TMC3    H1 7728   0.968   3.869  14.040  1.3735 -1.1727 -0.9979
  520TMC3    H2 7729   0.916   3.812  13.612  0.0323  0.4331  0.1677
  520TMC3    C7 7730   1.053   3.724  13.848 -0.0752 -0.6589  0.3365
  520TMC3    C8 7731   0.687   3.928  13.644  0.0789 -0.3429 -0.3340
  520TMC3    O1 7732   1.080   3.714  13.968  0.1504  0.2863  0.2206
  520TMC3    O2 7733   0.690   3.828  13.577 -0.2230  0.0943 -0.4428
  521MPD2     C 7734   1.621   2.310  17.570 -0.1730  0.0016  0.4037
  521MPD2    C1 7735   1.537   2.240  17.486  0.5684  0.1308  0.9567
  521MPD2    C2 7736   1.582   2.208  17.358 -0.3794 -0.0227  0.4759
  521MPD2    C3 7737   1.700   2.256  17.310  0.3438 -0.6774  0.1898
  521MPD2    C4 7738   1.786   2.312  17.397  0.6752  0.0840  0.1349
  521MPD2    C5 7739   1.742   2.353  17.523  0.4407  1.2877  0.5769
  521MPD2     H 7740   1.518   2.155  17.289  0.6045 -0.7655  0.1320
  521MPD2    H1 7741   1.879   2.357  17.362  0.5527 -1.9253 -2.7388
  521MPD2    H2 7742   1.592   2.332  17.672  0.1335  1.4071  0.1910
  521MPD2    H3 7743   1.807   2.416  17.583  2.9982  0.5239 -1.3478
  521MPD2     N 7744   1.740   2.213  17.183 -0.1733 -0.1702 -0.3301
  521MPD2    H5 7745   1.837   2.226  17.158 -0.3135  2.6632  0.5431
  521MPD2    N1 7746   1.414   2.189  17.545 -0.2366 -0.3915  0.3383
  521MPD2    H7 7747   1.400   2.199  17.645 -0.2156  0.2713  0.2790
  522TMC3    C1 7748   1.737   2.099  16.976  0.1378 -0.1412  0.3686
  522TMC3    C2 7749   1.843   2.019  17.010 -0.1270 -0.5327  0.4033
  522TMC3    C3 7750   1.886   1.929  16.923 -0.3036  0.1065 -0.0129
  522TMC3    C4 7751   1.666   2.071  16.866 -0.4750 -0.1267 -0.0207
  522TMC3    C5 7752   1.715   1.981  16.774 -0.3578 -0.3033  0.7118
  522TMC3    C6 7753   1.834   1.914  16.794  0.3651 -0.4412  0.2673
  522TMC3     C 7754   1.662   2.160  17.084  0.3620 -0.0020  0.5451
  522TMC3     O 7755   1.536   2.146  17.074  0.1330  0.0185 -0.0160
  522TMC3     H 7756   1.884   2.016  17.110 -1.5852  1.6000  1.0767
  522TMC3    H1 7757   1.580   2.130  16.839 -0.1877  0.1518 -0.3229
  522TMC3    H2 7758   1.870   1.849  16.715 -1.4537  0.1849 -1.0843
  522TMC3    C7 7759   1.663   1.991  16.635 -0.4274 -0.9067 -0.1871
  522TMC3    C8 7760   1.943   1.814  16.985 -0.1908  0.1625  0.1931
  522TMC3    O1 7761   1.732   1.948  16.542  0.1260  0.7873  0.2104
  522TMC3    O2 7762   1.923   1.794  17.110  0.3721  0.6784 -0.3871
  523MPD2     C 7763   4.095   1.891   9.719  0.1165  0.2335  0.6229
  523MPD2    C1 7764   3.988   1.804   9.748 -0.4561  0.1467 -0.4298
  523MPD2    C2 7765   3.863   1.839   9.698  0.3070  0.8282  0.2432
  523MPD2    C3 7766   3.841   1.969   9.648  0.1408  0.1659  0.0550
  523MPD2    C4 7767   3.945   2.060   9.647 -0.2342  0.3051 -0.2638
  523MPD2    C5 7768   4.070   2.020   9.676 -0.4625  0.1819 -0.1297
  523MPD2     H 7769   3.784   1.765   9.696  0.1133  1.1183 -2.3331
  523MPD2    H1 7770   3.928   2.159   9.607 -1.2668  0.2226 -0.0447
  523MPD2    H2 7771   4.195   1.859   9.745  0.2370  0.1951  0.1164
  523MPD2    H3 7772   4.157   2.084   9.664  0.2842 -0.0985  3.7805
  523MPD2     N 7773   3.718   2.020   9.595 -0.0476  0.1037  0.1202
  523MPD2    H5 7774   3.713   2.115   9.559  1.2400  0.9017  2.0138
  523MPD2    N1 7775   4.016   1.678   9.811  0.0225 -0.2878 -0.0511
  523MPD2    H7 7776   4.108   1.656   9.847  0.0685  1.8937  1.1720
  524TMC3    C1 7777   3.482   2.026   9.561  0.1618  0.0936  0.0753
  524TMC3    C2 7778   3.376   1.951   9.510 -0.8451 -0.2453  0.4929
  524TMC3    C3 7779   3.265   2.021   9.471 -0.3245  0.1812 -0.4284
  524TMC3    C4 7780   3.473   2.160   9.569  0.1620  0.3558  0.3102
  524TMC3    C5 7781   3.375   2.230   9.508 -0.2281  0.3909 -0.6954
  524TMC3    C6 7782   3.267   2.157   9.465 -0.3372 -0.3115 -0.2372
  524TMC3     C 7783   3.600   1.950   9.584  0.3080  0.2063 -0.3230
  524TMC3     O 7784   3.579   1.833   9.613  0.3270 -0.1057 -0.4132
  524TMC3     H 7785   3.407   1.852   9.479 -0.1783  0.1605 -0.1312
  524TMC3    H1 7786   3.554   2.211   9.621  1.7313 -0.8986 -0.8721
  524TMC3    H2 7787   3.172   2.202   9.437  0.2080  2.0041  1.6570
  524TMC3    C7 7788   3.358   2.363   9.555 -0.1088 -0.2231 -0.1000
  524TMC3    C8 7789   3.178   1.954   9.366  0.1441  0.0634 -0.2162
  524TMC3    O1 7790   3.451   2.403   9.624 -0.0143  0.5578  0.2853
  524TMC3    O2 7791   3.094   2.023   9.305 -0.9935  0.0296  0.5746
  525MPD2     C 7792   1.745   3.485  14.385  0.2745  0.3735  0.4140
  525MPD2    C1 7793   1.871   3.496  14.445 -0.0901  0.1232  0.1954
  525MPD2    C2 7794   1.952   3.608  14.418  0.0831  0.1931 -0.3708
  525MPD2    C3 7795   1.899   3.720  14.351  0.8111 -0.1855  0.0604
  525MPD2    C4 7796   1.771   3.707  14.294  0.3839  0.1853 -0.6355
  525MPD2    C5 7797   1.696   3.591  14.315  0.2511 -0.3112  0.1495
  525MPD2     H 7798   2.043   3.616  14.476  0.1496 -1.5520 -0.2151
  525MPD2    H1 7799   1.722   3.792  14.250  1.3919  0.4871 -1.1651
  525MPD2    H2 7800   1.685   3.395  14.394 -0.1100  0.4864 -1.0563
  525MPD2    H3 7801   1.599   3.589  14.266  1.2459  0.0444 -1.8665
  525MPD2     N 7802   1.970   3.837  14.319 -0.2935 -0.3185 -0.6255
  525MPD2    H5 7803   1.915   3.915  14.284  1.1501  1.4170  0.9462
  525MPD2    N1 7804   1.916   3.400  14.551 -0.2431  0.0406 -0.3996
  525MPD2    H7 7805   2.014   3.399  14.575 -0.5092 -0.8349  0.6476
  526TMC3    C1 7806   1.902   3.249  14.728  0.5345  0.5898 -0.3679
  526TMC3    C2 7807   1.820   3.219  14.837  0.3131  0.3495  0.3537
  526TMC3    C3 7808   1.870   3.173  14.954 -0.4559 -0.1099  0.0626
  526TMC3    C4 7809   2.041   3.248  14.744  0.4477  0.2203 -0.0854
  526TMC3    C5 7810   2.089   3.217  14.865 -0.0686  0.0069 -0.1031
  526TMC3    C6 7811   2.006   3.169  14.971  0.1983  0.0219 -0.8700
  526TMC3     C 7812   1.835   3.325  14.625 -0.1174  0.0639 -0.1739
  526TMC3     O 7813   1.712   3.306  14.614  0.2437  0.2872 -0.0095
  526TMC3     H 7814   1.713   3.234  14.840  0.2394  0.1644 -1.3872
  526TMC3    H1 7815   2.100   3.296  14.667 -0.0189  1.2567  0.1949
  526TMC3    H2 7816   2.043   3.125  15.063 -0.0641 -0.2409 -0.8893
  526TMC3    C7 7817   2.228   3.193  14.878  0.2987 -0.0626 -0.0267
  526TMC3    C8 7818   1.795   3.192  15.082  0.1614 -0.5635 -0.2903
  526TMC3    O1 7819   2.267   3.151  14.985  0.7370 -0.0551 -0.1780
  526TMC3    O2 7820   1.857   3.184  15.191 -0.1887  0.5201 -0.0355
  527MPD2     C 7821   4.178   1.914   1.337  0.4344  0.1398  0.6225
  527MPD2    C1 7822   4.206   1.789   1.383  0.2216  0.5192  0.1351
  527MPD2    C2 7823   4.339   1.743   1.379 -0.6503 -0.1868 -0.2701
  527MPD2    C3 7824   4.438   1.818   1.324 -0.1148 -0.2582  0.0183
  527MPD2    C4 7825   4.407   1.949   1.275 -0.4918  0.2503  0.1506
  527MPD2    C5 7826   4.280   1.993   1.290 -0.4225  0.1115  0.2068
  527MPD2     H 7827   4.358   1.646   1.423  0.0548  1.0321  2.1077
  527MPD2    H1 7828   4.484   2.018   1.245  0.0882 -0.5365 -0.1631
  527MPD2    H2 7829   4.078   1.956   1.333  0.9004  1.4145  2.3741
  527MPD2    H3 7830   4.255   2.097   1.271  2.3255  0.5523 -0.9772
  527MPD2     N 7831   4.571   1.768   1.318  1.0569 -0.4697  0.2102
  527MPD2    H5 7832   4.599   1.692   1.378 -0.1124 -0.5351  0.6717
  527MPD2    N1 7833   4.103   1.709   1.443  0.2598 -0.5929 -0.7697
  527MPD2    H7 7834   4.130   1.625   1.491 -2.1111 -0.4370  0.8314
  528TMC3    C1 7835   3.899   1.662   1.561 -0.4598 -0.2432 -0.4001
  528TMC3    C2 7836   3.960   1.576   1.644  0.0138 -0.1547 -0.8444
  528TMC3    C3 7837   3.875   1.504   1.726 -0.0095 -0.3984 -0.0398
  528TMC3    C4 7838   3.762   1.682   1.549 -0.0414 -0.0265  0.5020
  528TMC3    C5 7839   3.682   1.613   1.633  0.1337 -0.0121 -0.1320
  528TMC3    C6 7840   3.736   1.524   1.715 -0.7449 -0.2067  0.0425
  528TMC3     C 7841   3.973   1.750   1.468 -0.1087  0.1933 -0.3983
  528TMC3     O 7842   3.907   1.839   1.416 -0.4070  0.4361  0.2308
  528TMC3     H 7843   4.067   1.575   1.661 -0.1446  0.8824  0.2664
  528TMC3    H1 7844   3.724   1.754   1.476 -0.5184  0.2987  1.0739
  528TMC3    H2 7845   3.668   1.467   1.777  0.2407 -0.5116  0.8481
  528TMC3    C7 7846   3.541   1.623   1.616 -0.4011 -0.0524  0.2241
  528TMC3    C8 7847   3.926   1.403   1.814  0.0951 -0.3927 -0.0744
  528TMC3    O1 7848   3.472   1.565   1.701  0.0456  0.4608  0.0335
  528TMC3    O2 7849   4.048   1.389   1.821 -0.0645  0.0802  0.2102
  529MPD2     C 7850   2.406   0.370   0.327 -0.3793 -0.6303  0.0111
  529MPD2    C1 7851   2.435   0.229   0.325 -0.4530  0.4558 -0.7915
  529MPD2    C2 7852   2.459   0.170   0.204 -0.1583  0.0267 -0.1004
  529MPD2    C3 7853   2.481   0.245   0.092  1.0781  0.4210  0.1073
  529MPD2    C4 7854   2.470   0.384   0.096  0.3571 -0.0698 -0.0745
  529MPD2    C5 7855   2.428   0.446   0.212  0.4436 -0.3676  0.2577
  529MPD2     H 7856   2.477   0.064   0.193  0.2622  0.0909 -0.0155
  529MPD2    H1 7857   2.485   0.442   0.005  1.8951 -1.3927 -0.6491
  529MPD2    H2 7858   2.377   0.421   0.418  0.0279  2.6312 -1.7160
  529MPD2    H3 7859   2.409   0.552   0.206 -2.7542 -1.0500 -1.2559
  529MPD2     N 7860   2.514   0.192  17.670 -0.9964 -0.6535  0.4040
  529MPD2    H5 7861   2.547   0.261  17.602  1.2436 -2.0541  0.0566
  529MPD2    N1 7862   2.432   0.148   0.441  0.0059  0.2441  0.0556
  529MPD2    H7 7863   2.420   0.047   0.432 -0.9547  0.2703  0.9537
  530TMC3    C1 7864   2.441   0.097   0.676  0.0816  0.0774 -0.3932
  530TMC3    C2 7865   2.506   0.128   0.793 -0.1225  0.3576 -1.1758
  530TMC3    C3 7866   2.479   0.058   0.903  0.0390 -0.3920 -0.5464
  530TMC3    C4 7867   2.358   4.721   0.668  1.0825  0.3066 -0.2600
  530TMC3    C5 7868   2.333   4.652   0.785  0.9684 -0.6046 -0.0368
  530TMC3    C6 7869   2.380   4.688   0.911  0.4545  0.3035  0.1867
  530TMC3     C 7870   2.449   0.196   0.566 -0.0837  0.1178 -0.2225
  530TMC3     O 7871   2.482   0.312   0.596  0.1905  0.5280  0.2247
  530TMC3     H 7872   2.572   0.213   0.798  0.8253 -0.2884 -2.7637
  530TMC3    H1 7873   2.301   4.687   0.582 -0.0862  0.4749  0.4492
  530TMC3    H2 7874   2.371   4.634   1.004 -2.2447  0.8978  0.2539
  530TMC3    C7 7875   2.251   4.528   0.774 -0.2268  0.5964  0.2228
  530TMC3    C8 7876   2.557   0.093   1.024 -0.5510  0.0277 -0.3491
  530TMC3    O1 7877   2.253   4.471   0.669 -0.0637 -0.1619 -0.2432
  530TMC3    O2 7878   2.618   0.199   1.018 -0.1688  0.4933 -0.1485
  531MPD2     C 7879   0.775   2.316  12.660  0.8263  0.1156  0.1322
  531MPD2    C1 7880   0.748   2.443  12.723  0.2759 -0.0884  0.5884
  531MPD2    C2 7881   0.710   2.552  12.642 -0.2229  0.3640 -0.0109
  531MPD2    C3 7882   0.694   2.537  12.505 -0.1553 -0.2112 -0.0969
  531MPD2    C4 7883   0.722   2.411  12.451  0.5875 -0.0263 -0.3206
  531MPD2    C5 7884   0.757   2.304  12.525  0.7056 -0.4055  0.5000
  531MPD2     H 7885   0.673   2.649  12.674 -0.9593  0.1561 -0.2222
  531MPD2    H1 7886   0.727   2.387  12.346  1.4068 -1.8325  0.1195
  531MPD2    H2 7887   0.783   2.221  12.711 -0.0321 -0.9232 -1.6376
  531MPD2    H3 7888   0.762   2.212  12.466 -2.2824 -0.1520 -0.1595
  531MPD2     N 7889   0.658   2.652  12.439  0.1733 -0.3846  0.2410
  531MPD2    H5 7890   0.634   2.732  12.497  0.9799 -0.0573  0.1213
  531MPD2    N1 7891   0.769   2.450  12.861  0.1739  0.1552 -0.4708
  531MPD2    H7 7892   0.810   2.366  12.899  1.1040  0.7314 -0.2046
  532TMC3    C1 7893   0.808   2.563  13.073 -0.3065 -0.4316 -0.1347
  532TMC3    C2 7894   0.763   2.667  13.147 -0.6547  0.1324  0.0508
  532TMC3    C3 7895   0.855   2.744  13.209 -0.0767  0.4714  0.4216
  532TMC3    C4 7896   0.946   2.531  13.071 -0.0384 -0.5656  0.1675
  532TMC3    C5 7897   1.031   2.610  13.137 -0.1075 -0.0122 -0.1042
  532TMC3    C6 7898   0.989   2.720  13.207 -0.5896 -0.3695  0.0609
  532TMC3     C 7899   0.735   2.556  12.945  0.2550 -0.1886 -0.5047
  532TMC3     O 7900   0.676   2.657  12.912 -0.1073 -0.1927 -0.6607
  532TMC3     H 7901   0.660   2.698  13.130 -0.5125  1.5485  1.8471
  532TMC3    H1 7902   0.979   2.458  12.999  0.5800 -2.1962  2.1115
  532TMC3    H2 7903   1.068   2.783  13.243 -1.2627 -0.3557  1.5136
  532TMC3    C7 7904   1.167   2.579  13.142 -0.4677  0.5594  0.8657
  532TMC3    C8 7905   0.846   2.885  13.177  0.1985 -0.5161 -0.8514
  532TMC3    O1 7906   1.238   2.619  13.232 -0.2385 -0.4220 -0.2071
  532TMC3    O2 7907   0.916   2.964  13.235 -0.6386 -0.2530  0.0943
  533TMC3    C1 7908   2.156   3.997  14.302  0.0717  0.0782  0.1310
  533TMC3    C2 7909   2.273   4.038  14.362  0.2421 -0.1110 -0.5028
  533TMC3    C3 7910   2.289   4.166  14.397 -0.1097 -0.0157  0.3009
  533TMC3    C4 7911   2.057   4.089  14.283 -0.2109 -0.0035 -0.1718
  533TMC3    C5 7912   2.066   4.212  14.337 -0.0431  0.4410 -0.5850
  533TMC3    C6 7913   2.183   4.251  14.399  0.3571 -0.1857  0.6780
  533TMC3     C 7914   2.104   3.859  14.338  0.2782  0.3791  0.0615
  533TMC3     O 7915   2.184   3.786  14.391  0.1819  0.0766  0.2382
  533TMC3     H 7916   2.354   3.966  14.358 -0.6740 -1.0863 -1.4343
  533TMC3    H1 7917   1.960   4.060  14.242  0.0907 -1.1759 -0.0530
  533TMC3    H2 7918   2.190   4.354  14.434 -0.9017  0.4853 -1.0610
  533TMC3    C7 7919   1.940   4.228  14.419 -0.4110 -0.3484  1.0600
  533TMC3    C8 7920   2.412   4.232  14.424 -0.5659 -0.4199  0.2149
  533TMC3    O1 7921   1.850   4.147  14.407 -0.1435  0.2155  0.0608
  533TMC3    O2 7922   2.411   4.353  14.401 -0.3315  0.4380  0.5871
  534MPD2     C 7923   3.528   0.493   1.847 -0.0242 -0.6010  0.2411
  534MPD2    C1 7924   3.661   0.456   1.823  0.5444 -0.0772  0.3224
  534MPD2    C2 7925   3.691   0.323   1.834 -0.1174 -0.4286  0.5590
  534MPD2    C3 7926   3.595   0.229   1.870 -0.5476 -0.1837 -0.1300
  534MPD2    C4 7927   3.464   0.270   1.873  0.2084 -0.0584  0.0812
  534MPD2    C5 7928   3.428   0.398   1.859  0.2777  0.1349  0.0059
  534MPD2     H 7929   3.793   0.295   1.808  0.9804  3.0278  1.1663
  534MPD2    H1 7930   3.386   0.199   1.898  1.5551 -1.3420  0.6237
  534MPD2    H2 7931   3.502   0.599   1.851 -0.6942 -0.7848  0.8256
  534MPD2    H3 7932   3.325   0.429   1.863  0.7756  1.6225  1.6587
  534MPD2     N 7933   3.622   0.092   1.885  0.5390 -0.7173  0.8508
  534MPD2    H5 7934   3.539   0.035   1.894 -0.4404  0.7777  1.2688
  534MPD2    N1 7935   3.763   0.552   1.783  0.3743  0.0592  0.6522
  534MPD2    H7 7936   3.853   0.510   1.760 -0.1069  1.4918 -3.8379
  535TMC3    C1 7937   3.728   4.612   1.855  0.0572  0.7703 -0.6001
  535TMC3    C2 7938   3.609   4.564   1.820 -0.6609  0.9489 -0.1811
  535TMC3    C3 7939   3.599   4.465   1.732 -0.3611 -0.4205 -0.0117
  535TMC3    C4 7940   3.843   4.543   1.819 -0.0466  1.1901 -0.4334
  535TMC3    C5 7941   3.831   4.419   1.743  0.6448 -0.2087  0.0517
  535TMC3    C6 7942   3.709   4.394   1.687  0.9958 -0.5396  1.0546
  535TMC3     C 7943   3.749   0.029   1.873 -0.0143  0.0391 -0.0216
  535TMC3     O 7944   3.861   0.080   1.873 -0.1359 -0.1807  0.5141
  535TMC3     H 7945   3.514   4.611   1.841 -0.5778  2.4081 -3.0894
  535TMC3    H1 7946   3.938   4.587   1.846 -0.2676  0.6321  1.2293
  535TMC3    H2 7947   3.694   4.305   1.628  2.7823 -0.4261  0.4106
  535TMC3    C7 7948   3.945   4.345   1.706  0.1269  0.7275 -0.0281
  535TMC3    C8 7949   3.487   4.479   1.641 -0.0092 -0.1875  0.5858
  535TMC3    O1 7950   3.938   4.265   1.616  0.1740  0.6767  0.2904
  535TMC3    O2 7951   3.440   4.593   1.640  0.2955  0.1564  0.6233
  536MPD2     C 7952   3.747   3.469  16.240  0.4483  0.5977 -0.2807
  536MPD2    C1 7953   3.638   3.428  16.315 -0.3960  0.3795 -0.3893
  536MPD2    C2 7954   3.510   3.458  16.262  0.1918 -0.4625  0.1141
  536MPD2    C3 7955   3.497   3.538  16.144 -0.1295 -0.3073 -0.2421
  536MPD2    C4 7956   3.614   3.574  16.081 -0.5773  0.6123 -0.4110
  536MPD2    C5 7957   3.735   3.540  16.127  1.4287  0.7256 -0.6589
  536MPD2     H 7958   3.423   3.411  16.307  0.8829 -0.6599  1.2422
  536MPD2    H1 7959   3.614   3.636  15.992 -0.4091 -0.0976 -0.9067
  536MPD2    H2 7960   3.849   3.453  16.275  0.3072  1.1827  0.4088
  536MPD2    H3 7961   3.822   3.572  16.072  0.4833 -0.5313 -2.8735
  536MPD2     N 7962   3.375   3.572  16.089  0.5940 -0.6212 -0.1970
  536MPD2    H5 7963   3.385   3.608  15.995  0.4684 -0.4977 -0.1644
  536MPD2    N1 7964   3.665   3.344  16.424 -0.9140 -0.0451 -0.2628
  536MPD2    H7 7965   3.757   3.303  16.418 -0.7819 -0.2428  3.4740
  537TMC3    C1 7966   3.622   3.248  16.640  0.1881 -0.2120 -0.0306
  537TMC3    C2 7967   3.614   3.290  16.774  1.4804 -0.3462 -0.3014
  537TMC3    C3 7968   3.637   3.198  16.869 -0.4380 -0.3598 -0.3420
  537TMC3    C4 7969   3.646   3.118  16.603 -0.0278 -0.1429  0.1849
  537TMC3    C5 7970   3.654   3.023  16.706 -0.0178  0.4388  0.4915
  537TMC3    C6 7971   3.647   3.063  16.838 -0.3712  0.0616 -0.0479
  537TMC3     C 7972   3.578   3.337  16.533  0.6532  0.2561 -0.3990
  537TMC3     O 7973   3.510   3.428  16.571  0.3764 -0.0861  0.3227
  537TMC3     H 7974   3.593   3.393  16.803 -0.6667 -0.3021 -2.0201
  537TMC3    H1 7975   3.674   3.087  16.503 -0.2800  0.9255 -0.2137
  537TMC3    H2 7976   3.659   2.991  16.918 -0.9529  1.1084  0.9835
  537TMC3    C7 7977   3.669   2.880  16.667  0.5367  0.6947 -0.0799
  537TMC3    C8 7978   3.630   3.244  17.007  0.1001 -0.4747  0.3305
  537TMC3    O1 7979   3.691   2.866  16.545  0.0848 -0.0246 -0.3048
  537TMC3    O2 7980   3.577   3.352  17.027 -0.3578  0.3665  0.4731
  538TMC3    C1 7981   4.622   1.889  10.910  0.3727  0.2497  0.1904
  538TMC3    C2 7982   4.667   1.764  10.875 -0.3422  0.6440 -0.0389
  538TMC3    C3 7983   4.683   1.734  10.735  0.2494 -0.0772  0.2636
  538TMC3    C4 7984   4.609   1.984  10.807 -0.0075 -0.4328 -0.2224
  538TMC3    C5 7985   4.610   1.949  10.671  0.2983 -0.4695  0.2721
  538TMC3    C6 7986   4.648   1.820  10.636 -0.2733 -0.6125  0.6774
  538TMC3     C 7987   4.564   1.924  11.035  0.2508 -0.4059 -0.2567
  538TMC3     O 7988   4.534   2.042  11.046 -0.7549  0.2353 -0.0253
  538TMC3     H 7989   4.687   1.692  10.954  0.1654 -1.4818 -2.1067
  538TMC3    H1 7990   4.554   2.075  10.826 -0.2641 -0.3844 -1.2280
  538TMC3    H2 7991   4.681   1.799  10.535  0.0435  0.5540  0.5340
  538TMC3    C7 7992   4.500   1.970  10.594 -0.0703  0.4427  0.3748
  538TMC3    C8 7993   0.073   1.646  10.696 -0.1609  0.8699 -0.0074
  538TMC3    O1 7994   4.437   1.869  10.554 -0.1904 -0.0799  0.1589
  538TMC3    O2 7995   0.157   1.717  10.643 -0.7118 -0.2690  0.4780
  539MPD2     C 7996   4.081   1.134  11.841  0.2407 -0.6867 -0.5482
  539MPD2    C1 7997   4.105   1.163  11.710  0.1064 -0.0652  0.8106
  539MPD2    C2 7998   4.102   1.298  11.673 -0.1043  0.1170  0.2570
  539MPD2    C3 7999   4.064   1.405  11.761  0.1759  0.5282 -0.2914
  539MPD2    C4 8000   4.042   1.368  11.889  0.6192 -0.0894  0.0676
  539MPD2    C5 8001   4.042   1.236  11.925 -0.3526 -0.2649  0.0044
  539MPD2     H 8002   4.111   1.319  11.567  0.7792  0.4607  0.3992
  539MPD2    H1 8003   4.012   1.439  11.965 -0.0153 -0.2054 -0.0780
  539MPD2    H2 8004   4.084   1.038  11.890  2.1095  0.4064  1.4623
  539MPD2    H3 8005   4.032   1.214  12.031  1.5466 -3.0548 -0.4061
  539MPD2     N 8006   4.059   1.536  11.724 -0.2810 -0.0340  0.3274
  539MPD2    H5 8007   4.011   1.589  11.796  0.6660  2.1498 -0.6579
  539MPD2    N1 8008   4.140   1.072  11.606  0.6072 -0.3318 -0.1315
  539MPD2    H7 8009   4.157   1.112  11.515 -1.9152 -0.0691 -0.4931
  540TMC3    C1 8010   4.074   1.709  11.581 -0.6269  0.5605 -1.2566
  540TMC3    C2 8011   4.056   1.735  11.449 -0.5117  0.6438 -0.9276
  540TMC3    C3 8012   4.000   1.856  11.411 -0.2796  0.7222 -0.1241
  540TMC3    C4 8013   4.016   1.787  11.681 -0.6086  1.7463 -0.2214
  540TMC3    C5 8014   3.961   1.909  11.634 -0.3439  0.0094  0.0637
  540TMC3    C6 8015   3.957   1.954  11.503 -0.0983 -0.1517 -0.4882
  540TMC3     C 8016   4.114   1.576  11.611 -0.4011 -0.2467  0.1247
  540TMC3     O 8017   4.197   1.522  11.545 -0.2931  0.1047  0.3511
  540TMC3     H 8018   4.092   1.676  11.365 -1.3807  1.4096 -1.8443
  540TMC3    H1 8019   4.032   1.776  11.788 -1.3325  1.5499 -0.1327
  540TMC3    H2 8020   3.908   2.046  11.471  1.0493  0.8989  0.7649
  540TMC3    C7 8021   3.876   1.974  11.735 -0.0232 -0.0283 -0.1829
  540TMC3    C8 8022   4.019   1.896  11.280  0.8098  0.0159 -0.5067
  540TMC3    O1 8023   3.835   1.904  11.825  0.0590  0.4007 -0.7485
  540TMC3    O2 8024   4.065   2.008  11.255 -0.2708 -0.0413 -0.1003
  541MPD2     C 8025   2.749   2.696  13.545  0.7136 -0.5717 -0.5133
  541MPD2    C1 8026   2.675   2.673  13.432 -0.6585 -0.1415  1.0428
  541MPD2    C2 8027   2.713   2.733  13.315 -0.4711  0.2891  0.0387
  541MPD2    C3 8028   2.831   2.804  13.296  0.2148  0.4643 -0.2357
  541MPD2    C4 8029   2.904   2.819  13.407 -0.3319 -0.1464  0.3868
  541MPD2    C5 8030   2.863   2.770  13.530 -0.2115  1.2313  0.1261
  541MPD2     H 8031   2.649   2.726  13.228  0.6665  1.9594 -0.9220
  541MPD2    H1 8032   2.998   2.873  13.405 -1.5513  1.9616 -0.8085
  541MPD2    H2 8033   2.714   2.656  13.639 -0.3955 -1.2463 -1.2086
  541MPD2    H3 8034   2.926   2.795  13.615 -1.1210 -0.3197  1.2643
  541MPD2     N 8035   2.889   2.853  13.167  0.2568 -0.6387  0.1124
  541MPD2    H5 8036   2.979   2.898  13.167  0.0535 -0.2364  0.5163
  541MPD2    N1 8037   2.567   2.581  13.447 -0.4216 -0.3600 -0.1650
  541MPD2    H7 8038   2.558   2.539  13.539 -0.7480 -1.7625 -0.8365
  542TMC3    C1 8039   2.932   2.855  12.934 -1.1161  0.4844  0.7875
  542TMC3    C2 8040   2.921   2.782  12.816 -0.1022 -0.2649  0.3469
  542TMC3    C3 8041   2.929   2.853  12.698  0.5226  0.1689  0.3444
  542TMC3    C4 8042   2.974   2.988  12.943 -0.1867  0.0283 -0.2063
  542TMC3    C5 8043   2.963   3.052  12.825  0.6237  1.0836  0.5374
  542TMC3    C6 8044   2.947   2.989  12.701 -0.2506 -0.6526 -0.0884
  542TMC3     C 8045   2.853   2.803  13.043  0.5141  0.4001 -0.6075
  542TMC3     O 8046   2.763   2.723  13.022  0.4036  0.3034  0.4497
  542TMC3     H 8047   2.900   2.676  12.826 -0.0249 -0.1344  1.8292
  542TMC3    H1 8048   2.966   3.045  13.035  2.3883  0.0847 -0.0233
  542TMC3    H2 8049   2.958   3.042  12.607 -1.0754 -0.7282 -0.2326
  542TMC3    C7 8050   2.938   3.192  12.829  0.3662 -0.2382 -0.3642
  542TMC3    C8 8051   2.967   2.787  12.578  0.8398  0.0665 -0.5998
  542TMC3    O1 8052   2.995   3.260  12.917  0.3124  0.0408  0.5627
  542TMC3    O2 8053   2.950   2.844  12.471  0.0366  0.2064 -0.1261
  543TMC3    C1 8054   1.673   4.039  16.979  0.4005 -0.6250 -0.1127
  543TMC3    C2 8055   1.532   4.032  16.970 -0.5930 -0.1964 -0.9324
  543TMC3    C3 8056   1.462   4.071  17.080 -0.3682  0.1141  0.8544
  543TMC3    C4 8057   1.733   4.109  17.083 -0.4004  0.0010  0.1007
  543TMC3    C5 8058   1.660   4.152  17.185 -0.2400  0.2885  0.2305
  543TMC3    C6 8059   1.519   4.136  17.185 -0.8245 -0.7879  0.3247
  543TMC3     C 8060   1.743   3.933  16.921 -0.0652  0.3862 -0.7307
  543TMC3     O 8061   1.865   3.940  16.912 -0.0472  0.6362  0.1637
  543TMC3     H 8062   1.473   3.993  16.887  0.9421 -1.1562 -1.5838
  543TMC3    H1 8063   1.840   4.109  17.102 -0.1068 -0.6012 -1.5678
  543TMC3    H2 8064   1.453   4.158  17.268  2.2234  2.9563  1.7790
  543TMC3    C7 8065   1.721   4.237  17.288 -0.9229  0.1987 -0.1192
  543TMC3    C8 8066   1.387   3.955  17.121 -0.0980 -0.0541  0.3120
  543TMC3    O1 8067   1.640   4.310  17.345 -0.1036  0.6559 -0.2031
  543TMC3    O2 8068   1.416   3.859  17.051  0.3133  0.0879 -0.4566
  544MPD2     C 8069   1.158   3.654  17.465  0.2704  0.0176 -0.0648
  544MPD2    C1 8070   1.264   3.632  17.385 -0.1809  0.0007  0.0123
  544MPD2    C2 8071   1.317   3.737  17.310  0.2739 -0.1104 -0.3372
  544MPD2    C3 8072   1.254   3.857  17.311 -0.0103 -0.0013 -0.8015
  544MPD2    C4 8073   1.136   3.872  17.373 -0.3695  0.6199  0.6366
  544MPD2    C5 8074   1.085   3.771  17.455 -0.0253  0.1386  0.0047
  544MPD2     H 8075   1.409   3.716  17.256  0.3186 -1.9038  0.4549
  544MPD2    H1 8076   1.077   3.963  17.366 -0.4241  0.4575 -0.9019
  544MPD2    H2 8077   1.117   3.577  17.530  2.3680 -0.9402  0.1398
  544MPD2    H3 8078   0.985   3.781  17.496  0.0514  1.6739 -0.1835
  544MPD2     N 8079   1.299   3.965  17.230 -0.3918  0.5375 -0.0055
  544MPD2    H5 8080   1.271   4.060  17.254 -0.4907  0.4250  0.3307
  544MPD2    N1 8081   1.329   3.509  17.400  0.2635  0.3471  0.5762
  544MPD2    H7 8082   1.294   3.442  17.467 -1.1481  0.8831  0.3834
  545TMC3    C1 8083   1.480   3.324  17.376 -0.2507 -0.2180  0.6198
  545TMC3    C2 8084   1.604   3.281  17.324  0.2160  0.3890 -0.0165
  545TMC3    C3 8085   1.654   3.159  17.355 -0.3381  0.2990 -0.4761
  545TMC3    C4 8086   1.411   3.241  17.469 -0.2190  0.3331 -0.4538
  545TMC3    C5 8087   1.472   3.119  17.504 -0.1442  0.2426 -0.1390
  545TMC3    C6 8088   1.587   3.076  17.445 -0.6480  0.3960 -0.1126
  545TMC3     C 8089   1.437   3.458  17.334  0.5535 -0.2241  0.2574
  545TMC3     O 8090   1.502   3.519  17.250  0.1882 -0.0090 -0.3266
  545TMC3     H 8091   1.653   3.347  17.254  1.2844 -1.0215 -0.5848
  545TMC3    H1 8092   1.321   3.281  17.515 -0.1463  0.4502 -0.4110
  545TMC3    H2 8093   1.627   2.976  17.462 -1.0132 -0.0796 -2.0285
  545TMC3    C7 8094   1.419   3.051  17.611  0.2752 -0.4673 -0.4170
  545TMC3    C8 8095   1.796   3.129  17.320 -0.3863  0.5265  0.6028
  545TMC3    O1 8096   1.298   3.068  17.630  0.2192 -0.1406 -0.2715
  545TMC3    O2 8097   1.855   3.074  17.412  0.1156  0.4584  0.1433
  546MPD2     C 8098   3.077   3.698   0.196  0.3408 -0.6614 -0.4837
  546MPD2    C1 8099   3.111   3.725   0.067  0.1593 -0.3440  0.0884
  546MPD2    C2 8100   3.119   3.856   0.033  0.3777 -0.3327 -0.2915
  546MPD2    C3 8101   3.108   3.955   0.135  0.0120  0.1534 -0.4301
  546MPD2    C4 8102   3.067   3.925   0.261  0.3766  0.3673  0.6656
  546MPD2    C5 8103   3.060   3.791   0.287 -0.2358 -0.7315  0.0963
  546MPD2     H 8104   3.154   3.889  17.639  1.9287 -0.1847  0.3142
  546MPD2    H1 8105   3.074   3.998   0.342 -0.4288 -0.6130  1.6144
  546MPD2    H2 8106   3.053   3.596   0.223 -0.0832  0.7169  4.3405
  546MPD2    H3 8107   3.035   3.752   0.385  0.4941  0.1879  0.6419
  546MPD2     N 8108   3.151   4.089   0.118 -0.0608 -0.2707 -0.4242
  546MPD2    H5 8109   3.127   4.155   0.191  0.4900 -1.8126  1.1296
  546MPD2    N1 8110   3.112   3.616  17.682  0.1849  0.0032  0.2164
  546MPD2    H7 8111   3.085   3.526   0.017  2.1891 -1.2757 -1.3921
  547TMC3    C1 8112   3.038   3.527  17.477 -0.6952  0.2373 -0.3269
  547TMC3    C2 8113   2.986   3.563  17.349 -0.7065  0.2406  0.7240
  547TMC3    C3 8114   2.872   3.491  17.308 -0.0424 -0.4810 -0.2669
  547TMC3    C4 8115   2.960   3.441  17.558 -0.1085 -0.2613  0.5920
  547TMC3    C5 8116   2.846   3.385  17.512 -0.1645  0.3491  0.1073
  547TMC3    C6 8117   2.803   3.411  17.390  0.6177  0.2731 -0.4599
  547TMC3     C 8118   3.108   3.632  17.544 -0.3400 -0.1968  0.4042
  547TMC3     O 8119   3.137   3.732  17.478  0.7506  0.2825  0.1971
  547TMC3     H 8120   3.034   3.638  17.287 -2.8726  0.3051 -0.9065
  547TMC3    H1 8121   2.982   3.423  17.662  1.7549 -0.0894  0.2330
  547TMC3    H2 8122   2.708   3.377  17.352  0.5908 -0.7606  0.5216
  547TMC3    C7 8123   2.762   3.314  17.613  0.4002 -0.3124  0.0509
  547TMC3    C8 8124   2.811   3.525  17.186 -0.9854 -0.8827  0.5212
  547TMC3    O1 8125   2.769   3.332   0.033  0.2776 -0.4598 -0.1501
  547TMC3    O2 8126   2.705   3.471  17.158 -0.0578 -0.1733  0.1945
  548MPD2     C 8127   3.489   4.675  12.337  0.0051  0.5089  0.2316
  548MPD2    C1 8128   3.498   4.556  12.415  1.2132 -0.5294 -0.5650
  548MPD2    C2 8129   3.583   4.455  12.380 -0.0005 -0.6331 -0.1445
  548MPD2    C3 8130   3.679   4.467  12.282 -0.3393 -0.0423  0.5087
  548MPD2    C4 8131   3.677   4.586  12.208 -0.6036 -0.4861  0.8648
  548MPD2    C5 8132   3.583   4.690  12.239 -0.6587  0.4454  0.1203
  548MPD2     H 8133   3.590   4.368  12.444  1.2216 -1.2076 -1.0586
  548MPD2    H1 8134   3.749   4.606  12.130  0.7622  0.3769  2.3368
  548MPD2    H2 8135   3.430   0.040  12.349  1.2471  1.5040 -1.1239
  548MPD2    H3 8136   3.567   0.048  12.172 -1.2978 -0.3835 -0.7679
  548MPD2     N 8137   3.758   4.358  12.258  0.1553  0.0170 -0.2382
  548MPD2    H5 8138   3.759   4.283  12.327 -0.8727  0.8679  0.7026
  548MPD2    N1 8139   3.409   4.547  12.518 -0.1469 -0.6781 -0.1639
  548MPD2    H7 8140   3.360   4.632  12.544  1.6322  1.0908 -2.5926
  549TMC3    C1 8141   3.265   4.445  12.685 -0.4332 -0.1206 -0.4383
  549TMC3    C2 8142   3.162   4.535  12.653 -0.7103  0.3920 -0.2915
  549TMC3    C3 8143   3.032   4.509  12.686 -1.1293  1.2523 -0.2680
  549TMC3    C4 8144   3.235   4.335  12.752  0.3970 -0.5332 -0.4296
  549TMC3    C5 8145   3.109   4.311  12.788  0.5254  0.2722 -0.0317
  549TMC3    C6 8146   3.007   4.401  12.764 -0.3667  0.2501 -0.2980
  549TMC3     C 8147   3.378   4.435  12.593 -0.4494  0.0862  0.0890
  549TMC3     O 8148   3.433   4.329  12.580 -0.7510 -0.1353  0.1974
  549TMC3     H 8149   3.169   4.590  12.560  0.0533  0.6393 -0.0885
  549TMC3    H1 8150   3.316   4.267  12.776 -1.3872 -1.6753  2.3749
  549TMC3    H2 8151   2.901   4.380  12.773  0.2466 -2.3516  0.8751
  549TMC3    C7 8152   3.064   4.188  12.849  0.9582  0.3237  0.0172
  549TMC3    C8 8153   2.935   4.613  12.655  0.4537 -0.1777  0.3299
  549TMC3    O1 8154   2.954   4.190  12.905 -0.1111 -0.1231  0.0667
  549TMC3    O2 8155   2.815   4.580  12.644 -0.3398 -0.3807 -0.0201
  550TMC3    C1 8156   2.037   2.297  12.001 -0.4811 -0.4173  0.3456
  550TMC3    C2 8157   2.010   2.302  12.137  0.3120 -0.0267  0.3036
  550TMC3    C3 8158   1.897   2.367  12.172  0.4446 -1.0756  0.3280
  550TMC3    C4 8159   1.969   2.353  11.900 -0.2019  0.5758 -0.5759
  550TMC3    C5 8160   1.855   2.423  11.940  0.8873  0.6972  0.1448
  550TMC3    C6 8161   1.824   2.430  12.069 -0.0849  0.2381 -0.7013
  550TMC3     C 8162   2.137   2.195  11.967 -0.3543  0.0507  0.2660
  550TMC3     O 8163   2.236   2.175  12.031  0.5935 -0.2015  0.0397
  550TMC3     H 8164   2.082   2.264  12.208 -1.1686 -1.6597  0.9326
  550TMC3    H1 8165   2.012   2.353  11.801 -5.2969 -0.3355 -2.8030
  550TMC3    H2 8166   1.733   2.483  12.097 -0.6377  0.0602 -2.1636
  550TMC3    C7 8167   1.759   2.450  11.830 -0.2204  0.4006 -0.2812
  550TMC3    C8 8168   1.873   2.409  12.312  0.0513  0.0234 -0.1930
  550TMC3    O1 8169   1.646   2.474  11.869 -0.0823 -0.1966  0.3011
  550TMC3    O2 8170   1.814   2.515  12.317 -0.2482 -0.4579  0.0827
  551TMC3    C1 8171   4.381   0.568  13.244 -0.9324 -0.0507 -0.1294
  551TMC3    C2 8172   4.489   0.618  13.179 -0.5323  0.0083 -0.8622
  551TMC3    C3 8173   4.585   0.664  13.265 -0.6239 -0.4221  0.1406
  551TMC3    C4 8174   4.363   0.555  13.381 -0.4295 -0.3794 -0.7592
  551TMC3    C5 8175   4.471   0.587  13.457  0.2884 -0.1999  0.5245
  551TMC3    C6 8176   4.583   0.654  13.401  0.1529 -0.2879  0.3427
  551TMC3     C 8177   4.296   0.482  13.161 -0.3298 -0.9375  0.2836
  551TMC3     O 8178   4.339   0.455  13.047 -0.3031 -0.2652  0.4226
  551TMC3     H 8179   4.494   0.650  13.075  2.0384  0.4102 -0.6281
  551TMC3    H1 8180   4.283   0.498  13.427 -2.1623  0.5223 -2.6543
  551TMC3    H2 8181   4.665   0.683  13.465  0.7733  0.7572 -0.9210
  551TMC3    C7 8182   4.456   0.612  13.600  0.4300 -0.8195  0.4950
  551TMC3    C8 8183   4.689   0.748  13.209  0.0823 -0.2070 -0.3924
  551TMC3    O1 8184   4.562   0.589  13.659 -0.6834  0.0593 -0.4141
  551TMC3    O2 8185   0.076   0.734  13.261 -0.4428  0.0415  0.5108
  552MPD2     C 8186   1.466   2.448  13.682 -0.1980 -0.1770 -0.2156
  552MPD2    C1 8187   1.467   2.348  13.772 -0.2563 -0.2486 -0.7103
  552MPD2    C2 8188   1.550   2.352  13.885  0.2915 -0.4910 -0.5623
  552MPD2    C3 8189   1.631   2.457  13.906  0.2618  0.0016 -0.2104
  552MPD2    C4 8190   1.623   2.561  13.817  0.3925  0.0306  0.4852
  552MPD2    C5 8191   1.537   2.559  13.709 -0.4312 -0.0870 -0.2513
  552MPD2     H 8192   1.550   2.267  13.953 -0.1702 -0.4090 -0.4634
  552MPD2    H1 8193   1.686   2.647  13.838 -1.1108  0.5500  2.8760
  552MPD2    H2 8194   1.387   2.450  13.608  0.9434 -2.7007 -1.5268
  552MPD2    H3 8195   1.531   2.640  13.637 -0.3611 -0.4027 -0.6108
  552MPD2     N 8196   1.728   2.469  14.011  0.3851 -0.3719  0.0668
  552MPD2    H5 8197   1.801   2.540  14.007  1.1527 -1.2434 -1.4486
  552MPD2    N1 8198   1.397   2.230  13.756  0.3965 -0.2550  0.0963
  552MPD2    H7 8199   1.423   2.164  13.828 -1.7122 -0.9661  0.2098
  553TMC3    C1 8200   1.262   2.072  13.657 -0.3020  0.4570 -0.2160
  553TMC3    C2 8201   1.155   2.035  13.573  0.0898 -0.4561 -0.1772
  553TMC3    C3 8202   1.147   1.908  13.532 -0.2378  0.1881  0.5806
  553TMC3    C4 8203   1.354   1.980  13.704 -0.5910  0.1268 -0.5561
  553TMC3    C5 8204   1.342   1.849  13.671  0.1404 -0.5472  0.4208
  553TMC3    C6 8205   1.242   1.822  13.579 -0.3099 -0.7415  0.0842
  553TMC3     C 8206   1.297   2.209  13.659 -0.0795 -0.0465 -0.3514
  553TMC3     O 8207   1.247   2.277  13.567  0.2397  0.0242  0.3519
  553TMC3     H 8208   1.084   2.108  13.536  2.3458  0.9705 -1.7684
  553TMC3    H1 8209   1.446   2.005  13.756  0.7257 -0.0691 -2.7855
  553TMC3    H2 8210   1.254   1.729  13.524  1.3440 -0.2658 -0.3518
  553TMC3    C7 8211   1.456   1.758  13.683  0.8504 -0.1683  0.4699
  553TMC3    C8 8212   1.143   1.889  13.391  0.0770 -0.4377  0.1069
  553TMC3    O1 8213   1.474   1.677  13.595  0.2806 -0.1044 -0.0486
  553TMC3    O2 8214   1.248   1.880  13.328 -0.4400 -0.1103 -0.1955
  554TMC3    C1 8215   3.220   1.409  11.720  0.0373  0.1242 -0.1619
  554TMC3    C2 8216   3.149   1.363  11.617  0.2851 -0.1393 -0.1201
  554TMC3    C3 8217   3.207   1.387  11.493  0.2466  0.6440 -0.3732
  554TMC3    C4 8218   3.342   1.468  11.712 -0.4219 -0.7780  0.2375
  554TMC3    C5 8219   3.393   1.501  11.586 -0.0563 -0.3676  0.2589
  554TMC3    C6 8220   3.320   1.465  11.476  0.2994 -0.1213 -0.2880
  554TMC3     C 8221   3.187   1.349  11.846  0.5490  1.0776  0.1781
  554TMC3     O 8222   3.069   1.330  11.865 -0.4077 -0.0704  0.2855
  554TMC3     H 8223   3.055   1.312  11.635 -0.1279 -1.1604 -5.2006
  554TMC3    H1 8224   3.400   1.498  11.798 -1.3016 -1.8367  1.2021
  554TMC3    H2 8225   3.357   1.467  11.374  0.6776 -0.0148 -0.1488
  554TMC3    C7 8226   3.486   1.619  11.578 -0.4001 -0.9640 -0.7768
  554TMC3    C8 8227   3.148   1.340  11.374  1.1554 -0.4096 -0.2535
  554TMC3    O1 8228   3.481   1.694  11.671  0.2705  0.4959 -0.1465
  554TMC3    O2 8229   3.209   1.363  11.269  0.1162 -0.0622  0.1184
  555TMC3    C1 8230   2.454   0.889  15.406 -0.6059 -0.0002  0.4179
  555TMC3    C2 8231   2.533   0.893  15.516  0.1173 -0.1956  0.2504
  555TMC3    C3 8232   2.545   0.779  15.595 -0.2278 -0.5523 -0.0539
  555TMC3    C4 8233   2.399   0.771  15.364  0.5536 -0.0491 -0.0770
  555TMC3    C5 8234   2.426   0.659  15.437  0.4599  0.1086 -0.4200
  555TMC3    C6 8235   2.500   0.659  15.558  0.3499  0.0783 -0.6778
  555TMC3     C 8236   2.484   0.992  15.310  0.1978  0.6790 -0.1295
  555TMC3     O 8237   2.599   1.027  15.294 -0.3684  0.0705  0.2395
  555TMC3     H 8238   2.578   0.985  15.551  0.0268 -1.0560  2.6863
  555TMC3    H1 8239   2.329   0.765  15.281 -2.0108  0.9655  2.0272
  555TMC3    H2 8240   2.513   0.571  15.620 -0.4646 -1.6772 -2.9788
  555TMC3    C7 8241   2.349   0.540  15.412  0.3279  0.2473  0.6525
  555TMC3    C8 8242   2.562   0.814  15.735 -0.3877 -0.1758  0.2725
  555TMC3    O1 8243   2.340   0.459  15.501 -0.1086  0.2712  0.6518
  555TMC3    O2 8244   2.603   0.925  15.772 -0.7720 -0.3748  1.0559
  556MPD2     C 8245   0.695   2.226  10.393  1.1889 -0.6791  0.4073
  556MPD2    C1 8246   0.669   2.136  10.498  0.7252 -0.3872 -0.2293
  556MPD2    C2 8247   0.623   2.010  10.466  0.6141  0.5262  0.6507
  556MPD2    C3 8248   0.614   1.964  10.340  0.0165  0.4833  0.1553
  556MPD2    C4 8249   0.643   2.048  10.238 -0.1048 -2.0150 -0.9349
  556MPD2    C5 8250   0.684   2.176  10.269 -0.5845 -0.3863 -0.3806
  556MPD2     H 8251   0.616   1.945  10.553  2.0161  0.6435  0.8527
  556MPD2    H1 8252   0.643   2.027  10.131  0.0157 -2.0912 -0.9196
  556MPD2    H2 8253   0.722   2.328  10.418  0.1565  0.1026 -1.6439
  556MPD2    H3 8254   0.716   2.244  10.190  0.6028 -0.8497 -0.3012
  556MPD2     N 8255   0.565   1.830  10.320 -0.4197 -0.3846 -0.0790
  556MPD2    H5 8256   0.555   1.770  10.401 -1.0100 -0.1830 -0.0029
  556MPD2    N1 8257   0.688   2.173  10.630  0.3978 -0.0019  0.0968
  556MPD2    H7 8258   0.655   2.121  10.711  3.4090 -1.2537  0.5198
  557TMC3    C1 8259   0.499   1.645  10.189  0.1184  0.5739 -0.3054
  557TMC3    C2 8260   0.428   1.604  10.078 -0.0227 -0.0897  0.4675
  557TMC3    C3 8261   0.415   1.464  10.060  0.0321  0.0245 -0.5792
  557TMC3    C4 8262   0.545   1.554  10.279 -0.2982 -0.2087  0.7021
  557TMC3    C5 8263   0.542   1.418  10.253  0.6044  0.0063  0.0829
  557TMC3    C6 8264   0.474   1.372  10.142  0.3625 -0.2583 -0.3796
  557TMC3     C 8265   0.539   1.785  10.191 -1.1467 -0.2306  0.2541
  557TMC3     O 8266   0.519   1.847  10.087 -0.1472  0.3693  0.3328
  557TMC3     H 8267   0.384   1.681  10.016 -0.8217  0.3274  1.5455
  557TMC3    H1 8268   0.598   1.582  10.369  1.6268 -1.3454 -0.0683
  557TMC3    H2 8269   0.475   1.265  10.126  0.6405 -0.4091  0.6147
  557TMC3    C7 8270   0.511   1.355  10.379 -0.3368 -0.3565  0.2089
  557TMC3    C8 8271   0.327   1.425   9.953  0.2624 -0.1679  0.1408
  557TMC3    O1 8272   0.587   1.275  10.429  0.5851  0.0744 -0.5292
  557TMC3    O2 8273   0.249   1.514   9.919 -0.3751  0.0654 -0.9603
  558TMC3    C1 8274   3.271   0.203  10.320 -0.5923 -0.2351 -0.5868
  558TMC3    C2 8275   3.141   0.205  10.358 -0.7553  0.6454 -0.1917
  558TMC3    C3 8276   3.045   0.171  10.269 -0.0617  0.8012  0.4342
  558TMC3    C4 8277   3.305   0.191  10.187 -0.8295  0.1655  0.4478
  558TMC3    C5 8278   3.201   0.167  10.095 -0.3279  0.0770  0.3110
  558TMC3    C6 8279   3.069   0.151  10.138 -0.1070  0.5444 -0.1040
  558TMC3     C 8280   3.377   0.216  10.420  0.1411  0.8605 -0.0186
  558TMC3     O 8281   3.483   0.243  10.372 -0.1263  0.3440  0.1977
  558TMC3     H 8282   3.116   0.217  10.462  0.8218  0.9923  0.1406
  558TMC3    H1 8283   3.411   0.173  10.168 -1.1622 -0.5780 -0.7537
  558TMC3    H2 8284   2.996   0.124  10.063  1.4315  2.4651 -2.3202
  558TMC3    C7 8285   3.239   0.104   9.967  0.1730  0.4082  0.5518
  558TMC3    C8 8286   2.920   0.121  10.307 -0.5034 -0.3043  0.5740
  558TMC3    O1 8287   3.339   0.039   9.963  0.0503 -0.1033  0.3941
  558TMC3    O2 8288   2.833   0.123  10.216 -0.1666 -0.4332  0.0368
  559MPD2     C 8289   3.199   0.531  10.307  0.3963  0.1898  0.0372
  559MPD2    C1 8290   3.110   0.515  10.411 -0.3010  0.7078 -0.0402
  559MPD2    C2 8291   3.149   0.504  10.539 -0.2296  0.5770 -0.4403
  559MPD2    C3 8292   3.277   0.522  10.577 -0.1228 -0.9886  0.0420
  559MPD2    C4 8293   3.370   0.545  10.476 -0.5875 -0.2576 -0.2173
  559MPD2    C5 8294   3.328   0.551  10.342 -0.4314 -0.0573 -0.5265
  559MPD2     H 8295   3.078   0.475  10.615 -1.6813 -0.5564 -2.2275
  559MPD2    H1 8296   3.478   0.559  10.484 -0.5914  0.9599 -2.4327
  559MPD2    H2 8297   3.168   0.545  10.203  0.1517 -1.0609 -0.0560
  559MPD2    H3 8298   3.396   0.576  10.262  0.1770 -0.9483 -0.2878
  559MPD2     N 8299   3.312   0.519  10.715  0.6158  0.3029  0.0642
  559MPD2    H5 8300   3.236   0.495  10.779  2.0393  0.4424  1.8149
  559MPD2    N1 8301   2.967   0.507  10.389 -0.1086  0.0362  0.0751
  559MPD2    H7 8302   2.907   0.504  10.471 -0.6297  1.5855 -0.2467
  560TMC3    C1 8303   3.428   0.501  10.917  0.2898 -0.5610  0.0139
  560TMC3    C2 8304   3.329   0.413  10.955 -0.2244 -0.5007  0.1827
  560TMC3    C3 8305   3.307   0.391  11.088 -0.0368  0.0669 -0.3600
  560TMC3    C4 8306   3.496   0.575  11.004  0.4576 -0.4462 -0.5055
  560TMC3    C5 8307   3.469   0.554  11.140  0.7700 -0.0115 -0.4380
  560TMC3    C6 8308   3.380   0.462  11.185 -0.4977  0.1317 -0.9280
  560TMC3     C 8309   3.437   0.532  10.778  0.1701 -0.0658 -0.6271
  560TMC3     O 8310   3.542   0.574  10.728  0.5583  0.5025  0.1932
  560TMC3     H 8311   3.287   0.341  10.886  0.7065 -0.7386 -0.1279
  560TMC3    H1 8312   3.562   0.656  10.979  0.7638 -0.1062  1.4189
  560TMC3    H2 8313   3.366   0.450  11.292  1.4961 -0.6932 -0.7631
  560TMC3    C7 8314   3.536   0.644  11.238  0.0165  0.7159 -0.6987
  560TMC3    C8 8315   3.269   0.257  11.127 -0.0614 -0.0022  0.2025
  560TMC3    O1 8316   3.524   0.597  11.349  0.2050  0.1865 -0.1664
  560TMC3    O2 8317   3.222   0.188  11.038 -0.5547 -0.0042  0.4202
  561TMC3    C1 8318   1.247   4.505  11.323 -0.0595  0.6419 -1.2226
  561TMC3    C2 8319   1.182   4.458  11.419 -0.3109  0.2690  0.3638
  561TMC3    C3 8320   1.055   4.517  11.446  0.5423 -0.1115  0.0308
  561TMC3    C4 8321   1.207   4.612  11.243  0.0027  0.8588  0.4881
  561TMC3    C5 8322   1.084   4.667  11.272  0.1141  1.0492 -0.4429
  561TMC3    C6 8323   1.002   4.626  11.374  0.8503 -0.4689  0.2519
  561TMC3     C 8324   1.384   4.456  11.317  1.5711  0.8193  0.5337
  561TMC3     O 8325   1.402   4.336  11.301 -0.2910  0.0967  0.7028
  561TMC3     H 8326   1.221   4.373  11.473  0.7277  0.2927 -0.3700
  561TMC3    H1 8327   1.274   4.648  11.166 -0.2051 -1.1002 -0.5997
  561TMC3    H2 8328   0.909   4.675  11.400  0.0172 -1.5162 -0.7695
  561TMC3    C7 8329   1.036   0.061  11.210 -0.1012  0.0730  0.7133
  561TMC3    C8 8330   1.005   4.478  11.569  0.2055 -0.4990  0.0857
  561TMC3    O1 8331   0.923   0.101  11.225  0.0372  0.3012  0.8421
  561TMC3    O2 8332   1.072   4.392  11.627  0.0354 -0.9227 -0.1794
  562TMC3    C1 8333   1.893   1.177  16.100 -0.1397 -0.0596  0.6091
  562TMC3    C2 8334   1.863   1.300  16.052  0.3061  0.1442  0.1350
  562TMC3    C3 8335   1.851   1.314  15.916 -0.1910  0.1602  0.1550
  562TMC3    C4 8336   1.920   1.070  16.016 -0.1424  1.1363  0.1573
  562TMC3    C5 8337   1.908   1.091  15.880 -0.2845 -0.3812 -0.1909
  562TMC3    C6 8338   1.860   1.209  15.827 -0.7083 -0.1120  0.2566
  562TMC3     C 8339   1.914   1.154  16.232  0.5621  0.7017 -0.1337
  562TMC3     O 8340   1.987   1.058  16.267  0.2099  0.8403 -0.1887
  562TMC3     H 8341   1.852   1.388  16.115 -3.0068  0.9500 -1.5392
  562TMC3    H1 8342   1.947   0.978  16.066 -0.6156  0.3956 -0.9361
  562TMC3    H2 8343   1.829   1.205  15.723  1.5249 -0.8724 -0.3694
  562TMC3    C7 8344   1.936   0.981  15.784 -0.2498  0.2952 -0.5673
  562TMC3    C8 8345   1.848   1.447  15.851 -0.1575  0.0006 -0.5678
  562TMC3    O1 8346   1.926   0.998  15.664  0.4052 -0.7367 -0.1318
  562TMC3    O2 8347   1.827   1.534  15.937 -0.8813  0.6751  0.7392
  563MPD2     C 8348   4.090   1.556  15.791  0.1155 -0.1173 -0.1644
  563MPD2    C1 8349   4.058   1.675  15.851  1.2697 -0.4019 -0.1498
  563MPD2    C2 8350   4.140   1.788  15.827 -0.2321  0.2247 -0.2485
  563MPD2    C3 8351   4.243   1.788  15.744 -0.4566 -0.0661  0.6143
  563MPD2    C4 8352   4.282   1.663  15.692  0.5668  0.1239 -0.1851
  563MPD2    C5 8353   4.193   1.556  15.699 -0.0867 -0.8588  0.3285
  563MPD2     H 8354   4.109   1.884  15.867  0.1994  0.8095 -1.3319
  563MPD2    H1 8355   4.360   1.653  15.617  1.0226 -0.1988  0.3329
  563MPD2    H2 8356   4.031   1.468  15.815 -0.0675 -0.2279 -0.9923
  563MPD2    H3 8357   4.223   1.468  15.644  1.3159 -0.4951  0.4904
  563MPD2     N 8358   4.312   1.913  15.719 -0.4811 -0.4480 -0.9949
  563MPD2    H5 8359   4.286   1.989  15.780  1.5699  0.5444 -1.3863
  563MPD2    N1 8360   3.953   1.685  15.945 -0.3849 -0.5315  0.0633
  563MPD2    H7 8361   3.902   1.597  15.948  0.3422 -0.9601 -0.1523
  564TMC3    C1 8362   3.845   1.729  16.136  0.6420 -0.0032 -0.1597
  564TMC3    C2 8363   3.748   1.631  16.130  0.2738 -0.1692  0.4272
  564TMC3    C3 8364   3.712   1.566  16.243 -0.2276  0.6072  0.6561
  564TMC3    C4 8365   3.913   1.743  16.257 -0.4767 -0.4548  0.3269
  564TMC3    C5 8366   3.885   1.661  16.363 -0.3851 -0.2325  0.5030
  564TMC3    C6 8367   3.777   1.580  16.365 -0.2753  0.0679 -0.7553
  564TMC3     C 8368   3.921   1.785  16.031 -0.3752  0.0808 -0.0212
  564TMC3     O 8369   3.974   1.893  16.049 -0.0588  0.7610  0.6882
  564TMC3     H 8370   3.695   1.619  16.036  0.2860  0.1387  0.3810
  564TMC3    H1 8371   4.009   1.792  16.255 -1.2353  0.9968 -0.4642
  564TMC3    H2 8372   3.751   1.510  16.444  2.2628 -1.2281 -1.0758
  564TMC3    C7 8373   4.003   1.616  16.440  0.0047  0.7687 -0.9053
  564TMC3    C8 8374   3.601   1.465  16.228 -0.5053  0.1237  0.0995
  564TMC3    O1 8375   4.078   1.704  16.493  1.1044  0.5980  0.1409
  564TMC3    O2 8376   3.537   1.452  16.333 -0.2841 -0.1216 -0.2522
  565TMC3    C1 8377   0.322   3.320  10.683  0.5847  0.6446 -0.1540
  565TMC3    C2 8378   0.314   3.223  10.781  0.1018  0.0449 -0.5654
  565TMC3    C3 8379   0.287   3.096  10.737 -0.9754 -0.6187  0.6614
  565TMC3    C4 8380   0.285   3.292  10.555 -0.1315 -0.4524  0.4097
  565TMC3    C5 8381   0.250   3.163  10.517 -0.4448  0.5409  0.4652
  565TMC3    C6 8382   0.259   3.058  10.607 -0.8102 -0.1619  0.1704
  565TMC3     C 8383   0.351   3.465  10.722  0.5392 -0.1639 -0.5763
  565TMC3     O 8384   0.353   3.540  10.624  0.1824  0.3850  0.5488
  565TMC3     H 8385   0.336   3.249  10.884 -0.3303  0.5187 -0.5952
  565TMC3    H1 8386   0.277   3.376  10.488  1.1799 -1.0396 -0.5048
  565TMC3    H2 8387   0.215   2.961  10.588  0.0743 -0.3426 -0.9718
  565TMC3    C7 8388   0.146   3.148  10.416  0.1492  0.0774  1.1040
  565TMC3    C8 8389   0.268   2.985  10.829  0.0804 -0.5292 -0.3089
  565TMC3    O1 8390   0.120   3.029  10.392  1.0517 -0.0501  0.0001
  565TMC3    O2 8391   0.209   2.889  10.794 -0.0910 -0.9222  0.9225
  566MPD2     C 8392   1.673   0.408  14.401  0.8728  0.9131  0.1340
  566MPD2    C1 8393   1.604   0.495  14.315  0.8576 -0.1098  0.5438
  566MPD2    C2 8394   1.599   0.459  14.180 -0.2801 -0.0752 -0.0826
  566MPD2    C3 8395   1.647   0.340  14.137  0.5635  0.2485  0.9600
  566MPD2    C4 8396   1.716   0.253  14.224  0.5016 -0.2992 -0.0726
  566MPD2    C5 8397   1.732   0.293  14.353  0.5607 -0.6176 -0.0896
  566MPD2     H 8398   1.547   0.519  14.106  1.3545  1.5366  0.0912
  566MPD2    H1 8399   1.747   0.152  14.197  1.3263 -0.2252  0.5656
  566MPD2    H2 8400   1.696   0.441  14.502 -0.1748  0.9526  0.3567
  566MPD2    H3 8401   1.781   0.230  14.426 -0.8266 -0.3012  1.1317
  566MPD2     N 8402   1.646   0.317  13.993  0.0472 -0.3958  0.0151
  566MPD2    H5 8403   1.583   0.375  13.939 -1.0766 -2.1390 -0.5465
  566MPD2    N1 8404   1.550   0.620  14.361  0.9454  0.3054  0.1864
  566MPD2    H7 8405   1.549   0.637  14.461 -2.0574 -3.4000  0.7906
  567TMC3    C1 8406   1.566   0.855  14.342 -0.3046  0.8563 -0.3240
  567TMC3    C2 8407   1.566   0.952  14.246  0.4510  0.2927  0.1209
  567TMC3    C3 8408   1.685   1.026  14.231 -0.3982  0.5094  0.2384
  567TMC3    C4 8409   1.665   0.847  14.439 -0.1208  0.1340 -0.1253
  567TMC3    C5 8410   1.779   0.922  14.424 -0.8595 -0.4675 -0.6525
  567TMC3    C6 8411   1.786   1.010  14.320  0.0073 -0.8648 -0.4376
  567TMC3     C 8412   1.536   0.733  14.274  0.0458  0.1814  0.2529
  567TMC3     O 8413   1.515   0.745  14.152  0.3632 -0.0281  0.1721
  567TMC3     H 8414   1.484   0.964  14.176  1.4407 -0.8677 -1.2618
  567TMC3    H1 8415   1.650   0.783  14.526  0.3723 -0.4159 -0.4520
  567TMC3    H2 8416   1.875   1.071  14.314  0.2049 -1.0424  0.6865
  567TMC3    C7 8417   1.879   0.932  14.530  0.4868  0.2830 -0.5756
  567TMC3    C8 8418   1.694   1.097  14.108 -0.6429 -0.1411 -0.3361
  567TMC3    O1 8419   1.981   0.992  14.502 -0.6433 -0.1245  0.0829
  567TMC3    O2 8420   1.599   1.112  14.036 -0.2303 -0.1922 -0.4640
  568MPD2     C 8421   4.503   0.767  16.884 -0.2055 -0.8513 -0.2211
  568MPD2    C1 8422   4.431   0.869  16.933  0.4492 -0.5915  0.2147
  568MPD2    C2 8423   4.304   0.904  16.881  0.2198  0.0293  0.1940
  568MPD2    C3 8424   4.256   0.836  16.768 -0.4395  0.5758 -0.5179
  568MPD2    C4 8425   4.333   0.741  16.713  0.8033  0.1147  0.2406
  568MPD2    C5 8426   4.454   0.705  16.772  0.0499  0.1329 -0.2758
  568MPD2     H 8427   4.244   0.984  16.922 -2.3153 -0.6346 -2.1966
  568MPD2    H1 8428   4.305   0.688  16.623  1.3837 -0.0201  0.1347
  568MPD2    H2 8429   4.599   0.732  16.920 -1.4715 -3.2133  0.8429
  568MPD2    H3 8430   4.505   0.618  16.733 -0.3824 -0.1544 -0.1913
  568MPD2     N 8431   4.130   0.873  16.725  0.8557  0.6712  0.2643
  568MPD2    H5 8432   4.069   0.937  16.774 -1.6858  0.7770 -3.1007
  568MPD2    N1 8433   4.486   0.927  17.047  0.6655 -0.5407 -0.2680
  568MPD2    H7 8434   4.571   0.888  17.088  2.3698  4.1808  0.7538
  569TMC3    C1 8435   3.934   0.890  16.598  0.3160 -0.5484  0.6541
  569TMC3    C2 8436   3.912   1.009  16.661  0.5303  0.2089  0.0482
  569TMC3    C3 8437   3.779   1.039  16.669 -0.2256  0.0265 -0.4888
  569TMC3    C4 8438   3.840   0.817  16.530 -0.4772 -0.0707 -0.3640
  569TMC3    C5 8439   3.710   0.856  16.537 -0.1232  0.3047 -0.4249
  569TMC3    C6 8440   3.675   0.961  16.615 -0.3085 -0.0941 -0.1934
  569TMC3     C 8441   4.061   0.817  16.619 -0.3245 -0.5349  0.1847
  569TMC3     O 8442   4.078   0.704  16.569 -0.0465  0.1695 -0.0450
  569TMC3     H 8443   3.991   1.073  16.697 -0.0404  0.1756  1.3646
  569TMC3    H1 8444   3.863   0.721  16.486 -0.1608 -0.5043  0.7424
  569TMC3    H2 8445   3.572   0.993  16.627 -0.2149  0.0315  0.2822
  569TMC3    C7 8446   3.655   0.859  16.401 -0.3282 -0.0512 -0.8010
  569TMC3    C8 8447   3.747   1.182  16.673 -0.1422 -0.1194 -0.0485
  569TMC3    O1 8448   3.700   0.775  16.322  0.2442 -0.1198 -0.0185
  569TMC3    O2 8449   3.641   1.211  16.622  0.5593 -0.8150 -0.8359
  570TMC3    C1 8450   2.924   4.625  16.185  0.0419  0.0713  1.2679
  570TMC3    C2 8451   2.924   4.664  16.055 -0.7786 -0.1583  0.0184
  570TMC3    C3 8452   2.966   0.065  16.022  0.2064 -0.1467  0.4948
  570TMC3    C4 8453   2.974   4.711  16.284  0.7181 -0.4417 -0.3596
  570TMC3    C5 8454   3.022   0.110  16.249 -0.0384 -1.4959  0.7070
  570TMC3    C6 8455   3.011   0.155  16.118  0.6984 -0.3177  0.4318
  570TMC3     C 8456   2.904   4.489  16.218 -0.3236 -0.4578 -0.2933
  570TMC3     O 8457   2.888   4.413  16.124 -0.6262 -0.5656 -0.0058
  570TMC3     H 8458   2.881   4.597  15.980 -0.7850 -1.3257  1.0579
  570TMC3    H1 8459   2.964   4.678  16.387 -1.5008 -0.1789 -0.4857
  570TMC3    H2 8460   3.019   0.261  16.099 -1.0103 -0.1039  0.9559
  570TMC3    C7 8461   3.079   0.192  16.358  0.7693  0.2300  0.1710
  570TMC3    C8 8462   3.037   0.090  15.899 -0.6760 -0.1155  0.1790
  570TMC3    O1 8463   3.076   0.154  16.478 -0.4790  0.2872  0.3409
  570TMC3    O2 8464   3.078   0.207  15.885 -0.1983 -0.2019 -0.4211
  571MPD2     C 8465   1.439   1.340  17.318  0.4864  0.4072 -0.1277
  571MPD2    C1 8466   1.466   1.240  17.416 -0.4836 -0.0684 -0.9267
  571MPD2    C2 8467   1.437   1.279  17.546 -0.3747 -0.5382  0.1942
  571MPD2    C3 8468   1.399   1.410  17.582 -0.2222  0.8413  0.0428
  571MPD2    C4 8469   1.371   1.504  17.483 -0.2794  0.2817  0.8427
  571MPD2    C5 8470   1.407   1.470  17.354  0.3904  0.1558 -0.0241
  571MPD2     H 8471   1.455   1.203  17.621  0.4676 -1.3204 -0.8069
  571MPD2    H1 8472   1.330   1.603  17.499 -0.6644  0.2331  0.1622
  571MPD2    H2 8473   1.467   1.327  17.214 -2.1114  0.4599 -0.8556
  571MPD2    H3 8474   1.401   1.552  17.284  1.3230 -1.2764 -1.7882
  571MPD2     N 8475   1.372   1.446   0.013  0.1813 -0.0710 -0.2048
  571MPD2    H5 8476   1.342   1.542   0.020  0.8447  0.2037 -1.1528
  571MPD2    N1 8477   1.507   1.111  17.380  0.3480 -0.0151 -0.5302
  571MPD2    H7 8478   1.507   1.083  17.282  2.2657 -0.6688 -0.3599
  572TMC3    C1 8479   1.326   1.430   0.239  0.4828 -0.2880 -0.2034
  572TMC3    C2 8480   1.244   1.359   0.317 -0.2250  0.5414  0.7516
  572TMC3    C3 8481   1.174   1.429   0.421  0.3936  0.3582 -0.6854
  572TMC3    C4 8482   1.329   1.567   0.241  0.3371  0.2385 -0.8957
  572TMC3    C5 8483   1.267   1.630   0.345  0.5922  0.2969  0.2548
  572TMC3    C6 8484   1.192   1.564   0.439 -0.1823 -0.7989 -1.1375
  572TMC3     C 8485   1.381   1.360   0.119  0.4384  0.4092 -0.2324
  572TMC3     O 8486   1.375   1.239   0.110 -0.1004 -0.5158  0.2569
  572TMC3     H 8487   1.237   1.252   0.303  2.4434  0.2628  1.4976
  572TMC3    H1 8488   1.396   1.631   0.185 -1.0453  0.1062 -2.6736
  572TMC3    H2 8489   1.138   1.631   0.505 -0.5651  0.4447 -2.7091
  572TMC3    C7 8490   1.298   1.774   0.364  0.4553  0.1896 -0.0387
  572TMC3    C8 8491   1.094   1.352   0.513 -0.0603 -0.2549  0.2455
  572TMC3    O1 8492   1.345   1.844   0.269  0.3135 -0.4423  0.3406
  572TMC3    O2 8493   1.075   1.233   0.488  0.2497  0.5411 -0.0788
  573MPD2     C 8494   2.244   2.456   1.248 -0.4841 -0.3007 -0.4000
  573MPD2    C1 8495   2.151   2.554   1.229  0.5002 -0.1240 -0.1920
  573MPD2    C2 8496   2.097   2.576   1.102 -0.8739  0.0236  0.5147
  573MPD2    C3 8497   2.151   2.503   0.995 -0.4287 -0.6921  0.0923
  573MPD2    C4 8498   2.248   2.405   1.017  0.3490  0.6775  0.1095
  573MPD2    C5 8499   2.299   2.383   1.143 -0.5996 -0.1603  0.2100
  573MPD2     H 8500   2.017   2.649   1.097 -0.8594  0.0423  0.5512
  573MPD2    H1 8501   2.283   2.347   0.933  0.8824  0.9267  0.1567
  573MPD2    H2 8502   2.275   2.434   1.349  2.9804 -0.5606 -1.4973
  573MPD2    H3 8503   2.373   2.308   1.164  0.9188  0.6898 -2.1241
  573MPD2     N 8504   2.106   2.520   0.863 -0.1366  0.4274 -0.5174
  573MPD2    H5 8505   2.137   2.447   0.800  1.5396 -0.1217  0.9383
  573MPD2    N1 8506   2.108   2.620   1.341  0.0991 -0.0786 -0.1904
  573MPD2    H7 8507   2.174   2.624   1.418 -1.0910  3.1071  0.6740
  574TMC3    C1 8508   1.996   2.629   0.690  0.2826 -0.4584 -1.0268
  574TMC3    C2 8509   1.867   2.660   0.646  0.3899  0.7361  0.5926
  574TMC3    C3 8510   1.837   2.646   0.516 -0.0396  0.2695 -0.0326
  574TMC3    C4 8511   2.087   2.589   0.603  0.4198  0.2038 -0.2252
  574TMC3    C5 8512   2.058   2.567   0.477  0.9043 -0.1227  0.7455
  574TMC3    C6 8513   1.933   2.600   0.428 -0.3851 -0.1495 -0.3147
  574TMC3     C 8514   2.019   2.622   0.830 -0.3019 -0.7788 -0.4962
  574TMC3     O 8515   1.977   2.725   0.880 -0.3084  0.2863 -0.0062
  574TMC3     H 8516   1.791   2.704   0.710  0.6642  0.8421  0.8434
  574TMC3    H1 8517   2.185   2.558   0.637  0.3323  0.6563  0.4453
  574TMC3    H2 8518   1.906   2.589   0.324  0.6672  2.3513 -0.8399
  574TMC3    C7 8519   2.166   2.540   0.380  0.1214  0.1554 -0.1560
  574TMC3    C8 8520   1.704   2.675   0.478  0.3637  0.2785 -0.5964
  574TMC3    O1 8521   2.273   2.503   0.427 -0.3319  0.4106  0.7546
  574TMC3    O2 8522   1.617   2.657   0.562 -0.2319 -0.3576  0.7358
  575TMC3    C1 8523   4.661   2.287  11.394 -0.5671  0.5913  0.1380
  575TMC3    C2 8524   4.699   2.185  11.305 -0.2320 -0.0385  0.4784
  575TMC3    C3 8525   0.068   2.211  11.210 -0.2322 -0.2505  0.2446
  575TMC3    C4 8526   4.709   2.411  11.381 -0.3179 -0.5042  0.3289
  575TMC3    C5 8527   0.081   2.429  11.284  0.2991 -0.4981 -0.0724
  575TMC3    C6 8528   0.125   2.339  11.191 -0.1084 -0.1012 -0.0684
  575TMC3     C 8529   4.538   2.265  11.460 -0.5578 -0.9260 -0.2415
  575TMC3     O 8530   4.447   2.342  11.430 -0.1203 -0.0436  0.5134
  575TMC3     H 8531   4.638   2.097  11.290 -0.4886  0.1872  0.2052
  575TMC3    H1 8532   4.673   2.495  11.439 -0.8132 -0.4902  0.0011
  575TMC3    H2 8533   0.217   2.358  11.136 -0.1723 -0.5592 -0.3359
  575TMC3    C7 8534   0.160   2.552  11.306  0.3020 -0.5809 -0.3730
  575TMC3    C8 8535   0.134   2.096  11.143 -0.1314 -0.2418 -0.5109
  575TMC3    O1 8536   0.190   2.584  11.418  0.1859  0.0780  0.1998
  575TMC3    O2 8537   0.204   2.129  11.047  0.0667  0.1951  0.1161
  576MPD2     C 8538   4.624   0.146  12.453 -0.1046 -0.3812  0.2838
  576MPD2    C1 8539   4.664   0.260  12.389 -0.5590 -0.5811  0.4113
  576MPD2    C2 8540   4.610   0.382  12.430  0.5393  0.2059  0.3566
  576MPD2    C3 8541   4.515   0.384  12.531 -1.0194  0.4124 -1.0615
  576MPD2    C4 8542   4.494   0.266  12.603  0.3718 -0.4366  0.5483
  576MPD2    C5 8543   4.551   0.146  12.564  0.3808 -0.4989 -0.1129
  576MPD2     H 8544   4.627   0.466  12.364  1.3612 -0.0672  0.2202
  576MPD2    H1 8545   4.434   0.253  12.693 -0.7840 -0.9456 -0.2983
  576MPD2    H2 8546   4.661   0.048  12.424  1.6398  0.4997 -0.4874
  576MPD2    H3 8547   4.536   0.054  12.618 -1.4110  0.8354  1.6538
  576MPD2     N 8548   4.447   0.505  12.563 -0.3034  0.1728 -0.5891
  576MPD2    H5 8549   4.475   0.586  12.509 -3.6364  1.6225 -0.1947
  576MPD2    N1 8550   0.031   0.257  12.280  0.4735  0.4312 -0.5914
  576MPD2    H7 8551   0.046   0.346  12.233  0.0803  1.4938  1.2993
  577TMC3    C1 8552   0.200   0.176  12.148 -0.2666  0.6779  0.6226
  577TMC3    C2 8553   0.323   0.114  12.160  0.2204 -0.2346  0.2951
  577TMC3    C3 8554   0.382   0.075  12.037  0.6733  0.0589 -0.8794
  577TMC3    C4 8555   0.144   0.200  12.029  0.4335  0.5804 -0.0048
  577TMC3    C5 8556   0.198   0.148  11.915 -0.1816 -0.8991 -0.5153
  577TMC3    C6 8557   0.325   0.094  11.914  0.1058 -0.2079  0.7524
  577TMC3     C 8558   0.118   0.154  12.262  0.6036 -0.2621  1.3223
  577TMC3     O 8559   0.163   0.072  12.343  0.0701 -0.4452  0.0498
  577TMC3     H 8560   0.365   0.102  12.258 -0.5758 -0.4249  0.6182
  577TMC3    H1 8561   0.037   0.215  12.040 -0.1212 -2.2783 -1.4388
  577TMC3    H2 8562   0.364   0.056  11.820 -1.7837  0.5467 -0.3487
  577TMC3    C7 8563   0.137   0.163  11.774 -0.2343 -0.0539  0.0316
  577TMC3    C8 8564   0.498   4.715  12.050 -0.0794 -0.1889 -0.5042
  577TMC3    O1 8565   0.193   0.117  11.674 -0.4878 -0.3237 -0.3445
  577TMC3    O2 8566   0.503   4.646  12.149  0.3261 -0.5674  0.6093
  578MPD2     C 8567   3.700   0.356   1.008  0.2537  0.6848 -1.1336
  578MPD2    C1 8568   3.663   0.226   0.974 -0.1631  0.0291 -0.3354
  578MPD2    C2 8569   3.539   0.176   1.004  0.3368 -0.2741 -0.0499
  578MPD2    C3 8570   3.439   0.266   1.042 -0.0716  0.5332 -0.4705
  578MPD2    C4 8571   3.478   0.391   1.075  1.1361 -0.8464  0.1441
  578MPD2    C5 8572   3.606   0.440   1.065  0.2394  0.4635  0.1109
  578MPD2     H 8573   3.511   0.071   1.000  1.3782 -0.5406 -0.2240
  578MPD2    H1 8574   3.411   0.466   1.115 -0.5960 -2.3624  0.0900
  578MPD2    H2 8575   3.804   0.386   1.007  0.4611  0.0266  0.2393
  578MPD2    H3 8576   3.625   0.541   1.098  1.6913  0.2977 -0.2026
  578MPD2     N 8577   3.310   0.216   1.069 -0.2319 -0.5138 -0.6201
  578MPD2    H5 8578   3.285   0.120   1.048  0.1351 -0.7863  0.2079
  578MPD2    N1 8579   3.778   0.149   0.930  0.4256  0.1009 -0.1920
  578MPD2    H7 8580   3.870   0.192   0.927 -1.4056  3.9677 -1.5676
  579TMC3    C1 8581   3.088   0.209   1.095  0.5713  0.5426 -0.0718
  579TMC3    C2 8582   3.096   0.093   1.167 -0.4010  0.5403  0.0017
  579TMC3    C3 8583   3.021   4.712   1.127  0.0031  0.1002 -0.3593
  579TMC3    C4 8584   3.015   0.221   0.980 -0.0272  0.0778  0.5579
  579TMC3    C5 8585   2.939   0.114   0.944 -0.1354 -0.6657  0.2813
  579TMC3    C6 8586   2.936   4.724   1.023 -0.0853 -0.3389  0.0197
  579TMC3     C 8587   3.206   0.293   1.088 -0.0061  0.5349  0.3789
  579TMC3     O 8588   3.181   0.409   1.054  0.5353  0.6261 -0.3877
  579TMC3     H 8589   3.177   0.077   1.237 -0.4498  2.1511  0.4155
  579TMC3    H1 8590   3.024   0.310   0.919 -3.0986  0.5957  0.8895
  579TMC3    H2 8591   2.881   4.636   0.993  1.9784 -2.7144  3.2332
  579TMC3    C7 8592   2.891   0.109   0.807  0.1648  0.5566 -0.0083
  579TMC3    C8 8593   3.043   4.576   1.181  0.2254 -0.2738 -0.3545
  579TMC3    O1 8594   2.898   0.212   0.738  0.0558 -0.0564 -0.0557
  579TMC3    O2 8595   2.995   4.483   1.118  0.2186  0.0895  0.2949
  580TMC3    C1 8596   2.507   4.091  12.234  0.3416 -0.1304 -0.9331
  580TMC3    C2 8597   2.584   4.186  12.288 -0.6567 -0.6682 -0.2386
  580TMC3    C3 8598   2.699   4.145  12.358 -1.5783  0.2215 -0.1684
  580TMC3    C4 8599   2.536   3.963  12.251  0.0265  0.2955 -0.3640
  580TMC3    C5 8600   2.648   3.923  12.317 -0.0178 -0.7660  0.1298
  580TMC3    C6 8601   2.743   4.019  12.364 -0.2421 -0.3462 -0.4242
  580TMC3     C 8602   2.405   4.126  12.142  0.1487  0.1512  0.5019
  580TMC3     O 8603   2.325   4.040  12.113 -0.1018 -0.0143 -0.4569
  580TMC3     H 8604   2.569   4.293  12.274  0.0920 -0.4131  0.9149
  580TMC3    H1 8605   2.473   3.885  12.209 -0.6544  0.8180 -0.3150
  580TMC3    H2 8606   2.834   4.000  12.420  0.1661 -0.3229 -1.0841
  580TMC3    C7 8607   2.666   3.779  12.329  0.3864  0.0973  0.2029
  580TMC3    C8 8608   2.786   4.246  12.388  0.1540  1.1367 -0.0813
  580TMC3    O1 8609   2.573   3.709  12.301 -0.3596  0.3902  0.5562
  580TMC3    O2 8610   2.736   4.351  12.427  0.2747 -0.0984 -0.1363
  581MPD2     C 8611   0.576   3.929  15.201 -0.1439 -0.7752 -0.1910
  581MPD2    C1 8612   0.533   4.007  15.300 -0.0501 -0.5017 -0.0063
  581MPD2    C2 8613   0.409   4.066  15.297  0.1868 -0.6629  0.4676
  581MPD2    C3 8614   0.327   4.040  15.186 -0.6336  0.1399 -0.1916
  581MPD2    C4 8615   0.373   3.961  15.086  0.0550  1.2498 -0.4644
  581MPD2    C5 8616   0.493   3.903  15.097  0.8777  0.3503  0.1879
  581MPD2     H 8617   0.367   4.124  15.378  1.8535 -0.4913  1.2106
  581MPD2    H1 8618   0.317   3.939  14.996  1.5116  1.3916 -1.4106
  581MPD2    H2 8619   0.677   3.890  15.205 -0.2790 -1.1472 -0.4531
  581MPD2    H3 8620   0.526   3.849  15.009 -0.1534 -0.8808  0.5507
  581MPD2     N 8621   0.197   4.093  15.179 -0.3569  0.3815 -0.1187
  581MPD2    H5 8622   0.166   4.164  15.246 -1.6023  0.7121 -1.0646
  581MPD2    N1 8623   0.622   4.013  15.412 -0.7737 -0.6495  0.6754
  581MPD2    H7 8624   0.706   3.956  15.407 -1.4930 -1.6466  0.0419
  582TMC3    C1 8625   0.711   4.046  15.612 -0.7139 -0.4519  0.0239
  582TMC3    C2 8626   0.677   4.055  15.746 -0.1508 -0.3489 -0.7256
  582TMC3    C3 8627   0.726   3.961  15.832  0.2545  0.1064 -0.7353
  582TMC3    C4 8628   0.807   3.963  15.566 -0.2042  0.6385  0.5357
  582TMC3    C5 8629   0.857   3.877  15.658  1.0164 -0.6659 -0.3310
  582TMC3    C6 8630   0.822   3.875  15.793 -0.0972  0.7435  0.5050
  582TMC3     C 8631   0.611   4.089  15.526 -0.0369 -0.9129 -0.8825
  582TMC3     O 8632   0.527   4.170  15.557  0.3569 -0.4987  0.4529
  582TMC3     H 8633   0.607   4.133  15.773 -0.6542 -1.1680  0.3377
  582TMC3    H1 8634   0.857   3.960  15.469  0.9836 -1.6368  1.2107
  582TMC3    H2 8635   0.888   3.817  15.856  0.1364  0.9430  0.4414
  582TMC3    C7 8636   0.966   3.777  15.624 -0.1892  0.0990  0.2735
  582TMC3    C8 8637   0.713   3.995  15.971  0.4281  0.2699 -0.1349
  582TMC3    O1 8638   1.056   3.764  15.704  0.5564 -0.1689 -0.4054
  582TMC3    O2 8639   0.621   4.065  16.006  0.0585  0.2784 -0.0651
  583MPD2     C 8640   4.711   0.963  16.649  0.3182  0.6160 -0.1195
  583MPD2    C1 8641   0.126   0.961  16.668  0.1327  0.0773  0.4733
  583MPD2    C2 8642   0.193   1.029  16.766 -0.2627 -0.5678 -0.5170
  583MPD2    C3 8643   0.116   1.106  16.854 -0.3861 -0.2715 -1.0657
  583MPD2    C4 8644   4.701   1.121  16.832 -0.4017  0.0319 -0.1115
  583MPD2    C5 8645   4.637   1.045  16.735 -0.0418  0.4237  0.3069
  583MPD2     H 8646   0.299   1.028  16.785 -0.6997 -1.8053  1.8262
  583MPD2    H1 8647   4.637   1.177  16.900  1.7235 -0.6090  2.4247
  583MPD2    H2 8648   4.659   0.906  16.573  3.4075 -0.9768 -1.0320
  583MPD2    H3 8649   4.530   1.046  16.722 -0.0376  0.7058  0.3054
  583MPD2     N 8650   0.183   1.180  16.953 -0.6835  0.2250  0.0708
  583MPD2    H5 8651   0.284   1.170  16.957 -0.5627  1.7642  0.6032
  583MPD2    N1 8652   0.213   0.881  16.593 -0.6934  0.5853  0.3786
  583MPD2    H7 8653   0.311   0.891  16.616 -0.5138 -1.2413  0.4214
  584TMC3    C1 8654   0.226   1.288  17.166 -0.4624  0.1598 -0.3204
  584TMC3    C2 8655   0.324   1.367  17.116  0.2980 -0.0714  0.0040
  584TMC3    C3 8656   0.384   1.465  17.199 -0.1736  0.4863  0.6615
  584TMC3    C4 8657   0.189   1.303  17.298  0.7128 -0.1696 -0.5771
  584TMC3    C5 8658   0.245   1.405  17.369  0.3936  0.2506  0.6810
  584TMC3    C6 8659   0.341   1.492  17.329 -0.0695 -0.3223  0.1327
  584TMC3     C 8660   0.130   1.230  17.069  0.4344 -0.4001  0.2490
  584TMC3     O 8661   0.014   1.214  17.107  0.1155 -0.4946 -0.2540
  584TMC3     H 8662   0.345   1.373  17.010 -1.3337  0.7015 -0.2820
  584TMC3    H1 8663   0.122   1.231  17.342  0.0467  0.1484 -1.0681
  584TMC3    H2 8664   0.368   1.588  17.370 -0.5633 -0.6490  1.2211
  584TMC3    C7 8665   0.213   1.405  17.510  0.3115  0.3707  0.6647
  584TMC3    C8 8666   0.471   1.555  17.126 -0.2145 -0.0807 -0.7180
  584TMC3    O1 8667   0.130   1.319  17.542  0.3782  0.2523  0.4012
  584TMC3    O2 8668   0.444   1.581  17.010  0.1715 -0.0950  0.4730
  585MPD2     C 8669   4.277   3.878   0.944 -0.1837 -0.1931 -0.1796
  585MPD2    C1 8670   4.352   3.991   0.912  0.4654  0.7091  0.2607
  585MPD2    C2 8671   4.343   4.036   0.780  0.0669  0.2655 -0.0135
  585MPD2    C3 8672   4.281   3.958   0.688  0.1085  0.0631  0.6007
  585MPD2    C4 8673   4.205   3.850   0.721  0.7922  0.6002  0.0715
  585MPD2    C5 8674   4.208   3.802   0.855  0.1866  0.3906  0.0224
  585MPD2     H 8675   4.367   4.138   0.752 -0.0827  0.3637  0.2102
  585MPD2    H1 8676   4.160   3.798   0.638  0.3890 -1.5075  1.6141
  585MPD2    H2 8677   4.266   3.860   1.050 -0.3919 -0.6923 -0.2891
  585MPD2    H3 8678   4.156   3.712   0.885 -0.7545  0.8397 -0.2334
  585MPD2     N 8679   4.294   3.998   0.555  0.4381  0.1051 -0.7254
  585MPD2    H5 8680   4.237   3.951   0.485  2.4177 -1.7624 -1.1048
  585MPD2    N1 8681   4.409   4.064   1.019 -0.2861 -0.1534  0.0498
  585MPD2    H7 8682   4.392   4.021   1.109 -1.3189  1.1840  0.5025
  586TMC3    C1 8683   4.371   4.132   0.377  0.0558 -0.0174 -0.0112
  586TMC3    C2 8684   4.462   4.112   0.284  0.0823  0.2212 -0.0237
  586TMC3    C3 8685   4.436   4.148   0.153 -0.6639  0.2289 -0.1853
  586TMC3    C4 8686   4.252   4.181   0.343  0.0537 -0.4682  0.0362
  586TMC3    C5 8687   4.224   4.207   0.212 -0.2861 -0.0061  0.2068
  586TMC3    C6 8688   4.318   4.195   0.120  0.0871  0.1130  0.0624
  586TMC3     C 8689   4.390   4.089   0.512  0.0166  0.1287 -0.1526
  586TMC3     O 8690   4.496   4.124   0.567 -0.1688  0.0552  0.2393
  586TMC3     H 8691   4.550   4.061   0.321  0.5921  1.5439  0.5695
  586TMC3    H1 8692   4.177   4.197   0.420 -1.1804  1.7479 -1.6309
  586TMC3    H2 8693   4.310   4.208   0.012 -0.5021  2.4232  0.3962
  586TMC3    C7 8694   4.084   4.195   0.177 -0.1540 -0.3983 -0.8110
  586TMC3    C8 8695   4.530   4.107   0.050  0.3869 -0.7286  0.1992
  586TMC3    O1 8696   4.075   4.093   0.106  0.7836 -0.2625  0.4862
  586TMC3    O2 8697   4.541   4.189  17.664 -0.0592 -0.5584 -0.2828
  587TMC3    C1 8698   1.962   2.837  16.354  0.7827 -0.1430  1.0356
  587TMC3    C2 8699   1.922   2.973  16.354  0.2669 -0.3494  0.1414
  587TMC3    C3 8700   2.011   3.073  16.315 -0.6151 -0.4471  0.2904
  587TMC3    C4 8701   2.094   2.805  16.327  0.0494 -0.7124 -0.1941
  587TMC3    C5 8702   2.178   2.907  16.283  0.1603  0.3804  0.7979
  587TMC3    C6 8703   2.140   3.041  16.285  0.6362 -0.4089 -0.4302
  587TMC3     C 8704   1.870   2.731  16.395  0.1421  0.1956 -0.1698
  587TMC3     O 8705   1.908   2.615  16.375 -0.6165  0.1043 -0.1932
  587TMC3     H 8706   1.824   3.003  16.389  0.5130 -0.2938  0.7797
  587TMC3    H1 8707   2.123   2.701  16.324 -2.7916 -1.5094 -0.6124
  587TMC3    H2 8708   2.214   3.115  16.257 -1.0039  1.5684  0.5059
  587TMC3    C7 8709   2.312   2.880  16.228 -0.3084 -0.3278  0.0114
  587TMC3    C8 8710   1.973   3.210  16.313  0.1160 -0.1167 -0.8943
  587TMC3    O1 8711   2.385   2.976  16.206 -0.2381  0.4041  0.6329
  587TMC3    O2 8712   2.057   3.276  16.255  0.9212  0.3533  0.0664
  588TMC3    C1 8713   4.229   0.584   9.878 -0.1077 -0.2689  0.3050
  588TMC3    C2 8714   4.202   0.527   9.997  0.0760 -0.4586 -0.3009
  588TMC3    C3 8715   4.308   0.462  10.058  0.0347  0.0373  0.2643
  588TMC3    C4 8716   4.351   0.577   9.819 -0.3088  0.7890 -0.4486
  588TMC3    C5 8717   4.457   0.523   9.885  0.0184 -0.6267 -0.2583
  588TMC3    C6 8718   4.435   0.451   9.998 -0.0311  0.0354 -0.5029
  588TMC3     C 8719   4.173   0.709   9.843 -0.5493 -0.4596 -0.6182
  588TMC3     O 8720   4.097   0.720   9.743  0.3821  0.4643  0.1296
  588TMC3     H 8721   4.110   0.548  10.051 -0.0062 -1.5605 -0.0080
  588TMC3    H1 8722   4.374   0.641   9.735 -3.3323  1.4236 -0.8035
  588TMC3    H2 8723   4.518   0.397  10.042  1.2262  1.4686 -1.0776
  588TMC3    C7 8724   4.571   0.614   9.891  0.4160  0.6663 -0.5950
  588TMC3    C8 8725   4.273   0.373  10.171 -0.0267 -0.1453 -0.5568
  588TMC3    O1 8726   4.549   0.723   9.835 -0.1512  0.3876 -0.2989
  588TMC3    O2 8727   4.165   0.396  10.217 -0.0473  0.6444  0.6319
  589TMC3    C1 8728   2.653   2.985   1.307 -0.3967 -0.0159  1.0821
  589TMC3    C2 8729   2.714   2.933   1.421 -0.2743  0.0324  0.2138
  589TMC3    C3 8730   2.818   2.849   1.399  0.4232  0.3001 -0.4809
  589TMC3    C4 8731   2.690   2.943   1.183  0.5582 -0.5691 -0.5569
  589TMC3    C5 8732   2.787   2.853   1.175 -0.5825  0.6066 -0.4767
  589TMC3    C6 8733   2.861   2.804   1.279  0.4691  0.1841  0.8285
  589TMC3     C 8734   2.578   3.116   1.307  0.6150 -0.5023  0.0988
  589TMC3     O 8735   2.528   3.139   1.199 -0.1627  0.2136 -0.0640
  589TMC3     H 8736   2.683   2.970   1.518 -2.3580  1.8198 -1.1461
  589TMC3    H1 8737   2.639   2.977   1.093 -1.1969  0.1724  0.7117
  589TMC3    H2 8738   2.934   2.724   1.272 -0.0355 -0.3542  1.6393
  589TMC3    C7 8739   2.845   2.812   1.046 -0.0755  0.7497  0.1490
  589TMC3    C8 8740   2.900   2.810   1.520  0.5274 -0.0167 -0.3633
  589TMC3    O1 8741   2.916   2.713   1.040  0.1359 -0.0965 -0.0133
  589TMC3    O2 8742   2.847   2.831   1.632 -0.4302  0.6213 -0.4890
  590MPD2     C 8743   2.771   1.236  16.713 -0.4129  0.1291  0.1635
  590MPD2    C1 8744   2.734   1.256  16.581 -0.3129 -0.1197 -0.6220
  590MPD2    C2 8745   2.796   1.338  16.497 -0.2117 -0.1660 -0.3021
  590MPD2    C3 8746   2.901   1.417  16.550  0.3051  0.3318  0.2519
  590MPD2    C4 8747   2.935   1.403  16.684  0.2841  0.3500 -0.0754
  590MPD2    C5 8748   2.869   1.313  16.766  0.1278 -0.0108 -0.2767
  590MPD2     H 8749   2.776   1.341  16.390 -3.6417  0.5399  0.3427
  590MPD2    H1 8750   3.022   1.448  16.730  1.6982 -0.0998 -2.2723
  590MPD2    H2 8751   2.718   1.166  16.776  1.0016  0.1653  1.3890
  590MPD2    H3 8752   2.894   1.297  16.870 -0.7693  1.0088  0.0946
  590MPD2     N 8753   2.968   1.504  16.462 -0.4209  0.3449 -0.0944
  590MPD2    H5 8754   2.948   1.508  16.362 -0.5549 -0.1868 -0.0926
  590MPD2    N1 8755   2.621   1.179  16.552  0.0570  0.1890  0.4050
  590MPD2    H7 8756   2.558   1.158  16.629 -1.3840  1.6315 -0.3858
  591TMC3    C1 8757   3.117   1.678  16.387 -0.1295  0.4261  0.9295
  591TMC3    C2 8758   3.171   1.624  16.278 -0.6261 -0.2725 -0.2969
  591TMC3    C3 8759   3.244   1.710  16.191 -0.6623 -0.1284  0.2401
  591TMC3    C4 8760   3.128   1.813  16.411 -0.3907 -0.2527  0.1725
  591TMC3    C5 8761   3.188   1.886  16.319 -0.7160  0.5083  0.4885
  591TMC3    C6 8762   3.254   1.842  16.211 -0.5055 -0.0740 -0.0616
  591TMC3     C 8763   3.068   1.591  16.497 -0.4776  0.7822 -0.1205
  591TMC3     O 8764   3.125   1.604  16.607 -0.1894  0.1132 -0.3375
  591TMC3     H 8765   3.180   1.516  16.280 -1.5217 -0.3872 -2.0794
  591TMC3    H1 8766   3.089   1.855  16.503  1.6439 -2.0663  1.8722
  591TMC3    H2 8767   3.296   1.909  16.137  0.1279  0.6432  0.9466
  591TMC3    C7 8768   3.098   2.003  16.305 -0.4393 -0.3585 -0.3883
  591TMC3    C8 8769   3.329   1.640  16.088 -0.7001 -0.4305 -0.3705
  591TMC3    O1 8770   2.983   1.987  16.343 -0.1006  0.0287 -0.2340
  591TMC3    O2 8771   3.306   1.527  16.057  0.0013 -0.2789  0.0334
  592MPD2     C 8772   3.786   3.436  11.446 -0.3273 -0.0022 -0.1570
  592MPD2    C1 8773   3.823   3.481  11.571  0.3453  0.6859 -0.1191
  592MPD2    C2 8774   3.755   3.435  11.683  0.3327 -0.7760 -0.1760
  592MPD2    C3 8775   3.645   3.352  11.671  0.8567 -0.6901  0.5263
  592MPD2    C4 8776   3.605   3.306  11.545  0.5006 -0.1848 -0.0067
  592MPD2    C5 8777   3.683   3.349  11.436  0.1540  0.8700 -0.3371
  592MPD2     H 8778   3.795   3.448  11.783 -2.5757  0.7622  0.7872
  592MPD2    H1 8779   3.516   3.247  11.526  1.4125 -0.5969 -3.0338
  592MPD2    H2 8780   3.830   3.483  11.359 -0.4883 -0.4485 -0.4782
  592MPD2    H3 8781   3.646   3.328  11.336  0.8059 -0.0794 -0.3842
  592MPD2     N 8782   3.594   3.298  11.790  0.0946  0.4074 -0.5672
  592MPD2    H5 8783   3.645   3.316  11.876 -0.9553 -0.3875  0.2268
  592MPD2    N1 8784   3.925   3.575  11.584  0.1495  0.9838  0.5290
  592MPD2    H7 8785   3.983   3.601  11.504 -0.9675 -0.2261 -0.6773
  593TMC3    C1 8786   4.038   3.765  11.678 -0.0119  0.1032 -0.4582
  593TMC3    C2 8787   4.028   3.858  11.776  0.6390  0.9511  0.0520
  593TMC3    C3 8788   4.134   3.941  11.790 -0.1547  0.0279  0.4360
  593TMC3    C4 8789   4.153   3.732  11.609 -0.1051 -0.2544 -0.0934
  593TMC3    C5 8790   4.259   3.819  11.646  0.8742 -0.1270 -0.0918
  593TMC3    C6 8791   4.252   3.924  11.735 -0.3126 -0.6956 -0.2674
  593TMC3     C 8792   3.933   3.663  11.694 -0.2738 -0.6529 -0.4018
  593TMC3     O 8793   3.848   3.683  11.781  0.3681  0.5873  0.1530
  593TMC3     H 8794   3.946   3.878  11.844 -2.3931 -1.8713 -2.8111
  593TMC3    H1 8795   4.169   3.643  11.550  0.9602 -0.0670 -0.0810
  593TMC3    H2 8796   4.338   3.989  11.743  0.1324 -1.4815  1.2215
  593TMC3    C7 8797   4.362   3.841  11.548 -0.4158 -0.0243 -1.1203
  593TMC3    C8 8798   4.104   4.064  11.857  0.4899 -0.2023 -0.1239
  593TMC3    O1 8799   4.466   3.897  11.582  0.1885 -0.0653 -0.3360
  593TMC3    O2 8800   3.990   4.108  11.849 -0.0581  0.1071 -0.6450
  594MPD2     C 8801   2.311   2.596  13.802  0.3856 -0.4949 -0.4289
  594MPD2    C1 8802   2.321   2.585  13.942 -0.3414 -0.2000  0.2287
  594MPD2    C2 8803   2.438   2.632  13.999 -0.3516  0.6824 -0.2122
  594MPD2    C3 8804   2.518   2.715  13.929  0.1284  0.4397  0.5278
  594MPD2    C4 8805   2.502   2.738  13.792 -0.5983 -0.0636  0.4706
  594MPD2    C5 8806   2.400   2.676  13.733  0.7738 -0.1250  0.5762
  594MPD2     H 8807   2.456   2.626  14.105 -1.2047  2.7697  0.0516
  594MPD2    H1 8808   2.565   2.809  13.738 -0.3323  0.3120  1.2800
  594MPD2    H2 8809   2.217   2.576  13.753  0.1367 -2.2515  0.7660
  594MPD2    H3 8810   2.377   2.710  13.633  0.3474 -1.1069  0.3375
  594MPD2     N 8811   2.614   2.781  14.004  0.1373  0.1361  0.3530
  594MPD2    H5 8812   2.606   2.765  14.104 -0.7633  0.5979  0.3528
  594MPD2    N1 8813   2.210   2.522  14.010  0.1757 -0.5118 -0.0018
  594MPD2    H7 8814   2.135   2.485  13.954 -2.5296  2.8569  1.4112
  595TMC3    C1 8815   2.936   3.059  14.189 -0.2962  0.0659  0.3047
  595TMC3    C2 8816   2.888   2.984  14.079 -0.3217 -0.0974 -0.5303
  595TMC3    C3 8817   2.762   2.938  14.082 -0.4577  0.3830  0.0514
  595TMC3    C4 8818   2.858   3.078  14.300 -0.0308 -0.1469  0.0725
  595TMC3    C5 8819   2.735   3.016  14.295  0.6356 -0.5054  0.1721
  595TMC3    C6 8820   2.688   2.938  14.197 -0.2700 -0.0170  0.3838
  595TMC3     C 8821   3.080   3.082  14.189 -0.0572 -0.4577 -0.2357
  595TMC3     O 8822   3.119   3.095  14.071  0.0179  0.3890 -0.2056
  595TMC3     H 8823   2.945   2.976  13.987 -1.0018  0.7003 -1.0090
  595TMC3    H1 8824   2.893   3.139  14.383  2.2021 -1.2323 -0.0837
  595TMC3    H2 8825   2.584   2.909  14.208 -0.4973  0.5535 -0.2542
  595TMC3    C7 8826   2.646   3.048  14.399 -0.9400 -0.3555 -0.7119
  595TMC3    C8 8827   2.706   2.880  13.962  0.4569  0.9840 -0.4944
  595TMC3    O1 8828   2.525   3.042  14.372  0.0053  0.2357  0.5090
  595TMC3    O2 8829   2.756   2.896  13.850  0.0246  0.0987  0.0206
  596MPD2     C 8830   0.564   0.526  16.813 -0.1907  0.0727  0.4182
  596MPD2    C1 8831   0.699   0.513  16.834 -0.3610 -0.1491 -0.1381
  596MPD2    C2 8832   0.765   0.426  16.749 -0.2500 -0.4167 -0.5991
  596MPD2    C3 8833   0.700   0.360  16.647 -0.1972  0.0333 -0.5764
  596MPD2    C4 8834   0.567   0.361  16.643  0.1189 -0.0364  0.1320
  596MPD2    C5 8835   0.498   0.445  16.728  0.9277 -0.4224  0.2576
  596MPD2     H 8836   0.873   0.424  16.759 -0.5455  0.9297  2.8860
  596MPD2    H1 8837   0.503   0.309  16.572  2.1665 -1.5109 -0.6401
  596MPD2    H2 8838   0.505   0.586  16.882 -1.9836 -1.2194  0.0093
  596MPD2    H3 8839   0.391   0.452  16.714  1.4492  0.5144 -3.2359
  596MPD2     N 8840   0.771   0.286  16.550  0.4603  0.1153 -0.1641
  596MPD2    H5 8841   0.726   0.261  16.462  0.4962 -0.5092 -0.0062
  596MPD2    N1 8842   0.773   0.584  16.928  0.4260  0.8426 -0.2380
  596MPD2    H7 8843   0.871   0.568  16.946  0.6689  1.3030 -1.1648
  597TMC3    C1 8844   0.833   0.770  17.050  0.0425  0.8461 -0.6484
  597TMC3    C2 8845   0.956   0.762  16.990  0.0613 -0.1590 -0.3306
  597TMC3    C3 8846   1.061   0.835  17.051  0.6549 -0.4989  0.1004
  597TMC3    C4 8847   0.818   0.827  17.173  0.4239 -0.4664  0.8881
  597TMC3    C5 8848   0.928   0.889  17.229 -0.1634  0.0944 -0.3546
  597TMC3    C6 8849   1.044   0.899  17.166  0.8326 -1.1491 -0.2865
  597TMC3     C 8850   0.722   0.684  17.004  0.1037 -0.0193  0.0305
  597TMC3     O 8851   0.606   0.711  17.031  0.4165  0.1958 -0.0336
  597TMC3     H 8852   0.976   0.705  16.900  0.4759 -0.0290 -0.3191
  597TMC3    H1 8853   0.723   0.822  17.225  0.5245  4.8228  1.5223
  597TMC3    H2 8854   1.129   0.950  17.211 -0.6923  0.2190  1.0211
  597TMC3    C7 8855   0.891   0.983  17.333  0.2088  0.0763 -0.0042
  597TMC3    C8 8856   1.184   0.855  16.980  0.4565 -0.2868 -0.0636
  597TMC3    O1 8857   0.796   0.959  17.406 -0.6310  0.3683  0.2521
  597TMC3    O2 8858   1.241   0.961  17.006 -0.1096  0.3958 -0.0589
  598TMC3    C1 8859   3.986   2.733  15.631 -0.1741 -0.8719 -0.5321
  598TMC3    C2 8860   3.897   2.650  15.680  0.7817 -0.1079  0.0990
  598TMC3    C3 8861   3.845   2.549  15.598 -0.2839 -0.8794 -0.4064
  598TMC3    C4 8862   4.020   2.719  15.498 -0.0577  0.0529  0.3913
  598TMC3    C5 8863   3.967   2.618  15.414 -0.2932  0.5948 -0.7313
  598TMC3    C6 8864   3.869   2.539  15.459 -0.8017  0.2815 -0.1892
  598TMC3     C 8865   4.064   2.810  15.728  0.8541  0.4539  0.5883
  598TMC3     O 8866   4.062   2.779  15.848  0.0606 -0.1799 -0.1006
  598TMC3     H 8867   3.875   2.649  15.786  0.1782  1.6503 -0.0175
  598TMC3    H1 8868   4.092   2.789  15.459 -1.5852  0.8476 -1.0060
  598TMC3    H2 8869   3.828   2.465  15.391  2.5013 -1.6758 -0.0531
  598TMC3    C7 8870   4.029   2.583  15.293 -0.7691  0.2239 -1.0980
  598TMC3    C8 8871   3.723   2.485  15.646  0.3792  0.2677  0.0113
  598TMC3    O1 8872   3.997   2.473  15.244  0.3696 -0.0732 -0.3461
  598TMC3    O2 8873   3.686   2.524  15.755 -0.8991  0.6995  0.4241
  599MPD2     C 8874   4.249   4.090  15.594  0.3547  1.3459  0.0160
  599MPD2    C1 8875   4.301   4.099  15.722 -0.5028  0.3527  1.1511
  599MPD2    C2 8876   4.225   4.152  15.825  0.0218 -1.0256  0.1161
  599MPD2    C3 8877   4.093   4.189  15.801  0.2496 -0.2961 -0.0244
  599MPD2    C4 8878   4.040   4.179  15.668  0.3677  0.2131  0.3672
  599MPD2    C5 8879   4.122   4.140  15.567  0.0980  0.5832  0.1370
  599MPD2     H 8880   4.256   4.159  15.928 -0.7766  0.0399  0.2906
  599MPD2    H1 8881   3.955   4.234  15.629 -0.4385 -0.2289  1.5104
  599MPD2    H2 8882   4.306   4.046  15.513  0.5770 -2.0641  2.0574
  599MPD2    H3 8883   4.074   4.141  15.470  0.5568 -2.2295 -0.1277
  599MPD2     N 8884   4.005   4.243  15.900 -0.0952  0.3017  0.8281
  599MPD2    H5 8885   3.911   4.247  15.861  0.3334  1.9716 -0.0253
  599MPD2    N1 8886   4.435   4.065  15.743  0.1492 -1.0186 -0.4803
  599MPD2    H7 8887   4.482   4.020  15.665 -0.3349 -2.2388 -0.0668
  600TMC3    C1 8888   3.915   4.334  16.091  0.3193  0.4753  0.2440
  600TMC3    C2 8889   3.797   4.260  16.071  0.0418 -0.7010 -0.0149
  600TMC3    C3 8890   3.687   4.298  16.149 -0.6860 -0.0756 -0.7253
  600TMC3    C4 8891   3.929   4.418  16.195  0.6735 -0.4323  0.6200
  600TMC3    C5 8892   3.825   4.444  16.277  0.3410  0.3233  0.0201
  600TMC3    C6 8893   3.707   4.384  16.253  1.3545  0.1365 -0.2676
  600TMC3     C 8894   4.032   4.292  16.023 -0.6587  0.0366  0.5138
  600TMC3     O 8895   4.143   4.324  16.072  0.3305  0.5001  0.0485
  600TMC3     H 8896   3.792   4.182  15.996  0.0698  1.0895 -1.8786
  600TMC3    H1 8897   4.027   4.458  16.214  0.1197  0.9801  0.5246
  600TMC3    H2 8898   3.622   4.411  16.316 -0.3568  1.0633 -2.9885
  600TMC3    C7 8899   3.833   4.502  16.412 -0.4265 -0.7318  0.3165
  600TMC3    C8 8900   3.579   4.202  16.170 -0.1903 -0.0159 -0.9325
  600TMC3    O1 8901   3.741   4.471  16.486 -0.0352  0.3769 -0.0482
  600TMC3    O2 8902   3.547   4.131  16.077 -0.3714 -0.3623  0.7156
  601MPD2     C 8903   1.360   2.187   0.670  0.1300 -0.4403  0.1852
  601MPD2    C1 8904   1.336   2.185   0.533 -0.5145 -0.4050  0.5261
  601MPD2    C2 8905   1.316   2.060   0.475 -0.0514 -0.1889  0.6216
  601MPD2    C3 8906   1.315   1.940   0.545  0.6941  0.4672 -0.3939
  601MPD2    C4 8907   1.335   1.950   0.680  0.8845 -0.8353 -0.5781
  601MPD2    C5 8908   1.350   2.069   0.740  0.8143  0.3413 -0.5600
  601MPD2     H 8909   1.303   2.049   0.368 -0.5394 -0.4171  0.7053
  601MPD2    H1 8910   1.344   1.862   0.743 -0.0115  0.7537  1.7922
  601MPD2    H2 8911   1.355   2.278   0.729  0.2214  0.0116 -0.5032
  601MPD2    H3 8912   1.372   2.076   0.846  0.2843 -1.2749 -0.3411
  601MPD2     N 8913   1.293   1.809   0.496 -0.2750  0.0011  0.6114
  601MPD2    H5 8914   1.272   1.739   0.567  0.9622 -0.1140  0.8645
  601MPD2    N1 8915   1.308   2.295   0.452  0.0636  0.5093  0.2154
  601MPD2    H7 8916   1.263   2.272   0.365 -0.2009 -1.3826  0.8569
  602TMC3    C1 8917   1.230   2.506   0.403 -0.2743  0.5758 -0.0687
  602TMC3    C2 8918   1.135   2.593   0.455 -0.0987  0.2906 -0.3889
  602TMC3    C3 8919   1.042   2.641   0.362 -0.0446 -0.0048 -0.6050
  602TMC3    C4 8920   1.241   2.470   0.270  0.1381 -0.4430 -0.3270
  602TMC3    C5 8921   1.150   2.525   0.185  0.3136  0.8259  0.5423
  602TMC3    C6 8922   1.057   2.621   0.229 -1.1910  0.6759  1.1053
  602TMC3     C 8923   1.307   2.426   0.495  0.2373  0.0018 -0.6133
  602TMC3     O 8924   1.355   2.477   0.592  0.3423  0.3315  0.4422
  602TMC3     H 8925   1.138   2.638   0.553  1.8758 -1.6823  0.4685
  602TMC3    H1 8926   1.310   2.394   0.237  1.1761 -0.4120  1.7924
  602TMC3    H2 8927   0.990   2.670   0.159  1.9242  0.6232 -1.9234
  602TMC3    C7 8928   1.142   2.485   0.051 -0.9693  0.3863  0.0515
  602TMC3    C8 8929   0.930   2.717   0.412  0.0293  0.3892  0.5513
  602TMC3    O1 8930   1.247   2.452  17.700 -0.2533  0.0812  0.1126
  602TMC3    O2 8931   0.943   2.783   0.513  0.0074  0.3004  0.3339
  603TMC3    C1 8932   4.602   3.034  10.907  0.1655  0.2369 -0.4694
  603TMC3    C2 8933   4.642   2.998  11.033  0.0839 -0.4673 -0.4499
  603TMC3    C3 8934   0.003   3.078  11.102  0.5263 -0.6318 -0.9620
  603TMC3    C4 8935   4.647   3.153  10.857 -0.2368  0.4494  0.4976
  603TMC3    C5 8936   4.721   3.234  10.940 -0.2801 -0.0120 -0.6176
  603TMC3    C6 8937   0.047   3.200  11.061  0.2915  0.7420  0.5634
  603TMC3     C 8938   4.502   2.957  10.833  0.4610  0.7963 -0.8184
  603TMC3     O 8939   4.494   2.976  10.712 -0.7410 -0.4665  0.0809
  603TMC3     H 8940   4.617   2.902  11.077 -1.3813  0.1133 -0.0132
  603TMC3    H1 8941   4.596   3.174  10.763 -0.5851  2.7934  1.2133
  603TMC3    H2 8942   0.125   3.256  11.111 -0.0111  1.1635  0.5636
  603TMC3    C7 8943   0.026   3.372  10.900  0.3559  0.1078  0.1682
  603TMC3    C8 8944   0.051   3.015  11.230  0.2487  0.6099 -0.6120
  603TMC3    O1 8945   0.093   3.440  10.975  0.0217  0.1466  0.3533
  603TMC3    O2 8946   0.009   2.906  11.253  0.3309  0.0673 -0.4718
  604MPD2     C 8947   0.558   1.650  16.697  0.4140 -0.2952  0.4685
  604MPD2    C1 8948   0.454   1.583  16.645 -0.5217 -0.1390 -0.1947
  604MPD2    C2 8949   0.460   1.556  16.510 -0.7670 -1.2267 -0.0963
  604MPD2    C3 8950   0.555   1.621  16.429  0.5606  0.1606 -0.3347
  604MPD2    C4 8951   0.651   1.694  16.486 -0.6291  0.1590 -0.9470
  604MPD2    C5 8952   0.656   1.707  16.620  0.1505 -0.4691 -0.5664
  604MPD2     H 8953   0.384   1.504  16.453 -1.4333 -0.9043  0.4965
  604MPD2    H1 8954   0.737   1.733  16.433  0.7319  0.0683  1.1894
  604MPD2    H2 8955   0.567   1.657  16.805  0.7206  0.0058  0.4232
  604MPD2    H3 8956   0.738   1.758  16.668 -1.6184  0.7478  1.1717
  604MPD2     N 8957   0.556   1.582  16.289 -0.5057 -0.0452 -0.3488
  604MPD2    H5 8958   0.469   1.553  16.244 -0.5361 -0.3022 -0.1207
  604MPD2    N1 8959   0.349   1.538  16.731  0.1362 -0.0020 -0.6242
  604MPD2    H7 8960   0.356   1.558  16.830  2.8871  1.1012 -1.0416
  605TMC3    C1 8961   0.118   1.489  16.775  0.4952 -0.6957  0.6910
  605TMC3    C2 8962   0.137   1.588  16.864 -0.0341 -0.4325 -0.4865
  605TMC3    C3 8963   0.032   1.662  16.893 -0.8507  0.2128 -0.0844
  605TMC3    C4 8964   4.716   1.453  16.729 -0.4143 -0.3167 -0.1841
  605TMC3    C5 8965   4.607   1.531  16.772  0.2960  0.0904 -0.4682
  605TMC3    C6 8966   4.626   1.640  16.856 -0.1029 -0.2107 -0.7555
  605TMC3     C 8967   0.229   1.483  16.683  0.4461  0.4505 -0.2297
  605TMC3     O 8968   0.213   1.427  16.576 -0.0282 -0.4428 -0.7144
  605TMC3     H 8969   0.226   1.604  16.924  1.4982 -1.5467 -2.4487
  605TMC3    H1 8970   4.712   1.372  16.658 -1.5723  0.2131 -0.7326
  605TMC3    H2 8971   4.548   1.707  16.889  2.1935  1.2301  1.7543
  605TMC3    C7 8972   4.469   1.514  16.723 -0.0064 -0.0173  0.6501
  605TMC3    C8 8973   0.069   1.802  16.906  0.1640  0.3105  0.2753
  605TMC3    O1 8974   4.384   1.605  16.742 -0.8130 -0.4398 -0.0368
  605TMC3    O2 8975   0.010   1.864  16.994  0.3088  0.5544  0.3358
  606TMC3    C1 8976   1.816   0.471  16.882  0.1314  0.1444 -0.3962
  606TMC3    C2 8977   1.899   0.371  16.909 -0.0465 -0.2706 -1.1584
  606TMC3    C3 8978   1.857   0.239  16.910 -0.3197  0.1163 -0.4916
  606TMC3    C4 8979   1.684   0.447  16.870  0.4478 -0.2854 -0.2798
  606TMC3    C5 8980   1.637   0.320  16.899 -0.0670 -0.1869 -0.1905
  606TMC3    C6 8981   1.724   0.210  16.922  0.5138  0.2682  0.3827
  606TMC3     C 8982   1.853   0.598  16.943 -0.4996  0.2359  0.3439
  606TMC3     O 8983   1.971   0.611  16.968 -0.4551  0.8369  0.0180
  606TMC3     H 8984   2.004   0.397  16.918 -0.2488  0.4108 -0.7674
  606TMC3    H1 8985   1.611   0.524  16.849 -0.5621 -1.1375  0.0915
  606TMC3    H2 8986   1.683   0.113  16.944 -0.2331  0.4116 -0.3810
  606TMC3    C7 8987   1.500   0.287  16.874  0.1124  0.6736  0.5023
  606TMC3    C8 8988   1.962   0.143  16.939  0.2992 -0.4520  0.5460
  606TMC3    O1 8989   1.446   0.356  16.789  0.4272  0.3738  0.0583
  606TMC3    O2 8990   2.076   0.180  16.945 -0.7576 -0.4054  0.0993
  607MPD2     C 8991   3.714   3.083  12.174 -0.3962  0.2770  0.4379
  607MPD2    C1 8992   3.818   3.142  12.249  0.0753  0.1817  0.3288
  607MPD2    C2 8993   3.855   3.077  12.364  0.1727  0.6993 -0.4570
  607MPD2    C3 8994   3.812   2.946  12.397  0.1459 -0.2044 -1.3827
  607MPD2    C4 8995   3.711   2.889  12.317 -0.1982 -0.4686  0.0511
  607MPD2    C5 8996   3.668   2.959  12.211  0.4971  0.3906 -0.3585
  607MPD2     H 8997   3.940   3.122  12.414  0.4953 -0.4631  0.0400
  607MPD2    H1 8998   3.675   2.788  12.334  2.0929 -1.4781 -1.1921
  607MPD2    H2 8999   3.680   3.119  12.077  0.9900 -1.3146 -0.6380
  607MPD2    H3 9000   3.591   2.912  12.150  0.0750  1.7461 -0.8687
  607MPD2     N 9001   3.868   2.882  12.510 -0.4196 -0.4030 -0.3505
  607MPD2    H5 9002   3.931   2.943  12.562 -0.5386 -1.5014  1.0643
  607MPD2    N1 9003   3.880   3.265  12.224  0.0079 -0.0789  0.0950
  607MPD2    H7 9004   3.965   3.283  12.276 -1.6385  1.4745  2.2034
  608TMC3    C1 9005   3.955   3.453  12.112 -0.2460 -0.3100 -0.3791
  608TMC3    C2 9006   3.969   3.508  12.238  0.4201  0.1014  0.4549
  608TMC3    C3 9007   4.082   3.580  12.260  0.2966 -1.0080  0.3892
  608TMC3    C4 9008   4.041   3.472  12.008 -0.0134  0.3148 -0.6988
  608TMC3    C5 9009   4.158   3.528  12.049  0.4830  0.2799  0.3338
  608TMC3    C6 9010   4.178   3.593  12.169  0.0383  0.2205  0.3630
  608TMC3     C 9011   3.868   3.336  12.108 -0.5428 -0.4122 -0.3934
  608TMC3     O 9012   3.803   3.308  12.009 -0.3203  0.1396  0.3926
  608TMC3     H 9013   3.897   3.494  12.318  1.8084  2.5381  2.1241
  608TMC3    H1 9014   4.046   3.417  11.915 -2.3770  0.7649 -1.0899
  608TMC3    H2 9015   4.263   3.657  12.191  0.0897 -0.4155  2.0260
  608TMC3    C7 9016   4.263   3.540  11.948 -0.7584  0.1708 -0.7797
  608TMC3    C8 9017   4.119   3.581  12.395  0.5834 -0.3067  0.3930
  608TMC3    O1 9018   4.237   3.522  11.830  0.4903 -0.4314  0.0647
  608TMC3    O2 9019   4.128   3.689  12.453  0.8868 -0.2719 -0.5313
  609TMC3    C1 9020   2.495   1.730   9.405 -0.5092 -0.1791 -0.4420
  609TMC3    C2 9021   2.415   1.661   9.315 -0.2520 -0.0989 -0.2533
  609TMC3    C3 9022   2.457   1.552   9.246 -0.0042 -0.0233 -0.5066
  609TMC3    C4 9023   2.626   1.691   9.419  1.0054 -0.2690 -0.1295
  609TMC3    C5 9024   2.659   1.575   9.357  0.0741 -0.6399 -0.5662
  609TMC3    C6 9025   2.586   1.505   9.268  0.8943 -0.4559 -0.5983
  609TMC3     C 9026   2.438   1.849   9.471 -0.2056 -0.3423 -0.4926
  609TMC3     O 9027   2.313   1.847   9.476  0.2555  0.1113 -0.4076
  609TMC3     H 9028   2.314   1.700   9.307 -1.1674 -2.3260  0.5080
  609TMC3    H1 9029   2.678   1.738   9.501 -0.2107 -0.6180  0.8356
  609TMC3    H2 9030   2.637   1.439   9.199 -0.4484 -2.2239  0.0943
  609TMC3    C7 9031   2.779   1.518   9.421  1.0731 -0.4683 -0.1375
  609TMC3    C8 9032   2.356   1.472   9.177 -0.0902 -0.1400 -0.3260
  609TMC3    O1 9033   2.824   1.585   9.510  0.2940 -0.5420 -0.0730
  609TMC3    O2 9034   2.246   1.519   9.173 -0.4366 -0.1494  0.2173
  610TMC3    C1 9035   4.412   3.409  12.870 -0.0634 -0.0152  0.7163
  610TMC3    C2 9036   4.456   3.404  12.746 -0.2218 -0.7414 -0.3642
  610TMC3    C3 9037   4.500   3.284  12.697  0.4353 -0.2081 -0.1866
  610TMC3    C4 9038   4.399   3.298  12.944  0.2688 -0.9629 -0.0186
  610TMC3    C5 9039   4.433   3.173  12.892  0.1956  0.1683  0.0418
  610TMC3    C6 9040   4.492   3.167  12.768 -0.2000 -0.2514  0.2111
  610TMC3     C 9041   4.415   3.533  12.942 -0.0374  0.2529 -0.3179
  610TMC3     O 9042   4.459   3.538  13.059 -0.6538 -0.3070 -0.5506
  610TMC3     H 9043   4.466   3.487  12.678  1.7191 -0.8761 -0.2406
  610TMC3    H1 9044   4.381   3.314  13.049 -1.2231  1.2297 -0.6173
  610TMC3    H2 9045   4.533   3.068  12.752  0.3481 -0.3075  1.9430
  610TMC3    C7 9046   4.430   3.058  12.984  0.5435 -0.3941 -0.2570
  610TMC3    C8 9047   4.564   3.278  12.560  0.0383 -0.2711  0.2107
  610TMC3    O1 9048   4.497   2.961  12.946  0.4118  0.1710 -0.6164
  610TMC3    O2 9049   4.619   3.374  12.507 -0.0265 -0.6490  0.5193
  611MPD2     C 9050   4.148   3.114  10.121  0.7971 -0.6541 -0.1946
  611MPD2    C1 9051   4.044   3.196  10.154  0.1165  0.0453 -1.4746
  611MPD2    C2 9052   4.061   3.333  10.149  0.6352  0.2656 -0.7076
  611MPD2    C3 9053   4.191   3.389  10.120  0.0107  0.8322  0.6183
  611MPD2    C4 9054   4.299   3.305  10.084  0.4803 -0.3251 -0.2722
  611MPD2    C5 9055   4.268   3.166  10.078 -0.2932 -0.2819  0.5824
  611MPD2     H 9056   3.983   3.407  10.167  2.8077  2.1058  1.2017
  611MPD2    H1 9057   4.393   3.354  10.062  0.9230 -0.1395  2.0976
  611MPD2    H2 9058   4.144   3.005  10.123 -1.0519 -0.6266 -1.8112
  611MPD2    H3 9059   4.348   3.100  10.046  0.4459  1.2658 -0.7495
  611MPD2     N 9060   4.212   3.529  10.138 -0.4219 -0.2940 -0.0078
  611MPD2    H5 9061   4.311   3.552  10.138 -0.3852 -0.4185 -2.0107
  611MPD2    N1 9062   3.918   3.149  10.200 -0.4889 -0.0747 -0.3022
  611MPD2    H7 9063   3.850   3.218  10.229  1.1788  1.5201 -0.1751
  612TMC3    C1 9064   4.165   3.749  10.215  0.5827 -0.3825  0.1852
  612TMC3    C2 9065   4.273   3.743  10.303  0.1073 -0.1323 -0.0001
  612TMC3    C3 9066   4.300   3.858  10.377 -0.0337  0.4193  0.2566
  612TMC3    C4 9067   4.094   3.859  10.199 -0.3405 -0.1595  0.8740
  612TMC3    C5 9068   4.124   3.973  10.270  0.1633 -0.2525 -0.4837
  612TMC3    C6 9069   4.229   3.973  10.360  0.3864 -0.6721 -0.8653
  612TMC3     C 9070   4.114   3.630  10.152  0.8664  0.4532  0.0868
  612TMC3     O 9071   3.997   3.627  10.112  0.2775 -0.2225 -0.4194
  612TMC3     H 9072   4.338   3.657  10.313 -0.8776 -0.9759 -0.8806
  612TMC3    H1 9073   4.029   3.875  10.114  1.9818 -0.6157 -0.9809
  612TMC3    H2 9074   4.256   4.067  10.406 -1.4201 -0.5265 -0.1206
  612TMC3    C7 9075   4.054   4.092  10.231  0.3697 -0.2148  1.0641
  612TMC3    C8 9076   4.419   3.866  10.463 -0.5698 -0.5444  0.6035
  612TMC3    O1 9077   4.016   4.101  10.113  0.0069 -0.2796 -0.1140
  612TMC3    O2 9078   4.474   3.974  10.476 -0.2712  0.3101  0.5179
  613MPD2     C 9079   2.625   0.401  16.787 -0.2085 -0.1592  0.2752
  613MPD2    C1 9080   2.595   0.482  16.679  0.2617 -0.0782  0.2194
  613MPD2    C2 9081   2.495   0.445  16.590 -0.1656  0.7160 -0.0343
  613MPD2    C3 9082   2.450   0.317  16.604 -0.4732  0.2451  0.4225
  613MPD2    C4 9083   2.495   0.222  16.696 -0.6903  0.5482  0.2744
  613MPD2    C5 9084   2.582   0.274  16.795 -0.3584  0.0409 -0.5393
  613MPD2     H 9085   2.472   0.510  16.506  0.3356  3.0096  1.6292
  613MPD2    H1 9086   2.472   0.118  16.675  1.6955  0.0366  0.1809
  613MPD2    H2 9087   2.702   0.420  16.860  0.1118 -0.1558 -0.0637
  613MPD2    H3 9088   2.628   0.208  16.867 -0.8267 -2.4132 -2.5119
  613MPD2     N 9089   2.376   0.255  16.499  0.2712 -0.8387  0.2839
  613MPD2    H5 9090   2.373   0.154  16.497 -2.5592 -0.7779  2.4215
  613MPD2    N1 9091   2.654   0.611  16.671  0.9832 -0.6435  0.2510
  613MPD2    H7 9092   2.619   0.677  16.602  0.7368  0.6256  1.5881
  614TMC3    C1 9093   2.845   0.750  16.646  0.3868  0.1491  0.2556
  614TMC3    C2 9094   2.949   0.699  16.578 -0.0749 -0.9670  0.6188
  614TMC3    C3 9095   2.958   0.730  16.446  0.4859 -0.0535  1.2243
  614TMC3    C4 9096   2.766   0.846  16.599  0.7055  0.1156  0.7459
  614TMC3    C5 9097   2.775   0.883  16.466  0.9579 -0.0208  0.7678
  614TMC3    C6 9098   2.885   0.835  16.400 -0.0007 -0.4512  0.2498
  614TMC3     C 9099   2.775   0.643  16.728  0.5050  0.2400  0.0318
  614TMC3     O 9100   2.850   0.577  16.800 -0.7902 -0.1707 -0.1184
  614TMC3     H 9101   3.000   0.616  16.626 -1.3380 -1.1808  1.6017
  614TMC3    H1 9102   2.682   0.878  16.660  1.1985  0.6725  1.1399
  614TMC3    H2 9103   2.889   0.858  16.295 -1.3367 -1.0626  0.0641
  614TMC3    C7 9104   2.649   0.841  16.407  0.6475  0.5082 -1.1195
  614TMC3    C8 9105   2.937   0.606  16.372  0.4023 -0.7164  0.1998
  614TMC3    O1 9106   2.556   0.796  16.474 -0.2158 -0.0719 -0.4698
  614TMC3    O2 9107   2.882   0.515  16.431  0.3225 -0.2891 -0.4366
  615MPD2     C 9108   1.962   2.130  16.412 -0.6175 -0.1580 -0.1230
  615MPD2    C1 9109   1.947   2.264  16.396 -0.4134  0.5345  0.3297
  615MPD2    C2 9110   1.973   2.313  16.269  0.2442 -0.3656 -0.7290
  615MPD2    C3 9111   2.044   2.243  16.171 -0.1134  0.5359 -0.0082
  615MPD2    C4 9112   2.080   2.115  16.206 -0.5672 -0.5447  0.3827
  615MPD2    C5 9113   2.039   2.067  16.321 -0.1072  0.4838  1.1309
  615MPD2     H 9114   1.953   2.417  16.250 -2.2797 -0.7189 -0.0276
  615MPD2    H1 9115   2.141   2.049  16.145 -0.2482 -0.8842  1.0709
  615MPD2    H2 9116   1.931   2.076  16.501  2.0837 -1.8485 -0.2370
  615MPD2    H3 9117   2.061   1.963  16.342  0.4377  0.1917 -0.9518
  615MPD2     N 9118   2.086   2.289  16.044  0.4865  0.3559  0.2954
  615MPD2    H5 9119   2.139   2.225  15.987  0.7628  0.4653  0.4298
  615MPD2    N1 9120   1.913   2.358  16.493 -0.8086 -0.6080  0.4242
  615MPD2    H7 9121   1.902   2.454  16.461  0.3844 -0.6362 -0.0667
  616TMC3    C1 9122   1.874   2.445  16.700  0.5163 -0.2590 -0.3205
  616TMC3    C2 9123   1.964   2.546  16.675  0.1934 -0.1573  1.1396
  616TMC3    C3 9124   1.965   2.651  16.766 -0.0267 -0.2640 -0.3780
  616TMC3    C4 9125   1.798   2.444  16.809 -0.0976 -0.6212 -0.3671
  616TMC3    C5 9126   1.794   2.557  16.888  0.3306  0.1390 -0.2013
  616TMC3    C6 9127   1.880   2.662  16.873 -0.2369 -0.6367  0.0623
  616TMC3     C 9128   1.886   2.328  16.620  0.3506  0.2526  0.2025
  616TMC3     O 9129   1.891   2.221  16.680 -0.0785  0.5844  0.2091
  616TMC3     H 9130   2.025   2.544  16.586 -2.0038 -1.6521 -0.3434
  616TMC3    H1 9131   1.750   2.349  16.833 -1.0687  0.6309  2.7473
  616TMC3    H2 9132   1.874   2.752  16.932  0.5630 -1.4615  1.3964
  616TMC3    C7 9133   1.702   2.548  16.998 -0.3572  0.1296 -0.1846
  616TMC3    C8 9134   2.059   2.759  16.742  0.6862 -0.8395 -0.1203
  616TMC3    O1 9135   1.603   2.483  16.975  0.1387  0.7501 -0.1201
  616TMC3    O2 9136   2.016   2.871  16.768  0.2741  0.6165 -0.0369
  617MPD2     C 9137   0.479   0.645  14.145  0.7672 -0.0426  0.0818
  617MPD2    C1 9138   0.448   0.523  14.090 -0.3565  0.8000 -0.4001
  617MPD2    C2 9139   0.331   0.462  14.125 -0.5181  0.0243  0.0316
  617MPD2    C3 9140   0.252   0.514  14.223  0.2936 -0.3260 -0.1669
  617MPD2    C4 9141   0.286   0.636  14.274 -0.7488  0.4492  0.1974
  617MPD2    C5 9142   0.396   0.705  14.230  0.1435 -0.1526 -0.3492
  617MPD2     H 9143   0.306   0.367  14.080 -1.0263  0.5769 -0.8542
  617MPD2    H1 9144   0.226   0.688  14.347  0.2058  2.0490 -0.1451
  617MPD2    H2 9145   0.564   0.701  14.109  0.1578  0.2990 -0.8052
  617MPD2    H3 9146   0.422   0.800  14.274 -0.8744 -0.3029  0.5745
  617MPD2     N 9147   0.138   0.452  14.280 -0.4401 -0.5884  0.8992
  617MPD2    H5 9148   0.102   0.490  14.367 -1.0854  2.2303 -0.6282
  617MPD2    N1 9149   0.551   0.468  14.012  0.2667  0.3375  0.7747
  617MPD2    H7 9150   0.638   0.521  14.003  0.1775  0.5636  1.2189
  618TMC3    C1 9151   0.675   0.308  13.897  0.4481  0.5094 -0.4893
  618TMC3    C2 9152   0.787   0.298  13.965 -0.2571  0.1379  0.3587
  618TMC3    C3 9153   0.886   0.215  13.924 -0.4316  0.7418 -0.2019
  618TMC3    C4 9154   0.656   0.235  13.788 -0.2095  0.2392  0.5465
  618TMC3    C5 9155   0.758   0.144  13.749 -0.0971  0.7948 -0.2192
  618TMC3    C6 9156   0.877   0.125  13.824 -0.0223  0.6005  0.4170
  618TMC3     C 9157   0.549   0.343  13.962 -0.1821 -0.4736  0.5936
  618TMC3     O 9158   0.458   0.268  13.928 -0.5978  0.2405 -0.3214
  618TMC3     H 9159   0.795   0.362  14.052 -0.5081 -0.8796  1.1425
  618TMC3    H1 9160   0.568   0.261  13.731 -0.5896 -1.2250  0.4794
  618TMC3    H2 9161   0.942   0.038  13.817  1.4375  1.6589  1.0130
  618TMC3    C7 9162   0.712   0.037  13.658 -0.1003 -0.3568 -0.1755
  618TMC3    C8 9163   1.005   0.218  14.007  0.4718 -0.8130  0.0684
  618TMC3    O1 9164   0.599   0.073  13.615  0.0788  0.3812 -0.1303
  618TMC3    O2 9165   0.984   0.256  14.121 -0.1746 -0.3092  0.3519
  619MPD2     C 9166   1.662   1.823  13.103  0.3108 -0.6165 -0.5840
  619MPD2    C1 9167   1.581   1.742  13.029 -0.0266  0.2331 -0.2961
  619MPD2    C2 9168   1.497   1.650  13.092  0.5513  0.2123  0.2008
  619MPD2    C3 9169   1.513   1.632  13.225  0.3950  0.0857  0.4134
  619MPD2    C4 9170   1.601   1.707  13.292  0.4565 -0.2490 -0.4514
  619MPD2    C5 9171   1.669   1.805  13.233 -0.4087 -0.1972 -0.3845
  619MPD2     H 9172   1.420   1.600  13.035 -0.3376  0.6866  0.9768
  619MPD2    H1 9173   1.625   1.701  13.398  0.9524 -4.3442 -0.7928
  619MPD2    H2 9174   1.720   1.908  13.069  2.4730 -1.6449  0.4803
  619MPD2    H3 9175   1.739   1.861  13.294 -0.3800 -0.8973  0.2296
  619MPD2     N 9176   1.433   1.556  13.314  0.1638  0.1582  0.0552
  619MPD2    H5 9177   1.454   1.576  13.412 -1.0466 -1.5810  0.6579
  619MPD2    N1 9178   1.542   1.780  12.900 -0.1903  0.1755 -0.3435
  619MPD2    H7 9179   1.477   1.715  12.857 -0.4127  0.0086  0.2394
  620TMC3    C1 9180   1.493   1.911  12.716 -0.2773  0.1858 -0.4212
  620TMC3    C2 9181   1.367   1.868  12.737 -0.1476  0.4425 -0.1859
  620TMC3    C3 9182   1.268   1.937  12.683  0.2751 -0.3331  0.7305
  620TMC3    C4 9183   1.517   2.027  12.656 -0.0433  1.2134  0.7389
  620TMC3    C5 9184   1.415   2.097  12.595  0.5068 -0.3012  0.5943
  620TMC3    C6 9185   1.284   2.053  12.604 -0.1658  0.1588  0.7469
  620TMC3     C 9186   1.578   1.892  12.832 -0.0436 -0.1032 -0.0170
  620TMC3     O 9187   1.640   1.993  12.872  0.4912  0.5109  0.2364
  620TMC3     H 9188   1.335   1.774  12.780 -0.2508 -0.6959 -2.7536
  620TMC3    H1 9189   1.621   2.047  12.634  0.4554 -2.0305  0.1495
  620TMC3    H2 9190   1.199   2.102  12.558  1.4615  0.0855 -2.3418
  620TMC3    C7 9191   1.427   2.237  12.639 -0.1271  0.1445 -0.2711
  620TMC3    C8 9192   1.140   1.923  12.744 -0.0019 -0.0210  0.5868
  620TMC3    O1 9193   1.328   2.305  12.611 -0.0481 -0.1530 -0.4435
  620TMC3    O2 9194   1.057   1.904  12.660 -0.0045 -0.6321  0.6532
  621MPD2     C 9195   2.419   1.656  10.462 -0.0449 -0.1119  0.2966
  621MPD2    C1 9196   2.396   1.738  10.357  0.6195  0.0833  0.5396
  621MPD2    C2 9197   2.500   1.792  10.279  0.0811  0.7058 -0.2928
  621MPD2    C3 9198   2.636   1.769  10.321  0.0545 -0.5536 -0.1619
  621MPD2    C4 9199   2.660   1.677  10.418 -0.2412 -0.1827 -0.4816
  621MPD2    C5 9200   2.552   1.617  10.482 -0.3032 -0.5911  0.1628
  621MPD2     H 9201   2.474   1.863  10.202  0.4746 -0.5352 -1.5723
  621MPD2    H1 9202   2.759   1.658  10.457 -0.5208  0.0675  0.3473
  621MPD2    H2 9203   2.332   1.624  10.518  0.4616 -1.8432  0.1013
  621MPD2    H3 9204   2.576   1.550  10.563 -0.4977  0.8384  1.4089
  621MPD2     N 9205   2.737   1.833  10.238  0.1601  0.0103  0.3355
  621MPD2    H5 9206   2.701   1.884  10.159 -0.4889 -0.0996  0.5574
  621MPD2    N1 9207   2.266   1.763  10.314 -0.3549 -0.2070  0.5248
  621MPD2    H7 9208   2.252   1.807  10.223 -0.1394 -0.7192  0.2411
  622TMC3    C1 9209   2.043   1.810  10.303 -0.4450  0.1492  0.2143
  622TMC3    C2 9210   1.963   1.913  10.348 -0.6888 -0.6692  0.3153
  622TMC3    C3 9211   1.855   1.957  10.272  0.1823 -0.7310 -0.2937
  622TMC3    C4 9212   2.017   1.741  10.188 -0.8651  0.0737 -0.1735
  622TMC3    C5 9213   1.908   1.783  10.118  0.3178  0.4064 -0.0520
  622TMC3    C6 9214   1.829   1.895  10.155 -0.0560 -0.1579 -0.0630
  622TMC3     C 9215   2.152   1.763  10.389 -0.3836 -0.1075 -0.2008
  622TMC3     O 9216   2.131   1.764  10.508  0.1163 -0.2295 -0.1789
  622TMC3     H 9217   1.980   1.967  10.440 -1.2837 -2.0410  1.2245
  622TMC3    H1 9218   2.090   1.669  10.151 -1.2737 -0.9232  0.9429
  622TMC3    H2 9219   1.747   1.931  10.094 -0.7358  1.1913  1.6525
  622TMC3    C7 9220   1.850   1.700  10.019  0.0237  0.0378 -0.4712
  622TMC3    C8 9221   1.742   1.968  10.356 -0.0918  0.9753  0.0986
  622TMC3    O1 9222   1.764   1.755   9.955  0.2504 -0.0017  0.3698
  622TMC3    O2 9223   1.761   1.951  10.477  0.2620 -0.0267  0.3703
  623MPD2     C 9224   0.369   1.872  15.727  0.2169  0.0757 -0.1974
  623MPD2    C1 9225   0.314   1.940  15.830 -0.0413  0.1145  0.3255
  623MPD2    C2 9226   0.392   1.981  15.937  0.2756 -0.0259  0.4957
  623MPD2    C3 9227   0.527   1.959  15.942  0.5855 -0.5029  0.2962
  623MPD2    C4 9228   0.589   1.899  15.838  0.3647  0.3841 -0.3362
  623MPD2    C5 9229   0.510   1.854  15.733  0.6720 -0.5880 -0.7738
  623MPD2     H 9230   0.347   2.044  16.013 -1.5628  0.0848 -0.6903
  623MPD2    H1 9231   0.696   1.883  15.836  0.7438  2.7475  1.8965
  623MPD2    H2 9232   0.307   1.852  15.640 -0.1417 -0.4370  0.1756
  623MPD2    H3 9233   0.564   1.820  15.645 -0.6136 -0.1021 -1.7678
  623MPD2     N 9234   0.597   1.996  16.058 -0.4230 -0.0994  0.1755
  623MPD2    H5 9235   0.545   2.042  16.132 -0.4859  0.6238 -0.3181
  623MPD2    N1 9236   0.173   1.973  15.818 -0.0980  0.0886 -0.5693
  623MPD2    H7 9237   0.130   1.927  15.738  1.1147  0.1118 -1.2268
  624TMC3    C1 9238   0.886   2.087  16.400 -0.0790 -0.4780 -0.2943
  624TMC3    C2 9239   0.784   2.072  16.485 -0.3834 -0.2679 -0.4675
  624TMC3    C3 9240   0.663   2.030  16.440  0.1786  0.2240  0.3535
  624TMC3    C4 9241   0.875   2.059  16.265  0.3850  0.4799  0.1946
  624TMC3    C5 9242   0.751   2.014  16.225  0.1882 -0.4439  0.8725
  624TMC3    C6 9243   0.644   2.001  16.308  0.6387  0.1603 -0.9348
  624TMC3     C 9244   1.015   2.087  16.462 -0.3956  0.5737 -0.0212
  624TMC3     O 9245   1.025   2.055  16.582 -0.0534 -0.3271  0.3205
  624TMC3     H 9246   0.805   2.107  16.585 -0.9514 -2.2420  0.3360
  624TMC3    H1 9247   0.950   2.058  16.187 -0.7941 -0.0765 -0.9374
  624TMC3    H2 9248   0.556   1.944  16.280 -0.4588  1.1540  0.5040
  624TMC3    C7 9249   0.724   1.974  16.088  1.2820  0.1202 -0.6403
  624TMC3    C8 9250   0.541   2.034  16.518 -0.3041  0.2885 -0.5031
  624TMC3    O1 9251   0.823   1.955  16.017 -0.1628 -0.3766 -0.6671
  624TMC3    O2 9252   0.435   2.005  16.460  0.5161 -0.0716  0.1620
  625MPD2     C 9253   1.131   4.306   1.305 -0.1706  0.2034  0.3290
  625MPD2    C1 9254   1.120   4.253   1.173 -0.6332  0.7746  0.3683
  625MPD2    C2 9255   1.229   4.190   1.117  0.5919  0.6930 -0.1907
  625MPD2    C3 9256   1.348   4.183   1.185 -0.0241  0.9700 -0.2449
  625MPD2    C4 9257   1.355   4.236   1.315  0.4799  0.1200 -0.3082
  625MPD2    C5 9258   1.247   4.290   1.372 -0.0523 -0.2002 -0.1789
  625MPD2     H 9259   1.230   4.156   1.014  0.4395 -1.2203  0.4336
  625MPD2    H1 9260   1.441   4.216   1.378  0.5373 -0.0951 -0.4562
  625MPD2    H2 9261   1.053   4.353   1.363 -0.8605  1.1440 -1.3818
  625MPD2    H3 9262   1.244   4.319   1.477 -3.3942 -1.6629  0.1415
  625MPD2     N 9263   1.452   4.113   1.114 -0.2152 -0.4769 -0.2143
  625MPD2    H5 9264   1.428   4.073   1.024  1.1605  0.0427 -0.8066
  625MPD2    N1 9265   0.999   4.239   1.102  0.1433 -0.2283  0.4497
  625MPD2    H7 9266   1.003   4.158   1.041  0.4814 -1.4614  2.0930
  626TMC3    C1 9267   0.769   4.261   1.034  0.4221 -0.1973  0.2578
  626TMC3    C2 9268   0.798   4.221   0.902  0.0703  0.0075  0.5827
  626TMC3    C3 9269   0.686   4.169   0.839  0.4146 -0.3788 -0.0256
  626TMC3    C4 9270   0.642   4.274   1.085 -0.3797 -0.4538 -0.1253
  626TMC3    C5 9271   0.538   4.210   1.024  0.3783  0.0127  0.4926
  626TMC3    C6 9272   0.561   4.159   0.901  0.1843 -0.8058 -0.2775
  626TMC3     C 9273   0.880   4.304   1.125  0.0260 -0.4181 -0.4617
  626TMC3     O 9274   0.849   4.377   1.218 -0.0625  0.1023 -0.2713
  626TMC3     H 9275   0.897   4.231   0.859  0.0872 -0.3133  0.5470
  626TMC3    H1 9276   0.640   4.293   1.192 -2.0691 -0.3605 -0.1810
  626TMC3    H2 9277   0.482   4.117   0.840 -1.0822  3.5589 -1.6028
  626TMC3    C7 9278   0.418   4.184   1.101  0.7848  0.0730  0.1880
  626TMC3    C8 9279   0.702   4.112   0.708  0.5866  0.5742  0.0901
  626TMC3    O1 9280   0.424   4.220   1.219  0.1929 -0.2374  0.3189
  626TMC3    O2 9281   0.606   4.082   0.641  0.0940  0.7178  0.4527
  627MPD2     C 9282   4.428   4.094  14.512  0.2751  0.1398  0.2744
  627MPD2    C1 9283   4.427   4.012  14.626  0.2688  0.0157 -0.3448
  627MPD2    C2 9284   4.376   3.885  14.620 -0.0035 -0.6398 -0.2196
  627MPD2    C3 9285   4.318   3.838  14.505  0.8356  1.0372 -0.3754
  627MPD2    C4 9286   4.317   3.917  14.394 -0.4497  0.0788 -0.5464
  627MPD2    C5 9287   4.380   4.039  14.398 -0.3845 -0.8116 -1.0777
  627MPD2     H 9288   4.388   3.822  14.707  0.0362 -0.6722 -0.2485
  627MPD2    H1 9289   4.259   3.898  14.305  0.6693  0.6879 -1.4058
  627MPD2    H2 9290   4.462   4.197  14.513  0.9821 -0.0998  0.8820
  627MPD2    H3 9291   4.364   4.102  14.311  1.6638 -0.5258 -1.2504
  627MPD2     N 9292   4.258   3.715  14.505 -0.0291  0.1340 -0.4721
  627MPD2    H5 9293   4.229   3.678  14.595 -1.2772  0.3523 -0.7852
  627MPD2    N1 9294   4.460   4.059  14.751 -0.4304 -0.0393 -0.5570
  627MPD2    H7 9295   4.474   3.990  14.824  0.2020  1.8330  1.0972
  628TMC3    C1 9296   4.554   4.208  14.914 -0.0534  0.2589  0.2463
  628TMC3    C2 9297   4.625   4.100  14.968 -0.6633  0.6020  0.0566
  628TMC3    C3 9298   4.710   4.129  15.074  0.6722  0.2495 -0.3971
  628TMC3    C4 9299   4.556   4.334  14.962 -0.0744 -0.3776  0.0160
  628TMC3    C5 9300   4.630   4.352  15.069 -0.2660 -0.2290  0.2946
  628TMC3    C6 9301   4.700   4.255  15.133  0.1445 -0.0472 -0.3411
  628TMC3     C 9302   4.483   4.190  14.785  0.5835 -0.1278 -0.0258
  628TMC3     O 9303   4.433   4.291  14.732  0.8799  0.2119  0.2169
  628TMC3     H 9304   4.633   4.003  14.921  0.7128  0.4162  0.6565
  628TMC3    H1 9305   4.497   4.412  14.916 -0.8009 -0.9619 -0.0556
  628TMC3    H2 9306   0.044   4.288  15.209 -0.4630  0.9726 -0.2331
  628TMC3    C7 9307   4.647   4.492  15.114  0.0978 -0.3638 -0.1554
  628TMC3    C8 9308   0.103   4.056  15.088  0.0513  0.1049  0.3376
  628TMC3    O1 9309   4.655   4.513  15.233  0.2089 -0.5388 -0.1016
  628TMC3    O2 9310   0.102   3.950  15.024 -0.0923 -0.1913 -0.8259
  629MPD2     C 9311   2.509   2.933  16.562  0.4779  0.1888 -0.3710
  629MPD2    C1 9312   2.526   2.797  16.578  0.0026 -0.3912  0.5525
  629MPD2    C2 9313   2.413   2.720  16.623 -1.0382  0.3594  0.0003
  629MPD2    C3 9314   2.294   2.785  16.653  0.3387  0.5265 -0.2874
  629MPD2    C4 9315   2.286   2.917  16.640  0.1882 -0.5379  0.3856
  629MPD2    C5 9316   2.392   2.998  16.600 -0.1709 -0.2356  0.0181
  629MPD2     H 9317   2.413   2.611  16.617 -1.6061  0.4179 -1.0907
  629MPD2    H1 9318   2.198   2.977  16.662  0.6696 -0.8420  3.2417
  629MPD2    H2 9319   2.596   2.991  16.533  0.3870  1.0763  1.1246
  629MPD2    H3 9320   2.380   3.106  16.606 -3.3625 -0.4776 -2.1906
  629MPD2     N 9321   2.179   2.712  16.696 -0.5635 -0.0110 -0.7515
  629MPD2    H5 9322   2.175   2.611  16.690  0.8436 -0.1525  0.5467
  629MPD2    N1 9323   2.653   2.737  16.551  0.0090  0.0082 -0.0315
  629MPD2    H7 9324   2.719   2.804  16.513 -0.8157 -0.1958 -1.8022
  630TMC3    C1 9325   2.828   2.576  16.562 -0.0338  1.2310 -0.9701
  630TMC3    C2 9326   2.915   2.668  16.522 -0.6254  0.2174  0.5107
  630TMC3    C3 9327   3.044   2.618  16.494 -0.2741  0.1229 -0.8943
  630TMC3    C4 9328   2.858   2.435  16.565 -0.0096  0.1414 -0.0321
  630TMC3    C5 9329   2.989   2.397  16.549 -0.0589  0.1145 -0.4593
  630TMC3    C6 9330   3.078   2.491  16.505 -0.3607 -0.2065  0.0711
  630TMC3     C 9331   2.691   2.605  16.577  0.2962  0.0562 -0.8077
  630TMC3     O 9332   2.620   2.531  16.649  0.0528 -0.2425 -0.7983
  630TMC3     H 9333   2.896   2.771  16.549  0.4717  1.0132 -1.7008
  630TMC3    H1 9334   2.787   2.380  16.626  1.8606 -1.5454  0.5959
  630TMC3    H2 9335   3.182   2.465  16.490 -0.8372  0.3231 -4.1868
  630TMC3    C7 9336   3.044   2.291  16.635  0.4529 -0.3879 -0.1934
  630TMC3    C8 9337   3.153   2.709  16.476  0.2137 -0.1871 -0.3949
  630TMC3    O1 9338   3.159   2.312  16.677  0.0518  0.5714 -0.0091
  630TMC3    O2 9339   3.259   2.683  16.532  0.8634 -0.2270  0.3915
  631MPD2     C 9340   1.556   2.180  15.399 -0.9397 -0.2756  0.2057
  631MPD2    C1 9341   1.598   2.294  15.337  0.4490  0.0140  0.4535
  631MPD2    C2 9342   1.726   2.345  15.372 -0.1612 -0.3419 -0.8083
  631MPD2    C3 9343   1.818   2.266  15.440 -0.6138 -1.0088 -0.2047
  631MPD2    C4 9344   1.771   2.142  15.487  0.3797  0.7125  0.4414
  631MPD2    C5 9345   1.644   2.104  15.473 -0.1603  0.1184 -0.1766
  631MPD2     H 9346   1.763   2.440  15.335 -0.0616  0.4917  1.4737
  631MPD2    H1 9347   1.838   2.073  15.538 -0.6876 -0.5570  0.1166
  631MPD2    H2 9348   1.458   2.136  15.390 -0.8836 -0.6682  1.5875
  631MPD2    H3 9349   1.611   2.010  15.516  0.9700 -0.5967 -0.9104
  631MPD2     N 9350   1.943   2.314  15.469 -0.2665  0.5958  0.3992
  631MPD2    H5 9351   1.957   2.406  15.428  1.9202  0.7183  1.4376
  631MPD2    N1 9352   1.501   2.366  15.265  0.4568  0.2488  0.0782
  631MPD2    H7 9353   1.405   2.335  15.271  0.7531 -0.7961 -0.4925
  632TMC3    C1 9354   1.407   2.557  15.178  0.1098  1.0158 -0.0369
  632TMC3    C2 9355   1.314   2.559  15.276  1.2871  0.8815  0.0391
  632TMC3    C3 9356   1.232   2.662  15.268  0.0207 -0.2198 -0.4246
  632TMC3    C4 9357   1.417   2.645  15.070  0.5896 -0.2197  0.4969
  632TMC3    C5 9358   1.317   2.736  15.057  0.6121  0.0435  0.6053
  632TMC3    C6 9359   1.219   2.743  15.157  0.1057 -0.3540 -0.1018
  632TMC3     C 9360   1.530   2.488  15.209  0.5336  0.4247 -0.1698
  632TMC3     O 9361   1.637   2.535  15.168 -0.0492  0.3968  0.5510
  632TMC3     H 9362   1.313   2.491  15.361 -1.9345 -0.4882 -1.1247
  632TMC3    H1 9363   1.503   2.641  15.004  1.6806 -2.1807  2.0399
  632TMC3    H2 9364   1.139   2.816  15.157 -1.0722 -1.6669  0.8105
  632TMC3    C7 9365   1.307   2.798  14.929  0.0320 -0.0269  0.0409
  632TMC3    C8 9366   1.117   2.663  15.355 -0.4633  0.7758  0.0877
  632TMC3    O1 9367   1.396   2.779  14.844  0.1947  0.2237  0.1312
  632TMC3    O2 9368   1.066   2.554  15.381 -0.2899 -0.8567 -0.2019
  633MPD2     C 9369   0.669   0.539  17.670 -0.3777 -0.2301 -0.3588
  633MPD2    C1 9370   0.603   0.469  17.574  0.3809  0.0478 -0.0461
  633MPD2    C2 9371   0.636   0.338  17.554 -0.3003  0.5936 -0.5192
  633MPD2    C3 9372   0.749   0.282  17.618 -0.1019  0.3437  0.4170
  633MPD2    C4 9373   0.822   0.360  17.698 -0.2693 -0.6487  0.2995
  633MPD2    C5 9374   0.780   0.491   0.023 -0.8666 -0.2933  0.5205
  633MPD2     H 9375   0.583   0.283  17.477  2.2380 -0.3166 -1.6251
  633MPD2    H1 9376   0.917   0.329   0.038  0.5615 -0.1162 -1.1693
  633MPD2    H2 9377   0.645   0.643  17.690 -0.0102 -0.0020 -1.0832
  633MPD2    H3 9378   0.841   0.554   0.087 -1.0995  1.0517 -0.5857
  633MPD2     N 9379   0.802   0.155  17.590  0.2011  0.0702  0.0372
  633MPD2    H5 9380   0.897   0.132  17.617 -1.0720 -0.7404  3.8406
  633MPD2    N1 9381   0.509   0.526  17.485  0.0590 -0.0396 -0.6739
  633MPD2    H7 9382   0.477   0.465  17.410  1.0195  0.1775 -1.2579
  634TMC3    C1 9383   0.409   0.708  17.359  0.8927 -0.5659 -0.5525
  634TMC3    C2 9384   0.358   0.617  17.271 -0.8187 -0.1566 -0.2713
  634TMC3    C3 9385   0.291   0.662  17.157  0.2509  0.1988  0.5754
  634TMC3    C4 9386   0.420   0.837  17.327  0.0710  0.3652 -0.3364
  634TMC3    C5 9387   0.378   0.871  17.199  0.8408  0.3838  0.4301
  634TMC3    C6 9388   0.300   0.793  17.116  0.1693  0.4307 -0.1353
  634TMC3     C 9389   0.467   0.656  17.481  0.4680  0.3033  0.6391
  634TMC3     O 9390   0.483   0.744  17.567  0.5383 -0.1368  0.5850
  634TMC3     H 9391   0.353   0.510  17.285  0.4452 -0.1626  0.1250
  634TMC3    H1 9392   0.490   0.893  17.386 -0.6830  1.1028 -0.1423
  634TMC3    H2 9393   0.252   0.837  17.030  0.0588 -0.6456 -0.6119
  634TMC3    C7 9394   0.445   0.983  17.133  0.0496 -0.0567  0.1878
  634TMC3    C8 9395   0.280   0.567  17.047  0.3476  0.0336  0.0077
  634TMC3    O1 9396   0.416   0.993  17.016  0.3650  0.2125 -0.6160
  634TMC3    O2 9397   0.335   0.457  17.060 -0.2698 -0.3092  0.1837
  635TMC3    C1 9398   1.596   0.898  17.382  0.4247 -0.2551  0.7371
  635TMC3    C2 9399   1.713   0.837  17.418  1.2341 -0.4171  0.1450
  635TMC3    C3 9400   1.734   0.711  17.374  0.3391 -0.1793  0.5989
  635TMC3    C4 9401   1.494   0.834  17.320 -0.6731  0.1978 -0.0133
  635TMC3    C5 9402   1.525   0.708  17.280 -0.2214  0.0117 -0.4322
  635TMC3    C6 9403   1.643   0.644  17.301 -0.6470  0.6421  0.0705
  635TMC3     C 9404   1.564   1.017  17.464 -0.0183 -0.7324  0.0089
  635TMC3     O 9405   1.603   1.023  17.580  0.1827 -0.7568 -0.1423
  635TMC3     H 9406   1.783   0.890  17.483  0.4036  0.5108  0.2751
  635TMC3    H1 9407   1.403   0.879  17.281 -0.9748 -0.6402 -0.2952
  635TMC3    H2 9408   1.656   0.544  17.260  1.1562  0.8565  0.1194
  635TMC3    C7 9409   1.434   0.628  17.198 -0.3997  0.2123 -0.7970
  635TMC3    C8 9410   1.853   0.645  17.425 -0.1121  0.2342  0.4440
  635TMC3    O1 9411   1.484   0.536  17.134  0.0324  0.0061  0.0135
  635TMC3    O2 9412   1.916   0.699  17.513 -0.3856 -0.3585 -0.1104
  636MPD2     C 9413   2.003   0.702  15.662  0.0545 -0.2167  0.4060
  636MPD2    C1 9414   1.995   0.737  15.798  0.4828 -0.7082 -0.4599
  636MPD2    C2 9415   2.050   0.640  15.887  0.5392  0.1187  0.2115
  636MPD2    C3 9416   2.107   0.521  15.847  0.7462 -0.2183 -0.4110
  636MPD2    C4 9417   2.105   0.492  15.710  0.3664 -0.0687 -0.0045
  636MPD2    C5 9418   2.057   0.585  15.620  0.5374 -0.6418  0.4807
  636MPD2     H 9419   2.055   0.659  15.994 -0.8511 -2.2083  0.7018
  636MPD2    H1 9420   2.146   0.401  15.667  0.9823 -0.6475  1.7705
  636MPD2    H2 9421   1.975   0.775  15.587 -1.0743 -0.6428  0.4208
  636MPD2    H3 9422   2.068   0.564  15.514  0.2402  0.3426  0.2544
  636MPD2     N 9423   2.153   0.425  15.950 -0.1072  0.2989 -0.2578
  636MPD2    H5 9424   2.146   0.441  16.050  0.7807 -0.5177 -0.0688
  636MPD2    N1 9425   1.966   0.868  15.851  0.3076  0.8613  0.0255
  636MPD2    H7 9426   1.992   0.870  15.949 -3.9737  1.2726  1.1675
  637TMC3    C1 9427   2.304   0.264  16.036 -0.3584 -0.0826 -0.3433
  637TMC3    C2 9428   2.244   0.275  16.166  0.9134 -0.2388 -0.7500
  637TMC3    C3 9429   2.313   0.225  16.274  0.3494  0.3035  0.3153
  637TMC3    C4 9430   2.428   0.208  16.020 -0.1410  0.4141  0.5197
  637TMC3    C5 9431   2.492   0.168  16.132 -0.3574 -0.2632 -0.4019
  637TMC3    C6 9432   2.434   0.160  16.258 -1.1893 -0.1337 -0.3526
  637TMC3     C 9433   2.230   0.311  15.920 -0.0290 -0.4410 -0.2484
  637TMC3     O 9434   2.260   0.266  15.809 -0.3529 -0.1737 -0.2999
  637TMC3     H 9435   2.158   0.337  16.188  2.1356  0.5673  1.8089
  637TMC3    H1 9436   2.489   0.198  15.931 -1.2750 -0.1643 -0.1797
  637TMC3    H2 9437   2.498   0.137  16.342 -0.2339 -0.6580 -1.2364
  637TMC3    C7 9438   2.630   0.213  16.143 -0.1128 -0.0177  0.5326
  637TMC3    C8 9439   2.320   0.316  16.386 -0.7637  0.5789 -0.2423
  637TMC3    O1 9440   2.698   0.186  16.245 -0.0145 -0.7662  0.6944
  637TMC3    O2 9441   2.282   0.433  16.378 -0.2008  0.5861 -0.4431
  638MPD2     C 9442   1.862   4.404  14.734  0.0564 -0.0790  0.1008
  638MPD2    C1 9443   1.886   4.294  14.647 -0.6356 -0.0197  0.0119
  638MPD2    C2 9444   1.860   4.168  14.695 -0.4239 -0.5280 -0.0039
  638MPD2    C3 9445   1.798   4.151  14.814 -0.0995  0.1819 -0.1404
  638MPD2    C4 9446   1.752   4.261  14.889 -0.1846  0.3103 -0.3542
  638MPD2    C5 9447   1.798   4.387  14.854 -0.1666  0.1943  0.3837
  638MPD2     H 9448   1.885   4.075  14.646  1.3329  0.5542 -1.1772
  638MPD2    H1 9449   1.699   4.253  14.983 -0.8782  2.2999 -0.5734
  638MPD2    H2 9450   1.891   4.503  14.704  0.9335 -0.5192 -0.4818
  638MPD2    H3 9451   1.768   4.477  14.908 -2.4353 -0.8151  0.8023
  638MPD2     N 9452   1.788   4.023  14.868  0.0945 -0.1029  0.1813
  638MPD2    H5 9453   1.850   3.950  14.831  1.5425  1.0773  0.2775
  638MPD2    N1 9454   1.955   4.313  14.523 -0.0959 -0.6396  0.2059
  638MPD2    H7 9455   2.018   4.392  14.508 -1.1815  0.1075 -0.3313
  639TMC3    C1 9456   1.743   3.850  15.014  1.0436  1.1512  0.3240
  639TMC3    C2 9457   1.636   3.763  15.023 -0.2704  0.1728 -0.6420
  639TMC3    C3 9458   1.670   3.629  15.030  0.0826  0.6079  0.0090
  639TMC3    C4 9459   1.877   3.813  14.999  0.3682  0.3663  0.4461
  639TMC3    C5 9460   1.907   3.682  15.005 -0.7185 -0.0697 -0.6063
  639TMC3    C6 9461   1.805   3.589  15.028  1.0057 -0.4704 -0.8555
  639TMC3     C 9462   1.705   3.980  14.968  0.3144 -0.7873  0.4789
  639TMC3     O 9463   1.611   4.026  15.025 -0.5054 -0.1153 -0.2920
  639TMC3     H 9464   1.534   3.799  15.030 -0.6686 -1.1010  0.0773
  639TMC3    H1 9465   1.955   3.887  14.984  2.3530 -1.6322  0.9353
  639TMC3    H2 9466   1.838   3.486  15.016  0.4825 -0.8496  0.9341
  639TMC3    C7 9467   2.038   3.627  14.954  0.0754 -0.5017  0.4575
  639TMC3    C8 9468   1.606   3.546  14.940 -0.3611  0.0603  0.4246
  639TMC3    O1 9469   2.045   3.504  14.950 -0.5171 -0.5899  0.3472
  639TMC3    O2 9470   1.672   3.505  14.848  0.2096  0.3195 -0.1547
  640MPD2     C 9471   2.898   2.871   9.945  0.4639  0.5045 -0.6892
  640MPD2    C1 9472   2.787   2.794   9.908  0.4724 -0.6619 -0.1000
  640MPD2    C2 9473   2.663   2.854   9.910  0.4264  0.8404  1.5681
  640MPD2    C3 9474   2.655   2.990   9.950  0.3105  0.2325 -0.0392
  640MPD2    C4 9475   2.760   3.062   9.996  0.0122 -0.5159  0.3372
  640MPD2    C5 9476   2.885   3.001  10.000  0.7686 -0.7131  0.4625
  640MPD2     H 9477   2.570   2.819   9.867  1.5291  0.3467 -0.3935
  640MPD2    H1 9478   2.737   3.166  10.012 -0.8282 -0.7898  0.8809
  640MPD2    H2 9479   2.993   2.821   9.954 -0.0938 -0.3927  0.1744
  640MPD2    H3 9480   2.978   3.043  10.035  1.5818 -1.7436 -0.4741
  640MPD2     N 9481   2.539   3.066   9.937  0.3903  0.0784  1.0548
  640MPD2    H5 9482   2.543   3.162   9.970  1.3339  0.2669  0.3805
  640MPD2    N1 9483   2.811   2.666   9.853  0.2728 -0.1678  0.1803
  640MPD2    H7 9484   2.905   2.634   9.835  0.2594  0.0544 -0.2842
  641TMC3    C1 9485   2.766   2.482   9.708 -0.0460 -0.2787 -1.0673
  641TMC3    C2 9486   2.867   2.410   9.765 -0.5826 -0.1454  0.4432
  641TMC3    C3 9487   2.917   2.306   9.690  0.2511 -0.1379  0.5916
  641TMC3    C4 9488   2.696   2.444   9.601  0.4651  0.0055 -1.5150
  641TMC3    C5 9489   2.740   2.335   9.530  0.5091 -0.2037 -0.6054
  641TMC3    C6 9490   2.852   2.271   9.577  0.7575  0.6341 -0.0526
  641TMC3     C 9491   2.714   2.594   9.782 -0.6384 -0.6590 -0.5483
  641TMC3     O 9492   2.590   2.607   9.780 -0.3054 -0.2292  0.0237
  641TMC3     H 9493   2.909   2.437   9.862 -0.1113  1.7435 -0.2752
  641TMC3    H1 9494   2.615   2.504   9.562  1.3047 -0.2353 -3.6112
  641TMC3    H2 9495   2.896   2.184   9.529  0.7322  2.0921 -2.7098
  641TMC3    C7 9496   2.669   2.290   9.410  0.4030  0.4687  0.0144
  641TMC3    C8 9497   3.002   2.209   9.751  1.2253 -0.9463 -0.0828
  641TMC3    O1 9498   2.569   2.355   9.383 -0.3079  0.1295 -0.3136
  641TMC3    O2 9499   2.974   2.094   9.715 -0.0424  0.5458  0.3672
  642TMC3    C1 9500   3.924   4.217  12.173 -0.6252 -0.3212  0.2082
  642TMC3    C2 9501   4.022   4.233  12.264 -0.3110 -0.2674 -0.2877
  642TMC3    C3 9502   4.061   4.132  12.341 -0.1666 -0.2249 -0.5459
  642TMC3    C4 9503   3.851   4.103  12.173  0.1411  0.0845  0.2737
  642TMC3    C5 9504   3.892   4.002  12.252 -0.1618 -0.2342  1.1220
  642TMC3    C6 9505   3.996   4.007  12.344  0.1489 -0.9219  0.5506
  642TMC3     C 9506   3.850   4.338  12.152  0.1249  0.3273 -0.5002
  642TMC3     O 9507   3.865   4.407  12.049 -0.2111  0.5911  0.1913
  642TMC3     H 9508   4.070   4.330  12.271 -1.3954  0.0728  2.3611
  642TMC3    H1 9509   3.757   4.099  12.119  0.0879 -1.3465  0.4750
  642TMC3    H2 9510   4.040   3.930  12.406 -1.7275 -1.3838  1.2785
  642TMC3    C7 9511   3.827   3.873  12.241  0.8682  0.5083  0.4305
  642TMC3    C8 9512   4.155   4.158  12.453 -0.7531  0.0671 -0.5019
  642TMC3    O1 9513   3.742   3.860  12.151 -0.0794 -0.4551  0.1589
  642TMC3    O2 9514   4.209   4.060  12.500 -0.1589 -0.4907 -0.0833
  643TMC3    C1 9515   2.359   3.361   0.533 -0.9434 -0.3393 -0.0976
  643TMC3    C2 9516   2.249   3.405   0.465 -0.2152 -0.1219  1.0725
  643TMC3    C3 9517   2.204   3.321   0.364 -0.3692 -0.9803  0.0188
  643TMC3    C4 9518   2.428   3.243   0.505 -0.0088  0.8801  0.1026
  643TMC3    C5 9519   2.367   3.158   0.409 -0.1415  0.2569  0.0466
  643TMC3    C6 9520   2.253   3.193   0.341  0.0226 -0.0631  0.3954
  643TMC3     C 9521   2.428   3.459   0.614 -0.2253 -0.1461 -0.0048
  643TMC3     O 9522   2.413   3.578   0.582 -0.1568 -0.0371 -0.2161
  643TMC3     H 9523   2.218   3.507   0.487  0.0644  0.0811  0.5184
  643TMC3    H1 9524   2.528   3.219   0.538 -0.6706 -1.2143  0.5838
  643TMC3    H2 9525   2.217   3.139   0.254  1.6669  0.7598 -0.8077
  643TMC3    C7 9526   2.465   3.112   0.312 -0.1768 -0.1186 -0.0986
  643TMC3    C8 9527   2.156   3.381   0.244 -0.4669  0.1044  0.7425
  643TMC3    O1 9528   2.576   3.152   0.324  0.4257 -0.5507  0.3500
  643TMC3    O2 9529   2.093   3.317   0.166  0.0939 -0.2991  0.2174
  644MPD2     C 9530   2.955   3.495   9.282  0.9276 -0.2563  0.7994
  644MPD2    C1 9531   2.829   3.455   9.246 -1.0005 -0.5292  0.3234
  644MPD2    C2 9532   2.743   3.547   9.189 -0.0999 -0.1373  0.1487
  644MPD2    C3 9533   2.777   3.689   9.191  0.4573  0.1401  0.7883
  644MPD2    C4 9534   2.905   3.728   9.222  0.6774 -0.1474 -0.2801
  644MPD2    C5 9535   2.989   3.630   9.268  0.0319  0.4549  0.6525
  644MPD2     H 9536   2.648   3.518   9.145  0.7793  1.3017 -2.7354
  644MPD2    H1 9537   2.930   3.834   9.224  2.4368 -0.5260 -1.7405
  644MPD2    H2 9538   3.027   3.439   9.341 -0.0594  0.0645  2.2931
  644MPD2    H3 9539   3.085   3.653   9.313  1.8441 -1.8400 -2.0360
  644MPD2     N 9540   2.680   3.773   9.138 -0.1928  0.4595  0.3124
  644MPD2    H5 9541   2.599   3.731   9.094 -1.1466  2.3625  0.2571
  644MPD2    N1 9542   2.795   3.319   9.267 -0.0906 -0.6567 -0.6526
  644MPD2    H7 9543   2.862   3.255   9.308 -0.8603 -1.5678 -0.8235
  645TMC3    C1 9544   2.579   3.979   9.059 -0.0520 -0.1390  0.0478
  645TMC3    C2 9545   2.597   4.112   9.031 -0.5646 -0.0874 -0.2106
  645TMC3    C3 9546   2.494   4.177   8.965  0.9868  0.4233 -0.0048
  645TMC3    C4 9547   2.475   3.909   9.010  0.4928 -0.3933  0.3322
  645TMC3    C5 9548   2.380   3.977   8.938  0.2380 -0.6480  0.0848
  645TMC3    C6 9549   2.388   4.109   8.913  0.4167  0.5591  0.6059
  645TMC3     C 9550   2.681   3.910   9.130 -0.2984 -0.4477 -0.0801
  645TMC3     O 9551   2.761   3.989   9.181  0.5268 -0.2650 -0.0082
  645TMC3     H 9552   2.677   4.161   9.085  0.6693 -0.7570 -1.4235
  645TMC3    H1 9553   2.471   3.801   9.024 -0.3551 -0.7525 -2.8268
  645TMC3    H2 9554   2.304   4.161   8.866 -0.4796 -2.2709 -0.9156
  645TMC3    C7 9555   2.262   3.905   8.883  0.4326  0.4616 -0.4197
  645TMC3    C8 9556   2.498   4.318   8.944 -0.3210 -0.2738 -0.5496
  645TMC3    O1 9557   2.171   3.978   8.843  0.6326  0.1265  0.3740
  645TMC3    O2 9558   2.395   4.372   8.905 -0.0237  0.6479  0.5896
  646MPD2     C 9559   2.175   3.013  14.506 -0.3029  0.3563  0.1428
  646MPD2    C1 9560   2.074   2.961  14.589  0.2128  0.5946 -0.0244
  646MPD2    C2 9561   1.947   2.984  14.544 -0.7543 -0.1514  0.1184
  646MPD2    C3 9562   1.919   3.060  14.436  0.4307  0.8527  0.4650
  646MPD2    C4 9563   2.016   3.111  14.355  0.0009 -0.1947  0.0986
  646MPD2    C5 9564   2.144   3.083  14.391 -0.1337  0.4204  0.3874
  646MPD2     H 9565   1.865   2.941  14.601 -0.1306  1.8965  2.5513
  646MPD2    H1 9566   1.999   3.155  14.257  1.3015  2.4988  1.0794
  646MPD2    H2 9567   2.279   2.987  14.523 -1.1362 -2.2723  1.3176
  646MPD2    H3 9568   2.226   3.126  14.335 -1.1614  0.5233 -1.0354
  646MPD2     N 9569   1.784   3.080  14.401  0.8171 -0.0374 -0.5475
  646MPD2    H5 9570   1.707   3.049  14.459  0.3209  0.9701 -0.6632
  646MPD2    N1 9571   2.110   2.890  14.701  0.0468  0.2018  0.5919
  646MPD2    H7 9572   2.208   2.905  14.724 -0.0835  0.4965  0.9417
  647TMC3    C1 9573   2.083   2.804  14.925 -0.6602  0.5852 -0.2346
  647TMC3    C2 9574   1.999   2.725  15.002 -0.3182  0.0853 -0.2933
  647TMC3    C3 9575   2.050   2.665  15.112 -0.3125 -0.4860  0.4243
  647TMC3    C4 9576   2.223   2.822  14.953 -0.5458  0.2841  0.1208
  647TMC3    C5 9577   2.262   2.759  15.065 -0.4344 -0.5191  0.0302
  647TMC3    C6 9578   2.175   2.689  15.147  0.1678  0.1631  0.6291
  647TMC3     C 9579   2.016   2.842  14.791 -0.6422  0.0579  0.1256
  647TMC3     O 9580   1.896   2.821  14.785  0.2509  0.2193  1.0080
  647TMC3     H 9581   1.896   2.703  14.975  0.5050 -1.8331 -1.8779
  647TMC3    H1 9582   2.289   2.889  14.899  1.3184 -1.1788  0.5534
  647TMC3    H2 9583   2.214   2.628  15.228 -0.7480  0.5481  1.3658
  647TMC3    C7 9584   2.401   2.753  15.115 -0.2470  0.9192  0.3584
  647TMC3    C8 9585   1.993   2.539  15.159  0.2070 -0.6875 -0.5180
  647TMC3    O1 9586   2.426   2.693  15.216  0.5237  0.1875  1.0841
  647TMC3    O2 9587   1.999   2.517  15.278 -0.4704 -0.6172 -0.1229
  648TMC3    C1 9588   0.965   0.262  16.411 -0.0191  0.7805  0.0770
  648TMC3    C2 9589   1.087   0.199  16.400 -0.6856 -0.8544 -0.5814
  648TMC3    C3 9590   1.162   0.229  16.287 -0.9723 -0.1776 -0.1357
  648TMC3    C4 9591   0.915   0.349  16.320 -0.3575 -0.2342  0.3194
  648TMC3    C5 9592   0.995   0.385  16.217  0.0919  0.1116  0.7350
  648TMC3    C6 9593   1.111   0.311  16.188  0.0050 -1.0592 -0.0716
  648TMC3     C 9594   0.905   0.273  16.548 -0.7367 -0.2457 -0.1145
  648TMC3     O 9595   0.988   0.287  16.637 -0.2589 -0.1973  0.0929
  648TMC3     H 9596   1.132   0.135  16.475 -3.3060 -1.2073  0.6744
  648TMC3    H1 9597   0.814   0.385  16.333  0.2434  1.5291  0.0682
  648TMC3    H2 9598   1.169   0.338  16.100 -0.2458  0.0502  0.1061
  648TMC3    C7 9599   0.963   0.507  16.134  0.3175  0.4961 -0.1588
  648TMC3    C8 9600   1.270   0.137  16.261  0.6227  0.0742  0.0440
  648TMC3    O1 9601   1.006   0.514  16.022 -0.2992 -0.0721 -0.1371
  648TMC3    O2 9602   1.278   0.038  16.328  0.2969  0.5938  0.6722
  649TMC3    C1 9603   0.875   1.517  12.670  0.1599  0.1362  0.0837
  649TMC3    C2 9604   1.010   1.526  12.642 -0.8226 -0.0974 -0.1712
  649TMC3    C3 9605   1.089   1.502  12.749 -0.6152 -0.4511 -0.2061
  649TMC3    C4 9606   0.816   1.490  12.779 -0.1623 -0.2519 -0.0949
  649TMC3    C5 9607   0.903   1.467  12.884 -0.3149 -0.3623 -0.7394
  649TMC3    C6 9608   1.038   1.468  12.875 -0.1566  0.3686  0.6480
  649TMC3     C 9609   0.791   1.545  12.552 -0.3063 -0.0765  0.1968
  649TMC3     O 9610   0.677   1.578  12.573  0.3503  0.4100 -0.7814
  649TMC3     H 9611   1.043   1.566  12.547  1.8413 -0.7931  0.4521
  649TMC3    H1 9612   0.709   1.492  12.791  0.0083  3.6940  0.7778
  649TMC3    H2 9613   1.109   1.452  12.955  0.9598 -0.4929 -0.4995
  649TMC3    C7 9614   0.845   1.399  12.999 -0.4304  0.5695 -0.1290
  649TMC3    C8 9615   1.233   1.511  12.740 -0.0798 -0.4541 -0.0798
  649TMC3    O1 9616   0.747   1.449  13.046  0.6800  0.3521 -0.1316
  649TMC3    O2 9617   1.293   1.507  12.844  0.4105  0.0428 -0.6196
  650TMC3    C1 9618   3.313   3.260  12.875 -0.0451 -0.1907 -0.5636
  650TMC3    C2 9619   3.357   3.387  12.895  0.0283 -0.0601  0.4275
  650TMC3    C3 9620   3.377   3.470  12.790  0.2855 -0.2635 -0.3610
  650TMC3    C4 9621   3.264   3.225  12.754  0.2043  0.6680 -0.3423
  650TMC3    C5 9622   3.276   3.313  12.649  0.2407 -0.0372 -0.3266
  650TMC3    C6 9623   3.343   3.432  12.663  0.4242 -0.3541  0.7515
  650TMC3     C 9624   3.318   3.170  12.988  0.3774 -0.3627 -0.0693
  650TMC3     O 9625   3.332   3.215  13.099  0.3983 -0.0042 -0.2033
  650TMC3     H 9626   3.390   3.419  12.992 -3.4816  1.2927  1.1688
  650TMC3    H1 9627   3.223   3.126  12.740  0.4695  0.4948  0.1225
  650TMC3    H2 9628   3.348   3.496  12.575 -1.0937 -1.5761 -0.2124
  650TMC3    C7 9629   3.182   3.303  12.545  0.5156  0.2052 -0.6008
  650TMC3    C8 9630   3.357   3.604  12.818 -0.4241  0.3190  0.4778
  650TMC3    O1 9631   3.126   3.200  12.512 -0.5818  0.2354  0.0358
  650TMC3    O2 9632   3.359   3.675  12.721 -0.2606 -0.4412 -0.1964
  651MPD2     C 9633   1.995   0.102  10.265  0.3743  0.3368  0.7540
  651MPD2    C1 9634   1.986   0.230  10.315 -0.4340 -0.0970 -1.0897
  651MPD2    C2 9635   2.101   0.309  10.324  0.0782  0.2905 -0.0330
  651MPD2    C3 9636   2.222   0.262  10.291 -0.0163  0.2290  0.0888
  651MPD2    C4 9637   2.236   0.133  10.240  0.5458 -0.2508 -0.1859
  651MPD2    C5 9638   2.123   0.055  10.226  0.2853 -0.3109  0.0256
  651MPD2     H 9639   2.085   0.408  10.366  0.2744  0.4778 -0.3972
  651MPD2    H1 9640   2.329   0.089  10.206  1.2418  0.0456  1.3077
  651MPD2    H2 9641   1.915   0.031  10.246  0.8897 -0.0211 -0.0984
  651MPD2    H3 9642   2.130   4.680  10.184  1.6712 -0.5312  0.7697
  651MPD2     N 9643   2.323   0.357  10.296  0.2978 -0.5473 -0.2417
  651MPD2    H5 9644   2.296   0.446  10.338  1.7546 -0.7971  1.2092
  651MPD2    N1 9645   1.872   0.284  10.377 -0.4060  1.2015  0.5844
  651MPD2    H7 9646   1.880   0.382  10.402  1.2469  1.6517 -1.7431
  652TMC3    C1 9647   2.758   0.509  10.298  0.1069 -0.4389  0.1404
  652TMC3    C2 9648   2.662   0.436  10.237 -0.2814 -0.0738 -0.5107
  652TMC3    C3 9649   2.538   0.443  10.285  0.7357 -0.2889  0.6912
  652TMC3    C4 9650   2.721   0.609  10.386 -0.0523  0.4823 -0.4533
  652TMC3    C5 9651   2.592   0.628  10.419  0.4499 -0.3670 -0.5713
  652TMC3    C6 9652   2.501   0.549  10.368 -0.6345  0.6447 -0.0047
  652TMC3     C 9653   2.899   0.494  10.274  0.4050 -0.1415 -0.2444
  652TMC3     O 9654   2.942   0.466  10.163 -0.3440  0.0929 -0.2368
  652TMC3     H 9655   2.687   0.353  10.171  1.2689  0.3483 -0.4499
  652TMC3    H1 9656   2.792   0.673  10.437  1.0444 -0.9148 -0.2246
  652TMC3    H2 9657   2.402   0.562  10.410 -0.0248 -1.6269  2.1529
  652TMC3    C7 9658   2.553   0.746  10.498 -0.4963  0.1103 -0.1682
  652TMC3    C8 9659   2.448   0.336  10.242  0.6285  0.0531 -0.2235
  652TMC3    O1 9660   2.647   0.772  10.569  0.0653  0.0798  0.2356
  652TMC3    O2 9661   2.487   0.242  10.170  0.4496 -0.2264  0.2335
  653MPD2     C 9662   0.878   0.753   0.469 -0.4543  0.1990  0.8003
  653MPD2    C1 9663   0.758   0.784   0.406 -0.2160 -0.2345  0.2075
  653MPD2    C2 9664   0.687   0.682   0.342  0.2922 -0.0631  0.0494
  653MPD2    C3 9665   0.716   0.555   0.368  0.0287 -0.9372  0.5155
  653MPD2    C4 9666   0.824   0.523   0.453  1.4272  0.2342 -0.1353
  653MPD2    C5 9667   0.905   0.622   0.501 -0.4611  0.0791  0.0997
  653MPD2     H 9668   0.612   0.710   0.269  2.2303  0.1921 -1.8138
  653MPD2    H1 9669   0.848   0.417   0.464 -1.4510 -0.1298  2.6017
  653MPD2    H2 9670   0.941   0.830   0.511 -0.9908  1.5080 -0.7950
  653MPD2    H3 9671   0.993   0.595   0.558 -0.1068 -0.4799 -0.7219
  653MPD2     N 9672   0.632   0.456   0.310 -0.4465 -0.0743  0.6029
  653MPD2    H5 9673   0.566   0.491   0.241  0.7148 -1.0645 -0.9986
  653MPD2    N1 9674   0.713   0.910   0.383  0.9057 -0.0975  0.3042
  653MPD2    H7 9675   0.636   0.926   0.319  0.2475  0.1040  1.1429
  654TMC3    C1 9676   0.526   0.258   0.246  0.9335 -0.1638  0.1424
  654TMC3    C2 9677   0.422   0.342   0.207  0.8603  0.3875  0.8804
  654TMC3    C3 9678   0.339   0.274   0.119 -0.0305 -0.2213 -0.1124
  654TMC3    C4 9679   0.540   0.126   0.218 -0.3332 -0.2846 -0.1030
  654TMC3    C5 9680   0.442   0.065   0.142  0.5182  0.0479  0.0177
  654TMC3    C6 9681   0.342   0.137   0.085  0.5105 -0.1358  0.0296
  654TMC3     C 9682   0.640   0.319   0.315  0.7209 -0.1723  0.1366
  654TMC3     O 9683   0.728   0.250   0.357 -0.0508  0.2932  0.0250
  654TMC3     H 9684   0.410   0.447   0.229 -0.7965  0.7082 -1.5540
  654TMC3    H1 9685   0.624   0.072   0.259 -0.5952  1.6262  2.9000
  654TMC3    H2 9686   0.275   0.090   0.013  0.4104  1.8576 -1.1792
  654TMC3    C7 9687   0.464   4.648   0.111 -0.3410 -0.4348 -0.4691
  654TMC3    C8 9688   0.257   0.366   0.042 -0.2970  0.3752 -0.1037
  654TMC3    O1 9689   0.580   4.609   0.111 -0.2375 -0.2975 -0.2011
  654TMC3    O2 9690   0.248   0.482   0.073  0.1452 -0.7585  0.2114
  655MPD2     C 9691   1.724   0.343  16.031 -0.3423  0.5469 -0.9811
  655MPD2    C1 9692   1.620   0.403  15.960  0.0324 -0.2466 -0.2644
  655MPD2    C2 9693   1.636   0.408  15.823 -0.7464 -0.2809 -1.4382
  655MPD2    C3 9694   1.749   0.362  15.760  0.1064  0.0153  0.0008
  655MPD2    C4 9695   1.843   0.299  15.834 -0.0001 -0.5367  0.4605
  655MPD2    C5 9696   1.834   0.291  15.969  0.3720 -0.3261  0.3210
  655MPD2     H 9697   1.565   0.474  15.774  1.1042  0.1881 -3.5115
  655MPD2    H1 9698   1.924   0.249  15.782  0.1959 -1.0846  1.2904
  655MPD2    H2 9699   1.716   0.326  16.138 -0.9769  0.3919 -1.0529
  655MPD2    H3 9700   1.908   0.237  16.026 -0.7891 -1.0610  1.1380
  655MPD2     N 9701   1.776   0.377  15.622 -0.2493 -0.2793  0.1155
  655MPD2    H5 9702   1.865   0.345  15.586  0.4840  0.9622  0.8334
  655MPD2    N1 9703   1.505   0.464  16.019 -1.1137  0.7148 -0.3399
  655MPD2    H7 9704   1.433   0.502  15.957 -2.0018  0.3697  0.4835
  656TMC3    C1 9705   1.393   0.607  16.179  0.3971  0.3352 -0.1632
  656TMC3    C2 9706   1.343   0.621  16.309  0.6290  0.2180  0.3709
  656TMC3    C3 9707   1.249   0.724  16.321 -0.7810  0.3800  0.2099
  656TMC3    C4 9708   1.349   0.691  16.077 -0.0149 -0.0082  0.1307
  656TMC3    C5 9709   1.249   0.781  16.094 -0.5547  0.5225 -0.9152
  656TMC3    C6 9710   1.196   0.801  16.219  0.2220 -0.1461  0.0378
  656TMC3     C 9711   1.488   0.497  16.152  0.3131 -0.0085 -0.3698
  656TMC3     O 9712   1.541   0.453  16.250  0.1833 -0.3525 -0.0079
  656TMC3     H 9713   1.376   0.556  16.390  1.2877 -0.5483 -0.5114
  656TMC3    H1 9714   1.392   0.675  15.979  1.7698  1.5354  0.6785
  656TMC3    H2 9715   1.116   0.873  16.233 -0.7751 -1.2077 -0.2216
  656TMC3    C7 9716   1.192   0.839  15.972  1.0916  0.3020  0.3347
  656TMC3    C8 9717   1.162   0.711  16.436 -0.1099  0.0752 -0.2905
  656TMC3    O1 9718   1.216   0.773  15.870 -0.1972 -0.1759 -0.4475
  656TMC3    O2 9719   1.107   0.602  16.452  0.0474 -0.0625  0.2284
  657TMC3    C1 9720   0.746   4.689  14.979 -0.2457  0.2246 -0.4777
  657TMC3    C2 9721   0.737   4.686  15.117  0.0352 -0.1043 -0.1144
  657TMC3    C3 9722   0.664   0.066  15.179 -0.2286 -0.1750  0.0125
  657TMC3    C4 9723   0.692   0.072  14.906 -0.1752 -0.2851  0.0585
  657TMC3    C5 9724   0.614   0.169  14.971 -0.3479  0.1557  0.4687
  657TMC3    C6 9725   0.590   0.168  15.110 -0.0140 -0.2780  0.6755
  657TMC3     C 9726   0.835   4.593  14.900  0.2819  0.6079  0.7358
  657TMC3     O 9727   0.859   4.623  14.786 -0.7373 -0.5565  0.0175
  657TMC3     H 9728   0.783   4.610  15.179 -0.1140  1.7935  2.3271
  657TMC3    H1 9729   0.710   0.075  14.799  1.5373  0.8132  0.3808
  657TMC3    H2 9730   0.541   0.255  15.151  0.2645  0.8944 -1.4931
  657TMC3    C7 9731   0.552   0.281  14.897  0.1333 -0.0426 -0.2394
  657TMC3    C8 9732   0.709   0.105  15.306 -0.3900 -0.2132  0.5216
  657TMC3    O1 9733   0.502   0.382  14.950 -0.4310  0.3461  1.0161
  657TMC3    O2 9734   0.741   0.226  15.315  0.6735  0.0104 -0.0934
  658MPD2     C 9735   2.064   0.796  14.992 -0.0082  0.0429  0.2438
  658MPD2    C1 9736   1.936   0.746  14.974  0.8373  0.1168 -0.1607
  658MPD2    C2 9737   1.868   0.769  14.856 -0.0301  0.2745 -0.5474
  658MPD2    C3 9738   1.920   0.853  14.753 -0.2537 -0.1930  0.3922
  658MPD2    C4 9739   2.052   0.896  14.767 -0.4592 -0.1616  0.6078
  658MPD2    C5 9740   2.116   0.875  14.890 -0.7033 -0.1799  1.0658
  658MPD2     H 9741   1.769   0.728  14.838 -0.0014  1.3187 -3.0091
  658MPD2    H1 9742   2.107   0.947  14.688 -3.5543 -0.8667 -2.0298
  658MPD2    H2 9743   2.119   0.779  15.083  1.2467 -1.2656 -0.7696
  658MPD2    H3 9744   2.216   0.914  14.903 -1.0948  1.7916 -1.9491
  658MPD2     N 9745   1.845   0.856  14.639 -0.5500  0.4134 -0.6701
  658MPD2    H5 9746   1.757   0.806  14.635  0.0403 -0.6295 -0.5979
  658MPD2    N1 9747   1.874   0.657  15.067  0.5371  0.2922 -0.5454
  658MPD2    H7 9748   1.787   0.621  15.030 -0.7500  1.8130  0.9686
  659TMC3    C1 9749   1.866   0.484  15.219  0.2398 -0.0277  0.0084
  659TMC3    C2 9750   1.830   0.487  15.353  0.0368 -0.4993  0.2314
  659TMC3    C3 9751   1.735   0.399  15.393 -0.2784 -0.6503  0.0906
  659TMC3    C4 9752   1.794   0.414  15.130 -0.2725 -0.1722  0.1896
  659TMC3    C5 9753   1.704   0.316  15.172  0.1241  0.2186  0.6130
  659TMC3    C6 9754   1.680   0.303  15.306  0.2017  0.4889  0.0380
  659TMC3     C 9755   1.928   0.609  15.185 -0.4296 -0.3111  0.9029
  659TMC3     O 9756   2.006   0.659  15.263 -0.0953 -0.8242 -0.6031
  659TMC3     H 9757   1.875   0.562  15.416  2.3508 -0.8978 -0.9390
  659TMC3    H1 9758   1.825   0.417  15.026 -2.0420  1.0257 -0.3000
  659TMC3    H2 9759   1.608   0.236  15.350  0.9786  0.8836  1.9150
  659TMC3    C7 9760   1.593   0.278  15.092 -1.2444 -0.2505  0.1368
  659TMC3    C8 9761   1.684   0.408  15.529 -0.3198  0.3265 -0.6042
  659TMC3    O1 9762   1.500   0.215  15.138 -0.0282 -0.4266  0.5735
  659TMC3    O2 9763   1.565   0.397  15.545  0.6879  0.2486  0.0706
  660MPD2     C 9764   0.252   3.926  12.524 -0.6460  0.7797  0.1240
  660MPD2    C1 9765   0.198   4.035  12.582 -0.1521 -0.3562  0.2821
  660MPD2    C2 9766   0.173   4.028  12.719  0.8686 -0.3426 -0.5647
  660MPD2    C3 9767   0.170   3.907  12.784 -0.2132  0.2148 -0.7793
  660MPD2    C4 9768   0.225   3.798  12.721 -0.2382 -0.1968 -0.7615
  660MPD2    C5 9769   0.269   3.811  12.593 -0.2632  0.2383  0.0637
  660MPD2     H 9770   0.158   4.123  12.769  0.3445  1.2069 -3.6364
  660MPD2    H1 9771   0.224   3.703  12.774 -0.9283  0.6362  0.7209
  660MPD2    H2 9772   0.264   3.924  12.416 -1.3360  2.9737  0.0037
  660MPD2    H3 9773   0.306   3.727  12.536 -2.3955 -0.2487 -0.6269
  660MPD2     N 9774   0.115   3.895  12.918 -0.4345  0.1642 -0.5496
  660MPD2    H5 9775   0.122   3.801  12.958 -0.5574  1.0151  1.4856
  660MPD2    N1 9776   0.184   4.151  12.500 -0.3670  0.1339 -0.3400
  660MPD2    H7 9777   0.221   4.146  12.406 -0.7126 -1.2188 -0.4145
  661TMC3    C1 9778   0.068   4.357  12.440  0.4007  0.1190 -0.6347
  661TMC3    C2 9779   0.166   4.404  12.366  0.4818  0.4004  0.4498
  661TMC3    C3 9780   0.127   4.496  12.271  0.2815 -0.4804  0.2362
  661TMC3    C4 9781   4.662   4.403  12.441  0.4101  1.0283  0.2981
  661TMC3    C5 9782   4.627   4.503  12.354 -0.0122  0.3670 -0.4475
  661TMC3    C6 9783   4.721   4.540  12.263  1.1562  0.1900 -0.2546
  661TMC3     C 9784   0.094   4.251  12.538 -0.1920 -0.2569  0.6914
  661TMC3     O 9785   0.027   4.259  12.642  0.2463 -0.0393 -0.6244
  661TMC3     H 9786   0.268   4.371  12.386  0.1567 -0.5603  0.5138
  661TMC3    H1 9787   4.597   4.351  12.510  1.6875 -0.8570  0.0935
  661TMC3    H2 9788   4.698   4.637  12.219  0.5320  0.6637  1.1044
  661TMC3    C7 9789   4.493   4.508  12.298 -0.1568 -0.4169 -0.3712
  661TMC3    C8 9790   0.204   4.481  12.149 -0.1143  0.0318 -0.1107
  661TMC3    O1 9791   4.453   4.621  12.263  0.2506  0.0572 -0.3109
  661TMC3    O2 9792   0.297   4.405  12.163 -0.0846  0.4800 -0.6755
  662MPD2     C 9793   0.142   3.767  17.539  0.1006  0.3013  0.9686
  662MPD2    C1 9794   0.101   3.719  17.660 -0.9168  0.6426 -0.3686
  662MPD2    C2 9795   0.006   3.794   0.034  0.9168  0.3123 -0.3211
  662MPD2    C3 9796   4.689   3.920  17.700  0.4646 -0.2984 -0.1022
  662MPD2    C4 9797   0.004   3.968  17.580  0.3870 -0.1232  0.1331
  662MPD2    C5 9798   0.095   3.897  17.506 -0.6602  0.0360 -0.2830
  662MPD2     H 9799   4.724   3.755   0.134 -1.1783  2.9034  0.5398
  662MPD2    H1 9800   4.710   4.067  17.539  0.5889  0.1534  0.7158
  662MPD2    H2 9801   0.217   3.729  17.472 -0.5609  0.5442  0.0901
  662MPD2    H3 9802   0.145   3.941  17.420 -0.3379 -0.5801 -0.4116
  662MPD2     N 9803   4.591   3.987   0.078  0.5526  0.1310 -0.0834
  662MPD2    H5 9804   4.556   3.936   0.158  0.4094 -0.4506 -0.5130
  662MPD2    N1 9805   0.123   3.592  17.702 -0.1538  0.2662  0.5306
  662MPD2    H7 9806   0.069   3.569   0.081  0.0308  2.2620  1.2042
  663TMC3    C1 9807   0.152   3.359  17.671  0.3228 -0.8224  0.2786
  663TMC3    C2 9808   0.087   3.348   0.081 -0.3314  0.5254 -0.6056
  663TMC3    C3 9809   0.049   3.218   0.120  0.1203  0.1600  0.9869
  663TMC3    C4 9810   0.168   3.252  17.583  0.2464  0.7132  0.3337
  663TMC3    C5 9811   0.116   3.130  17.613 -0.1600 -0.3836 -0.4575
  663TMC3    C6 9812   0.061   3.109   0.028  0.4484 -0.1542  0.4412
  663TMC3     C 9813   0.186   3.496  17.625 -0.2902 -0.0350  0.7267
  663TMC3     O 9814   0.255   3.502  17.524  0.3451  0.2122  0.1249
  663TMC3     H 9815   0.095   3.424   0.158  0.3980 -1.9015  1.7089
  663TMC3    H1 9816   0.195   3.278  17.481 -0.0946 -1.3325 -0.2686
  663TMC3    H2 9817   4.724   3.026   0.057 -1.4304  1.3344  0.6745
  663TMC3    C7 9818   0.061   3.064  17.498  0.1108  0.3182 -0.5624
  663TMC3    C8 9819   4.650   3.216   0.186 -0.0953  0.3548 -0.6803
  663TMC3    O1 9820   0.042   3.124  17.396 -0.2077 -0.0877  0.0162
  663TMC3    O2 9821   4.636   3.142   0.283  0.6807  0.0636  0.3314
  664MPD2     C 9822   2.714   2.329  17.286 -0.3546 -0.9814  0.1689
  664MPD2    C1 9823   2.797   2.251  17.364  0.6895 -0.2900  0.1514
  664MPD2    C2 9824   2.736   2.171  17.456 -0.5312  0.2455  0.5223
  664MPD2    C3 9825   2.599   2.171  17.478  0.0977  0.0045  0.2514
  664MPD2    C4 9826   2.518   2.244  17.390  0.3537 -0.1482  0.2995
  664MPD2    C5 9827   2.577   2.327  17.301 -0.0695  0.0507 -1.4233
  664MPD2     H 9828   2.802   2.113  17.519 -2.0105  1.1111  2.8934
  664MPD2    H1 9829   2.412   2.256  17.411 -0.0618 -0.3352 -1.6118
  664MPD2    H2 9830   2.754   2.409  17.224  1.1302 -2.6516 -1.0526
  664MPD2    H3 9831   2.527   2.411  17.255 -1.7997 -1.3485 -2.0889
  664MPD2     N 9832   2.553   2.112  17.598 -0.2224 -0.1980 -0.2923
  664MPD2    H5 9833   2.621   2.073  17.662  0.1383  0.4871 -0.2547
  664MPD2    N1 9834   2.939   2.242  17.349 -0.0374  0.1765  0.3596
  664MPD2    H7 9835   2.996   2.172  17.397 -0.2213  0.1514  0.5380
  665TMC3    C1 9836   2.415   2.116   0.081 -0.5688  0.3584  0.3593
  665TMC3    C2 9837   2.290   2.114   0.130 -0.5094  0.8005 -0.3159
  665TMC3    C3 9838   2.271   2.157   0.256  0.3636 -0.0357 -0.4866
  665TMC3    C4 9839   2.525   2.168   0.149 -0.2424 -0.2450  0.3316
  665TMC3    C5 9840   2.498   2.207   0.280 -0.1601  0.3731 -1.0371
  665TMC3    C6 9841   2.369   2.204   0.335 -0.1829  0.6063 -0.7229
  665TMC3     C 9842   2.422   2.107  17.642  0.2733  1.1719  0.2503
  665TMC3     O 9843   2.318   2.137  17.582  0.4172  0.4821 -0.1960
  665TMC3     H 9844   2.208   2.080   0.068 -0.6306 -1.8007  1.2365
  665TMC3    H1 9845   2.621   2.196   0.107 -0.5465 -0.3395 -0.4268
  665TMC3    H2 9846   2.330   2.234   0.431  2.6576 -1.3961  1.0201
  665TMC3    C7 9847   2.581   2.310   0.340 -0.4963 -0.5529 -0.2666
  665TMC3    C8 9848   2.144   2.175   0.323  1.0310  0.0248  0.3991
  665TMC3    O1 9849   2.646   2.380   0.263  0.4497 -0.3704 -0.0296
  665TMC3    O2 9850   2.124   2.132   0.435  0.3849 -0.1841 -0.3448
  666TMC3    C1 9851   2.955   1.895  10.170  0.8644  0.0552 -0.1727
  666TMC3    C2 9852   3.087   1.863  10.183  0.4145 -0.0848 -0.3147
  666TMC3    C3 9853   3.182   1.958  10.203 -0.2827 -0.1425 -0.4856
  666TMC3    C4 9854   2.908   2.021  10.150 -0.7630 -0.3380  0.3370
  666TMC3    C5 9855   3.005   2.119  10.164 -0.1334  0.0391 -0.6709
  666TMC3    C6 9856   3.140   2.089  10.192  0.3023 -0.4348 -0.6329
  666TMC3     C 9857   2.875   1.819  10.257  0.0738 -0.3298  0.3405
  666TMC3     O 9858   2.939   1.739  10.329  0.4833  0.4937  0.3563
  666TMC3     H 9859   3.103   1.756  10.187 -1.9402 -0.4919 -1.3252
  666TMC3    H1 9860   2.802   2.041  10.134 -0.7036 -0.0691  0.2726
  666TMC3    H2 9861   3.208   2.169  10.220  0.1465  0.5092 -2.8994
  666TMC3    C7 9862   2.962   2.255  10.173 -0.1794  0.3678  0.2197
  666TMC3    C8 9863   3.254   1.931  10.332  0.1947  0.2921 -0.5624
  666TMC3    O1 9864   2.844   2.269  10.152 -0.0276  0.3360  0.1357
  666TMC3    O2 9865   3.349   2.000  10.358 -0.6017 -0.4523  0.5180
  667MPD2     C 9866   3.762   2.363  14.344  0.4625 -0.0927  0.1378
  667MPD2    C1 9867   3.796   2.316  14.469 -0.4856 -0.1738  0.5028
  667MPD2    C2 9868   3.757   2.187  14.503  0.4779 -0.1771 -0.5182
  667MPD2    C3 9869   3.704   2.098  14.408 -0.3244 -0.4541 -0.0751
  667MPD2    C4 9870   3.678   2.146  14.286 -0.2476  0.8079  0.3991
  667MPD2    C5 9871   3.700   2.277  14.259  0.2986  0.3163  0.8882
  667MPD2     H 9872   3.756   2.165  14.609  0.5607 -1.9338 -0.8912
  667MPD2    H1 9873   3.628   2.086  14.211 -0.9886 -0.8237  2.2033
  667MPD2    H2 9874   3.757   2.469  14.322  0.8701 -0.3615 -1.2429
  667MPD2    H3 9875   3.662   2.309  14.163  1.5207 -1.0386 -0.0507
  667MPD2     N 9876   3.677   1.962  14.431  0.1942  0.0606 -0.2626
  667MPD2    H5 9877   3.644   1.901  14.357 -0.2975 -0.0695  0.0671
  667MPD2    N1 9878   3.837   2.408  14.575  0.4491  0.3436  0.2628
  667MPD2    H7 9879   3.826   2.368  14.668 -0.6890  1.3496  0.5607
  668TMC3    C1 9880   3.906   2.602  14.687 -0.2019  0.0386  0.7499
  668TMC3    C2 9881   3.991   2.713  14.688 -0.4318  0.3928 -0.3418
  668TMC3    C3 9882   3.979   2.803  14.785 -0.1065 -0.5210 -0.1917
  668TMC3    C4 9883   3.812   2.588  14.780 -0.0964 -0.4707  0.1337
  668TMC3    C5 9884   3.818   2.675  14.887  0.1477  0.0337 -0.3952
  668TMC3    C6 9885   3.894   2.787  14.892 -0.3654 -0.0891 -0.1233
  668TMC3     C 9886   3.894   2.534  14.562  0.3642  0.5916 -0.7626
  668TMC3     O 9887   3.933   2.587  14.460 -0.1405  0.5605  0.1926
  668TMC3     H 9888   4.074   2.712  14.618  2.2077 -0.2182  2.8147
  668TMC3    H1 9889   3.729   2.523  14.757  0.9170 -1.3469 -1.1062
  668TMC3    H2 9890   3.893   2.853  14.978  1.0846  0.4130 -0.4931
  668TMC3    C7 9891   3.743   2.648  15.004 -0.2864  0.2078 -0.3011
  668TMC3    C8 9892   4.059   2.926  14.792 -0.4455  0.5779  0.6550
  668TMC3    O1 9893   3.712   2.734  15.087 -0.1850 -0.0271 -0.0288
  668TMC3    O2 9894   4.031   3.000  14.885  0.1697  0.7690 -0.1114
  669TMC3    C1 9895   1.989   2.310  14.368 -0.2096 -0.9740  0.3131
  669TMC3    C2 9896   1.870   2.321  14.305  0.5091  0.0418 -0.3074
  669TMC3    C3 9897   1.863   2.392  14.190  0.4765  0.5149 -0.4091
  669TMC3    C4 9898   2.105   2.355  14.313 -0.1561 -0.6130  0.4543
  669TMC3    C5 9899   2.089   2.419  14.194 -0.2665 -0.8641  0.1771
  669TMC3    C6 9900   1.972   2.456  14.136 -0.7741  0.1830 -0.3193
  669TMC3     C 9901   1.984   2.191  14.454  0.8416 -0.1341 -0.5306
  669TMC3     O 9902   1.896   2.110  14.437  0.0149 -0.4031  0.4100
  669TMC3     H 9903   1.783   2.271  14.344  1.1733 -0.0730  1.0261
  669TMC3    H1 9904   2.203   2.344  14.358 -0.5438 -0.5386  1.3274
  669TMC3    H2 9905   1.960   2.515  14.045 -1.5082 -0.1181 -0.4172
  669TMC3    C7 9906   2.206   2.495  14.148 -0.1646  0.0269  0.0103
  669TMC3    C8 9907   1.736   2.385  14.121 -0.4057  0.4460 -0.3242
  669TMC3    O1 9908   2.291   2.525  14.230 -1.0598 -0.0769 -0.2649
  669TMC3    O2 9909   1.660   2.300  14.160  0.0108 -0.2444  0.3428
  670MPD2     C 9910   4.629   4.599  13.792  0.1476  1.2302  0.3910
  670MPD2    C1 9911   4.715   4.490  13.803  1.0205  0.4962  0.2693
  670MPD2    C2 9912   0.054   4.469  13.922  0.3579  1.0780  0.4233
  670MPD2    C3 9913   0.019   4.541  14.033  0.1659  0.0818  0.3607
  670MPD2    C4 9914   4.642   4.638  14.024 -0.3444 -0.7095  0.0837
  670MPD2    C5 9915   4.589   4.675  13.901 -0.3333 -0.3148 -0.2074
  670MPD2     H 9916   0.123   4.388  13.944 -0.1087  0.7123  0.5546
  670MPD2    H1 9917   4.615   4.700  14.109 -2.7398 -1.4453 -0.1358
  670MPD2    H2 9918   4.593   4.632  13.695  1.8783 -4.2662 -2.1055
  670MPD2    H3 9919   4.520   0.032  13.897 -0.5620 -0.4660  0.5710
  670MPD2     N 9920   0.083   4.525  14.157  0.1167 -0.1416 -0.0887
  670MPD2    H5 9921   0.165   4.466  14.169  0.2034  0.1557  0.7514
  670MPD2    N1 9922   0.040   4.417  13.691 -0.5143  0.0307  0.1928
  670MPD2    H7 9923   0.127   4.369  13.713 -0.7659 -0.0972  0.9135
  671TMC3    C1 9924   0.140   4.549  14.378  0.0685  0.0002 -0.2323
  671TMC3    C2 9925   0.257   4.500  14.341  0.1726 -0.2837 -0.0501
  671TMC3    C3 9926   0.339   4.431  14.434 -0.1203 -0.2074 -0.0068
  671TMC3    C4 9927   0.089   4.527  14.502 -0.4009 -0.3442 -0.1073
  671TMC3    C5 9928   0.169   4.447  14.586 -0.4385 -0.4109  0.9117
  671TMC3    C6 9929   0.284   4.400  14.554 -0.2367  0.0168  0.5894
  671TMC3     C 9930   0.039   4.579  14.273  0.1002  0.4757  0.1788
  671TMC3     O 9931   4.652   4.610  14.309 -0.1273 -0.1458  0.1154
  671TMC3     H 9932   0.309   4.553  14.263  1.4685 -3.7383 -1.4965
  671TMC3    H1 9933   4.720   4.568  14.537  0.1646 -0.2483  1.2887
  671TMC3    H2 9934   0.337   4.340  14.627 -1.1341 -0.8913  0.5036
  671TMC3    C7 9935   0.104   4.395  14.708  0.2910  0.5673  0.6276
  671TMC3    C8 9936   0.440   4.356  14.368 -0.4995 -0.3060 -0.1696
  671TMC3    O1 9937   0.028   4.473  14.770  0.0701 -0.5194 -0.6243
  671TMC3    O2 9938   0.428   4.339  14.248  0.2042 -0.4456 -0.1492
  672MPD2     C 9939   0.621   0.821   0.737  0.0580  0.3477 -0.7820
  672MPD2    C1 9940   0.632   0.695   0.798 -0.2854  0.5946  0.5969
  672MPD2    C2 9941   0.668   0.702   0.933 -0.2383 -0.4026  0.0422
  672MPD2    C3 9942   0.667   0.825   1.006 -0.5225  0.0290 -0.1944
  672MPD2    C4 9943   0.635   0.941   0.935 -0.3549 -0.2834 -0.7116
  672MPD2    C5 9944   0.612   0.939   0.801  0.4594  0.7817  0.7670
  672MPD2     H 9945   0.691   0.614   0.991  0.2385 -0.8300 -0.8052
  672MPD2    H1 9946   0.639   1.031   0.995  1.8980 -1.3564  0.7472
  672MPD2    H2 9947   0.612   0.822   0.629 -2.0559 -1.1531 -0.6211
  672MPD2    H3 9948   0.596   1.031   0.745 -1.3077  0.2289  0.3591
  672MPD2     N 9949   0.695   0.850   1.142 -0.6288  0.2927 -0.0696
  672MPD2    H5 9950   0.692   0.946   1.176 -0.5696  0.0388  0.6597
  672MPD2    N1 9951   0.624   0.582   0.718 -0.4421  0.0545  0.0166
  672MPD2    H7 9952   0.575   0.589   0.630 -3.0750  0.6889  1.5399
  673TMC3    C1 9953   0.615   0.356   0.659  0.2926 -0.4309  0.3585
  673TMC3    C2 9954   0.682   0.239   0.663 -0.5710  0.1245 -0.2484
  673TMC3    C3 9955   0.621   0.119   0.634  0.8056 -0.1222  0.2325
  673TMC3    C4 9956   0.489   0.365   0.613 -0.3891 -0.0354 -1.1608
  673TMC3    C5 9957   0.429   0.242   0.577 -0.5906  0.1265  0.0973
  673TMC3    C6 9958   0.488   0.121   0.587 -0.1632 -0.0112 -0.4007
  673TMC3     C 9959   0.653   0.456   0.758 -0.0619 -0.5336  0.0427
  673TMC3     O 9960   0.721   0.408   0.847  0.0229  0.0291 -0.5849
  673TMC3     H 9961   0.790   0.231   0.673 -0.6137  0.1591  0.2802
  673TMC3    H1 9962   0.436   0.459   0.621 -2.1216 -1.0287 -0.8453
  673TMC3    H2 9963   0.439   0.033   0.547 -0.2253  0.0313 -0.4174
  673TMC3    C7 9964   0.295   0.251   0.518  0.6921 -0.2901  0.0794
  673TMC3    C8 9965   0.686   4.721   0.645 -0.4269  0.0222 -0.1900
  673TMC3    O1 9966   0.259   0.154   0.453  0.2997 -0.5728  0.1885
  673TMC3    O2 9967   0.656   4.634   0.564  0.5373  0.4769 -0.2518
  674MPD2     C 9968   0.527   4.517   0.867  0.2837 -0.1132  0.4629
  674MPD2    C1 9969   0.424   4.466   0.790 -0.2004 -0.1170  0.2181
  674MPD2    C2 9970   0.310   4.435   0.863  0.0721 -0.3505  0.4411
  674MPD2    C3 9971   0.288   4.465   0.994  0.3254 -0.0229 -0.1231
  674MPD2    C4 9972   0.393   4.531   1.065  0.5857 -0.2250 -0.6821
  674MPD2    C5 9973   0.508   4.547   0.997  0.2555 -0.3027  0.4002
  674MPD2     H 9974   0.233   4.396   0.797 -0.2072  1.9362 -0.6205
  674MPD2    H1 9975   0.375   4.559   1.168 -0.4615 -1.3321 -0.5557
  674MPD2    H2 9976   0.623   4.531   0.820 -0.4707 -0.5845 -1.1928
  674MPD2    H3 9977   0.593   4.600   1.040 -0.2135 -1.7310  3.1105
  674MPD2     N 9978   0.160   4.429   1.049 -0.3173  0.0895 -0.0782
  674MPD2    H5 9979   0.087   4.388   0.992 -0.8388 -0.7006  1.1431
  674MPD2    N1 9980   0.447   4.439   0.653 -0.8660  0.2903  0.3103
  674MPD2    H7 9981   0.537   4.468   0.616 -0.6567  0.4686  0.9522
  675TMC3    C1 9982   0.408   4.336   0.440  1.0281 -0.5427 -0.0206
  675TMC3    C2 9983   0.381   4.208   0.393  0.0684 -0.0580  0.7727
  675TMC3    C3 9984   0.461   4.147   0.301  0.1060  0.1411 -0.2841
  675TMC3    C4 9985   0.523   4.395   0.401 -0.0748 -0.7911  0.6107
  675TMC3    C5 9986   0.604   4.331   0.310 -0.0597 -0.2066  0.2007
  675TMC3    C6 9987   0.583   4.199   0.276 -0.2188  0.4002 -0.2295
  675TMC3     C 9988   0.359   4.366   0.572  0.3465  0.0524  0.0015
  675TMC3     O 9989   0.257   4.310   0.603  0.0657  0.3275  0.0030
  675TMC3     H 9990   0.287   4.175   0.437 -0.2848 -0.3481 -0.2067
  675TMC3    H1 9991   0.538   4.497   0.437  0.8002 -0.1849 -1.4772
  675TMC3    H2 9992   0.649   4.150   0.205  0.1803  0.3805  0.1541
  675TMC3    C7 9993   0.738   4.377   0.286  0.6068 -0.4284  0.3495
  675TMC3    C8 9994   0.454   4.005   0.290  0.0199  0.5067  0.1732
  675TMC3    O1 9995   0.811   4.285   0.249 -0.4730  0.3859 -0.8189
  675TMC3    O2 9996   0.558   3.955   0.264  0.6313 -0.0416  0.1625
  676MPD2     C 9997   3.331   3.088  11.288 -0.3078 -0.6067 -0.1295
  676MPD2    C1 9998   3.244   3.011  11.369  0.3039  0.1101  0.2944
  676MPD2    C2 9999   3.228   2.883  11.333  0.0119 -0.8497  0.9100
  676MPD2    C310000   3.283   2.813  11.227 -0.3197 -0.0134  0.3178
  676MPD2    C410001   3.358   2.894  11.148  0.1349  0.1168  0.1660
  676MPD2    C510002   3.389   3.024  11.182 -0.0266  0.1433  0.3692
  676MPD2     H10003   3.155   2.826  11.390 -1.1792 -0.3265 -0.0819
  676MPD2    H110004   3.404   2.856  11.057  1.7103  0.7250  0.7193
  676MPD2    H210005   3.365   3.190  11.301 -0.6340 -0.5686  0.4070
  676MPD2    H310006   3.459   3.085  11.125 -0.1372  0.2783  0.3774
  676MPD2     N10007   3.273   2.669  11.192 -0.1037  0.4027 -0.0311
  676MPD2    H510008   3.323   2.641  11.109  1.1550  0.7385  0.6160
  676MPD2    N110009   3.163   3.070  11.473  0.1640  0.2809 -0.3413
  676MPD2    H710010   3.103   3.012  11.530  0.6462 -0.8296 -0.9583
  677TMC3    C110011   3.063   3.230  11.604 -0.2628 -0.4066 -0.0722
  677TMC3    C210012   2.945   3.164  11.600  1.0298 -0.1529 -0.5354
  677TMC3    C310013   2.861   3.195  11.707 -0.1928  0.0186  0.5064
  677TMC3    C410014   3.104   3.323  11.695  0.3628  0.5240 -0.4179
  677TMC3    C510015   3.007   3.353  11.782 -0.5493 -0.0865 -0.6869
  677TMC3    C610016   2.885   3.296  11.788 -0.1858 -0.1123 -0.1534
  677TMC3     C10017   3.160   3.205  11.498 -0.1393 -0.3619 -0.1388
  677TMC3     O10018   3.227   3.299  11.456  0.4799  0.3768 -0.5849
  677TMC3     H10019   2.912   3.095  11.523 -0.2200  1.7606 -1.7395
  677TMC3    H110020   3.200   3.372  11.679  0.5200 -0.0311 -1.1524
  677TMC3    H210021   2.806   3.321  11.858 -0.4381  2.3288 -1.3030
  677TMC3    C710022   3.049   3.412  11.904 -0.3834  0.8632 -0.1290
  677TMC3    C810023   2.729   3.134  11.710  0.2636  0.3312  0.0745
  677TMC3    O110024   2.984   3.384  12.003 -0.0483  0.3497 -0.4399
  677TMC3    O210025   2.671   3.142  11.602  0.5044 -0.1590 -0.4401
  678MPD2     C10026   3.312   2.562   1.735 -1.1151  0.3931 -0.3109
  678MPD2    C110027   3.340   2.585   1.601 -0.1187  0.0704  0.1076
  678MPD2    C210028   3.242   2.643   1.526  0.1676  0.3618  0.1852
  678MPD2    C310029   3.116   2.679   1.577 -0.5368  0.6190 -0.5033
  678MPD2    C410030   3.095   2.666   1.713  0.1297 -0.4011  0.0967
  678MPD2    C510031   3.189   2.608   1.782  0.6909  0.3409 -0.0050
  678MPD2     H10032   3.254   2.661   1.420 -0.6447  0.4459  0.1074
  678MPD2    H110033   3.004   2.697   1.764 -0.4011 -0.0219 -1.0622
  678MPD2    H210034   3.368   2.502   1.806 -0.3878  2.9774  1.3117
  678MPD2    H310035   3.182   2.591   1.889 -2.3153 -1.3973 -0.4809
  678MPD2     N10036   3.022   2.744   1.485 -0.1073 -0.7491  0.6418
  678MPD2    H510037   3.057   2.761   1.391  1.7086  1.2308  1.6827
  678MPD2    N110038   3.461   2.546   1.535  0.3966  0.7390  0.6261
  678MPD2    H710039   3.470   2.564   1.435  0.5057 -2.1691  0.1129
  679TMC3    C110040   3.888   2.347   1.487  0.2181  0.6627  0.4299
  679TMC3    C210041   3.768   2.347   1.550  0.0703  1.0112 -0.1262
  679TMC3    C310042   3.671   2.436   1.513  0.8338 -0.5511  0.2074
  679TMC3    C410043   3.918   2.421   1.381 -0.6717  0.7023  0.3331
  679TMC3    C510044   3.831   2.516   1.348  0.1649 -0.2015 -0.5886
  679TMC3    C610045   3.705   2.528   1.413  0.8214  0.5197 -0.9435
  679TMC3     C10046   3.981   2.243   1.514 -0.0827  0.8639  0.5264
  679TMC3     O10047   4.103   2.271   1.505 -0.6694  0.2102  0.0086
  679TMC3     H10048   3.747   2.287   1.638  3.8506  0.5574  0.4642
  679TMC3    H110049   4.023   2.419   1.353 -0.9335 -1.1112 -0.5451
  679TMC3    H210050   3.648   2.618   1.393 -1.4701 -0.3771  1.5036
  679TMC3    C710051   3.877   2.605   1.243 -0.2286 -0.0439 -0.0754
  679TMC3    C810052   3.556   2.466   1.595 -0.3010 -0.1826 -0.6008
  679TMC3    O110053   3.850   2.723   1.258  0.0372  0.1540 -0.0106
  679TMC3    O210054   3.572   2.438   1.713  0.0612 -0.2904  0.5556
  680MPD2     C10055   0.679   1.772  14.108 -0.0581 -0.2508 -0.1586
  680MPD2    C110056   0.563   1.714  14.079 -0.2973  0.2332 -0.5888
  680MPD2    C210057   0.451   1.769  14.131  0.3312 -0.7893  0.4153
  680MPD2    C310058   0.452   1.870  14.229 -0.2888  0.7528  0.2866
  680MPD2    C410059   0.579   1.920  14.266  0.1876  0.0304 -0.3928
  680MPD2    C510060   0.691   1.870  14.203  0.4843  0.2239 -0.4282
  680MPD2     H10061   0.358   1.729  14.093 -0.1337  1.2861 -0.6683
  680MPD2    H110062   0.587   1.995  14.343 -0.0757  1.0332 -1.3542
  680MPD2    H210063   0.770   1.742  14.058 -0.4923  0.0168 -1.1177
  680MPD2    H310064   0.787   1.913  14.231  1.3210 -1.4793 -0.6369
  680MPD2     N10065   0.342   1.928  14.298  0.3557  0.1108 -0.4553
  680MPD2    H510066   0.354   2.007  14.361 -0.2722 -0.2990  0.1776
  680MPD2    N110067   0.536   1.612  13.982 -0.7472  0.2167  0.3418
  680MPD2    H710068   0.439   1.591  13.963 -1.1512  4.3618 -2.2482
  681TMC3    C110069   0.597   1.419  13.847 -0.6638  0.5083 -0.0605
  681TMC3    C210070   0.459   1.394  13.831  0.4793 -0.2674  0.5038
  681TMC3    C310071   0.426   1.294  13.746 -0.7544 -0.1915 -0.3976
  681TMC3    C410072   0.697   1.358  13.785  0.2370  0.7909  0.5881
  681TMC3    C510073   0.658   1.267  13.703  0.0262  0.4651  0.5204
  681TMC3    C610074   0.525   1.235  13.672 -0.7511 -0.0752 -0.2274
  681TMC3     C10075   0.633   1.528  13.931 -0.1010  0.5901 -0.0293
  681TMC3     O10076   0.754   1.537  13.957  0.0502 -0.3684  0.1519
  681TMC3     H10077   0.379   1.448  13.880 -1.7096 -2.0976 -1.0987
  681TMC3    H110078   0.802   1.378  13.805  0.8409 -3.1541  1.4115
  681TMC3    H210079   0.505   1.149  13.609  1.6157  1.3542 -2.9251
  681TMC3    C710080   0.767   1.210  13.628  0.3299  0.5921  0.0242
  681TMC3    C810081   0.298   1.232  13.750  0.0293  0.0703  0.6883
  681TMC3    O110082   0.858   1.159  13.688  0.0564  0.1559 -0.5182
  681TMC3    O210083   0.275   1.131  13.687 -0.7937  0.2301 -0.1230
  682MPD2     C10084   2.237   3.409  10.462 -0.2423  0.0563 -0.0113
  682MPD2    C110085   2.213   3.273  10.482 -0.2349  0.1945  0.2227
  682MPD2    C210086   2.119   3.240  10.570  0.1765  0.1082  0.2680
  682MPD2    C310087   2.034   3.336  10.629 -0.6395  0.1247  0.1910
  682MPD2    C410088   2.061   3.466  10.614  0.2345 -0.2395  0.0319
  682MPD2    C510089   2.158   3.505  10.526  0.5554  0.2292  0.8293
  682MPD2     H10090   2.101   3.136  10.598 -0.7002  0.7771  2.2492
  682MPD2    H110091   2.001   3.539  10.668 -0.8123 -1.1566  0.1113
  682MPD2    H210092   2.302   3.449  10.385 -0.6620  1.2343  0.2463
  682MPD2    H310093   2.175   3.610  10.505  3.6834 -0.1897  1.1352
  682MPD2     N10094   1.932   3.298  10.719  0.3122  0.7611 -0.1094
  682MPD2    H510095   1.886   3.364  10.782 -2.1694 -0.0081 -1.1177
  682MPD2    N110096   2.287   3.165  10.427 -0.5832 -0.4343 -0.1331
  682MPD2    H710097   2.278   3.077  10.477 -1.0837 -1.0685 -1.3345
  683TMC3    C110098   1.810   3.052  11.067 -0.4854  0.6424  0.0369
  683TMC3    C210099   1.727   2.946  11.036  0.2644 -0.1416  0.7343
  683TMC3    C310100   1.689   2.935  10.908  0.4900 -0.0853  0.6733
  683TMC3    C410101   1.849   3.147  10.971 -0.0298  0.3585  0.0482
  683TMC3    C510102   1.805   3.127  10.841 -0.5354 -0.0742 -0.1266
  683TMC3    C610103   1.728   3.021  10.812  0.8596 -0.8950 -0.2360
  683TMC3     C10104   1.852   3.069  11.209  0.6626  0.2834 -0.0181
  683TMC3     O10105   1.885   3.180  11.239 -0.3983  0.0175  0.8487
  683TMC3     H10106   1.691   2.878  11.112  0.4964 -1.1386 -0.0601
  683TMC3    H110107   1.911   3.231  11.002 -2.4029  1.8600  0.7262
  683TMC3    H210108   1.683   3.017  10.714  2.6750  1.6616 -1.1943
  683TMC3    C710109   1.891   3.166  10.724  0.6318  0.8857  0.5098
  683TMC3    C810110   1.641   2.806  10.858  0.2828  0.9407 -0.1787
  683TMC3    O110111   1.897   3.079  10.637  0.2139 -0.4890 -0.1636
  683TMC3    O210112   1.579   2.809  10.751  0.4398  0.0886  0.2049
  684MPD2     C10113   4.329   2.371  16.213  0.0381 -0.4245 -1.2805
  684MPD2    C110114   4.434   2.424  16.142  0.0983  0.3440  0.3959
  684MPD2    C210115   4.510   2.527  16.190  0.1870 -0.3782  0.5294
  684MPD2    C310116   4.480   2.580  16.319 -0.2587  0.0688 -0.6270
  684MPD2    C410117   4.366   2.541  16.386  0.4857 -0.1113 -0.5381
  684MPD2    C510118   4.302   2.432  16.333 -0.5413 -0.0594 -0.8202
  684MPD2     H10119   4.574   2.576  16.117  0.3964 -2.3701 -0.6397
  684MPD2    H110120   4.324   2.584  16.476  0.2012 -0.9394 -0.2807
  684MPD2    H210121   4.261   2.295  16.178  2.2530 -2.4661 -1.1734
  684MPD2    H310122   4.217   2.387  16.383  0.1603 -3.2399 -2.4910
  684MPD2     N10123   4.557   2.691  16.374  0.1630 -0.0213  0.0335
  684MPD2    H510124   4.535   2.722  16.469  1.3815 -1.7339  0.8810
  684MPD2    N110125   4.474   2.373  16.015 -0.0199 -0.6333  0.1233
  684MPD2    H710126   4.552   2.416  15.966  1.1360 -1.2464  1.4202
  685TMC3    C110127   4.496   2.200  15.862  0.0940  0.5880 -0.6377
  685TMC3    C210128   4.435   2.129  15.763  0.2364  0.3156  0.2151
  685TMC3    C310129   4.504   2.033  15.699 -0.5719 -0.6756 -0.2792
  685TMC3    C410130   4.623   2.176  15.893  0.6027 -0.2032 -0.2737
  685TMC3    C510131   4.689   2.069  15.842  0.1102 -0.0406 -0.0990
  685TMC3    C610132   4.630   1.997  15.740  0.3682  0.5745  0.6244
  685TMC3     C10133   4.411   2.268  15.953  0.2617 -0.1046 -0.2678
  685TMC3     O10134   4.307   2.209  15.973  0.0644  0.0518 -0.2152
  685TMC3     H10135   4.335   2.158  15.734 -0.0574 -1.0413 -0.1097
  685TMC3    H110136   4.672   2.233  15.972  0.2339 -0.0252 -0.1713
  685TMC3    H210137   4.669   1.905  15.699 -1.0237  0.7695 -1.1478
  685TMC3    C710138   0.092   2.043  15.903 -0.4521 -0.2810 -0.0150
  685TMC3    C810139   4.426   1.921  15.644 -0.6776 -0.1848 -1.0644
  685TMC3    O110140   0.120   2.099  16.010 -0.2953  0.2099 -0.2442
  685TMC3    O210141   4.487   1.839  15.577 -0.0534  0.6030  0.7626
  686MPD2     C10142   1.480   2.648  15.570  0.1592 -0.2689  0.1406
  686MPD2    C110143   1.515   2.536  15.645 -0.2163  0.2837  0.0869
  686MPD2    C210144   1.643   2.536  15.701 -0.1345  0.1972 -1.0005
  686MPD2    C310145   1.739   2.624  15.652 -0.0719 -0.2769  0.0307
  686MPD2    C410146   1.700   2.734  15.569  0.0687 -0.0465 -0.4098
  686MPD2    C510147   1.572   2.745  15.531  0.0421 -0.3223 -0.3372
  686MPD2     H10148   1.682   2.461  15.768 -2.5885 -0.6210 -0.4874
  686MPD2    H110149   1.762   2.819  15.540  2.2230 -1.3008  0.5212
  686MPD2    H210150   1.375   2.654  15.544  0.5309 -0.7464 -1.4604
  686MPD2    H310151   1.533   2.833  15.481  1.6470  1.1900  1.0762
  686MPD2     N10152   1.874   2.603  15.689 -0.4745 -0.7520  1.3413
  686MPD2    H510153   1.897   2.536  15.762  1.7817 -0.2965  1.0465
  686MPD2    N110154   1.425   2.431  15.680 -0.3953  0.2086  0.2134
  686MPD2    H710155   1.331   2.439  15.643  0.5612  0.3678 -2.2227
  687TMC3    C110156   2.087   2.591  15.687 -0.0691 -0.0438  0.3401
  687TMC3    C210157   2.104   2.496  15.588 -0.1925 -0.2709  0.1357
  687TMC3    C310158   2.102   2.366  15.629 -0.1192 -0.2819  0.3862
  687TMC3    C410159   2.076   2.563  15.817  0.1996  0.4718  0.4989
  687TMC3    C510160   2.092   2.433  15.855 -0.2722 -0.6543 -0.2906
  687TMC3    C610161   2.096   2.327  15.764  0.1569 -0.5846  0.1505
  687TMC3     C10162   1.981   2.678  15.647 -0.4631  0.2317  0.2816
  687TMC3     O10163   1.993   2.772  15.573 -0.1829  0.1274  0.0132
  687TMC3     H10164   2.092   2.525  15.484 -1.5589 -0.5580  0.2073
  687TMC3    H110165   2.047   2.637  15.890 -0.6142  1.9625 -1.3734
  687TMC3    H210166   2.084   2.223  15.790 -3.4498 -0.8528 -2.6635
  687TMC3    C710167   2.056   2.414  15.992  0.0309 -0.7610  0.0750
  687TMC3    C810168   2.044   2.262  15.548  0.0402  0.7301  0.5544
  687TMC3    O110169   1.974   2.497  16.035  0.7132 -0.3417  0.4875
  687TMC3    O210170   2.055   2.144  15.590 -1.4441 -0.0883 -0.2094
  688MPD2     C10171   0.957   1.418  17.587  0.2061 -0.3775  0.1096
  688MPD2    C110172   0.884   1.309  17.619  0.5594 -0.1003  0.4171
  688MPD2    C210173   0.884   1.197  17.534 -0.5429  0.2244  0.1463
  688MPD2    C310174   0.960   1.201  17.419 -0.1166  0.1405 -0.3697
  688MPD2    C410175   1.041   1.307  17.395 -0.1321  0.0601 -0.4539
  688MPD2    C510176   1.044   1.416  17.482  0.9703 -0.4534  0.3721
  688MPD2     H10177   0.841   1.105  17.573  2.8584 -1.4131 -0.0001
  688MPD2    H110178   1.099   1.318  17.303 -0.8470 -1.3606 -1.0724
  688MPD2    H210179   0.960   1.506  17.650 -1.3310 -0.7314  0.6740
  688MPD2    H310180   1.108   1.498  17.453 -0.4376 -0.3504 -2.4245
  688MPD2     N10181   0.958   1.101  17.320  0.7404  0.1947  0.6630
  688MPD2    H510182   1.006   1.114  17.232 -1.2633  0.9139 -0.3246
  688MPD2    N110183   0.821   1.298   0.041 -0.1133 -0.1864 -0.8617
  688MPD2    H710184   0.765   1.214   0.051  0.2970 -0.2536  0.8262
  689TMC3    C110185   0.776   1.340   0.271 -0.0555  0.2196  0.8192
  689TMC3    C210186   0.703   1.421   0.348 -0.2651 -0.5587 -0.6340
  689TMC3    C310187   0.636   1.366   0.447  0.2127 -0.5362  0.6226
  689TMC3    C410188   0.787   1.207   0.290 -0.2050 -0.5059  0.4585
  689TMC3    C510189   0.714   1.149   0.391 -0.4708 -0.1186 -0.1843
  689TMC3    C610190   0.637   1.231   0.474 -0.0566 -0.2306  0.3458
  689TMC3     C10191   0.824   1.390   0.140  0.3515 -0.1761 -0.0648
  689TMC3     O10192   0.873   1.502   0.136 -0.4603  0.0201 -0.3083
  689TMC3     H10193   0.686   1.522   0.313  2.4186 -0.9842 -3.1928
  689TMC3    H110194   0.856   1.141   0.238 -0.1034 -0.3399  0.3839
  689TMC3    H210195   0.570   1.187   0.547 -0.2601 -1.6441 -0.7048
  689TMC3    C710196   0.759   1.025   0.446  0.3348 -0.3179 -0.5895
  689TMC3    C810197   0.579   1.456   0.545  0.8734 -0.2946  0.4579
  689TMC3    O110198   0.842   1.030   0.534  0.0984  0.3771  0.4187
  689TMC3    O210199   0.506   1.401   0.626 -0.0473 -0.2263 -0.0981
  690MPD2     C10200   3.012   3.211  15.864  0.2909 -0.2266 -0.6449
  690MPD2    C110201   2.932   3.222  15.756  0.5018 -0.0312  0.0777
  690MPD2    C210202   2.986   3.288  15.642 -0.2628 -0.2663 -0.3316
  690MPD2    C310203   3.111   3.343  15.638 -0.4536  0.5119 -0.0935
  690MPD2    C410204   3.190   3.332  15.751  0.4439 -0.3205 -0.4987
  690MPD2    C510205   3.136   3.272  15.861 -0.1044 -0.2800  0.0271
  690MPD2     H10206   2.914   3.303  15.561 -1.9325 -1.9459  0.8584
  690MPD2    H110207   3.293   3.363  15.760  0.4368 -0.0109 -1.5216
  690MPD2    H210208   2.977   3.149  15.945 -0.7733  0.6953 -0.4015
  690MPD2    H310209   3.204   3.263  15.945 -0.8903  0.1730  0.7133
  690MPD2     N10210   3.158   3.412  15.523  0.2668 -0.1880 -0.2273
  690MPD2    H510211   3.087   3.439  15.456  0.6676  0.3020 -0.4537
  690MPD2    N110212   2.804   3.160  15.748 -0.1695 -0.7459  0.7113
  690MPD2    H710213   2.755   3.158  15.659 -1.2659 -0.2366  1.3033
  691TMC3    C110214   2.628   3.016  15.789 -0.1609  0.0251 -0.3281
  691TMC3    C210215   2.502   3.015  15.846  0.4676 -0.0681 -0.0230
  691TMC3    C310216   2.428   2.902  15.829 -0.4802  0.3338 -0.3972
  691TMC3    C410217   2.666   2.907  15.719 -0.3573  0.3132 -0.4675
  691TMC3    C510218   2.583   2.792  15.698 -0.1798  0.6077 -0.1403
  691TMC3    C610219   2.465   2.797  15.759  0.1387 -0.1369 -0.0326
  691TMC3     C10220   2.734   3.098  15.844  0.0685  0.4622  0.2607
  691TMC3     O10221   2.744   3.107  15.965  0.4576  0.6590  0.2914
  691TMC3     H10222   2.473   3.095  15.913 -0.6775 -0.1422 -0.4175
  691TMC3    H110223   2.772   2.897  15.701 -0.2412  1.4294 -0.4223
  691TMC3    H210224   2.415   2.704  15.783  1.1238 -0.4812  0.6997
  691TMC3    C710225   2.639   2.661  15.669 -0.3738  0.3994  0.6416
  691TMC3    C810226   2.295   2.882  15.884  0.1647  0.2295 -0.1350
  691TMC3    O110227   2.761   2.658  15.667  0.0469 -0.4461 -0.1366
  691TMC3    O210228   2.259   2.769  15.922 -0.3527  0.2818 -0.1916
  692TMC3    C110229   4.644   4.038  15.863  0.1032 -0.0810  0.0758
  692TMC3    C210230   4.716   4.080  15.973 -0.4287  0.0658 -0.0275
  692TMC3    C310231   0.082   3.997  16.035 -1.1348 -0.2593 -0.1335
  692TMC3    C410232   4.654   3.908  15.816 -0.1389 -0.2435  0.2689
  692TMC3    C510233   0.020   3.832  15.886  0.4569  0.4988 -0.0444
  692TMC3    C610234   0.096   3.870  15.997  0.3404 -0.5524  0.4566
  692TMC3     C10235   4.507   4.099  15.860  0.0810 -0.5424  0.4241
  692TMC3     O10236   4.483   4.167  15.958  0.0557  0.7339  0.0830
  692TMC3     H10237   4.717   4.187  15.990  0.0762  0.2479 -1.2222
  692TMC3    H110238   4.594   3.863  15.738  1.7403 -0.3280 -1.1423
  692TMC3    H210239   0.178   3.814  16.042  1.5499  1.8377  1.2248
  692TMC3    C710240   0.060   3.709  15.823 -0.3899 -0.3868  0.1770
  692TMC3    C810241   0.085   4.002  16.179  0.2121  0.1571  0.4150
  692TMC3    O110242   0.110   3.713  15.715  0.2845  0.1783  0.0312
  692TMC3    O210243   0.145   3.915  16.240 -0.1917  0.6962  0.2615
  693MPD2     C10244   4.121   2.300  10.511 -0.0188  0.4337 -0.2853
  693MPD2    C110245   4.118   2.169  10.536  0.2658 -0.1180 -0.3635
  693MPD2    C210246   4.234   2.095  10.558 -0.2405 -0.4926  0.4499
  693MPD2    C310247   4.353   2.161  10.556 -0.1137 -0.4804 -1.1797
  693MPD2    C410248   4.355   2.294  10.528  0.3759 -0.5355  0.3742
  693MPD2    C510249   4.239   2.363  10.514  0.1981  0.6106  0.3247
  693MPD2     H10250   4.230   1.989  10.581 -0.0762 -0.4860  0.5086
  693MPD2    H110251   4.452   2.344  10.528 -0.3225  0.8217  0.7880
  693MPD2    H210252   4.027   2.353  10.501 -0.2070  0.5579  2.1814
  693MPD2    H310253   4.243   2.471  10.502 -1.8860  0.8556  1.8748
  693MPD2     N10254   4.476   2.102  10.583  0.3747 -0.3542 -0.1000
  693MPD2    H510255   4.556   2.164  10.595  0.7811 -0.9395  0.2364
  693MPD2    N110256   3.994   2.104  10.562 -0.3129  0.4113  0.5730
  693MPD2    H710257   3.907   2.156  10.575 -1.2974 -0.7991 -1.1226
  694TMC3    C110258   3.861   1.919  10.629 -0.1756  0.2638 -0.6830
  694TMC3    C210259   3.800   1.808  10.579 -0.0457  0.1254  0.7145
  694TMC3    C310260   3.704   1.750  10.662 -0.2384 -0.4290 -0.4768
  694TMC3    C410261   3.826   1.971  10.751 -0.1804  0.2704  0.5085
  694TMC3    C510262   3.737   1.903  10.830 -0.4248 -0.0795  0.6778
  694TMC3    C610263   3.672   1.791  10.787  0.4310 -0.1082  0.4066
  694TMC3     C10264   3.979   1.970  10.559 -0.2202 -0.0560  0.0293
  694TMC3     O10265   4.042   1.890  10.491 -0.0776 -0.6344 -0.0099
  694TMC3     H10266   3.835   1.754  10.492 -1.9038 -2.1498  1.3657
  694TMC3    H110267   3.862   2.068  10.784 -1.8785  0.9231  0.4473
  694TMC3    H210268   3.596   1.738  10.843 -0.9625  0.9837 -0.4522
  694TMC3    C710269   3.715   1.955  10.965  0.1897  0.2455 -0.0308
  694TMC3    C810270   3.606   1.656  10.612  0.5266 -0.7026 -1.0185
  694TMC3    O110271   3.771   2.061  11.001  0.9577  0.4238 -0.2563
  694TMC3    O210272   3.553   1.577  10.692 -0.4493  0.7455 -0.1046
  695MPD2     C10273   0.417   3.922  13.541  0.2764  0.5223 -0.1079
  695MPD2    C110274   0.454   3.978  13.661  0.2513 -0.2967  0.1499
  695MPD2    C210275   0.355   4.032  13.752 -0.0455  0.1668 -0.0236
  695MPD2    C310276   0.222   4.017  13.723 -1.4252 -0.2876 -0.3582
  695MPD2    C410277   0.192   3.959  13.601 -0.0697 -0.1401  0.1499
  695MPD2    C510278   0.285   3.916  13.507  0.3704  0.0250  0.0711
  695MPD2     H10279   0.383   4.065  13.851 -1.3681  2.4877 -0.4119
  695MPD2    H110280   0.090   3.940  13.568 -0.3238 -1.1505  1.5580
  695MPD2    H210281   0.495   3.908  13.467 -2.3855  0.7252 -2.9490
  695MPD2    H310282   0.244   3.874  13.416 -0.7446 -1.9949  1.5259
  695MPD2     N10283   0.122   4.069  13.809 -0.3660  0.1458  0.8814
  695MPD2    H510284   0.152   4.118  13.893 -1.4869 -0.3686  1.5845
  695MPD2    N110285   0.582   3.975  13.710 -0.3516  0.1889 -0.5950
  695MPD2    H710286   0.601   4.018  13.800  2.7243 -4.1785  0.8550
  696TMC3    C110287   4.636   4.134  13.889 -0.1046  0.4930  0.3536
  696TMC3    C210288   4.674   4.129  14.023 -0.0137  0.7005 -0.6823
  696TMC3    C310289   4.600   4.205  14.113  0.1473  0.7296  0.4100
  696TMC3    C410290   4.530   4.212  13.847 -0.0653 -0.5393  0.5578
  696TMC3    C510291   4.461   4.286  13.937 -0.7099  0.2586  0.0592
  696TMC3    C610292   4.496   4.280  14.072 -0.4643 -0.2642 -0.6371
  696TMC3     C10293   4.714   4.068  13.788 -0.3227  0.0877  0.3330
  696TMC3     O10294   4.653   4.045  13.684 -0.2311 -0.0649  0.3405
  696TMC3     H10295   0.028   4.066  14.060 -1.2961  0.0323  0.9318
  696TMC3    H110296   4.513   4.212  13.740 -1.6522 -0.5718  0.8071
  696TMC3    H210297   4.426   4.325  14.142  0.4188  0.4294 -0.1991
  696TMC3    C710298   4.364   4.372  13.875 -0.2110  0.2600 -0.2099
  696TMC3    C810299   4.630   4.206  14.256 -0.2101  0.8102  0.6516
  696TMC3    O110300   4.338   4.373  13.754 -0.2672 -0.0313  0.3085
  696TMC3    O210301   4.589   4.303  14.319  0.3727  0.2535 -0.0494
  697MPD2     C10302   3.885   0.876  15.734 -0.0454 -0.2504  0.3102
  697MPD2    C110303   3.832   0.865  15.609 -0.4140  0.3293 -0.3549
  697MPD2    C210304   3.824   0.977  15.520  0.7711  0.8933  0.3955
  697MPD2    C310305   3.872   1.098  15.567 -0.1757  0.0336 -0.4655
  697MPD2    C410306   3.927   1.102  15.694  0.2278  0.1724  0.6350
  697MPD2    C510307   3.926   0.994  15.785 -0.8605 -0.2267 -0.8274
  697MPD2     H10308   3.781   0.969  15.421  1.3357  0.2432  0.1932
  697MPD2    H110309   3.968   1.194  15.735  1.2597 -0.7839  1.7268
  697MPD2    H210310   3.904   0.783  15.786 -0.4690  0.2032  1.2714
  697MPD2    H310311   3.968   0.994  15.884  1.1903  2.5443 -1.7048
  697MPD2     N10312   3.865   1.214  15.490  1.0469  0.0534 -0.2082
  697MPD2    H510313   3.839   1.205  15.393 -1.7275  0.2721  0.5027
  697MPD2    N110314   3.781   0.738  15.569 -0.8681 -0.4543  0.0495
  697MPD2    H710315   3.755   0.723  15.473  2.2597 -0.7026 -0.7625
  698TMC3    C110316   3.935   1.438  15.460 -0.6223 -0.3449  0.0295
  698TMC3    C210317   3.927   1.571  15.503  0.2430 -0.0451 -1.1681
  698TMC3    C310318   4.005   1.656  15.437 -0.4295  0.0954 -0.8682
  698TMC3    C410319   3.986   1.409  15.338 -0.3594 -0.0666  0.3194
  698TMC3    C510320   4.039   1.508  15.257  0.7234  0.3185 -0.3172
  698TMC3    C610321   4.064   1.628  15.310 -0.0973  0.6286 -0.5184
  698TMC3     C10322   3.866   1.340  15.542  0.0492 -0.3671  0.3051
  698TMC3     O10323   3.842   1.378  15.656  0.4124  0.5492  0.3057
  698TMC3     H10324   3.880   1.592  15.598  0.1009 -1.2254 -0.9715
  698TMC3    H110325   3.980   1.306  15.303  1.6944 -0.1364  0.1308
  698TMC3    H210326   4.114   1.698  15.244  1.6957 -0.2553 -0.1014
  698TMC3    C710327   4.078   1.483  15.124 -0.7149 -0.2962  0.6586
  698TMC3    C810328   3.974   1.797  15.466  0.5074  0.1334 -0.7012
  698TMC3    O110329   4.061   1.568  15.037 -0.1699 -0.5048 -0.8043
  698TMC3    O210330   3.871   1.828  15.519  0.0672  0.2945  0.2829
  699TMC3    C110331   4.708   3.956  13.109  0.0619 -0.3020 -0.6090
  699TMC3    C210332   0.027   3.844  13.183  0.0806 -0.4608  0.5743
  699TMC3    C310333   4.697   3.832  13.310 -0.9135  0.3136 -0.4365
  699TMC3    C410334   4.633   4.057  13.166 -0.2326 -0.2710 -0.4630
  699TMC3    C510335   4.583   4.036  13.292  0.1565 -0.1451  0.2234
  699TMC3    C610336   4.614   3.925  13.365  1.0965 -0.2218 -0.0401
  699TMC3     C10337   0.035   3.989  12.979  0.6888  0.3363  0.1200
  699TMC3     O10338   0.003   4.096  12.933  0.0786 -0.1808  0.0684
  699TMC3     H10339   0.082   3.764  13.135 -1.1570  0.3971 -2.2969
  699TMC3    H110340   4.599   4.125  13.090  0.7197  0.2117 -0.4593
  699TMC3    H210341   4.572   3.903  13.463 -2.9362 -0.7907 -1.9218
  699TMC3    C710342   4.460   4.099  13.333 -0.1665 -0.0250 -0.2517
  699TMC3    C810343   4.680   3.702  13.372  0.3526 -0.1138 -0.2002
  699TMC3    O110344   4.387   4.046  13.417  0.5240  0.0022  0.7336
  699TMC3    O210345   4.571   3.686  13.428  0.4052 -0.8437 -0.0675
  700TMC3    C110346   3.379   1.269  17.446  0.9147 -0.4970 -0.1917
  700TMC3    C210347   3.490   1.187  17.440 -0.0360  0.0907 -0.6542
  700TMC3    C310348   3.551   1.148  17.558  0.8922 -0.1412  0.5232
  700TMC3    C410349   3.333   1.318  17.564  0.0914 -0.2593  0.1328
  700TMC3    C510350   3.399   1.278  17.676 -0.1249 -0.2349  0.1919
  700TMC3    C610351   3.509   1.195  17.676 -0.0858  0.3402  0.6616
  700TMC3     C10352   3.316   1.314  17.325 -0.1918 -0.0311 -0.1420
  700TMC3     O10353   3.201   1.277  17.304  0.2637 -0.3523 -0.4063
  700TMC3     H10354   3.534   1.174  17.342 -0.6109  0.0472 -0.9075
  700TMC3    H110355   3.236   1.365  17.562  1.3621  2.2971 -0.7629
  700TMC3    H210356   3.574   1.195   0.060  1.0905  0.6230 -0.2156
  700TMC3    C710357   3.416   1.391   0.062 -0.6527  0.3405 -0.3217
  700TMC3    C810358   3.694   1.110  17.541  0.2663 -0.0246 -0.0516
  700TMC3    O110359   3.535   1.414   0.100  0.1721  0.5467 -0.0310
  700TMC3    O210360   3.735   1.093  17.425  0.1374 -0.4576 -0.1227
  701TMC3    C110361   2.833   0.134  15.559 -0.5359  0.2677 -0.0241
  701TMC3    C210362   2.848   0.062  15.443 -0.3332  0.4291  0.2478
  701TMC3    C310363   2.934   0.108  15.346  0.5204 -0.3717  0.0562
  701TMC3    C410364   2.907   0.243  15.596  0.4510  0.5065  0.7573
  701TMC3    C510365   2.993   0.288  15.498  0.7969 -0.4548 -0.4246
  701TMC3    C610366   3.012   0.216  15.377  0.1157  1.0854 -0.2160
  701TMC3     C10367   2.721   0.092  15.650  0.2896  0.2869 -0.3054
  701TMC3     O10368   2.745   0.094  15.771  0.4652 -0.1808  0.4653
  701TMC3     H10369   2.780   4.705  15.427  2.2058 -1.6744  0.4562
  701TMC3    H110370   2.887   0.293  15.690 -0.4908  2.4022 -0.4533
  701TMC3    H210371   3.087   0.252  15.307  0.5227  1.1147  0.2377
  701TMC3    C710372   3.095   0.388  15.529  0.5332  0.0978  0.0496
  701TMC3    C810373   2.969   0.008  15.243 -0.3631 -0.2576 -0.3114
  701TMC3    O110374   3.160   0.438  15.437 -0.3588  0.4882  0.2410
  701TMC3    O210375   2.922   4.622  15.261 -0.1588 -0.1575  0.4172
  702MPD2     C10376   3.362   2.291  10.565  0.3155  0.2465  0.1416
  702MPD2    C110377   3.343   2.398  10.646 -0.3136  0.0370 -0.3119
  702MPD2    C210378   3.385   2.518  10.587  0.1642  0.1938 -0.0774
  702MPD2    C310379   3.434   2.533  10.459 -0.3109  0.2582  0.0557
  702MPD2    C410380   3.448   2.417  10.387 -0.2257 -0.3765  0.4690
  702MPD2    C510381   3.408   2.302  10.437 -0.0299  0.0533 -0.2252
  702MPD2     H10382   3.382   2.600  10.658  0.7173 -0.1363  0.3276
  702MPD2    H110383   3.478   2.422  10.283 -2.7632  0.1295 -0.2420
  702MPD2    H210384   3.311   2.201  10.598  0.7390  0.5816  1.7018
  702MPD2    H310385   3.412   2.219  10.368  0.1853  0.8766 -1.1967
  702MPD2     N10386   3.465   2.666  10.418 -1.2371  0.4400 -0.3450
  702MPD2    H510387   3.449   2.736  10.489 -0.4906 -0.0205  0.2876
  702MPD2    N110388   3.293   2.401  10.776  0.4272  0.3910  0.0098
  702MPD2    H710389   3.288   2.491  10.824  1.6632 -0.1921  1.2318
  703TMC3    C110390   3.567   2.837  10.283  0.0055 -0.2394  0.3104
  703TMC3    C210391   3.508   2.914  10.376  0.1053 -0.0341  0.7875
  703TMC3    C310392   3.568   3.035  10.406  0.7671  1.0263  0.4676
  703TMC3    C410393   3.689   2.868  10.216 -1.0521  0.0174  0.2898
  703TMC3    C510394   3.733   2.993  10.247 -0.1103  0.9956 -0.1832
  703TMC3    C610395   3.684   3.076  10.344 -0.7456  1.0138  0.2232
  703TMC3     C10396   3.534   2.698  10.303 -0.1571  0.3157  0.3041
  703TMC3     O10397   3.562   2.623  10.208 -0.1957  0.2806 -0.0848
  703TMC3     H10398   3.414   2.887  10.423 -1.2382  1.0915 -1.2751
  703TMC3    H110399   3.726   2.802  10.138 -1.9023 -2.1031  1.6986
  703TMC3    H210400   3.737   3.163  10.381  1.7295 -1.9180  3.5462
  703TMC3    C710401   3.871   3.019  10.192  0.2656  1.1650 -0.4511
  703TMC3    C810402   3.529   3.101  10.530 -0.0443  0.0709 -0.1615
  703TMC3    O110403   3.927   2.931  10.126 -0.1983  0.2696  0.3933
  703TMC3    O210404   3.622   3.132  10.603 -0.2772  0.4660 -0.0854
  704TMC3    C110405   0.293   0.574  12.333 -0.1210 -0.1588  0.0194
  704TMC3    C210406   0.370   0.684  12.363  0.3906 -0.5105  0.5326
  704TMC3    C310407   0.443   0.690  12.476  0.6966  0.0029 -0.5185
  704TMC3    C410408   0.274   0.475  12.423 -0.3394  0.2911 -0.0611
  704TMC3    C510409   0.347   0.481  12.542 -0.0535 -0.4071  0.6271
  704TMC3    C610410   0.425   0.588  12.571  0.6891 -0.7937 -0.6057
  704TMC3     C10411   0.265   0.547  12.193 -1.0737  0.4316  0.4186
  704TMC3     O10412   0.172   0.469  12.170 -0.0880 -0.3263 -0.2160
  704TMC3     H10413   0.371   0.771  12.298 -2.8554  0.6798  2.0496
  704TMC3    H110414   0.230   0.380  12.394  2.3281 -1.6488  2.1884
  704TMC3    H210415   0.478   0.582  12.666 -0.9588 -2.1429  0.2250
  704TMC3    C710416   0.402   0.362  12.599 -0.4540 -0.3006 -0.3224
  704TMC3    C810417   0.582   0.757  12.456  0.3995 -0.8753  0.5530
  704TMC3    O110418   0.522   0.361  12.599  0.2601  0.2185 -0.5588
  704TMC3    O210419   0.619   0.771  12.338  0.1585  0.0843  0.0572
  705MPD2     C10420   0.075   3.606  17.109  0.2616  0.3612 -0.0372
  705MPD2    C110421   0.069   3.744  17.100  0.4225 -0.1339 -0.6397
  705MPD2    C210422   4.704   3.809  17.183  0.3556 -0.1774 -0.0983
  705MPD2    C310423   4.619   3.739  17.267  0.5151  0.2353  0.0174
  705MPD2    C410424   4.637   3.602  17.281 -0.4505  0.0638 -0.5472
  705MPD2    C510425   4.720   3.535  17.197  0.7294 -0.5376  0.9559
  705MPD2     H10426   4.695   3.916  17.169  0.6210 -0.1591 -0.1162
  705MPD2    H110427   4.569   3.550  17.348 -1.2226  1.5666 -0.1620
  705MPD2    H210428   0.135   3.547  17.041 -0.1238  0.7405 -0.7165
  705MPD2    H310429   0.000   3.428  17.212 -2.7686 -0.2114  4.6417
  705MPD2     N10430   4.504   3.799  17.328  0.0166 -0.1302 -0.2789
  705MPD2    H510431   4.442   3.744  17.386  0.2195  0.7559  0.7688
  705MPD2    N110432   0.150   3.824  17.012  0.5548 -0.2848  0.4242
  705MPD2    H710433   0.141   3.925  17.014 -0.1174 -0.3466  0.4697
  706TMC3    C110434   0.443   3.920  16.654  0.0745  0.2580  0.2448
  706TMC3    C210435   0.388   4.035  16.636  0.0817  0.5478  1.1145
  706TMC3    C310436   0.288   4.077  16.719  0.2716 -0.5333 -0.6543
  706TMC3    C410437   0.408   3.838  16.762  0.1044 -0.1106  0.6352
  706TMC3    C510438   0.300   3.877  16.840  0.0608  0.1192  0.1964
  706TMC3    C610439   0.229   3.995  16.812 -1.1412 -0.2285  0.1821
  706TMC3     C10440   0.572   3.887  16.603  0.6637 -0.1706  0.1844
  706TMC3     O10441   0.639   3.810  16.673 -0.2427 -0.1576 -0.0059
  706TMC3     H10442   0.420   4.101  16.556  0.7159 -0.0613  0.8705
  706TMC3    H110443   0.435   3.733  16.765  0.1599 -0.1044  0.3170
  706TMC3    H210444   0.131   4.016  16.852 -0.6974  0.0541  1.1248
  706TMC3    C710445   0.236   3.773  16.918  0.2483 -0.4996  0.2283
  706TMC3    C810446   0.229   4.207  16.698  0.4118  0.3479 -0.0346
  706TMC3    O110447   0.259   3.657  16.882 -0.0950  0.0937 -0.3192
  706TMC3    O210448   0.279   4.278  16.609  0.7534 -0.4615  0.6710
  707TMC3    C110449   1.418   3.458   1.220 -0.4778  0.4007 -0.1531
  707TMC3    C210450   1.368   3.357   1.147  0.8341  0.2782  0.2555
  707TMC3    C310451   1.338   3.383   1.018 -0.4039 -0.2215  1.0343
  707TMC3    C410452   1.440   3.587   1.177  0.6381 -0.2434  0.2306
  707TMC3    C510453   1.413   3.609   1.044 -0.3123  0.3583 -0.0576
  707TMC3    C610454   1.358   3.508   0.964 -0.4544 -0.6940 -0.3466
  707TMC3     C10455   1.495   3.407   1.336 -0.0180 -0.6195 -0.1554
  707TMC3     O10456   1.502   3.285   1.351 -0.2710  0.4678 -0.1216
  707TMC3     H10457   1.364   3.254   1.182 -1.9603 -0.7348 -3.0556
  707TMC3    H110458   1.487   3.668   1.231 -3.7060  0.8762  2.3164
  707TMC3    H210459   1.314   3.532   0.868  0.0079  0.1754 -0.3293
  707TMC3    C710460   1.418   3.738   0.985  0.2237 -0.5430  0.0083
  707TMC3    C810461   1.334   3.277   0.910  0.6911  0.1305 -0.8058
  707TMC3    O110462   1.390   3.831   1.059  0.5552 -0.3289 -0.5704
  707TMC3    O210463   1.339   3.322   0.796  0.0997 -0.3689  0.3199
  708MPD2     C10464   3.268   1.820  14.455  0.0354  0.0177 -0.1757
  708MPD2    C110465   3.210   1.907  14.362  0.1770  0.2659 -0.2029
  708MPD2    C210466   3.221   2.042  14.389 -0.5381  0.3449  0.2281
  708MPD2    C310467   3.293   2.093  14.494 -0.1415  0.0457 -0.2739
  708MPD2    C410468   3.353   2.008  14.582  0.2487  0.4064 -0.3309
  708MPD2    C510469   3.347   1.870  14.559  0.5204 -1.0335  0.0991
  708MPD2     H10470   3.170   2.109  14.321  0.2218  2.7166  1.9665
  708MPD2    H110471   3.406   2.050  14.667 -1.9954 -0.2589  1.3842
  708MPD2    H210472   3.249   1.714  14.463  2.1689 -0.2126  1.6959
  708MPD2    H310473   3.400   1.812  14.633  1.7476  0.1538  0.1392
  708MPD2     N10474   3.297   2.230  14.532  0.0911 -0.3407 -0.2721
  708MPD2    H510475   3.345   2.263  14.615  1.4314 -1.8430 -0.4617
  708MPD2    N110476   3.123   1.873  14.254 -0.9217  0.2065  0.1704
  708MPD2    H710477   3.079   1.950  14.205  0.2277  1.2378  0.7498
  709TMC3    C110478   3.049   1.775  14.062  0.5612 -0.6186 -0.1975
  709TMC3    C210479   3.137   1.776  13.959 -0.1506  0.5411 -0.0772
  709TMC3    C310480   3.130   1.870  13.857 -0.0448 -0.0660 -0.3819
  709TMC3    C410481   2.955   1.878  14.066 -0.1776 -0.3706  0.7458
  709TMC3    C510482   2.968   1.981  13.973 -0.3775  0.1284 -0.2537
  709TMC3    C610483   3.043   1.973  13.863 -0.0511 -0.2593  0.7296
  709TMC3     C10484   3.117   1.754  14.190  0.2544 -0.0442 -1.3959
  709TMC3     O10485   3.183   1.652  14.198 -0.5388  0.6757 -0.3452
  709TMC3     H10486   3.223   1.710  13.950  1.0894  1.9587  1.5163
  709TMC3    H110487   2.893   1.891  14.154 -1.3849 -1.2699  0.0323
  709TMC3    H210488   3.044   2.055  13.791  1.0442 -0.9323 -0.0162
  709TMC3    C710489   2.974   2.113  14.034 -0.0287  0.4377  0.4121
  709TMC3    C810490   3.247   1.882  13.772 -0.7480  0.0506  0.5485
  709TMC3    O110491   2.991   2.117  14.153  0.3615 -0.3009 -0.1121
  709TMC3    O210492   3.357   1.848  13.816 -0.1794  0.7721 -0.3839
  710TMC3    C110493   4.052   3.386   0.850 -0.9826 -0.1805  0.5347
  710TMC3    C210494   4.135   3.376   0.734  0.5514 -0.4603 -0.7759
  710TMC3    C310495   4.190   3.255   0.700 -0.6807  0.5653  0.1907
  710TMC3    C410496   4.032   3.274   0.918 -0.2132 -0.7393 -0.7641
  710TMC3    C510497   4.082   3.158   0.876 -0.4484  0.0822 -0.4321
  710TMC3    C610498   4.168   3.143   0.774 -0.5551  0.1479 -0.2999
  710TMC3     C10499   3.982   3.511   0.867  0.2144 -0.1693  0.0073
  710TMC3     O10500   3.977   3.587   0.770 -0.3838 -0.5137 -0.2638
  710TMC3     H10501   4.174   3.465   0.685 -1.3196 -0.4825 -2.3073
  710TMC3    H110502   3.957   3.268   0.995  1.7855  1.0205  1.3253
  710TMC3    H210503   4.214   3.052   0.737 -0.4499  1.2002 -2.7369
  710TMC3    C710504   4.052   3.039   0.959  0.1918 -0.1983  0.2368
  710TMC3    C810505   4.268   3.244   0.581 -0.5277  0.7334  0.2363
  710TMC3    O110506   4.012   3.051   1.074  0.2802 -0.1058  0.4824
  710TMC3    O210507   4.356   3.159   0.582  0.2341 -0.3055  1.0493
  711TMC3    C110508   4.044   4.510  15.133 -0.6701  0.7819 -0.6434
  711TMC3    C210509   3.986   4.560  15.250 -0.2448  1.0226  0.6103
  711TMC3    C310510   4.046   4.526  15.368  0.8971 -0.2686 -0.3335
  711TMC3    C410511   4.150   4.421  15.138  0.4710 -0.1435 -0.2862
  711TMC3    C510512   4.187   4.377  15.263 -0.6385  0.5504  0.2871
  711TMC3    C610513   4.157   4.445  15.379 -0.3793  0.3133  0.0054
  711TMC3     C10514   3.956   4.518  15.012  0.1500 -0.4785 -0.1994
  711TMC3     O10515   3.837   4.509  15.037  0.4703 -0.3802 -0.1179
  711TMC3     H10516   3.898   4.623  15.244  0.4709  1.8041 -1.8817
  711TMC3    H110517   4.184   4.371  15.048  1.5929 -0.1711  0.1412
  711TMC3    H210518   4.193   4.422  15.479  0.9997  0.5824 -0.4217
  711TMC3    C710519   4.282   4.270  15.270 -0.4331  0.1056  0.0232
  711TMC3    C810520   3.984   4.563  15.498 -0.1074 -0.0231  0.5864
  711TMC3    O110521   4.349   4.280  15.371 -0.3629  0.2152 -0.0517
  711TMC3    O210522   3.863   4.544  15.516 -0.8292 -0.2091  0.1044
  712MPD2     C10523   1.227   0.708  13.752  0.2112  0.1088 -0.1037
  712MPD2    C110524   1.105   0.772  13.747  0.1629  0.1251  0.7247
  712MPD2    C210525   1.111   0.911  13.744 -0.3267  0.0166 -0.3793
  712MPD2    C310526   1.230   0.978  13.748 -0.5795 -0.3069 -0.0131
  712MPD2    C410527   1.350   0.912  13.768  0.3467 -0.2654 -0.2475
  712MPD2    C510528   1.344   0.779  13.765 -0.5104 -0.5129 -1.0823
  712MPD2     H10529   1.021   0.961  13.711 -1.0650 -0.1693  1.3772
  712MPD2    H110530   1.447   0.961  13.770  0.1162  0.2030 -0.5835
  712MPD2    H210531   1.243   0.602  13.740 -0.0828  0.1300 -0.6471
  712MPD2    H310532   1.439   0.727  13.772  0.4176  1.2628 -0.4031
  712MPD2     N10533   1.215   1.115  13.718 -0.3883  0.0779  0.2189
  712MPD2    H510534   1.123   1.157  13.712 -1.2312 -2.0442 -1.6660
  712MPD2    N110535   0.982   0.708  13.726 -0.2679  0.1222 -0.3236
  712MPD2    H710536   0.901   0.769  13.730 -1.0694 -1.2163  3.5104
  713TMC3    C110537   1.261   1.322  13.608 -0.4225  0.0741 -0.0596
  713TMC3    C210538   1.324   1.367  13.497 -0.1742 -0.8892  0.6024
  713TMC3    C310539   1.256   1.435  13.406  0.3436 -0.1224  0.2667
  713TMC3    C410540   1.122   1.350  13.613 -0.5571  0.3519  0.1278
  713TMC3    C510541   1.057   1.420  13.516 -0.1430 -0.0436 -0.3392
  713TMC3    C610542   1.124   1.461  13.403 -0.0446  0.0191 -0.8968
  713TMC3     C10543   1.314   1.204  13.668 -0.0182 -0.2128  0.2556
  713TMC3     O10544   1.435   1.182  13.656 -0.7027  0.7045  0.0901
  713TMC3     H10545   1.429   1.343  13.482  0.2570  2.0763 -1.2712
  713TMC3    H110546   1.076   1.321  13.707  1.4145 -1.0303  0.6690
  713TMC3    H210547   1.086   1.527  13.325 -0.7568  1.3307  0.5586
  713TMC3    C710548   0.959   1.515  13.566  0.1504  0.4152  0.5066
  713TMC3    C810549   1.311   1.498  13.287  0.0208  0.8264  0.6097
  713TMC3    O110550   0.963   1.536  13.687 -0.0194 -0.2613 -0.0794
  713TMC3    O210551   1.249   1.479  13.181  0.2467 -0.0571  0.6767
  714MPD2     C10552   2.818   0.020   1.463  0.3677  0.1842 -0.1361
  714MPD2    C110553   2.785   4.619   1.416 -0.8714  0.8016 -0.2587
  714MPD2    C210554   2.711   4.609   1.293  0.0990  0.2469  0.2664
  714MPD2    C310555   2.665   0.001   1.231 -0.1386  0.4051 -0.1869
  714MPD2    C410556   2.702   0.126   1.283  0.1978  0.6061 -0.1291
  714MPD2    C510557   2.783   0.128   1.388 -0.3989  0.2911  0.5131
  714MPD2     H10558   2.665   4.516   1.262 -0.4230  0.4284  0.5097
  714MPD2    H110559   2.657   0.216   1.245  0.5899 -0.0498 -2.1196
  714MPD2    H210560   2.878   0.036   1.552  0.6889 -0.7476 -0.1854
  714MPD2    H310561   2.821   0.221   1.429  3.2218 -0.9516 -0.0565
  714MPD2     N10562   2.590   4.714   1.111 -0.3763 -0.0506 -0.2059
  714MPD2    H510563   2.570   4.616   1.093 -0.2424  0.0134 -0.6976
  714MPD2    N110564   2.831   4.511   1.489 -0.5643  0.3481  0.0627
  714MPD2    H710565   2.890   4.525   1.570  0.3585 -0.6272 -0.4418
  715TMC3    C110566   2.903   4.297   1.546 -0.6007 -0.2622 -0.1352
  715TMC3    C210567   2.881   4.163   1.540  0.2430  0.1037 -0.4679
  715TMC3    C310568   2.946   4.089   1.630  0.4064 -0.1179 -0.4571
  715TMC3    C410569   2.986   4.359   1.635 -0.1065  0.0307  0.3445
  715TMC3    C510570   3.052   4.277   1.727  0.0497 -0.1524  0.1101
  715TMC3    C610571   3.034   4.141   1.721 -0.2600  0.2356 -0.6420
  715TMC3     C10572   2.820   4.380   1.462  0.4629  0.6345 -0.2292
  715TMC3     O10573   2.757   4.316   1.380 -0.1530 -0.8686  0.3159
  715TMC3     H10574   2.833   4.108   1.460 -0.6683  0.5501 -0.2214
  715TMC3    H110575   3.039   4.451   1.615  0.8541 -0.8657 -1.2386
  715TMC3    H210576   3.094   4.078   1.786 -1.7720 -0.2082  0.3291
  715TMC3    C710577   3.166   4.333   1.802  0.0579 -0.1621  0.4368
  715TMC3    C810578   2.947   3.949   1.607 -0.0413 -0.0877 -0.2401
  715TMC3    O110579   3.241   4.245   1.843  0.5860  0.0943 -0.2881
  715TMC3    O210580   2.934   3.908   1.490  0.4366 -0.9526  0.3360
  716MPD2     C10581   3.321   2.274   9.918  0.4687 -0.0622  0.0829
  716MPD2    C110582   3.218   2.200   9.867 -0.5222 -0.2704  0.5710
  716MPD2    C210583   3.240   2.064   9.859  0.3327  0.5441 -0.4484
  716MPD2    C310584   3.348   2.005   9.925 -0.1613 -0.0108 -0.2219
  716MPD2    C410585   3.448   2.086   9.981  0.2006 -0.4461 -0.8292
  716MPD2    C510586   3.435   2.222   9.970 -0.2356 -0.6426  0.7688
  716MPD2     H10587   3.164   2.009   9.804  0.0374  1.4741 -0.9739
  716MPD2    H110588   3.538   2.049  10.030 -0.7315 -1.0818  0.3818
  716MPD2    H210589   3.311   2.381   9.933  0.0029  0.2050 -2.1880
  716MPD2    H310590   3.505   2.284  10.025 -1.0447  1.8207 -0.9406
  716MPD2     N10591   3.369   1.870   9.900  0.1417  0.0602 -0.1828
  716MPD2    H510592   3.285   1.823   9.868  0.0683 -0.3215  0.5505
  716MPD2    N110593   3.103   2.265   9.817  0.6151  0.0307 -0.3075
  716MPD2    H710594   3.109   2.367   9.817 -0.9990  0.1145 -0.4062
  717TMC3    C110595   3.463   1.655   9.889 -0.1833 -0.0462 -0.7024
  717TMC3    C210596   3.366   1.630   9.802  0.0689  0.1158 -0.1445
  717TMC3    C310597   3.337   1.499   9.778 -0.4079  0.5526 -0.1022
  717TMC3    C410598   3.534   1.558   9.959  0.3936  0.4371  0.1944
  717TMC3    C510599   3.499   1.431   9.930 -0.5450 -0.1222 -0.2032
  717TMC3    C610600   3.400   1.397   9.840  0.1096  0.3678  0.3337
  717TMC3     C10601   3.482   1.792   9.922 -0.4690 -0.8296 -0.0552
  717TMC3     O10602   3.576   1.825   9.993 -0.1751 -0.6602  0.1912
  717TMC3     H10603   3.309   1.709   9.755 -1.2451 -1.3295 -1.0016
  717TMC3    H110604   3.597   1.575  10.045  1.2899 -0.2874 -0.3198
  717TMC3    H210605   3.362   1.296   9.823  0.3241  0.3627 -0.0902
  717TMC3    C710606   3.533   1.325  10.020 -0.4494 -0.1583  0.1023
  717TMC3    C810607   3.252   1.471   9.662  0.0106  0.6814 -1.3867
  717TMC3    O110608   3.580   1.368  10.124 -0.5953 -0.3548  0.1700
  717TMC3    O210609   3.197   1.567   9.615  0.1801 -0.1682 -0.4272
  718MPD2     C10610   2.122   1.287  13.024  0.8570 -0.0267  0.2735
  718MPD2    C110611   2.218   1.228  12.943  0.0253 -0.1992 -0.3110
  718MPD2    C210612   2.298   1.132  12.995 -0.0852  0.0027  1.1283
  718MPD2    C310613   2.272   1.084  13.121 -0.3868 -0.2480 -0.2244
  718MPD2    C410614   2.192   1.150  13.208 -0.2837  0.4183  0.5421
  718MPD2    C510615   2.113   1.252  13.153 -0.0256 -0.2137  0.0584
  718MPD2     H10616   2.359   1.069  12.931 -0.2981 -0.2000  1.1252
  718MPD2    H110617   2.180   1.121  13.312 -2.1584  0.5088  0.3518
  718MPD2    H210618   2.051   1.361  12.990  1.8414 -0.3801 -2.5107
  718MPD2    H310619   2.043   1.304  13.217 -0.4862  1.0367 -1.4651
  718MPD2     N10620   2.336   0.967  13.156  0.1904 -0.2790  0.3048
  718MPD2    H510621   2.394   0.924  13.085 -1.3404  0.5891 -1.4870
  718MPD2    N110622   2.233   1.266  12.807  0.1117  0.0032 -0.3416
  718MPD2    H710623   2.157   1.312  12.759 -0.7921 -0.2196  0.8933
  719TMC3    C110624   2.334   1.258  12.585  0.3608 -0.3463 -0.5557
  719TMC3    C210625   2.362   1.147  12.517  1.1078  0.0026 -0.1139
  719TMC3    C310626   2.455   1.147  12.416  0.2802 -0.1043 -0.1506
  719TMC3    C410627   2.387   1.381  12.552 -0.2281 -0.6361 -0.0589
  719TMC3    C510628   2.476   1.385  12.453 -0.0640 -0.4220 -0.5222
  719TMC3    C610629   2.506   1.267  12.381 -0.2699  0.8402 -0.8769
  719TMC3     C10630   2.335   1.225  12.724 -0.5671 -0.1312  0.1918
  719TMC3     O10631   2.439   1.159  12.747 -0.2281 -0.4655  0.1615
  719TMC3     H10632   2.322   1.052  12.551 -0.2206  0.0842 -1.4227
  719TMC3    H110633   2.373   1.462  12.623  1.0997 -2.0382  1.8080
  719TMC3    H210634   2.582   1.263  12.304 -0.6985 -0.5175 -1.2323
  719TMC3    C710635   2.567   1.498  12.437 -1.3209  0.1207  0.1466
  719TMC3    C810636   2.565   1.053  12.432  0.3563 -0.6285 -0.5149
  719TMC3    O110637   2.669   1.479  12.372 -0.2437 -0.3246 -0.4749
  719TMC3    O210638   2.642   1.025  12.336  0.5587  0.0668 -0.3379
  720MPD2     C10639   0.801   2.614  13.539  0.2552 -1.0695 -0.4411
  720MPD2    C110640   0.795   2.748  13.582  0.2840 -0.8637 -0.7794
  720MPD2    C210641   0.874   2.786  13.688  0.4486 -0.3474 -0.8134
  720MPD2    C310642   0.964   2.699  13.746  0.0848 -0.0758  0.5803
  720MPD2    C410643   0.982   2.571  13.692  0.1927  0.2012  0.3393
  720MPD2    C510644   0.892   2.533  13.592  0.2237 -0.2166 -0.9122
  720MPD2     H10645   0.874   2.889  13.722 -0.2876 -0.9112  0.8885
  720MPD2    H110646   1.051   2.495  13.726  0.2139  0.0313 -0.0886
  720MPD2    H210647   0.746   2.580  13.452  0.9362  0.9887 -1.6711
  720MPD2    H310648   0.885   2.429  13.560 -2.1912 -0.3175 -0.1016
  720MPD2     N10649   1.047   2.748  13.850  0.2588  0.1156 -0.7796
  720MPD2    H510650   1.034   2.844  13.881 -0.1130 -0.2742  0.2790
  720MPD2    N110651   0.715   2.846  13.519  0.4632 -0.5876 -1.0241
  720MPD2    H710652   0.744   2.943  13.530  1.5542 -0.8606 -1.5284
  721TMC3    C110653   1.234   2.760  14.000 -0.4529  0.1830  0.3761
  721TMC3    C210654   1.166   2.828  14.096 -0.6665  0.3733  0.1543
  721TMC3    C310655   1.227   2.860  14.216 -0.0541  0.4870 -0.2907
  721TMC3    C410656   1.367   2.723  14.020  0.1103 -0.0092 -0.9777
  721TMC3    C510657   1.421   2.761  14.142 -0.5476  0.9018 -0.0110
  721TMC3    C610658   1.353   2.814  14.246 -0.4088 -0.7541  0.2278
  721TMC3     C10659   1.165   2.690  13.892  0.7682 -0.3004 -0.2818
  721TMC3     O10660   1.211   2.578  13.871 -0.1195  0.2300 -0.1073
  721TMC3     H10661   1.066   2.862  14.074  0.1626  1.2742 -2.2957
  721TMC3    H110662   1.429   2.676  13.945  1.4737  1.9936 -1.1036
  721TMC3    H210663   1.409   2.839  14.336 -2.3499  2.6133  0.5121
  721TMC3    C710664   1.565   2.777  14.143 -0.4613 -0.6056 -0.2885
  721TMC3    C810665   1.160   2.943  14.312  0.0056  0.3134 -0.8702
  721TMC3    O110666   1.616   2.803  14.038  0.4661  0.9737 -0.1215
  721TMC3    O210667   1.060   3.005  14.275 -0.3664 -0.5594  0.1646
  722MPD2     C10668   4.631   1.347  13.147  0.2910  0.0336  0.7285
  722MPD2    C110669   4.598   1.474  13.099  0.2005 -0.0758  0.4425
  722MPD2    C210670   4.470   1.517  13.090  0.2332  0.0218  0.4673
  722MPD2    C310671   4.369   1.436  13.121  0.1258  0.5647 -0.3337
  722MPD2    C410672   4.393   1.320  13.188  0.3531  0.1993  0.1214
  722MPD2    C510673   4.522   1.272  13.198 -0.3592  0.0638 -0.1864
  722MPD2     H10674   4.448   1.619  13.058 -0.5966 -0.4013 -0.3150
  722MPD2    H110675   4.315   1.256  13.230 -0.3860 -0.1042 -1.7113
  722MPD2    H210676   0.009   1.318  13.167 -0.3777 -2.0999  1.0935
  722MPD2    H310677   4.543   1.169  13.225  1.1263  0.9268  1.9511
  722MPD2     N10678   4.236   1.489  13.103  0.4920  0.0383  0.3824
  722MPD2    H510679   4.215   1.585  13.078 -1.0162 -0.0456  1.3647
  722MPD2    N110680   4.709   1.572  13.078  0.2287  0.7849 -0.5089
  722MPD2    H710681   4.670   1.663  13.056  0.2209  0.6008 -1.2617
  723TMC3    C110682   4.001   1.477  13.066  0.3757  0.1368 -0.2595
  723TMC3    C210683   3.913   1.390  13.015 -0.3397 -0.1925 -0.0070
  723TMC3    C310684   3.797   1.445  12.970 -0.1070  1.1776  0.6205
  723TMC3    C410685   3.977   1.611  13.065  0.1736 -0.1926 -0.0174
  723TMC3    C510686   3.865   1.659  13.014  0.1656  0.2556  0.3330
  723TMC3    C610687   3.766   1.576  12.964  0.1369 -0.2638 -0.3080
  723TMC3     C10688   4.121   1.416  13.123  0.1114 -0.0399  0.6602
  723TMC3     O10689   4.112   1.297  13.154 -0.3101 -0.4919 -0.3252
  723TMC3     H10690   3.924   1.283  13.000 -0.8145 -0.4382  1.3977
  723TMC3    H110691   4.036   1.686  13.115 -1.5489  2.1668 -1.5477
  723TMC3    H210692   3.665   1.612  12.949 -0.6249 -2.0483  0.4874
  723TMC3    C710693   3.842   1.800  13.004  0.5568  0.0094 -0.4422
  723TMC3    C810694   3.687   1.354  12.943 -0.1090  0.2144 -0.0536
  723TMC3    O110695   3.915   1.871  13.075 -0.3822  0.1870  0.1318
  723TMC3    O210696   3.568   1.394  12.948 -0.0028 -0.7868  0.5035
  724TMC3    C110697   4.377   3.553   9.753  0.3515 -0.2579 -0.7708
  724TMC3    C210698   4.339   3.656   9.830 -0.2575 -0.3770  0.4424
  724TMC3    C310699   4.433   3.754   9.853 -0.5213 -0.4256 -0.3832
  724TMC3    C410700   4.508   3.539   9.704  0.3051  0.2749  0.5087
  724TMC3    C510701   4.598   3.637   9.742  0.1173 -0.4086  0.0023
  724TMC3    C610702   4.564   3.742   9.826  0.8704  0.7406 -0.6307
  724TMC3     C10703   4.289   3.431   9.747  0.0680 -0.3018  1.2164
  724TMC3     O10704   4.348   3.325   9.734 -0.7201  0.5961 -0.0751
  724TMC3     H10705   4.233   3.674   9.840 -0.0222  0.6000  1.2675
  724TMC3    H110706   4.549   3.452   9.655 -1.7887 -0.8852  0.8282
  724TMC3    H210707   4.636   3.820   9.848  0.1899  1.4523 -0.9314
  724TMC3    C710708   4.725   3.642   9.679 -1.1105  0.4729  0.5266
  724TMC3    C810709   4.390   3.878   9.909  0.4105  0.3233 -0.7995
  724TMC3    O110710   0.086   3.692   9.747 -0.5240  0.2118  0.2369
  724TMC3    O210711   4.283   3.878   9.969  0.1692 -0.1768 -0.2543
  725TMC3    C110712   1.488   2.800  13.027 -0.1391 -0.1211  0.0757
  725TMC3    C210713   1.355   2.815  12.998 -0.1859 -0.2147 -0.2913
  725TMC3    C310714   1.316   2.791  12.868  0.0471  0.3577  0.4962
  725TMC3    C410715   1.585   2.753  12.951 -0.4393 -0.0628  0.2792
  725TMC3    C510716   1.538   2.714  12.829  0.2776  0.0279  0.1704
  725TMC3    C610717   1.414   2.735  12.785  0.4704 -0.3107 -0.1267
  725TMC3     C10718   1.527   2.845  13.159  0.4465 -0.4077  0.0342
  725TMC3     O10719   1.632   2.905  13.176  0.5829  0.0964  0.4750
  725TMC3     H10720   1.282   2.859  13.066  0.3892 -1.6993  1.2939
  725TMC3    H110721   1.684   2.737  12.991 -0.7492  2.5661  2.1322
  725TMC3    H210722   1.400   2.724  12.678  1.9022 -0.5219 -0.2950
  725TMC3    C710723   1.636   2.649  12.735 -0.5324  0.1217 -0.2657
  725TMC3    C810724   1.217   2.878  12.801  0.4006 -0.7590  0.8520
  725TMC3    O110725   1.591   2.626  12.624 -0.2448 -0.7254  0.4564
  725TMC3    O210726   1.120   2.922  12.865 -0.0054  0.1626  0.1749
  726MPD2     C10727   4.656   4.570  10.842 -0.1929  0.6808  0.2156
  726MPD2    C110728   4.571   4.671  10.800  0.8086 -0.4294 -0.7330
  726MPD2    C210729   4.433   4.643  10.810  0.1988  0.3828  0.0561
  726MPD2    C310730   4.392   4.534  10.890 -0.5474  0.4729 -0.0032
  726MPD2    C410731   4.482   4.442  10.939  0.2938 -1.0673 -0.2376
  726MPD2    C510732   4.611   4.455  10.907  0.3624  0.3827  0.5763
  726MPD2     H10733   4.358   4.714  10.777 -1.1260 -0.3638  1.5044
  726MPD2    H110734   4.450   4.354  10.994 -0.0847 -0.2312  0.8948
  726MPD2    H210735   0.036   4.577  10.821 -0.0020  0.2973  1.0233
  726MPD2    H310736   4.675   4.377  10.945 -0.1520 -1.0880 -1.5506
  726MPD2     N10737   4.255   4.509  10.926 -1.0822 -0.0938  0.3684
  726MPD2    H510738   4.241   4.445  11.004  1.0172 -0.8416  0.1259
  726MPD2    N110739   4.609   0.067  10.740 -0.3404  0.0469 -0.1905
  726MPD2    H710740   4.538   0.131  10.706 -1.4835 -0.5075  1.1495
  727TMC3    C110741   0.025   0.233  10.643  0.0843 -0.4919  0.3795
  727TMC3    C210742   0.150   0.256  10.600  0.1998  0.1547 -0.2204
  727TMC3    C310743   0.188   0.378  10.565  0.7318 -0.6921  0.5475
  727TMC3    C410744   4.651   0.331  10.652  0.5182 -0.1885  0.0074
  727TMC3    C510745   4.694   0.456  10.607  0.1938 -0.2435 -0.0882
  727TMC3    C610746   0.096   0.482  10.555  0.2200 -0.0586  0.1715
  727TMC3     C10747   0.014   0.115  10.726 -0.1751  0.2523 -0.2815
  727TMC3     O10748   0.121   0.067  10.766  0.3141 -0.4709  0.3154
  727TMC3     H10749   0.221   0.175  10.590 -3.2470 -3.0019  0.9874
  727TMC3    H110750   4.552   0.323  10.695  0.2756  1.7785 -0.2042
  727TMC3    H210751   0.125   0.581  10.522 -1.6640  0.5257  0.2533
  727TMC3    C710752   4.610   0.574  10.631 -0.2453  0.5167  0.3963
  727TMC3    C810753   0.301   0.376  10.479  0.5704  0.1470 -0.0930
  727TMC3    O110754   4.493   0.547  10.652 -0.1137 -0.5383  0.1367
  727TMC3    O210755   0.340   0.265  10.440 -0.4370  0.1131 -0.5278
  728TMC3    C110756   3.310   3.558  15.394 -0.0792 -0.1694  0.4277
  728TMC3    C210757   3.417   3.641  15.410 -0.4361  0.3040  0.0821
  728TMC3    C310758   3.438   3.740  15.314 -0.1240 -0.2284  0.1981
  728TMC3    C410759   3.220   3.569  15.286  0.1799  0.0035 -0.7752
  728TMC3    C510760   3.241   3.674  15.201  0.2023 -0.1406  0.1879
  728TMC3    C610761   3.344   3.763  15.214  0.9005 -0.8148 -0.2081
  728TMC3     C10762   3.289   3.455  15.504  0.1553 -0.1751 -0.7081
  728TMC3     O10763   3.395   3.440  15.568 -0.7338 -0.0132  0.0947
  728TMC3     H10764   3.487   3.630  15.491 -0.1969 -0.5242 -0.2439
  728TMC3    H110765   3.141   3.495  15.284  1.0297 -0.9501  0.4984
  728TMC3    H210766   3.363   3.837  15.137 -2.6171  1.0543  0.6706
  728TMC3    C710767   3.178   3.671  15.068 -0.4064  0.5826  0.7576
  728TMC3    C810768   3.548   3.838  15.335  0.0014 -0.6748 -0.1925
  728TMC3    O110769   3.119   3.567  15.040 -0.2866 -0.5467 -0.6448
  728TMC3    O210770   3.604   3.839  15.444 -0.9505  0.2646 -0.0201
  729MPD2     C10771   0.196   4.547  17.178 -0.1041  0.2951  0.1180
  729MPD2    C110772   0.308   4.536  17.104 -0.3872 -0.5552  0.1406
  729MPD2    C210773   0.422   4.495  17.173 -0.0992 -0.3504  0.7735
  729MPD2    C310774   0.421   4.478  17.315  0.2790 -0.6036  0.4406
  729MPD2    C410775   0.307   4.511  17.386  0.0029  0.1782  0.1314
  729MPD2    C510776   0.191   4.534  17.314 -0.1635 -0.0111 -0.5337
  729MPD2     H10777   0.517   4.489  17.122 -0.5476  0.5140 -0.1519
  729MPD2    H110778   0.293   4.513  17.493  0.9912  0.7183  0.2482
  729MPD2    H210779   0.107   4.564  17.119  0.7259  1.0612 -0.8967
  729MPD2    H310780   0.093   4.548  17.359 -0.6841 -1.1047 -1.3150
  729MPD2     N10781   0.533   4.438  17.385 -0.0514 -0.7520  0.0833
  729MPD2    H510782   0.535   4.454  17.485 -2.5345 -0.6197  0.1243
  729MPD2    N110783   0.305   4.546  16.959  0.0610  0.3998  0.3587
  729MPD2    H710784   0.217   4.577  16.919  0.5680  0.5405 -0.6349
  730TMC3    C110785   0.766   4.457  17.404 -0.6266  0.0358  0.1799
  730TMC3    C210786   0.863   4.471  17.314 -0.7005  0.7327  0.1598
  730TMC3    C310787   0.933   4.582  17.318  0.2977 -0.0703 -0.6598
  730TMC3    C410788   0.736   4.550  17.494 -0.8367 -0.1219 -0.1699
  730TMC3    C510789   0.809   4.665  17.492  0.0864 -0.3354 -0.2564
  730TMC3    C610790   0.914   4.676  17.408 -0.1863 -0.3070 -0.2929
  730TMC3     C10791   0.653   4.413  17.325 -0.1985 -0.2245  0.3803
  730TMC3     O10792   0.678   4.355  17.218 -0.2856  0.0597  0.0535
  730TMC3     H10793   0.900   4.386  17.257  1.4675  0.6391  1.7337
  730TMC3    H110794   0.648   4.544  17.558 -0.8699 -0.2365 -0.2264
  730TMC3    H210795   0.959   0.049  17.402 -0.1102 -0.2495  1.1345
  730TMC3    C710796   0.731   0.055  17.529 -0.8019 -0.8275 -0.2662
  730TMC3    C810797   0.980   4.620  17.187  0.1480  0.1747 -0.5264
  730TMC3    O110798   0.613   0.047  17.504  0.4986  0.2003 -0.6026
  730TMC3    O210799   0.933   4.559  17.094 -0.1459  0.3019 -0.1402
  731MPD2     C10800   1.256   2.886  11.830 -0.1235 -0.0718 -0.4838
  731MPD2    C110801   1.133   2.845  11.790 -0.0546 -0.0263 -0.1230
  731MPD2    C210802   1.027   2.893  11.855 -0.2175 -0.6618  0.5699
  731MPD2    C310803   1.035   2.976  11.961  0.2554 -0.4376 -0.4907
  731MPD2    C410804   1.153   3.028  11.998 -0.6784 -0.4848  0.5725
  731MPD2    C510805   1.262   2.982  11.930  0.2569  0.2801 -0.0608
  731MPD2     H10806   0.929   2.871  11.812  0.7467 -0.0192 -1.9553
  731MPD2    H110807   1.174   3.096  12.080 -0.3793  1.3810 -1.0373
  731MPD2    H210808   1.352   2.864  11.785  0.5933 -2.2981  2.1013
  731MPD2    H310809   1.357   3.028  11.955  0.8585 -2.2820  2.3341
  731MPD2     N10810   0.911   2.987  12.032 -0.7364  0.2707  0.6848
  731MPD2    H510811   0.829   2.938  11.998 -0.5780 -1.2359  2.5315
  731MPD2    N110812   1.122   2.762  11.676 -0.1539  0.1566  0.7890
  731MPD2    H710813   1.204   2.716  11.639 -0.5910  0.3350 -0.4157
  732TMC3    C110814   1.010   2.605  11.535 -0.0897 -0.5261 -0.8817
  732TMC3    C210815   0.903   2.520  11.551 -0.4873 -0.4039  0.1667
  732TMC3    C310816   0.915   2.388  11.509  0.0054  0.6971 -0.0935
  732TMC3    C410817   1.125   2.564  11.476  1.1656  0.4134  0.3198
  732TMC3    C510818   1.129   2.435  11.436  0.4574  0.0117 -0.7472
  732TMC3    C610819   1.026   2.347  11.446  0.0318  0.1169 -0.0348
  732TMC3     C10820   1.001   2.732  11.606 -0.4919 -0.1347  0.1225
  732TMC3     O10821   0.893   2.774  11.631  0.5298 -0.8431  0.0389
  732TMC3     H10822   0.818   2.551  11.612 -0.5850  1.2737 -0.8174
  732TMC3    H110823   1.208   2.630  11.453 -0.3293  2.3380  0.4161
  732TMC3    H210824   1.034   2.248  11.403 -1.0076  0.2323 -0.4810
  732TMC3    C710825   1.263   2.391  11.403 -0.2330  0.2026  0.0028
  732TMC3    C810826   0.815   2.290  11.557 -0.1395  0.3330  0.5393
  732TMC3    O110827   1.267   2.304  11.312  0.0860 -0.5850  0.2984
  732TMC3    O210828   0.836   2.174  11.519  0.1882  0.2744 -0.8608
  733TMC3    C110829   2.404   0.525  13.230  0.0688 -0.4132  0.5705
  733TMC3    C210830   2.340   0.640  13.264  0.4810  0.1442  0.1794
  733TMC3    C310831   2.393   0.765  13.230  0.2560  0.4731 -0.0608
  733TMC3    C410832   2.522   0.528  13.163  0.2937 -0.7954 -0.0488
  733TMC3    C510833   2.564   0.653  13.128 -0.6045  0.1800  0.0306
  733TMC3    C610834   2.513   0.777  13.165 -0.0384  0.0895 -0.4738
  733TMC3     C10835   2.335   0.401  13.216  0.7340 -0.2125  0.3359
  733TMC3     O10836   2.391   0.295  13.191  0.0170  0.4334 -0.5205
  733TMC3     H10837   2.248   0.628  13.319 -0.1843  1.1481 -0.7224
  733TMC3    H110838   2.553   0.434  13.118  0.2233 -1.1961  0.7456
  733TMC3    H210839   2.558   0.873  13.144 -0.3511 -0.0070 -1.5912
  733TMC3    C710840   2.649   0.649  13.016  0.6084 -0.0285  1.1446
  733TMC3    C810841   2.316   0.881  13.259  0.4389 -0.1334  0.2069
  733TMC3    O110842   2.720   0.551  12.990 -0.0100  0.5535  0.2136
  733TMC3    O210843   2.235   0.874  13.350  0.1946  0.2475  0.1371
  734MPD2     C10844   4.044   3.289  12.809 -0.9022 -0.2474  0.6884
  734MPD2    C110845   4.107   3.216  12.716 -0.8670  0.2940  0.0549
  734MPD2    C210846   4.151   3.277  12.600 -0.3216 -0.1773  0.3699
  734MPD2    C310847   4.113   3.406  12.577 -0.0802  1.0676  0.2264
  734MPD2    C410848   4.057   3.487  12.675  0.0251  0.1627  0.1185
  734MPD2    C510849   4.027   3.425  12.793  0.9175 -0.0703  0.1284
  734MPD2     H10850   4.206   3.222  12.524  1.6716 -1.0305  2.4305
  734MPD2    H110851   4.021   3.588  12.661 -0.0469  0.2759  1.1560
  734MPD2    H210852   3.993   3.244  12.894  1.0144 -1.1839  1.3545
  734MPD2    H310853   3.962   3.474  12.865 -2.2454 -3.0869 -0.6683
  734MPD2     N10854   4.130   3.451  12.441  0.3810  0.4716  0.0594
  734MPD2    H510855   4.156   3.385  12.368  2.1363  0.6415  0.5356
  734MPD2    N110856   4.120   3.079  12.745 -0.0079 -0.4258 -0.1588
  734MPD2    H710857   4.066   3.039  12.821 -2.2716  1.6383 -0.6865
  735TMC3    C110858   4.177   2.858  12.711  0.4895 -0.0426  0.1226
  735TMC3    C210859   4.037   2.835  12.695 -0.2793 -0.4105  0.1142
  735TMC3    C310860   3.998   2.721  12.630  0.5083 -0.1936 -0.6841
  735TMC3    C410861   4.257   2.768  12.649 -0.0587 -0.3728  0.1431
  735TMC3    C510862   4.212   2.661  12.581  0.0274  0.6137  0.3683
  735TMC3    C610863   4.080   2.627  12.575  0.4874  0.2457  0.6089
  735TMC3     C10864   4.211   2.993  12.692 -0.2091  0.2232 -0.5038
  735TMC3     O10865   4.301   3.020  12.612 -0.1475  0.4640  0.1379
  735TMC3     H10866   3.959   2.897  12.738 -0.0294  0.4911 -0.7361
  735TMC3    H110867   4.365   2.782  12.648 -0.0718 -0.2837 -0.1633
  735TMC3    H210868   4.044   2.548  12.510 -1.2609  0.5824  1.1668
  735TMC3    C710869   4.306   2.593  12.504  0.2616  0.3811  0.3346
  735TMC3    C810870   3.877   2.747  12.552  0.1737 -0.8292  0.1596
  735TMC3    O110871   4.409   2.647  12.469  0.0750  0.0643 -0.6578
  735TMC3    O210872   3.831   2.646  12.493 -0.5637  0.2563  0.2877
  736MPD2     C10873   4.304   2.232  12.399  0.3628  0.2982  0.3620
  736MPD2    C110874   4.341   2.364  12.395  0.8467  0.1437 -0.0628
  736MPD2    C210875   4.432   2.410  12.300 -0.2613  1.1575 -0.9431
  736MPD2    C310876   4.489   2.314  12.220  0.2482  0.2082 -0.1619
  736MPD2    C410877   4.454   2.181  12.225  0.1680 -0.4634  0.9442
  736MPD2    C510878   4.355   2.140  12.309  0.2337 -0.6587  0.1245
  736MPD2     H10879   4.464   2.513  12.303  1.5242  0.5703  0.5798
  736MPD2    H110880   4.496   2.111  12.154  2.4123  2.2129 -0.3754
  736MPD2    H210881   4.231   2.197  12.472  0.0308 -1.5066 -0.8267
  736MPD2    H310882   4.327   2.035  12.304  1.4067 -0.9755  0.1717
  736MPD2     N10883   4.593   2.339  12.133 -0.7943 -0.2283  0.5021
  736MPD2    H510884   4.609   2.267  12.064  0.2476  0.6271 -0.1542
  736MPD2    N110885   4.284   2.453  12.490  0.0703  0.6005 -0.5231
  736MPD2    H710886   4.224   2.410  12.559  0.7864  0.4819  0.0219
  737TMC3    C110887   0.034   2.475  12.011 -0.1179 -0.1958  0.3999
  737TMC3    C210888   0.079   2.599  11.979 -1.6366 -0.6526 -0.4090
  737TMC3    C310889   0.151   2.613  11.864  0.0483 -0.0172  0.6051
  737TMC3    C410890   0.063   2.369  11.926  0.0289 -0.3302 -0.6223
  737TMC3    C510891   0.124   2.391  11.807 -0.1505 -0.6459  0.0601
  737TMC3    C610892   0.173   2.509  11.772 -0.0480  0.9099 -0.1279
  737TMC3     C10893   4.662   2.461  12.124  0.0600 -0.6673  0.0973
  737TMC3     O10894   4.661   2.560  12.200  0.9590 -0.4285  0.4795
  737TMC3     H10895   0.065   2.684  12.045 -0.4565 -0.8589  0.1037
  737TMC3    H110896   0.055   2.268  11.963 -0.9516 -0.5486 -1.4311
  737TMC3    H210897   0.215   2.535  11.675 -0.1920 -0.8730 -0.6659
  737TMC3    C710898   0.148   2.280  11.714  1.1079  0.3357  0.3616
  737TMC3    C810899   0.189   2.753  11.831  0.2114 -0.6675  0.5943
  737TMC3    O110900   0.081   2.179  11.730 -0.4663  0.2645  0.2132
  737TMC3    O210901   0.224   2.828  11.921  0.3876  0.0855  0.6982
  738MPD2     C10902   4.009   2.079  15.537 -0.5684  0.3455 -0.4421
  738MPD2    C110903   4.090   2.014  15.455  0.4680 -0.3720  0.7325
  738MPD2    C210904   4.202   2.077  15.398  0.3227 -0.6395 -0.1453
  738MPD2    C310905   4.243   2.205  15.442  0.3303  0.1253  1.1490
  738MPD2    C410906   4.156   2.271  15.526  0.2879 -0.1309  0.5376
  738MPD2    C510907   4.033   2.210  15.561  0.0364  0.0949  0.5893
  738MPD2     H10908   4.261   2.016  15.330 -0.1002 -0.1388 -0.9502
  738MPD2    H110909   4.165   2.376  15.553 -0.6585 -0.2361  1.2815
  738MPD2    H210910   3.918   2.038  15.580 -2.5981  3.3464 -1.8654
  738MPD2    H310911   3.962   2.257  15.628  0.5137  1.6629  0.0007
  738MPD2     N10912   4.370   2.268  15.404 -0.8804 -0.4334  0.0369
  738MPD2    H510913   4.423   2.211  15.340 -0.7144  2.2302 -2.1909
  738MPD2    N110914   4.072   1.879  15.424 -0.1131  0.1946 -0.5368
  738MPD2    H710915   4.152   1.844  15.373 -0.7910 -1.1962 -0.6335
  739TMC3    C110916   4.568   2.394  15.429 -0.4569 -0.6473 -0.5903
  739TMC3    C210917   4.616   2.326  15.321  0.4052  0.4989  0.0438
  739TMC3    C310918   0.019   2.353  15.284 -0.8063  0.5830 -0.1515
  739TMC3    C410919   4.651   2.471  15.511  0.1596  0.2661  0.2082
  739TMC3    C510920   0.053   2.482  15.477  0.6010 -0.4437  0.3265
  739TMC3    C610921   0.104   2.433  15.358  0.2760 -0.6462 -0.0340
  739TMC3     C10922   4.429   2.376  15.470 -0.8618 -0.4567 -0.2338
  739TMC3     O10923   4.389   2.434  15.571 -0.1780 -0.0449  0.1467
  739TMC3     H10924   4.559   2.257  15.260 -1.9177  2.1126  0.4010
  739TMC3    H110925   4.613   2.531  15.594 -0.7928  0.5070 -0.3973
  739TMC3    H210926   0.209   2.437  15.331  0.1908 -0.3929 -0.3286
  739TMC3    C710927   0.113   2.596  15.544 -0.0529  0.1823 -0.2974
  739TMC3    C810928   0.059   2.294  15.152 -0.5726  0.0202  0.4339
  739TMC3    O110929   0.057   2.638  15.647 -0.2245 -0.3090  0.1933
  739TMC3    O210930   4.689   2.263  15.082 -0.3310 -0.4212 -0.5043
  740TMC3    C110931   0.637   3.202  14.150 -0.4107 -0.3449  0.1342
  740TMC3    C210932   0.653   3.114  14.251  0.3641 -0.2895  0.4395
  740TMC3    C310933   0.733   3.005  14.226 -0.1775  0.5869 -0.3378
  740TMC3    C410934   0.700   3.199  14.030 -0.2900 -0.1110  0.4849
  740TMC3    C510935   0.777   3.081  14.004 -0.0728  0.0161 -0.2105
  740TMC3    C610936   0.803   2.992  14.103 -0.2851 -0.3021  0.8994
  740TMC3     C10937   0.549   3.309  14.178 -0.4888 -0.3747  0.0898
  740TMC3     O10938   0.579   3.412  14.117  0.0084  0.4083 -0.0875
  740TMC3     H10939   0.616   3.126  14.353  0.4441 -2.1495  0.6849
  740TMC3    H110940   0.693   3.278  13.955  0.3323 -0.4990  0.0144
  740TMC3    H210941   0.879   2.917  14.086 -0.9329 -0.7909  0.2081
  740TMC3    C710942   0.880   3.088  13.902  0.1391  0.2238 -0.4442
  740TMC3    C810943   0.766   2.907  14.326 -0.1201 -0.4514 -0.1113
  740TMC3    O110944   0.970   3.009  13.922 -0.2069 -0.0295  0.4390
  740TMC3    O210945   0.749   2.940  14.441 -0.2969  0.1102 -0.3502
  741TMC3    C110946   0.179   2.640  14.747 -0.0687  0.0678 -0.1404
  741TMC3    C210947   0.070   2.589  14.680 -0.5240  0.1332  0.2462
  741TMC3    C310948   4.679   2.583  14.750 -0.4502 -0.2319  0.7021
  741TMC3    C410949   0.168   2.680  14.876  0.1028  1.2056  0.1021
  741TMC3    C510950   0.046   2.669  14.940 -0.4766  0.1830 -0.0836
  741TMC3    C610951   4.657   2.630  14.872  0.2212 -0.3485 -0.5185
  741TMC3     C10952   0.309   2.632  14.686  0.1658 -1.2923  0.5190
  741TMC3     O10953   0.403   2.651  14.759 -0.4750  0.4246  0.3461
  741TMC3     H10954   0.076   2.550  14.579  0.0770 -3.8405  1.8233
  741TMC3    H110955   0.256   2.700  14.937  1.4870  0.5243 -1.6514
  741TMC3    H210956   4.561   2.623  14.921 -0.2124  3.2509 -0.8564
  741TMC3    C710957   0.039   2.714  15.077 -0.3901  0.3619 -0.0070
  741TMC3    C810958   4.564   2.536  14.673 -0.0020  0.7642  0.1247
  741TMC3    O110959   0.141   2.766  15.122  0.2150 -0.8643  0.3644
  741TMC3    O210960   4.559   2.562  14.554  0.2093 -0.6628  0.2650
  742TMC3    C110961   0.274   1.004  15.409  0.0539  0.4909  0.4766
  742TMC3    C210962   0.235   1.036  15.284  0.2707 -0.0662  0.3335
  742TMC3    C310963   0.282   0.963  15.177  0.1953 -0.3261  0.0583
  742TMC3    C410964   0.382   0.926  15.433  0.5600  0.2850 -0.1727
  742TMC3    C510965   0.443   0.870  15.321 -0.1067  0.3381 -0.1988
  742TMC3    C610966   0.390   0.888  15.188 -0.2701  0.3448 -0.2865
  742TMC3     C10967   0.228   1.101  15.507  0.2867  0.0356 -0.2669
  742TMC3     O10968   0.133   1.176  15.485  0.5242 -0.5288 -0.6019
  742TMC3     H10969   0.154   1.107  15.272  0.8336  0.4581 -0.3924
  742TMC3    H110970   0.405   0.888  15.532 -2.8683 -2.0775 -0.3156
  742TMC3    H210971   0.448   0.857  15.102 -2.8655 -0.6133 -1.7070
  742TMC3    C710972   0.557   0.776  15.333  0.4245 -0.4236  0.5086
  742TMC3    C810973   0.248   0.994  15.037  0.4049  0.2306  0.2353
  742TMC3    O110974   0.579   0.695  15.246  0.0869 -0.3330 -0.0587
  742TMC3    O210975   0.264   0.904  14.957  0.1920 -0.0547  0.3471
  743MPD2     C10976   1.804   2.424   1.523 -0.7855  0.3261 -0.8814
  743MPD2    C110977   1.863   2.387   1.405  0.3143 -0.8473  0.6201
  743MPD2    C210978   1.989   2.320   1.412  0.1139 -0.5781  0.7457
  743MPD2    C310979   2.056   2.312   1.536  0.2795 -0.1789 -0.7669
  743MPD2    C410980   2.007   2.375   1.644 -0.0563  0.2514  0.5195
  743MPD2    C510981   1.878   2.420   1.642  0.5333 -1.1016 -0.3431
  743MPD2     H10982   2.037   2.283   1.322 -0.2106  1.4115 -0.2381
  743MPD2    H110983   2.049   2.386   1.743 -1.5849 -2.0025  1.4217
  743MPD2    H210984   1.704   2.465   1.519 -1.7528 -1.8926  1.0510
  743MPD2    H310985   1.835   2.461   1.732 -1.2018 -0.2224 -1.5716
  743MPD2     N10986   2.186   2.255   1.549 -0.5281  0.4779 -0.2304
  743MPD2    H510987   2.230   2.211   1.469 -1.8807  1.2488 -1.3808
  743MPD2    N110988   1.795   2.394   1.279  0.5591  0.4702  0.2013
  743MPD2    H710989   1.706   2.442   1.283  1.4129  2.1763 -1.8294
  744TMC3    C110990   1.753   2.382   1.039  0.4330  0.1832  0.4320
  744TMC3    C210991   1.670   2.491   1.051  0.1731  0.2519 -0.0861
  744TMC3    C310992   1.601   2.521   0.937  0.5290 -0.1963  1.2870
  744TMC3    C410993   1.774   2.315   0.925  0.0022 -0.1926 -0.3596
  744TMC3    C510994   1.714   2.358   0.809  0.2957  0.1013  0.0854
  744TMC3    C610995   1.624   2.462   0.815  0.6229  0.4286 -0.0574
  744TMC3     C10996   1.837   2.345   1.153 -0.1458 -0.2730  0.3225
  744TMC3     O10997   1.928   2.271   1.123 -0.3440 -0.0321  0.5299
  744TMC3     H10998   1.666   2.559   1.136 -0.0484  1.8177 -1.3373
  744TMC3    H110999   1.843   2.232   0.914  1.5433  0.7273  2.3558
  744TMC3    H211000   1.575   2.509   0.731 -0.2780 -0.1178  0.1712
  744TMC3    C711001   1.771   2.309   0.687 -0.0036 -0.7019 -0.5804
  744TMC3    C811002   1.501   2.637   0.950 -1.1466  0.5885 -0.4187
  744TMC3    O111003   1.882   2.255   0.693 -0.4216 -0.4653  0.2150
  744TMC3    O211004   1.500   2.693   1.057  0.0281 -0.0647 -0.5001
  745TMC3    C111005   0.831   0.553  13.672 -0.2179  0.0383  0.8514
  745TMC3    C211006   0.733   0.618  13.730 -0.2639  0.6788  0.1173
  745TMC3    C311007   0.608   0.609  13.669  0.7158 -0.0914  0.1480
  745TMC3    C411008   0.819   0.473  13.567  0.2411  0.3004 -0.0219
  745TMC3    C511009   0.692   0.471  13.505 -0.2315 -0.3508  1.5748
  745TMC3    C611010   0.589   0.531  13.561 -0.1204  0.0965  0.1950
  745TMC3     C11011   0.962   0.571  13.716  0.0062  0.1768 -0.3641
  745TMC3     O11012   1.036   0.474  13.711  0.0679  0.0682 -0.0915
  745TMC3     H11013   0.747   0.670  13.824 -2.2721  1.9753 -0.3018
  745TMC3    H111014   0.906   0.434  13.516  1.1860  1.6234  0.5774
  745TMC3    H211015   0.488   0.521  13.522  0.3129 -1.0111 -0.6469
  745TMC3    C711016   0.682   0.473  13.359 -0.3061 -0.4689  0.2880
  745TMC3    C811017   0.496   0.668  13.729 -0.0497  0.0850  0.0331
  745TMC3    O111018   0.578   0.527  13.320  0.4173  0.5409  0.0632
  745TMC3    O211019   0.388   0.614  13.704 -0.4263 -0.0772  0.5039
  746TMC3    C111020   3.181   2.454  11.187  0.4967 -0.2143  0.1944
  746TMC3    C211021   3.242   2.437  11.066  0.5552 -0.7851  0.3504
  746TMC3    C311022   3.180   2.341  10.975 -0.3945 -0.3371  0.0415
  746TMC3    C411023   3.071   2.377  11.225  0.2977  0.5390 -0.5250
  746TMC3    C511024   3.009   2.303  11.131  0.7889  0.1232 -0.4454
  746TMC3    C611025   3.066   2.278  11.007 -0.9052  0.2795  0.5892
  746TMC3     C11026   3.193   2.579  11.256  0.3216  0.4129  0.1465
  746TMC3     O11027   3.117   2.585  11.350 -0.1042  0.1908  0.4419
  746TMC3     H11028   3.335   2.484  11.037 -0.3117  0.6306 -0.1508
  746TMC3    H111029   3.045   2.379  11.330  0.4998  0.8384 -0.4824
  746TMC3    H211030   3.018   2.217  10.932 -0.9874  0.5176  0.4484
  746TMC3    C711031   2.876   2.249  11.130 -0.3349  0.9507  0.4087
  746TMC3    C811032   3.235   2.292  10.849  0.5697 -0.1922  0.8425
  746TMC3    O111033   2.847   2.157  11.059  0.9336 -0.0131 -0.1020
  746TMC3    O211034   3.217   2.179  10.810 -0.2903  0.2086 -0.5152
  747TMC3    C111035   0.774   2.290  10.823  0.0284 -0.1442 -0.1225
  747TMC3    C211036   0.664   2.240  10.892  0.1807 -0.2107  0.1815
  747TMC3    C311037   0.642   2.273  11.027  0.2403  0.4217  0.6955
  747TMC3    C411038   0.872   2.364  10.888 -0.0654  0.3322  0.3169
  747TMC3    C511039   0.852   2.384  11.024 -0.0567  0.4093  0.1903
  747TMC3    C611040   0.744   2.334  11.094 -0.7089 -0.2977  0.2491
  747TMC3     C11041   0.779   2.265  10.676  0.2869  0.5912 -0.6667
  747TMC3     O11042   0.864   2.327  10.610  0.6673  0.0276  0.9391
  747TMC3     H11043   0.596   2.175  10.838  1.9947 -2.7771  0.9648
  747TMC3    H111044   0.958   2.399  10.833 -0.6462  1.4589  0.1109
  747TMC3    H211045   0.745   2.351  11.201  0.0152 -2.4563  0.5893
  747TMC3    C711046   0.923   2.493  11.083 -0.4884  0.4217 -0.2821
  747TMC3    C811047   0.562   2.193  11.120  0.5011 -0.0117  0.3354
  747TMC3    O111048   0.865   2.560  11.168 -0.0860  0.2544 -0.0917
  747TMC3    O211049   0.541   2.082  11.074  0.3029 -0.1417 -0.0201
  748MPD2     C11050   1.758   4.004   1.711 -0.7019  0.2796  0.8569
  748MPD2    C111051   1.710   3.941   1.602  0.0916 -0.5310 -0.5483
  748MPD2    C211052   1.803   3.867   1.525 -1.1261 -0.0107 -0.0382
  748MPD2    C311053   1.926   3.832   1.579  0.4583  0.2695 -0.4312
  748MPD2    C411054   1.965   3.892   1.699 -0.8660  0.5359  0.2054
  748MPD2    C511055   1.875   3.960   1.771  0.3144 -0.3278  0.2763
  748MPD2     H11056   1.773   3.843   1.423 -0.2745  2.1469 -0.7948
  748MPD2    H111057   2.048   3.849   1.754 -1.0043  0.3049  0.2331
  748MPD2    H211058   1.695   4.070   1.770 -0.8214  1.2272 -0.3493
  748MPD2    H311059   1.915   3.992   1.867  0.9009  0.2027 -0.1487
  748MPD2     N11060   1.995   3.729   1.514  0.3741 -0.3965  0.0943
  748MPD2    H511061   1.949   3.686   1.434 -1.4754 -1.0745  1.5177
  748MPD2    N111062   1.575   3.972   1.572  0.0219  0.5111 -0.0436
  748MPD2    H711063   1.542   4.051   1.627  0.9223 -0.4263  1.8361
  749TMC3    C111064   2.139   3.533   1.504 -0.6420 -0.1077  0.4793
  749TMC3    C211065   2.212   3.442   1.574  0.3126 -0.4527 -0.2202
  749TMC3    C311066   2.225   3.316   1.513  0.8553  0.0146  0.0203
  749TMC3    C411067   2.088   3.511   1.380 -0.4565  0.3371 -0.5640
  749TMC3    C511068   2.110   3.395   1.325  0.3320 -0.1889  0.6688
  749TMC3    C611069   2.174   3.291   1.388 -0.3025 -0.1222 -0.7971
  749TMC3     C11070   2.108   3.659   1.567  0.1691 -0.8382  0.8987
  749TMC3     O11071   2.167   3.671   1.675  0.7819 -0.2498  0.5634
  749TMC3     H11072   2.254   3.460   1.672 -1.5143  2.9426 -0.0789
  749TMC3    H111073   2.039   3.589   1.322  0.5313  1.0161 -0.4905
  749TMC3    H211074   2.187   3.201   1.329 -0.7285 -0.6444 -0.0943
  749TMC3    C711075   2.133   3.391   1.182  0.5765 -0.3076  0.2246
  749TMC3    C811076   2.278   3.215   1.605  0.2803 -0.4239  0.4873
  749TMC3    O111077   2.152   3.280   1.130  0.2133  0.3362 -0.0088
  749TMC3    O211078   2.298   3.251   1.719  0.3118  0.1086 -0.2029
  750MPD2     C11079   3.105   4.232  11.462 -0.2069 -0.2218  0.0757
  750MPD2    C111080   2.981   4.216  11.396  0.7840 -0.3318 -0.3364
  750MPD2    C211081   2.949   4.103  11.319  0.3917  0.3363  0.0897
  750MPD2    C311082   3.057   4.023  11.288  0.4437 -0.0152  0.7159
  750MPD2    C411083   3.182   4.046  11.342  0.3641 -0.0929  0.1976
  750MPD2    C511084   3.197   4.140  11.439  0.2687  0.2163 -0.3093
  750MPD2     H11085   2.854   4.093  11.269 -0.3925  0.0351  1.6656
  750MPD2    H111086   3.268   3.983  11.322 -0.0367  0.4136 -3.1128
  750MPD2    H211087   3.118   4.308  11.539  1.2868 -0.3110 -0.0863
  750MPD2    H311088   3.292   4.142  11.492 -0.7055 -0.5500  1.4738
  750MPD2     N11089   3.056   3.901  11.210  0.0449 -0.0698 -0.2798
  750MPD2    H511090   3.148   3.857  11.213 -1.5457 -3.4342 -1.6315
  750MPD2    N111091   2.898   4.326  11.421 -0.1388  0.2807 -0.3050
  750MPD2    H711092   2.929   4.411  11.467 -0.8673  1.1549 -1.4433
  751TMC3    C111093   2.986   3.736  11.057  1.1568  0.0615 -0.5825
  751TMC3    C211094   2.871   3.667  11.011 -0.1494 -0.3694 -0.4115
  751TMC3    C311095   2.885   3.572  10.915  0.3151  0.0240 -0.3744
  751TMC3    C411096   3.111   3.710  11.001 -0.4972 -0.0452 -0.1601
  751TMC3    C511097   3.120   3.606  10.914  0.2959  0.4088  0.5982
  751TMC3    C611098   3.013   3.527  10.881 -0.1041  0.7781 -0.5008
  751TMC3     C11099   2.960   3.859  11.126 -0.3444  0.5007 -0.5995
  751TMC3     O11100   2.849   3.910  11.102 -0.4140 -0.2220  0.0088
  751TMC3     H11101   2.777   3.699  11.056  0.0643 -1.4099  0.7530
  751TMC3    H111102   3.204   3.759  11.025 -0.3893  0.1357 -0.9421
  751TMC3    H211103   3.024   3.426  10.843  3.6635  0.9908 -0.0208
  751TMC3    C711104   3.245   3.574  10.842  0.0248  0.3956  0.5503
  751TMC3    C811105   2.776   3.488  10.872 -0.4384  0.3216 -0.2151
  751TMC3    O111106   3.352   3.624  10.877  0.0908  0.5883  0.5715
  751TMC3    O211107   2.801   3.398  10.788 -0.2101  0.2810 -0.1179
  752TMC3    C111108   1.312   4.438  16.976  0.1263  0.3536 -0.3137
  752TMC3    C211109   1.236   4.392  17.081  0.1624  0.2026  0.6001
  752TMC3    C311110   1.282   4.406  17.205 -0.0502 -0.5204  0.0261
  752TMC3    C411111   1.424   4.504  17.004 -0.2596  0.2967  0.0625
  752TMC3    C511112   1.469   4.529  17.135  1.5997  0.9423 -0.0786
  752TMC3    C611113   1.398   4.476  17.237 -0.2997 -0.6974 -0.1605
  752TMC3     C11114   1.265   4.445  16.844  0.0287 -0.1295 -0.2202
  752TMC3     O11115   1.342   4.418  16.754 -0.1765  0.3002 -0.2180
  752TMC3     H11116   1.145   4.337  17.062 -0.5596  1.4342  0.4596
  752TMC3    H111117   1.478   4.537  16.917  0.4525 -4.3131 -1.2468
  752TMC3    H211118   1.430   4.483  17.340 -2.7172 -1.1789  0.6204
  752TMC3    C711119   1.588   4.602  17.160  0.5145 -0.0066  0.6347
  752TMC3    C811120   1.216   4.314  17.295  0.1343 -0.3198  0.8257
  752TMC3    O111121   1.657   4.627  17.065  0.3280  0.3583 -0.4408
  752TMC3    O211122   1.148   4.227  17.244 -0.1868  0.0113  0.0248
  753TMC3    C111123   3.512   0.745  13.431  0.2913  0.0466 -0.5154
  753TMC3    C211124   3.563   0.728  13.555  0.7515 -0.2670 -0.0864
  753TMC3    C311125   3.628   0.617  13.591 -0.2921  0.0064  0.0840
  753TMC3    C411126   3.518   0.643  13.334 -0.0406  0.2244  0.4970
  753TMC3    C511127   3.566   0.525  13.381 -0.4462 -0.9820 -0.5609
  753TMC3    C611128   3.624   0.507  13.501 -0.1948  0.8085  0.0005
  753TMC3     C11129   3.480   0.874  13.380  0.0853  0.1879  0.3773
  753TMC3     O11130   3.400   0.870  13.283  0.8251  0.3712  0.1140
  753TMC3     H11131   3.542   0.814  13.617  0.5813 -2.1717  2.5122
  753TMC3    H111132   3.487   0.648  13.231  0.5861  1.5707  0.3673
  753TMC3    H211133   3.685   0.420  13.525 -1.0653 -0.7400 -3.4732
  753TMC3    C711134   3.536   0.411  13.300  0.0353  0.2241  0.4135
  753TMC3    C811135   3.692   0.596  13.719 -0.3315 -0.3023 -0.3808
  753TMC3    O111136   3.536   0.420  13.176 -0.3441 -0.3322  0.3570
  753TMC3    O211137   3.721   0.478  13.749  0.4097 -0.3860  0.5335
  754MPD2     C11138   2.050   3.044  12.983  0.6502 -0.4755  0.1106
  754MPD2    C111139   2.152   3.127  13.029  0.3375  0.4838 -1.1316
  754MPD2    C211140   2.142   3.180  13.154 -0.4830  0.4155  0.2878
  754MPD2    C311141   2.031   3.152  13.237  0.3427  0.4675 -0.2293
  754MPD2    C411142   1.934   3.065  13.193 -0.4284 -0.2149  0.2805
  754MPD2    C511143   1.952   3.008  13.070 -0.1738 -0.1413 -0.0392
  754MPD2     H11144   2.218   3.245  13.197  0.7802  1.0288 -2.8837
  754MPD2    H111145   1.846   3.035  13.248  0.9960 -2.0879  1.5398
  754MPD2    H211146   2.041   3.002  12.883  0.7614  0.8823 -0.4797
  754MPD2    H311147   1.875   2.942  13.032  0.9123 -1.6552  0.4330
  754MPD2     N11148   2.003   3.206  13.365 -0.1148  0.0077 -0.3784
  754MPD2    H511149   1.908   3.198  13.400  0.4312  0.4130  1.1869
  754MPD2    N111150   2.255   3.154  12.937  0.0641  1.1743 -0.2431
  754MPD2    H711151   2.267   3.094  12.856  2.9129  3.2403 -1.3623
  755MPD2     C11152   1.561   4.022  13.494  0.6288 -0.2106 -0.4515
  755MPD2    C111153   1.678   4.015  13.568 -0.1391 -0.5219  0.3065
  755MPD2    C211154   1.728   3.884  13.600  0.6566  0.1744 -0.6186
  755MPD2    C311155   1.668   3.777  13.539 -0.5806 -0.1930  0.0435
  755MPD2    C411156   1.548   3.796  13.464  0.0712  0.1516 -0.6751
  755MPD2    C511157   1.501   3.918  13.441  0.2190  0.4867 -0.0777
  755MPD2     H11158   1.802   3.866  13.677 -0.2309 -1.8942 -0.2316
  755MPD2    H111159   1.500   3.713  13.413  0.3792 -0.7486  0.4900
  755MPD2    H211160   1.526   4.123  13.474 -1.6280 -0.4484  2.3255
  755MPD2    H311161   1.420   3.925  13.370  0.6834  0.3063 -0.6262
  755MPD2     N11162   1.710   3.651  13.563 -0.3432 -0.2031 -0.5311
  755MPD2    H511163   1.668   3.567  13.526 -0.8782  0.1027 -0.6138
  755MPD2    N111164   1.744   4.125  13.630  0.1167  0.7762  0.6234
  755MPD2    H711165   1.800   4.112  13.714 -0.3369 -0.7841  0.6834
  756MPD2     C11166   3.243   4.699   9.696  0.2984 -0.3872  0.0636
  756MPD2    C111167   3.143   0.055   9.738 -0.3007  0.8478  0.5068
  756MPD2    C211168   3.020   0.065   9.668  0.3639  0.1917  0.8905
  756MPD2    C311169   3.001   4.708   9.560 -0.1587  0.8025 -0.2526
  756MPD2    C411170   3.103   4.632   9.507 -0.3865 -0.6887  0.5372
  756MPD2    C511171   3.228   4.629   9.577  1.0991  0.3285 -0.5776
  756MPD2     H11172   2.940   0.129   9.705  0.7322 -0.2429  2.4143
  756MPD2    H111173   3.087   4.568   9.421 -1.4117 -1.1551  1.0752
  756MPD2    H211174   3.338   4.684   9.746 -0.2382 -3.6950  0.0962
  756MPD2    H311175   3.313   4.575   9.538  0.2139 -1.1221 -0.4907
  756MPD2     N11176   2.868   4.699   9.503  0.2546 -0.3659 -0.2129
  756MPD2    H511177   2.805   0.034   9.556  3.0302  2.4511 -0.1296
  756MPD2    N111178   3.142   0.118   9.866 -0.2589  0.0254 -0.2413
  756MPD2    H711179   3.057   0.171   9.883  1.1242  2.1960  0.0398
  757MPD2     C11180   2.296   3.964   9.316 -0.2469 -0.1501  1.0569
  757MPD2    C111181   2.412   3.995   9.383 -0.0066  0.4776  0.1645
  757MPD2    C211182   2.447   4.123   9.405  1.0037 -0.0234  0.5113
  757MPD2    C311183   2.374   4.225   9.343  0.8539  0.2297  0.6738
  757MPD2    C411184   2.259   4.193   9.272 -0.1266 -0.2450  0.3607
  757MPD2    C511185   2.226   4.063   9.263 -0.1311  0.2307  0.9668
  757MPD2     H11186   2.527   4.153   9.472  1.7866 -0.0666 -0.4070
  757MPD2    H111187   2.195   4.268   9.227 -0.6852  0.4184  2.2515
  757MPD2    H211188   2.257   3.865   9.297  1.0431 -0.9015  2.3437
  757MPD2    H311189   2.135   4.041   9.209  0.5126 -0.8671  0.3384
  757MPD2     N11190   2.424   4.354   9.349  0.8682  0.3010  0.0433
  757MPD2    H511191   2.503   4.366   9.412  0.0762  3.8541  0.3483
  757MPD2    N111192   2.496   3.890   9.429  0.5797 -0.0092  0.9129
  757MPD2    H711193   2.471   3.796   9.400  0.2657  0.1945  0.5173
  758MPD2     C11194   2.482   3.362  15.859  0.0819  0.5075  0.7574
  758MPD2    C111195   2.566   3.398  15.967  0.7227 -0.6266 -0.1694
  758MPD2    C211196   2.509   3.392  16.097  0.4644 -0.3645 -0.7113
  758MPD2    C311197   2.376   3.356  16.119  0.3152 -0.2217  0.2747
  758MPD2    C411198   2.292   3.326  16.012  0.3742 -0.5580 -0.7029
  758MPD2    C511199   2.348   3.335  15.884 -0.2144  0.1223  0.7533
  758MPD2     H11200   2.564   3.429  16.183  0.5158 -0.1836 -0.8231
  758MPD2    H111201   2.191   3.293  16.032  0.5067 -1.2770 -1.2504
  758MPD2    H211202   2.511   3.361  15.755  3.4674 -0.7680  1.7023
  758MPD2    H311203   2.287   3.328  15.795 -0.5865  1.1085  0.9268
  758MPD2     N11204   2.322   3.357  16.251  0.0853  0.2397 -0.1063
  758MPD2    H511205   2.224   3.349  16.277  0.0924 -2.0591 -0.7403
  758MPD2    N111206   2.698   3.433  15.939 -0.4754  0.0288  0.3604
  758MPD2    H711207   2.719   3.419  15.841  0.6865 -2.4764  0.9535
  759MPD2     C11208   1.192   2.092   9.475 -0.9741  0.0475 -0.4051
  759MPD2    C111209   1.240   2.078   9.607 -0.2372  0.2253 -0.4908
  759MPD2    C211210   1.356   2.137   9.640  0.3150 -0.2801 -0.4860
  759MPD2    C311211   1.434   2.199   9.544 -0.1815  0.5403  0.2303
  759MPD2    C411212   1.396   2.188   9.410 -0.1280  0.0222  0.4020
  759MPD2    C511213   1.273   2.142   9.376  0.3982 -0.2798  0.0810
  759MPD2     H11214   1.389   2.129   9.743  1.1887  0.6503 -0.6920
  759MPD2    H111215   1.456   2.214   9.324 -0.2974 -1.1762 -0.0714
  759MPD2    H211216   1.093   2.055   9.455 -2.2885  2.0219  2.3861
  759MPD2    H311217   1.228   2.134   9.278  0.0127 -1.1157  0.3295
  759MPD2     N11218   1.551   2.265   9.588 -0.3269  0.6568 -0.7341
  759MPD2    H511219   1.556   2.288   9.686 -1.9847 -0.5417 -0.3644
  759MPD2    N111220   1.174   1.993   9.699 -0.0625  0.1697 -0.3838
  759MPD2    H711221   1.211   1.990   9.794  0.9506  3.1938 -0.6587
  760MPD2     C11222   1.205   4.092  12.059 -0.5754 -0.1976 -0.8354
  760MPD2    C111223   1.344   4.089  12.026 -0.2625 -0.0685 -0.1754
  760MPD2    C211224   1.422   3.976  12.052 -0.3303  0.1916  0.7183
  760MPD2    C311225   1.369   3.873  12.126 -0.1378 -0.1229 -0.3177
  760MPD2    C411226   1.242   3.884  12.174 -0.0636  0.2734  0.3312
  760MPD2    C511227   1.163   3.986  12.131  0.1326 -0.1225  0.5476
  760MPD2     H11228   1.519   3.971  12.005 -0.9007 -2.0224 -0.2038
  760MPD2    H111229   1.194   3.803  12.228  0.8050  0.5134  1.4598
  760MPD2    H211230   1.145   4.179  12.035  0.5886  0.7702 -0.2312
  760MPD2    H311231   1.060   3.977  12.163  0.2845  1.6728  1.5293
  760MPD2     N11232   1.425   3.742  12.140  0.8922 -0.4179  0.2877
  760MPD2    H511233   1.372   3.669  12.186 -3.2436  1.2658 -1.8448
  760MPD2    N111234   1.404   4.192  11.949  0.2495 -0.0209 -0.1738
  760MPD2    H711235   1.495   4.167  11.910 -0.4339 -1.1668 -1.0473
  761MPD2     C11236   2.296   3.320  10.881  0.1070  0.0407  0.2763
  761MPD2    C111237   2.408   3.262  10.818  0.1214 -0.2459  0.1827
  761MPD2    C211238   2.530   3.327  10.833  0.1169  0.2182  0.0993
  761MPD2    C311239   2.537   3.442  10.907 -0.1937 -0.5258 -0.4199
  761MPD2    C411240   2.427   3.498  10.965  0.8180 -0.2938  0.7113
  761MPD2    C511241   2.307   3.426  10.961  0.1400 -0.3043  0.1036
  761MPD2     H11242   2.613   3.277  10.785 -0.5896 -1.6593  0.8197
  761MPD2    H111243   2.439   3.579  11.036 -1.6059  1.5701 -1.0128
  761MPD2    H211244   2.200   3.271  10.876  0.2056 -0.2851  1.6723
  761MPD2    H311245   2.214   3.458  11.006  0.1046 -0.3409  0.0560
  761MPD2     N11246   2.653   3.525  10.923 -1.0148  0.4757  0.7149
  761MPD2    H511247   2.660   3.610  10.977  0.8275  0.3910  0.5878
  761MPD2    N111248   2.386   3.149  10.743  0.7268 -0.0971 -0.4969
  761MPD2    H711249   2.291   3.123  10.722  1.0777  0.0232 -2.2553
  762MPD2     C11250   3.189   3.176  10.909  0.2354 -0.3808  0.2855
  762MPD2    C111251   3.125   3.111  10.807  0.7035  0.6734 -0.1407
  762MPD2    C211252   3.192   3.088  10.689 -0.0902  0.8570 -0.2125
  762MPD2    C311253   3.323   3.127  10.672 -0.3100 -0.6464  0.2867
  762MPD2    C411254   3.394   3.175  10.776 -0.4466  0.0333 -0.7162
  762MPD2    C511255   3.321   3.202  10.894 -0.5832 -0.6196 -0.4351
  762MPD2     H11256   3.143   3.032  10.610 -1.0345  0.8153  0.4051
  762MPD2    H111257   3.496   3.209  10.770 -0.5143  0.7550  2.1118
  762MPD2    H211258   3.150   3.209  11.004  3.2028  0.0318  1.3695
  762MPD2    H311259   3.372   3.253  10.974  1.4735 -1.3923 -1.2422
  762MPD2     N11260   3.392   3.087  10.555 -0.1150 -0.8535  0.1543
  762MPD2    H511261   3.340   3.046  10.478  1.1739  1.7651 -2.1240
  762MPD2    N111262   2.985   3.082  10.817  0.2009 -0.1585  0.0693
  762MPD2    H711263   2.932   3.041  10.741 -0.3086  0.3512  0.1393
  763MPD2     C11264   3.864   3.850  16.074 -0.4615  0.6785  0.8015
  763MPD2    C111265   3.999   3.886  16.056 -0.2742  0.4132  0.1733
  763MPD2    C211266   4.058   3.963  16.158 -0.2120  0.6175 -0.4819
  763MPD2    C311267   3.987   4.002  16.264 -0.5257 -0.2844 -0.5000
  763MPD2    C411268   3.854   3.957  16.286  0.6164  0.1165  0.3088
  763MPD2    C511269   3.801   3.883  16.187  0.5373 -0.3334  0.0474
  763MPD2     H11270   4.158   3.999  16.139  0.9320 -1.7058  1.1371
  763MPD2    H111271   3.799   3.978  16.377 -1.0924 -1.0760 -0.4512
  763MPD2    H211272   3.806   3.794  16.002  1.2086  2.7007 -2.0855
  763MPD2    H311273   3.705   3.834  16.200  1.0880 -1.3387  0.2465
  763MPD2     N11274   4.047   4.093  16.361  0.0447  0.0232 -0.0079
  763MPD2    H511275   4.147   4.106  16.350 -0.1649  0.8638 -0.8991
  763MPD2    N111276   4.069   3.857  15.933  0.1158 -0.4113 -0.0168
  763MPD2    H711277   4.166   3.884  15.921 -0.7682  2.1072 -1.4582
  764MPD2     C11278   2.448   0.602  16.973 -0.2717 -0.3019 -0.2967
  764MPD2    C111279   2.375   0.488  16.960  0.9098 -0.3056  0.5064
  764MPD2    C211280   2.407   0.373  17.038  0.3808 -0.3525 -0.6007
  764MPD2    C311281   2.520   0.380  17.120 -0.7454  0.4600 -0.3098
  764MPD2    C411282   2.599   0.496  17.127  0.3347  0.0075 -0.0621
  764MPD2    C511283   2.561   0.608  17.053  0.2410  0.1235  0.8726
  764MPD2     H11284   2.356   0.278  17.029  0.4778 -0.1247 -3.7505
  764MPD2    H111285   2.692   0.501  17.183 -0.1904  2.0655  0.6228
  764MPD2    H211286   2.432   0.683  16.903 -0.6591 -0.6540 -0.6124
  764MPD2    H311287   2.626   0.694  17.044 -0.9434  0.9860  0.7053
  764MPD2     N11288   2.554   0.256  17.181 -0.2133 -0.2157  0.0006
  764MPD2    H511289   2.488   0.181  17.162  0.9443 -0.8388 -1.4680
  764MPD2    N111290   2.267   0.466  16.867 -0.3386  0.1472 -0.4602
  764MPD2    H711291   2.240   0.368  16.856 -0.0106 -0.0770  0.7191
  765MPD2     C11292   1.821   3.050  16.007 -0.6023 -0.5205 -0.3063
  765MPD2    C111293   1.893   3.147  15.937  0.1243  0.0068  0.4888
  765MPD2    C211294   2.023   3.125  15.899  0.0910  0.3678  0.3100
  765MPD2    C311295   2.088   3.005  15.915 -0.6043  0.0533 -0.3021
  765MPD2    C411296   2.015   2.904  15.983 -0.3075  0.3194  0.1652
  765MPD2    C511297   1.882   2.928  16.025 -0.6672  0.1511 -0.2062
  765MPD2     H11298   2.067   3.203  15.839 -0.2574  2.0538  2.2698
  765MPD2    H111299   2.049   2.803  16.004 -1.8528 -0.1240  0.5670
  765MPD2    H211300   1.725   3.075  16.050 -0.4810 -2.2577  0.9678
  765MPD2    H311301   1.832   2.866  16.099 -1.0116 -0.1906 -0.7289
  765MPD2     N11302   2.218   2.991  15.867 -0.3465 -0.0759 -0.1377
  765MPD2    H511303   2.260   3.068  15.816 -0.2453 -0.5444 -0.7569
  765MPD2    N111304   1.826   3.264  15.898 -0.9402 -0.2891 -0.2355
  765MPD2    H711305   1.725   3.259  15.905 -0.8095  0.1099  1.9981
  766MPD2     C11306   1.366   3.333  15.335  0.5330  0.0882  0.0063
  766MPD2    C111307   1.498   3.347  15.371 -0.0265  0.1466  0.0715
  766MPD2    C211308   1.598   3.310  15.283 -0.6592 -0.6122  0.4935
  766MPD2    C311309   1.562   3.246  15.162 -0.7210  0.1245  0.2728
  766MPD2    C411310   1.429   3.241  15.126  0.1960 -0.6375  0.1320
  766MPD2    C511311   1.331   3.289  15.214 -0.0750  0.6437  0.4233
  766MPD2     H11312   1.699   3.338  15.309 -1.7039  1.9789  1.7901
  766MPD2    H111313   1.398   3.202  15.030 -0.3405 -1.9046  0.8122
  766MPD2    H211314   1.284   3.358  15.402  0.0798 -1.1807 -0.0725
  766MPD2    H311315   1.225   3.282  15.194  0.1439 -1.1919 -0.0504
  766MPD2     N11316   1.653   3.215  15.064 -0.2203  0.2982 -0.1513
  766MPD2    H511317   1.618   3.185  14.974 -0.0485  0.7371 -0.3667
  766MPD2    N111318   1.548   3.402  15.493  0.0222 -0.3769  0.0980
  766MPD2    H711319   1.643   3.391  15.525 -0.6907 -2.9150  1.3224
  767MPD2     C11320   1.245   3.488  14.903  0.1860 -1.0619  0.8012
  767MPD2    C111321   1.381   3.480  14.869 -0.6996 -0.1952 -0.0891
  767MPD2    C211322   1.413   3.411  14.755 -0.0483 -0.0569 -0.3120
  767MPD2    C311323   1.324   3.372  14.664  0.3320  0.3146 -0.6457
  767MPD2    C411324   1.193   3.389  14.689 -0.1050 -0.6214 -0.9982
  767MPD2    C511325   1.155   3.436  14.813  0.0274  0.1282  0.1555
  767MPD2     H11326   1.518   3.389  14.739 -0.1913  0.0212 -1.3546
  767MPD2    H111327   1.120   3.360  14.614 -0.9313 -0.8721 -0.0929
  767MPD2    H211328   1.202   3.536  14.990 -1.2584  0.3248 -0.6728
  767MPD2    H311329   1.054   3.455  14.848 -0.4758 -1.0387 -0.6675
  767MPD2     N11330   1.383   3.324  14.546  0.5627 -0.6366  0.0016
  767MPD2    H511331   1.481   3.298  14.556  0.8118  0.8370  1.4048
  767MPD2    N111332   1.471   3.542  14.960  0.5895 -0.0181 -0.8549
  767MPD2    H711333   1.427   3.582  15.042  1.2582  0.5655 -0.7783
  768MPD2     C11334   2.728   2.051  10.558 -0.2083  0.2443 -0.4741
  768MPD2    C111335   2.674   1.990  10.677  0.1585 -0.1057 -0.4103
  768MPD2    C211336   2.764   1.951  10.774  0.0844 -0.3012 -0.6496
  768MPD2    C311337   2.905   1.970  10.761 -0.8909  0.0955  0.2591
  768MPD2    C411338   2.952   2.033  10.647  0.5935  0.2346  0.1883
  768MPD2    C511339   2.863   2.062  10.546  0.2902 -0.0981 -0.0848
  768MPD2     H11340   2.730   1.912  10.870  0.2647  0.4665 -0.2764
  768MPD2    H111341   3.057   2.057  10.636  0.5362 -0.1247 -1.1874
  768MPD2    H211342   2.663   2.071  10.474 -0.3841  0.9165 -0.1752
  768MPD2    H311343   2.912   2.098  10.456 -0.7619  2.3635  0.3120
  768MPD2     N11344   3.009   1.941  10.854  0.7846  0.0655 -0.1091
  768MPD2    H511345   3.103   1.977  10.837  1.6113 -1.5064  1.0576
  768MPD2    N111346   2.539   1.977  10.702 -0.0439  0.2910 -0.3712
  768MPD2    H711347   2.516   1.938  10.793  2.6645  0.6918  0.4807
  769MPD2     C11348   3.156   4.523  14.829  0.3004  0.0122 -0.0227
  769MPD2    C111349   3.152   4.658  14.813 -0.3535  0.1942 -0.2912
  769MPD2    C211350   3.114   0.006  14.920 -0.4073  0.3108 -0.4286
  769MPD2    C311351   3.091   4.680  15.044 -0.5954  0.8719  0.2014
  769MPD2    C411352   3.117   4.546  15.065 -0.3510 -0.5499  0.2222
  769MPD2    C511353   3.146   4.470  14.960  0.6916  0.0278  0.4328
  769MPD2     H11354   3.101   0.111  14.898  0.2776  0.3663 -0.5505
  769MPD2    H111355   3.104   4.496  15.161  0.8017 -0.8275  0.2277
  769MPD2    H211356   3.174   4.465  14.740 -3.3084 -0.9461 -0.1433
  769MPD2    H311357   3.157   4.365  14.985  1.1610 -0.2199 -0.8085
  769MPD2     N11358   3.050   0.043  15.145  0.1814  0.2586  0.0297
  769MPD2    H511359   3.049   0.141  15.120  0.5582  0.3144  0.2372
  769MPD2    N111360   3.172   4.697  14.677  0.4892  0.4193  0.2406
  769MPD2    H711361   3.166   4.624  14.607 -2.0798 -0.8232  1.7728
  770MPD2     C11362   2.720   4.702  15.040 -0.9346 -0.0194 -0.3234
  770MPD2    C111363   2.735   4.603  14.943  0.1730  0.1487  0.1622
  770MPD2    C211364   2.749   4.642  14.810  0.4889 -0.0267  0.3147
  770MPD2    C311365   2.753   0.051  14.772 -0.2436 -0.0761 -0.8317
  770MPD2    C411366   2.742   0.144  14.869 -0.0499 -0.0893  0.2553
  770MPD2    C511367   2.718   0.111  14.995 -0.1103 -0.6838 -0.0162
  770MPD2     H11368   2.763   4.575  14.726 -0.2390 -0.9572  0.9402
  770MPD2    H111369   2.733   0.250  14.849  1.1067  0.1336  0.9538
  770MPD2    H211370   2.691   4.680  15.142  1.8764  0.7671  0.6277
  770MPD2    H311371   2.710   0.187  15.071 -0.0805 -0.0976 -0.6012
  770MPD2     N11372   2.797   0.069  14.641 -0.3647  0.1122  0.8048
  770MPD2    H511373   2.826   4.707  14.598 -0.8638 -0.1714  1.0349
  770MPD2    N111374   2.741   4.471  14.994 -0.2749 -1.0803  0.1529
  770MPD2    H711375   2.755   4.458  15.093  0.0194  0.8027  0.3545
  771MPD2     C11376   4.246   2.677  13.809  0.0083  0.1596  0.2155
  771MPD2    C111377   4.170   2.788  13.789 -0.0374  0.3206  0.4846
  771MPD2    C211378   4.066   2.788  13.695 -0.0105 -0.4127 -0.3612
  771MPD2    C311379   4.048   2.664  13.624 -0.2343  0.6178 -0.5755
  771MPD2    C411380   4.123   2.557  13.657 -0.3894  0.2714 -0.1589
  771MPD2    C511381   4.214   2.558  13.755 -0.2686 -0.0522  0.4313
  771MPD2     H11382   4.014   2.881  13.676  3.1871  1.5162  0.2613
  771MPD2    H111383   4.113   2.467  13.598  0.9446  0.5786 -0.8518
  771MPD2    H211384   4.339   2.673  13.864  0.7753 -0.5639 -1.1345
  771MPD2    H311385   4.276   2.469  13.763  0.9252  0.6861 -0.6230
  771MPD2     N11386   3.943   2.652  13.534  0.1760  0.8609 -0.6320
  771MPD2    H511387   3.887   2.735  13.516 -0.9430  0.0792 -0.7490
  771MPD2    N111388   4.203   2.912  13.843 -0.4543  0.7184 -0.2880
  771MPD2    H711389   4.155   2.992  13.803 -3.0328 -0.0524  1.2209
  772MPD2     C11390   4.078   3.628  14.022  0.5883 -0.1137 -0.1717
  772MPD2    C111391   4.025   3.504  13.994  0.6827  0.0008 -0.3998
  772MPD2    C211392   3.891   3.483  14.016 -0.8293 -0.4498 -0.0414
  772MPD2    C311393   3.813   3.587  14.083 -0.1072  0.2731 -0.0567
  772MPD2    C411394   3.870   3.705  14.121 -0.4379 -0.2237  0.2742
  772MPD2    C511395   3.999   3.726  14.079  0.6467 -0.2566 -0.0346
  772MPD2     H11396   3.851   3.387  13.987  2.3176 -1.5665 -0.5949
  772MPD2    H111397   3.808   3.786  14.159  0.4860 -0.5493  2.4676
  772MPD2    H211398   4.180   3.664  14.014  0.6329 -0.0380  0.6689
  772MPD2    H311399   4.027   3.829  14.092 -0.5732 -0.0919  1.2816
  772MPD2     N11400   3.679   3.554  14.111  0.1097  0.3417  0.2076
  772MPD2    H511401   3.637   3.613  14.182  1.8187  1.7452  0.0484
  772MPD2    N111402   4.100   3.394  13.943  0.0250  0.5324  0.7142
  772MPD2    H711403   4.064   3.301  13.926  0.2193  0.9154 -1.8397
  773MPD2     C11404   2.837   4.184   0.462 -0.1082  0.3025 -0.3767
  773MPD2    C111405   2.790   4.076   0.390 -0.1778  0.4232 -0.5597
  773MPD2    C211406   2.805   3.955   0.444 -0.7753 -0.4041 -0.0705
  773MPD2    C311407   2.849   3.924   0.567  0.3049 -0.5445 -0.3460
  773MPD2    C411408   2.887   4.029   0.649  0.8829  0.1181 -0.5278
  773MPD2    C511409   2.879   4.159   0.596  0.3979 -0.1729 -0.5340
  773MPD2     H11410   2.781   3.875   0.374 -2.5036 -1.5232  1.7636
  773MPD2    H111411   2.929   4.014   0.748  0.7883  1.2325 -0.3148
  773MPD2    H211412   2.829   4.286   0.427 -0.5251  0.9131  1.4901
  773MPD2    H311413   2.910   4.248   0.650 -0.6415  0.0455 -0.2922
  773MPD2     N11414   2.870   3.790   0.597  0.1138  0.1848 -0.0459
  773MPD2    H511415   2.838   3.724   0.526 -3.4309 -0.0900  1.8395
  773MPD2    N111416   2.738   4.082   0.259 -0.3646 -0.3309  0.0026
  773MPD2    H711417   2.710   3.990   0.225  0.2678 -0.7566  0.6193
  774MPD2     C11418   2.197   2.823  13.399 -0.6260 -0.5272  0.2889
  774MPD2    C111419   2.294   2.912  13.444 -0.2212 -0.0636 -0.2534
  774MPD2    C211420   2.413   2.931  13.367 -0.1733 -0.6653 -0.1528
  774MPD2    C311421   2.416   2.885  13.239  0.6201  0.2123 -1.2011
  774MPD2    C411422   2.324   2.793  13.195 -0.2132 -0.6552  0.2722
  774MPD2    C511423   2.216   2.765  13.277 -0.2772 -0.0316  0.0969
  774MPD2     H11424   2.486   3.005  13.399 -1.1056  0.2198 -0.0933
  774MPD2    H111425   2.322   2.758  13.092 -0.2955  0.4812 -0.1193
  774MPD2    H211426   2.103   2.790  13.443 -0.6601  0.7218  1.1581
  774MPD2    H311427   2.140   2.706  13.228 -2.6891  3.3306 -0.1612
  774MPD2     N11428   2.504   2.955  13.148  0.3700  0.2825 -0.0365
  774MPD2    H511429   2.551   3.029  13.199  1.1386 -1.4234  1.7716
  774MPD2    N111430   2.289   2.975  13.565  0.8442 -0.2613 -0.1315
  774MPD2    H711431   2.381   3.014  13.586  0.1509  0.5545  1.3371
  775MPD2     C11432   3.100   4.608  15.608 -0.2573 -0.1218 -0.3274
  775MPD2    C111433   3.129   4.703  15.702  0.3883 -0.7771  0.1334
  775MPD2    C211434   3.233   0.066  15.678 -0.3446  0.1595  0.4256
  775MPD2    C311435   3.303   0.060  15.558 -0.1099 -0.1326  0.1452
  775MPD2    C411436   3.270   4.695  15.466 -0.2250 -0.3984 -0.6497
  775MPD2    C511437   3.173   4.601  15.491 -0.0187 -0.3023  0.5359
  775MPD2     H11438   3.248   0.142  15.753  0.4326  0.8868 -0.4568
  775MPD2    H111439   3.327   4.674  15.376  0.6355  0.0093 -0.2026
  775MPD2    H211440   3.020   4.535  15.612 -0.6739  0.2839 -1.1717
  775MPD2    H311441   3.142   4.533  15.411 -1.3521  2.4380 -1.2801
  775MPD2     N11442   3.416   0.145  15.531  0.1884 -0.5335 -0.3106
  775MPD2    H511443   3.463   0.133  15.443 -0.1972 -1.1262 -0.4373
  775MPD2    N111444   3.051   4.703  15.824  0.6713 -0.0042  0.6292
  775MPD2    H711445   2.980   4.630  15.827  0.8948 -0.2940 -1.4165
  776MPD2     C11446   3.111   0.113  11.640 -0.0451  0.0617  0.3833
  776MPD2    C111447   3.000   0.156  11.568  0.4765 -0.5924 -0.0227
  776MPD2    C211448   3.001   0.291  11.531 -0.0864 -0.0691  0.6458
  776MPD2    C311449   3.102   0.372  11.568  0.0736 -0.2958  0.0474
  776MPD2    C411450   3.199   0.327  11.654 -0.1775  0.6516 -0.4358
  776MPD2    C511451   3.206   0.194  11.690 -0.2969 -0.1365  0.0574
  776MPD2     H11452   2.922   0.328  11.466 -1.3875 -1.6373  1.3546
  776MPD2    H111453   3.281   0.387  11.691  0.0215 -0.1862  0.4922
  776MPD2    H211454   3.111   0.008  11.669  0.2686  0.5258  2.0652
  776MPD2    H311455   3.283   0.148  11.751  1.3454  2.0445 -0.4127
  776MPD2     N11456   3.125   0.500  11.512 -0.0228 -0.2243  0.0315
  776MPD2    H511457   3.208   0.552  11.540  0.4105 -1.5994  1.2832
  776MPD2    N111458   2.901   0.068  11.534  0.3106  0.3543 -0.5716
  776MPD2    H711459   2.924   4.700  11.566 -0.5422 -0.1970 -1.5481
  777MPD2     C11460   2.567   2.662   0.719  0.3049  0.0648  0.1849
  777MPD2    C111461   2.576   2.538   0.774  0.3796 -0.1827 -0.4749
  777MPD2    C211462   2.578   2.425   0.696  0.2831 -0.1610  0.2774
  777MPD2    C311463   2.580   2.437   0.558 -0.4000  0.5649  0.1279
  777MPD2    C411464   2.582   2.562   0.508  0.1529 -1.1814 -0.1437
  777MPD2    C511465   2.573   2.676   0.587  0.6664 -0.3594  0.0372
  777MPD2     H11466   2.567   2.326   0.741 -0.9907 -0.6142 -1.0335
  777MPD2    H111467   2.585   2.593   0.405  0.6947  0.9168  0.5077
  777MPD2    H211468   2.554   2.750   0.782  1.1763 -0.6887  1.4189
  777MPD2    H311469   2.548   2.775   0.550  2.3738  0.1320  0.1634
  777MPD2     N11470   2.558   2.321   0.474 -0.2044  0.2357  0.3035
  777MPD2    H511471   2.537   2.236   0.526  1.3880  0.7405  1.7566
  777MPD2    N111472   2.594   2.536   0.911  0.2037 -0.6647 -0.1917
  777MPD2    H711473   2.594   2.624   0.961 -0.3963 -0.4370 -0.5888
  778MPD2     C11474   4.179   3.187  14.719  0.3301  0.0654 -0.6791
  778MPD2    C111475   4.201   3.072  14.644  0.4114  0.6275 -0.7401
  778MPD2    C211476   4.286   3.079  14.537 -0.4017 -0.4509  0.2986
  778MPD2    C311477   4.347   3.196  14.504 -0.2316 -0.1478  0.7495
  778MPD2    C411478   4.313   3.309  14.572 -0.8764 -0.4202 -0.0002
  778MPD2    C511479   4.236   3.306  14.683  0.2389  0.3034  0.0179
  778MPD2     H11480   4.301   2.993  14.473  3.8495 -1.5524  2.7307
  778MPD2    H111481   4.339   3.405  14.528 -3.2162 -0.2867 -1.0912
  778MPD2    H211482   4.121   3.189  14.810  1.2753  1.0322 -0.0937
  778MPD2    H311483   4.204   3.389  14.745  0.1876  0.9688 -0.8928
  778MPD2     N11484   4.432   3.193  14.386 -0.1281  0.4417  0.0721
  778MPD2    H511485   4.448   3.105  14.340 -1.2250  0.0328  0.4802
  778MPD2    N111486   4.136   2.949  14.679  0.6355  0.5340 -0.2951
  778MPD2    H711487   4.155   2.873  14.614  2.4269 -1.3871  2.4783
  779MPD2     C11488   3.834   1.663  13.902 -1.0392 -0.3086  0.9415
  779MPD2    C111489   3.859   1.678  14.039 -0.1533 -0.1846  0.1445
  779MPD2    C211490   3.877   1.808  14.078 -0.2308 -0.2390 -0.2863
  779MPD2    C311491   3.882   1.917  13.988 -0.3743 -0.2484  0.5542
  779MPD2    C411492   3.863   1.892  13.854 -0.1987  1.1668 -0.2937
  779MPD2    C511493   3.840   1.763  13.815  0.8643 -0.4349 -0.3722
  779MPD2     H11494   3.902   1.831  14.181 -0.6154 -0.4799 -0.1388
  779MPD2    H111495   3.877   1.969  13.779  0.4736  1.0100 -0.3292
  779MPD2    H211496   3.816   1.563  13.863  1.7076  0.0609 -1.2397
  779MPD2    H311497   3.826   1.737  13.711 -0.7541 -0.2751 -0.1983
  779MPD2     N11498   3.919   2.043  14.043  0.3177 -0.3665 -0.4156
  779MPD2    H511499   3.931   2.054  14.143 -0.3305 -0.0610 -0.3733
  779MPD2    N111500   3.882   1.565  14.120  0.0293  0.7874 -0.2049
  779MPD2    H711501   3.884   1.480  14.066 -2.4122 -2.0938  4.2484
  780MPD2     C11502   4.292   1.472   0.705  0.3580 -0.3127 -0.5153
  780MPD2    C111503   4.203   1.410   0.796  0.6688  0.0527 -0.3995
  780MPD2    C211504   4.075   1.463   0.817  0.0395 -0.3400 -0.8459
  780MPD2    C311505   4.026   1.568   0.739 -0.2333 -0.3047 -0.7213
  780MPD2    C411506   4.109   1.617   0.640  0.2936 -0.0290  0.8419
  780MPD2    C511507   4.243   1.580   0.636 -0.1333  0.4046 -0.6792
  780MPD2     H11508   3.995   1.430   0.882 -0.4109  1.7777 -0.3189
  780MPD2    H111509   4.078   1.699   0.577  2.8228  1.0977  1.0794
  780MPD2    H211510   4.392   1.434   0.686  0.9053  1.0893 -0.4885
  780MPD2    H311511   4.305   1.640   0.570  0.2077  1.4181  0.5699
  780MPD2     N11512   3.892   1.595   0.745  0.0619  0.4994  0.0049
  780MPD2    H511513   3.831   1.536   0.800  0.8358 -0.3153 -0.0014
  780MPD2    N111514   4.237   1.287   0.855 -0.3101 -0.2252 -0.7256
  780MPD2    H711515   4.326   1.244   0.832 -0.1985 -0.9891  1.0817
  781MPD2     C11516   0.581   3.156  11.747  1.0963  0.1512  0.2388
  781MPD2    C111517   0.688   3.216  11.817  0.3208 -0.1756  0.3232
  781MPD2    C211518   0.818   3.193  11.774 -0.2621  0.0620  0.2834
  781MPD2    C311519   0.840   3.119  11.658  0.6074  0.3231  0.5682
  781MPD2    C411520   0.733   3.060  11.599 -0.1973  0.3871 -0.0676
  781MPD2    C511521   0.604   3.079  11.633  0.2569 -0.1909  0.3068
  781MPD2     H11522   0.893   3.236  11.839 -0.6382  0.8151  0.2203
  781MPD2    H111523   0.747   2.996  11.513  0.3973 -0.2847  0.5343
  781MPD2    H211524   0.479   3.177  11.775  0.8502  0.8668 -1.1935
  781MPD2    H311525   0.518   3.032  11.588  0.3500 -0.6816  0.6458
  781MPD2     N11526   0.969   3.104  11.601  0.1990  0.1170  0.1941
  781MPD2    H511527   0.972   3.060  11.510 -0.5029  1.5923 -0.5453
  781MPD2    N111528   0.670   3.297  11.931 -0.2118  0.7181  0.1004
  781MPD2    H711529   0.755   3.331  11.974 -0.3919  0.4784  0.6466
  782MPD2     C11530   3.652   4.099  10.345 -0.1526  0.0808 -0.6187
  782MPD2    C111531   3.725   4.034  10.443 -0.5689 -0.0325  0.8277
  782MPD2    C211532   3.742   4.103  10.561 -0.1379 -0.3346  0.5295
  782MPD2    C311533   3.703   4.240  10.575  0.5138  0.0933  0.2890
  782MPD2    C411534   3.639   4.301  10.466  0.1566  1.0780  0.1988
  782MPD2    C511535   3.602   4.231  10.357  0.2764 -0.1354  0.7361
  782MPD2     H11536   3.771   4.056  10.653  2.7274 -1.1917 -0.8167
  782MPD2    H111537   3.602   4.402  10.476  1.6611  1.4313  2.1237
  782MPD2    H211538   3.640   4.048  10.251 -0.3818 -0.4431 -0.3034
  782MPD2    H311539   3.553   4.279  10.273  0.5596  0.5585  0.9667
  782MPD2     N11540   3.728   4.318  10.687  0.2645  0.0918  0.4920
  782MPD2    H511541   3.700   4.415  10.692  0.3652  0.2349 -1.5111
  782MPD2    N111542   3.781   3.911  10.421  0.5429  0.4196  0.2141
  782MPD2    H711543   3.753   3.859  10.339 -1.3980 -0.9399  1.7138
  783MPD2     C11544   3.219   3.420  10.513  0.7652 -0.2263 -0.0955
  783MPD2    C111545   3.282   3.479  10.617 -0.2516  0.6947 -0.8380
  783MPD2    C211546   3.417   3.499  10.614  0.0108  0.5236 -0.3310
  783MPD2    C311547   3.492   3.463  10.501  0.0015  0.2303 -0.1366
  783MPD2    C411548   3.422   3.396  10.399 -0.1886 -0.7570 -0.2566
  783MPD2    C511549   3.287   3.391  10.397  0.0417  0.7887  0.4237
  783MPD2     H11550   3.465   3.557  10.692  0.2444 -2.3182  1.6082
  783MPD2    H111551   3.465   3.355  10.308 -1.3312 -2.3125 -0.1110
  783MPD2    H211552   3.113   3.402  10.522  0.3318  2.6042  0.5835
  783MPD2    H311553   3.232   3.338  10.320  0.7130  1.6277 -0.6242
  783MPD2     N11554   3.629   3.478  10.500  0.5019 -0.1639  0.1568
  783MPD2    H511555   3.665   3.530  10.579  2.5029  1.3494 -1.7532
  783MPD2    N111556   3.199   3.527  10.721  0.0707  0.2309  0.2280
  783MPD2    H711557   3.099   3.520  10.706  0.6071 -2.0840 -2.2050
  784MPD2     C11558   1.084   4.476   0.866 -0.3686 -0.0148 -0.2880
  784MPD2    C111559   1.053   4.584   0.936  0.0409 -0.7547 -0.4403
  784MPD2    C211560   0.943   4.661   0.895  0.2218  0.8847  0.1100
  784MPD2    C311561   0.871   4.638   0.784  0.7344 -0.0771  0.6601
  784MPD2    C411562   0.906   4.520   0.718 -0.6120  0.7417  0.1615
  784MPD2    C511563   1.011   4.442   0.760  0.1068 -0.4288  0.3701
  784MPD2     H11564   0.931   0.028   0.949 -1.5523 -0.3924  1.9064
  784MPD2    H111565   0.860   4.491   0.624  1.5833 -1.1427 -0.3219
  784MPD2    H211566   1.162   4.408   0.899  1.7090  2.6960  0.3659
  784MPD2    H311567   1.051   4.359   0.704 -2.4806 -1.4477  0.0157
  784MPD2     N11568   0.774   0.009   0.750 -0.5256 -0.8272  0.4442
  784MPD2    H511569   0.768   0.085   0.817 -1.6258 -0.4778 -0.0491
  784MPD2    N111570   1.119   4.621   1.053 -0.0357 -0.2771 -0.3667
  784MPD2    H711571   1.085   4.705   1.098  0.6001 -0.3489  0.2460
  785MPD2     C11572   0.942   3.392  10.235 -0.5748 -0.3250 -0.0009
  785MPD2    C111573   0.933   3.475  10.123  0.3908 -0.4890  0.4139
  785MPD2    C211574   0.858   3.433  10.011 -0.3100  0.1132  0.6920
  785MPD2    C311575   0.810   3.301  10.002 -0.0263 -0.3693 -0.1152
  785MPD2    C411576   0.812   3.223  10.114  0.4130  0.2296 -0.1977
  785MPD2    C511577   0.876   3.272  10.230 -0.2390 -0.2435  0.8591
  785MPD2     H11578   0.846   3.501   9.927 -2.1365  0.5266  1.2704
  785MPD2    H111579   0.767   3.124  10.109  0.6755  0.0009  1.8110
  785MPD2    H211580   0.994   3.422  10.325  0.1203 -0.5644 -0.3241
  785MPD2    H311581   0.864   3.210  10.318  1.6028 -1.4832  0.2235
  785MPD2     N11582   0.742   3.272   9.881 -0.1065  0.5109  0.0081
  785MPD2    H511583   0.748   3.344   9.810  0.4256 -1.4733 -1.9844
  785MPD2    N111584   0.987   3.602  10.146 -0.0438  0.2409 -0.1064
  785MPD2    H711585   1.043   3.612  10.230 -0.3931 -0.6127  0.2324
  786MPD2     C11586   0.175   1.293  14.629 -0.2622  0.1668  0.4980
  786MPD2    C111587   0.167   1.157  14.641  0.8868 -0.3108  0.6947
  786MPD2    C211588   0.188   1.113  14.770  0.5588  1.0342  0.3266
  786MPD2    C311589   0.231   1.184  14.879  0.6677 -0.0894 -0.5009
  786MPD2    C411590   0.249   1.321  14.860  0.2028 -0.0921 -0.3942
  786MPD2    C511591   0.215   1.368  14.734 -0.8712  0.0499 -0.3426
  786MPD2     H11592   0.150   1.012  14.785  1.5916  0.8513  1.7040
  786MPD2    H111593   0.279   1.390  14.939 -2.4380  2.4757 -1.6024
  786MPD2    H211594   0.154   1.340  14.534 -1.6706  0.3743  0.9147
  786MPD2    H311595   0.213   1.477  14.726 -0.0865 -0.0523 -1.8076
  786MPD2     N11596   0.256   1.130  15.006 -0.2289  0.1690 -0.3959
  786MPD2    H511597   0.276   1.202  15.075  0.8620  0.7754 -1.3220
  786MPD2    N111598   0.120   1.069  14.544  0.3674 -0.8074  0.7763
  786MPD2    H711599   0.123   0.970  14.566  2.1731 -0.8319  0.4207
  787MPD2     C11600   4.562   0.704  14.895  0.2858  0.5601 -0.4058
  787MPD2    C111601   4.618   0.649  14.775 -0.0959  0.4792  0.5219
  787MPD2    C211602   4.700   0.539  14.789 -0.6150  0.5615  0.5779
  787MPD2    C311603   0.009   0.492  14.917 -0.6296  0.4441 -0.0663
  787MPD2    C411604   4.674   0.543  15.030 -0.0607 -0.3113  0.1697
  787MPD2    C511605   4.594   0.652  15.022 -0.3722 -0.7313  0.1799
  787MPD2     H11606   0.020   0.481  14.710 -1.4527  1.5961 -0.6715
  787MPD2    H111607   4.704   0.498  15.125  3.4635 -1.1590 -1.3131
  787MPD2    H211608   4.481   0.774  14.879 -0.5169 -0.1570  0.6181
  787MPD2    H311609   4.548   0.687  15.113 -0.1190 -3.2607  1.2872
  787MPD2     N11610   0.098   0.386  14.920  0.4286 -0.2194 -0.3484
  787MPD2    H511611   0.127   0.355  14.827 -1.1550 -1.9157 -0.2809
  787MPD2    N111612   4.590   0.713  14.652 -0.0929 -0.2306 -0.5214
  787MPD2    H711613   4.532   0.796  14.656 -1.2239 -1.0538  0.2188
  788MPD2     C11614   1.683   4.332   0.543 -0.3561  0.8795 -0.1220
  788MPD2    C111615   1.725   4.203   0.556 -0.2228  0.1865  0.1576
  788MPD2    C211616   1.700   4.118   0.444 -0.2582  0.0566  0.9632
  788MPD2    C311617   1.642   4.166   0.328  0.3768 -0.9649 -0.3270
  788MPD2    C411618   1.623   4.299   0.312 -0.4605  0.4193  0.4813
  788MPD2    C511619   1.635   4.381   0.420 -0.3167  0.3703  0.7883
  788MPD2     H11620   1.706   4.011   0.453 -0.3574  0.1486  2.1199
  788MPD2    H111621   1.563   4.335   0.230 -1.4523 -2.3538 -0.0162
  788MPD2    H211622   1.688   4.397   0.629  1.3148  0.0109  0.4192
  788MPD2    H311623   1.606   4.486   0.418 -0.8234  0.1516 -2.7627
  788MPD2     N11624   1.591   4.070   0.240 -0.8231 -0.3742  0.3145
  788MPD2    H511625   1.597   3.971   0.261 -0.6064 -1.0619 -3.0326
  788MPD2    N111626   1.741   4.157   0.685  0.6436 -0.7702 -0.1526
  788MPD2    H711627   1.723   4.219   0.763 -0.5421  2.4546 -2.9806
  789MPD2     C11628   1.825   3.459  16.267 -0.6481  0.1383  0.3461
  789MPD2    C111629   1.785   3.363  16.355 -0.1032 -0.3373 -0.3138
  789MPD2    C211630   1.681   3.373  16.440 -0.6420  0.6078 -1.1765
  789MPD2    C311631   1.609   3.485  16.435  0.1771 -0.5518  0.4955
  789MPD2    C411632   1.641   3.588  16.348 -0.2669  0.8756 -0.1388
  789MPD2    C511633   1.746   3.575  16.260 -0.2559  0.5564  0.5350
  789MPD2     H11634   1.668   3.289  16.508  0.7155  1.0036 -0.4098
  789MPD2    H111635   1.580   3.677  16.358 -1.6455 -0.1356  0.5299
  789MPD2    H211636   1.905   3.453  16.194  1.7236 -0.6725  2.9947
  789MPD2    H311637   1.776   3.659  16.197  0.8631  2.3067  3.4045
  789MPD2     N11638   1.497   3.509  16.522 -0.7427 -0.6946 -0.1471
  789MPD2    H511639   1.450   3.599  16.511  0.7094 -0.3845 -3.9372
  789MPD2    N111640   1.850   3.234  16.351 -0.8560  0.0425  0.0190
  789MPD2    H711641   1.803   3.159  16.400 -2.0523  0.7751 -0.0196
  790MPD2     C11642   3.236   0.625  13.667 -0.2663 -0.4803 -0.0146
  790MPD2    C111643   3.278   0.493  13.660 -0.5998 -0.5666  0.1600
  790MPD2    C211644   3.240   0.419  13.544  0.9421  0.4070  0.2039
  790MPD2    C311645   3.162   0.475  13.443  0.6239  0.2811  0.2633
  790MPD2    C411646   3.124   0.605  13.452 -0.5780 -0.8253  0.1269
  790MPD2    C511647   3.171   0.682  13.559 -0.0527  0.1305 -0.8874
  790MPD2     H11648   3.277   0.317  13.539 -1.4276 -0.4645  0.3581
  790MPD2    H111649   3.090   0.660  13.365  2.4423 -0.2925 -0.7158
  790MPD2    H211650   3.278   0.692  13.741 -0.5014 -2.1379  1.5991
  790MPD2    H311651   3.148   0.788  13.556  0.3745  0.2765  0.8584
  790MPD2     N11652   3.109   0.385  13.348 -0.3509  0.1843  0.5444
  790MPD2    H511653   3.153   0.293  13.348  1.4150  1.0030 -1.2917
  790MPD2    N111654   3.352   0.430  13.764 -0.2646 -0.5274 -0.2271
  790MPD2    H711655   3.338   0.474  13.855  1.3491  0.2072 -0.3206
  791MPD2     C11656   2.481   0.409  12.812 -0.3791 -0.3143  0.0984
  791MPD2    C111657   2.525   0.287  12.861  0.4720 -0.5119  0.7828
  791MPD2    C211658   2.455   0.177  12.824  0.2465  0.4829 -0.2494
  791MPD2    C311659   2.348   0.174  12.738  0.8288  0.3138 -0.5483
  791MPD2    C411660   2.308   0.294  12.691 -0.4518 -0.6552  0.3158
  791MPD2    C511661   2.376   0.408  12.733  0.2863 -0.0877 -0.6282
  791MPD2     H11662   2.481   0.081  12.869  1.2461  0.7240 -0.3246
  791MPD2    H111663   2.228   0.316  12.622 -0.5201 -0.3147  0.5057
  791MPD2    H211664   2.527   0.504  12.836  0.0636 -0.9275  1.6499
  791MPD2    H311665   2.341   0.503  12.694  0.4949  1.3089  2.5634
  791MPD2     N11666   2.290   0.049  12.703  0.5694 -0.3266  0.2905
  791MPD2    H511667   2.333   4.685  12.723 -1.4295 -0.9117  2.0279
  791MPD2    N111668   2.645   0.280  12.943 -0.2432 -0.4583  0.4304
  791MPD2    H711669   2.691   0.369  12.957 -0.1624 -0.1242 -1.8834
  792MPD2     C11670   3.357   0.065  11.432  0.0519 -0.7200  0.0657
  792MPD2    C111671   3.287   0.094  11.314  0.2475 -0.6672  0.6286
  792MPD2    C211672   3.203   4.722  11.263  0.8376  0.3852  0.3284
  792MPD2    C311673   3.190   4.596  11.319 -0.2906  0.1827 -1.0440
  792MPD2    C411674   3.261   4.567  11.433 -0.0697 -0.0098  0.1019
  792MPD2    C511675   3.336   4.662  11.488 -0.4709 -0.5140 -0.0340
  792MPD2     H11676   3.154   0.022  11.170  0.8537  3.6423  1.2174
  792MPD2    H111677   3.251   4.477  11.493 -1.1490  0.3507  0.4565
  792MPD2    H211678   3.430   0.132  11.475 -0.9134  0.0805  0.4456
  792MPD2    H311679   3.400   4.635  11.571  1.2644  0.7254 -0.9669
  792MPD2     N11680   3.134   4.481  11.253 -0.3396  0.3746  0.8394
  792MPD2    H511681   3.148   4.386  11.284 -0.5919 -0.3601 -1.3177
  792MPD2    N111682   3.315   0.222  11.252 -0.3108  0.7041 -0.3733
  792MPD2    H711683   3.382   0.274  11.308  0.0430 -1.3365  1.0748
  793MPD2     C11684   2.713   4.665  10.413  0.0099 -0.0174  0.0142
  793MPD2    C111685   2.833   4.683  10.475  0.2798  0.1954  0.8450
  793MPD2    C211686   2.867   4.613  10.590 -0.2488  0.4364  0.2396
  793MPD2    C311687   2.782   4.518  10.642  0.0985  0.9522 -0.2590
  793MPD2    C411688   2.666   4.494  10.574 -0.5766 -0.1616  0.0698
  793MPD2    C511689   2.629   4.565  10.460 -0.2428  0.4063 -0.3115
  793MPD2     H11690   2.955   4.639  10.648 -2.2469  2.6055  2.2924
  793MPD2    H111691   2.596   4.422  10.617  1.8143 -2.7015 -0.3481
  793MPD2    H211692   2.669   4.720  10.331  0.2615  1.2552  0.7233
  793MPD2    H311693   2.530   4.545  10.420 -0.7963  0.1498  1.1553
  793MPD2     N11694   2.821   4.458  10.759 -0.2110 -0.2160  0.2104
  793MPD2    H511695   2.903   4.486  10.813 -0.1416 -0.2137  0.1030
  793MPD2    N111696   2.924   0.059  10.433  0.4363  0.0131 -0.4455
  793MPD2    H711697   3.013   0.058  10.482  1.6780  1.7359 -2.7109
  794MPD2     C11698   2.742   4.440  17.172  0.0462 -0.3560  0.6142
  794MPD2    C111699   2.636   4.355  17.206 -0.1562  0.0369  0.4088
  794MPD2    C211700   2.534   4.326  17.117 -0.6181 -0.0034 -0.6427
  794MPD2    C311701   2.537   4.372  16.984  0.1336  0.0262  0.5805
  794MPD2    C411702   2.635   4.460  16.951 -0.5763 -0.3084  0.1592
  794MPD2    C511703   2.733   4.496  17.044  0.2934 -0.3747 -0.7805
  794MPD2     H11704   2.458   4.253  17.143 -2.1949  1.5201 -0.9369
  794MPD2    H111705   2.637   4.488  16.846 -1.6406  0.1440  0.2590
  794MPD2    H211706   2.811   4.480  17.246  0.1576 -0.6406  0.6653
  794MPD2    H311707   2.813   4.566  17.024 -1.3282  2.3797  2.4471
  794MPD2     N11708   2.442   4.324  16.893 -0.6238 -0.4594 -0.4960
  794MPD2    H511709   2.433   4.367  16.801  0.6071 -0.8362 -0.7955
  794MPD2    N111710   2.633   4.282  17.326 -0.0787 -0.0604  0.2967
  794MPD2    H711711   2.541   4.242  17.344 -0.1952  1.3187  2.8463
  795MPD2     C11712   0.580   1.850  13.507  0.6656 -0.6064  0.9305
  795MPD2    C111713   0.588   1.773  13.391 -0.1530 -0.1325 -0.5978
  795MPD2    C211714   0.688   1.682  13.379  0.4238  0.7439 -0.4579
  795MPD2    C311715   0.771   1.659  13.488  0.2192  0.4317  0.0273
  795MPD2    C411716   0.753   1.723  13.612 -0.5653  0.7747  0.2080
  795MPD2    C511717   0.653   1.817  13.621  0.3443  0.3963  0.5420
  795MPD2     H11718   0.708   1.629  13.286 -0.9218  1.0438 -0.9184
  795MPD2    H111719   0.810   1.703  13.703 -0.7200 -0.6221 -0.0018
  795MPD2    H211720   0.511   1.931  13.527  0.6180 -0.1916 -0.8823
  795MPD2    H311721   0.651   1.879  13.710 -0.9341 -0.5680  1.1772
  795MPD2     N11722   0.878   1.565  13.469 -0.1276 -0.4350 -0.0979
  795MPD2    H511723   0.894   1.536  13.373  0.1906  1.2835 -0.5680
  795MPD2    N111724   0.507   1.787  13.277 -0.4572 -0.1517 -0.2279
  795MPD2    H711725   0.520   1.727  13.197 -1.2341 -1.7131  0.8164
  796MPD2     C11726   0.127   3.213  15.899  0.0995  0.2324  0.3756
  796MPD2    C111727   0.089   3.265  16.020  0.0012 -0.2022 -0.2075
  796MPD2    C211728   0.057   3.401  16.026  0.6607 -0.2627 -0.5661
  796MPD2    C311729   0.086   3.474  15.910  0.2546  0.0129 -0.1704
  796MPD2    C411730   0.137   3.419  15.790  0.6212 -0.3397 -0.1735
  796MPD2    C511731   0.143   3.284  15.790 -0.5550 -0.6393 -0.1130
  796MPD2     H11732   0.044   3.450  16.122  0.2695 -1.7784  0.1601
  796MPD2    H111733   0.154   3.477  15.700 -0.4239  1.1145  0.5537
  796MPD2    H211734   0.140   3.106  15.887  0.4737  0.3450 -0.2555
  796MPD2    H311735   0.168   3.230  15.700 -0.5455  0.6537 -0.8906
  796MPD2     N11736   0.069   3.613  15.922  0.3054 -0.3837 -0.3956
  796MPD2    H511737   0.024   3.648  16.006  3.1135  3.0688 -0.3246
  796MPD2    N111738   0.089   3.186  16.137 -0.3429  0.4474 -0.4737
  796MPD2    H711739   0.119   3.090  16.119 -1.2571 -0.2957  1.9893
  797MPD2     C11740   1.043   2.420  17.480 -0.3519 -0.2587 -0.3505
  797MPD2    C111741   0.962   2.446  17.584  0.2727  0.1534  0.5696
  797MPD2    C211742   0.825   2.448  17.561  0.5276 -0.6436 -0.0728
  797MPD2    C311743   0.765   2.439  17.437  0.4525 -0.3873  0.1714
  797MPD2    C411744   0.852   2.424  17.327 -0.4016 -0.5148  0.4412
  797MPD2    C511745   0.990   2.414  17.355 -0.0325 -0.5023 -0.3028
  797MPD2     H11746   0.755   2.452  17.644  0.5673 -1.1468 -0.0150
  797MPD2    H111747   0.815   2.432  17.226  2.0738  0.6096 -0.3614
  797MPD2    H211748   1.150   2.413  17.496 -0.7635 -0.7784  2.1945
  797MPD2    H311749   1.060   2.398  17.274  0.0679  1.1484 -0.5544
  797MPD2     N11750   0.623   2.456  17.434  0.2634 -0.0237 -0.8092
  797MPD2    H511751   0.581   2.488  17.521 -0.7008  0.6876 -1.5400
  797MPD2    N111752   1.012   2.478   0.011 -0.1313  0.2969  0.0785
  797MPD2    H711753   0.942   2.486   0.084  1.7962  0.8227  1.8964
  798MPD2     C11754   0.466   2.880   0.259 -0.0348 -0.7732 -0.5462
  798MPD2    C111755   0.499   2.761   0.184  0.6311 -0.1034 -0.4953
  798MPD2    C211756   0.615   2.698   0.215  0.7956  0.6678 -0.0999
  798MPD2    C311757   0.699   2.734   0.318 -0.1757  0.1617 -0.5719
  798MPD2    C411758   0.653   2.834   0.403  0.1214 -0.2158 -0.4806
  798MPD2    C511759   0.545   2.911   0.369  0.2564 -1.2632  0.5753
  798MPD2     H11760   0.656   2.624   0.148 -0.5477  0.4471 -0.6664
  798MPD2    H111761   0.715   2.860   0.488  0.4910 -2.2649 -0.1395
  798MPD2    H211762   0.383   2.947   0.239  0.0623 -0.5187 -0.0907
  798MPD2    H311763   0.534   3.010   0.410 -1.9614 -0.4312 -2.0161
  798MPD2     N11764   0.823   2.679   0.330 -0.0851 -0.0107 -0.2092
  798MPD2    H511765   0.843   2.597   0.274  0.0155 -1.5975  2.1370
  798MPD2    N111766   0.425   2.724   0.071 -0.1040 -0.5125 -0.2802
  798MPD2    H711767   0.351   2.787   0.042 -1.0168 -1.0672  0.8345
  799MPD2     C11768   4.546   0.049  15.118 -0.4991  0.6314 -0.3122
  799MPD2    C111769   4.622   4.716  15.017 -0.6260  0.2320 -0.0643
  799MPD2    C211770   4.628   0.050  14.894 -0.1039  0.2019 -0.3150
  799MPD2    C311771   4.562   0.167  14.866  0.1124 -0.8369  0.1523
  799MPD2    C411772   4.495   0.234  14.972 -0.5290 -0.6441  0.4303
  799MPD2    C511773   4.475   0.163  15.091 -0.3488  1.2717 -0.2952
  799MPD2     H11774   4.676   4.721  14.813 -0.3735 -0.9585  0.3133
  799MPD2    H111775   4.449   0.332  14.969 -0.5206 -0.6494  0.0899
  799MPD2    H211776   4.519   4.713  15.204  2.0612  1.4433  1.0830
  799MPD2    H311777   4.399   0.194  15.161 -0.6028  0.6336 -0.2815
  799MPD2     N11778   4.555   0.219  14.738  0.2729  0.0903  0.8033
  799MPD2    H511779   4.481   0.287  14.725 -0.0821 -0.3282  0.6480
  799MPD2    N111780   4.669   4.580  15.012  0.0890 -0.3670  0.3686
  799MPD2    H711781   4.696   4.535  14.925 -2.7217 -0.3109 -0.5248
  800MPD2     C11782   0.352   1.050  14.034  0.0213  0.1297  0.1658
  800MPD2    C111783   0.486   1.071  14.006 -0.1635 -0.4888  0.1462
  800MPD2    C211784   0.542   0.980  13.917  0.3752 -0.3829  0.1171
  800MPD2    C311785   0.474   0.865  13.875  0.1154  0.5068  0.1017
  800MPD2    C411786   0.337   0.852  13.898  0.0118  0.2724 -0.2331
  800MPD2    C511787   0.281   0.946  13.982  0.3769  0.1510  0.3249
  800MPD2     H11788   0.646   0.982  13.885  0.7730  0.9268  1.5112
  800MPD2    H111789   0.277   0.764  13.877 -0.6806  0.5503  0.5766
  800MPD2    H211790   0.299   1.113  14.105 -1.3419 -0.9098  0.0663
  800MPD2    H311791   0.177   0.938  14.013 -0.6437 -0.8987 -3.2891
  800MPD2     N11792   0.543   0.778  13.791 -0.2954  0.2931  0.7246
  800MPD2    H511793   0.635   0.808  13.758  0.2361 -1.9049  0.2267
  800MPD2    N111794   0.559   1.164  14.083  0.0209 -0.1358  0.4206
  800MPD2    H711795   0.507   1.215  14.153  0.6502 -1.5309  1.9070
  801MPD2     C11796   0.485   1.723  14.558 -0.5232 -0.5916  0.4218
  801MPD2    C111797   0.443   1.615  14.480  0.4582 -0.3342 -0.7322
  801MPD2    C211798   0.311   1.592  14.468 -0.6961 -0.1751  0.5301
  801MPD2    C311799   0.216   1.660  14.544 -0.6968  0.7700 -0.0962
  801MPD2    C411800   0.265   1.758  14.631 -0.3900 -0.0719  0.4510
  801MPD2    C511801   0.397   1.786  14.642 -0.4983 -0.0939 -0.3424
  801MPD2     H11802   0.285   1.510  14.402 -0.5800  0.8689 -0.8050
  801MPD2    H111803   0.202   1.816  14.696 -1.2449 -0.9887  0.4349
  801MPD2    H211804   0.587   1.762  14.556 -1.8485  2.7719 -2.1203
  801MPD2    H311805   0.433   1.860  14.712  2.5820 -2.2098  0.3048
  801MPD2     N11806   0.076   1.629  14.544 -0.2660  0.2279  0.4267
  801MPD2    H511807   0.025   1.669  14.623 -0.1105  0.1394  0.5730
  801MPD2    N111808   0.526   1.538  14.396  0.1737  0.1988 -0.1239
  801MPD2    H711809   0.480   1.459  14.351 -0.6647  0.3560  0.4763
  802MPD2     C11810   4.559   2.121   0.563 -0.4861  0.6324  0.8409
  802MPD2    C111811   4.458   2.092   0.480  0.5389  0.1011 -0.2859
  802MPD2    C211812   4.438   1.957   0.451  0.3359  0.3958 -0.4229
  802MPD2    C311813   4.532   1.860   0.479  0.0706  0.3162 -0.8488
  802MPD2    C411814   4.640   1.897   0.556 -0.3522  0.8306 -0.0576
  802MPD2    C511815   4.653   2.029   0.604 -0.8383 -0.8257 -0.4367
  802MPD2     H11816   4.346   1.927   0.402 -0.1551 -0.1558  0.8356
  802MPD2    H111817   4.700   1.821   0.604 -0.9372 -0.3387 -1.1896
  802MPD2    H211818   4.585   2.220   0.596  1.6233  0.4132 -0.1170
  802MPD2    H311819   0.023   2.063   0.644 -2.0870  0.4034  1.4756
  802MPD2     N11820   4.515   1.732   0.432 -0.1262 -0.5218 -0.7896
  802MPD2    H511821   4.434   1.712   0.375 -2.2311  0.4119  1.8975
  802MPD2    N111822   4.360   2.184   0.448  0.0397 -0.5428  0.8153
  802MPD2    H711823   4.280   2.144   0.399 -0.3200  2.0949 -0.7764
  803MPD2     C11824   0.973   0.298  12.000  0.2542 -0.4318 -0.5200
  803MPD2    C111825   1.076   0.309  12.090 -0.4737  0.1947 -0.6236
  803MPD2    C211826   1.077   0.225  12.204  0.6143 -0.3321 -0.2200
  803MPD2    C311827   0.979   0.120  12.209 -0.1668  0.3368  0.3943
  803MPD2    C411828   0.879   0.109  12.120  0.5087  0.7915  0.5018
  803MPD2    C511829   0.876   0.203  12.020  0.0182  0.0214  0.3116
  803MPD2     H11830   1.159   0.236  12.274 -0.6367 -0.1665  1.2097
  803MPD2    H111831   0.800   0.035  12.121  2.6409 -1.5300 -1.0790
  803MPD2    H211832   0.964   0.362  11.913 -2.4563 -0.9045 -0.5781
  803MPD2    H311833   0.798   0.191  11.946 -1.5338  0.1524  1.9501
  803MPD2     N11834   0.969   0.029  12.318 -0.6440  0.0111  0.3374
  803MPD2    H511835   0.886   4.699  12.340 -0.9106  0.6600  0.9714
  803MPD2    N111836   1.161   0.417  12.087 -0.1215  0.0919  0.2121
  803MPD2    H711837   1.229   0.416  12.162  2.7368 -0.4562 -2.3526
  804MPD2     C11838   0.607   1.813  17.067 -0.5133 -0.2138 -0.4395
  804MPD2    C111839   0.625   1.737  17.181  0.8530 -0.3021 -0.5856
  804MPD2    C211840   0.724   1.777  17.268  0.0473  1.1620 -0.0436
  804MPD2    C311841   0.796   1.894  17.246  0.3641 -0.2957 -0.4839
  804MPD2    C411842   0.781   1.960  17.127  0.0773  1.0857  0.0150
  804MPD2    C511843   0.680   1.925  17.034  0.1276  0.4076  0.9020
  804MPD2     H11844   0.743   1.712  17.352 -0.4541 -0.4437 -1.1611
  804MPD2    H111845   0.835   2.050  17.099  0.1302  0.6459 -1.2930
  804MPD2    H211846   0.528   1.789  16.997  0.9917 -1.1241 -1.8253
  804MPD2    H311847   0.657   1.983  16.945  2.7022  0.6536  0.3940
  804MPD2     N11848   0.885   1.944  17.345  0.1632 -0.4163  0.5583
  804MPD2    H511849   0.948   2.018  17.315 -0.1713 -0.5416 -0.4631
  804MPD2    N111850   0.552   1.622  17.211 -0.6000 -0.3443 -0.3957
  804MPD2    H711851   0.567   1.587  17.306  0.3175  0.6178 -0.1827
  805MPD2     C11852   3.942   4.614  15.792 -0.3228  0.1233 -0.8993
  805MPD2    C111853   4.063   4.631  15.730 -0.6547 -0.7268 -0.2053
  805MPD2    C211854   4.170   4.671  15.805  0.6235  1.1758  0.2843
  805MPD2    C311855   4.157   4.693  15.939  0.4400  0.6349  0.3675
  805MPD2    C411856   4.033   4.677  15.999  0.3266 -0.2813 -0.3908
  805MPD2    C511857   3.931   4.639  15.926 -0.5832 -0.3694 -0.2541
  805MPD2     H11858   4.267   4.685  15.758  0.5779  0.5037 -0.0113
  805MPD2    H111859   4.022   4.683  16.106 -0.7083 -2.4346 -0.3655
  805MPD2    H211860   3.853   4.592  15.735 -1.2458 -0.1127  0.6500
  805MPD2    H311861   3.836   4.608  15.969 -1.0494 -0.7443 -1.5488
  805MPD2     N11862   4.271   4.725  16.015 -0.2232 -0.5354 -0.0365
  805MPD2    H511863   4.352   0.030  15.961 -0.7010  1.2021  0.2364
  805MPD2    N111864   4.083   4.602  15.589  0.2305 -0.7203  0.5469
  805MPD2    H711865   4.179   4.611  15.559  0.1860  0.7528  0.8443
  806MPD2     C11866   0.247   3.537   0.364 -0.5112 -0.1316  0.1710
  806MPD2    C111867   0.154   3.630   0.411 -0.1771 -0.2600  0.1582
  806MPD2    C211868   0.186   3.767   0.392  0.1457 -0.2080  0.1605
  806MPD2    C311869   0.307   3.805   0.335  0.0240  0.4186  0.1368
  806MPD2    C411870   0.387   3.710   0.284  0.0065 -0.1309 -0.1569
  806MPD2    C511871   0.361   3.577   0.303  0.7900  0.4349 -0.3982
  806MPD2     H11872   0.125   3.847   0.434 -1.6287 -1.7775  0.5842
  806MPD2    H111873   0.470   3.736   0.220  1.3314  0.6511  1.9008
  806MPD2    H211874   0.240   3.430   0.380 -0.3624 -0.2819 -0.7734
  806MPD2    H311875   0.422   3.500   0.258  1.2857  0.2167  0.6401
  806MPD2     N11876   0.337   3.946   0.331  0.0042  0.0990 -0.3525
  806MPD2    H511877   0.259   4.005   0.359  0.6306  1.9372 -2.5106
  806MPD2    N111878   0.035   3.588   0.480  0.6542 -0.6882  0.0297
  806MPD2    H711879   0.029   3.493   0.515  2.2115 -0.7028  0.2606
  807MPD2     C11880   4.530   2.985   0.834  0.1010  0.0627  0.0100
  807MPD2    C111881   4.494   3.081   0.927 -0.0473  0.1508 -0.2394
  807MPD2    C211882   4.428   3.037   1.039 -0.6679  0.0953 -0.2272
  807MPD2    C311883   4.416   2.905   1.073 -0.2791  0.1100  0.5750
  807MPD2    C411884   4.467   2.801   0.987 -0.3691  0.1772  0.0086
  807MPD2    C511885   4.531   2.846   0.871  0.0839 -0.5860 -0.6249
  807MPD2     H11886   4.391   3.110   1.110 -0.2579  0.2738 -0.1967
  807MPD2    H111887   4.467   2.696   1.011 -0.3938 -0.5567 -3.2622
  807MPD2    H211888   4.558   3.001   0.730  2.9457 -0.1449  0.7525
  807MPD2    H311889   4.568   2.768   0.805 -0.0238 -0.3856 -0.9243
  807MPD2     N11890   4.346   2.875   1.189 -0.5989  0.0220 -0.3100
  807MPD2    H511891   4.310   2.955   1.239  1.5766 -0.4916  2.1034
  807MPD2    N111892   4.506   3.222   0.904 -0.3597  0.0494 -0.2143
  807MPD2    H711893   4.470   3.282   0.977 -1.2436  1.6799 -1.9754
  808MPD2     C11894   0.642   0.091   9.695  0.1350  0.7215  0.0022
  808MPD2    C111895   0.552   0.173   9.771  0.2723 -0.3721  0.7324
  808MPD2    C211896   0.601   0.291   9.825 -0.0213 -0.6250  0.1112
  808MPD2    C311897   0.730   0.333   9.803  0.2791  0.2368  0.0317
  808MPD2    C411898   0.819   0.245   9.748  1.1433  0.3814  0.5862
  808MPD2    C511899   0.774   0.126   9.703 -0.3270  0.6594  0.3500
  808MPD2     H11900   0.525   0.363   9.855 -0.8755 -1.3048 -0.4245
  808MPD2    H111901   0.923   0.276   9.740  1.1747 -0.3144 -1.9385
  808MPD2    H211902   0.611   4.718   9.662  0.8214  0.7392 -0.6979
  808MPD2    H311903   0.850   0.057   9.669  0.4345  1.1896  0.9896
  808MPD2     N11904   0.777   0.468   9.832  0.5230  0.3127 -0.2045
  808MPD2    H511905   0.875   0.489   9.814  0.6153 -0.7742 -1.0011
  808MPD2    N111906   0.420   0.140   9.804 -0.6033 -0.4490 -0.0129
  808MPD2    H711907   0.371   0.184   9.882 -0.2570 -0.4050  0.1792
  809MPD2     C11908   1.509   0.424  10.120  0.1711 -0.5650  0.0194
  809MPD2    C111909   1.505   0.564  10.102  0.2652  0.3674 -0.1211
  809MPD2    C211910   1.384   0.635  10.099  0.8600  0.2266  0.4086
  809MPD2    C311911   1.270   0.566  10.125  0.4353  0.1260  0.1566
  809MPD2    C411912   1.280   0.430  10.165 -0.4766  0.1541 -0.0437
  809MPD2    C511913   1.398   0.358  10.161  0.0285 -0.6651  0.3698
  809MPD2     H11914   1.387   0.741  10.078 -1.1830 -0.1248 -1.6520
  809MPD2    H111915   1.189   0.374  10.184 -0.1643 -0.6573 -0.9358
  809MPD2    H211916   1.599   0.364  10.127 -0.1069 -0.7360  2.1190
  809MPD2    H311917   1.397   0.250  10.171  0.7267 -0.3492  3.8074
  809MPD2     N11918   1.139   0.625  10.121  1.1784  0.2713  0.3898
  809MPD2    H511919   1.061   0.559  10.120  0.3585  1.2349  1.5744
  809MPD2    N111920   1.622   0.638  10.074 -0.1687 -0.3720 -0.1817
  809MPD2    H711921   1.615   0.739  10.066  0.3612 -0.4283 -1.4821
  810MPD2     C11922   0.360   4.308   9.912 -0.4382  0.0614  0.3492
  810MPD2    C111923   0.369   4.369  10.036 -0.3684 -0.2635  0.0132
  810MPD2    C211924   0.464   4.464  10.041 -0.7798 -0.0236  0.2474
  810MPD2    C311925   0.565   4.482   9.942  0.1089  0.8406  0.1118
  810MPD2    C411926   0.560   4.419   9.820 -0.1338  0.3861 -0.5266
  810MPD2    C511927   0.456   4.334   9.809  0.8623  0.0585  0.5385
  810MPD2     H11928   0.473   4.528  10.128 -0.5990 -1.8083  1.5400
  810MPD2    H111929   0.628   4.441   9.739 -0.0011  0.0669 -0.5049
  810MPD2    H211930   0.278   4.241   9.889  2.9427 -4.0710  0.3200
  810MPD2    H311931   0.450   4.279   9.717 -0.2814  0.3635  0.4383
  810MPD2     N11932   0.679   4.561   9.962 -0.0660 -0.9319  0.0388
  810MPD2    H511933   0.736   4.579   9.880  0.0606  2.2270  0.8071
  810MPD2    N111934   0.278   4.343  10.142 -0.4029  0.2930  0.1983
  810MPD2    H711935   0.193   4.295  10.116  0.9235 -2.0879  0.2664
  811MPD2     C11936   4.325   4.711  10.497  0.1544  0.0001  0.0134
  811MPD2    C111937   4.419   4.707  10.405 -0.4084 -0.1908 -0.7125
  811MPD2    C211938   4.434   0.082  10.310  0.0548 -0.4029 -0.6599
  811MPD2    C311939   4.336   0.176  10.301  0.1664 -0.4393  0.4760
  811MPD2    C411940   4.228   0.177  10.386  0.3749 -0.0256  0.0657
  811MPD2    C511941   4.232   0.090  10.496 -0.0274 -0.2926  0.1901
  811MPD2     H11942   4.521   0.093  10.245  0.0776 -0.7336 -0.6863
  811MPD2    H111943   4.147   0.249  10.385 -1.3457 -1.9314  0.8159
  811MPD2    H211944   4.303   4.638  10.574 -1.5926  0.8816  0.3500
  811MPD2    H311945   4.160   0.097  10.576 -0.6316 -1.5472 -0.2370
  811MPD2     N11946   4.359   0.269  10.198  0.0838  0.3012  0.9303
  811MPD2    H511947   4.436   0.246  10.136 -0.5197 -0.1112  0.3289
  811MPD2    N111948   4.511   4.597  10.416 -0.0910  0.3297 -0.0662
  811MPD2    H711949   4.483   4.522  10.478 -0.0622  1.6074  1.4884
  812MPD2     C11950   3.916   0.189  12.078 -0.2895 -0.1316  0.1849
  812MPD2    C111951   3.878   0.258  12.192 -0.7380 -0.5433 -1.1846
  812MPD2    C211952   3.906   0.207  12.312 -0.0715 -0.0073  0.6288
  812MPD2    C311953   3.957   0.070  12.315 -0.3612 -0.0119  0.3684
  812MPD2    C411954   3.996   0.004  12.198  0.0284 -0.0048  0.0505
  812MPD2    C511955   3.975   0.065  12.080  0.0335  0.0681  0.6643
  812MPD2     H11956   3.879   0.259  12.403 -0.1869  1.1873 -0.1015
  812MPD2    H111957   4.016   4.623  12.205  1.4331  0.2366 -0.3798
  812MPD2    H211958   3.908   0.235  11.980  1.0450 -1.7092 -0.6708
  812MPD2    H311959   3.999   0.016  11.987  0.6815 -0.3134  1.0269
  812MPD2     N11960   3.963   0.009  12.439 -0.3391 -0.2604  0.0615
  812MPD2    H511961   3.923   0.066  12.513  2.3997 -0.3554  1.5877
  812MPD2    N111962   3.816   0.383  12.168  0.0549  0.0356  0.0889
  812MPD2    H711963   3.817   0.405  12.069 -0.8543  3.7567  0.9249
  813MPD2     C11964   2.676   1.895  12.900 -0.1917 -0.4536 -0.5613
  813MPD2    C111965   2.713   2.027  12.922 -0.5913 -0.8443  0.3212
  813MPD2    C211966   2.629   2.101  13.002 -0.4175 -0.3176  0.4734
  813MPD2    C311967   2.517   2.046  13.065  0.1901 -0.6486 -0.5122
  813MPD2    C411968   2.482   1.915  13.047 -0.1894 -0.4449  0.0465
  813MPD2    C511969   2.561   1.846  12.958 -0.7415  0.4192  0.1063
  813MPD2     H11970   2.652   2.206  13.015  0.6400 -0.5954  0.8353
  813MPD2    H111971   2.394   1.867  13.089 -0.6303 -1.0512 -1.5572
  813MPD2    H211972   2.740   1.838  12.835  0.6670 -0.0517 -0.0656
  813MPD2    H311973   2.532   1.743  12.940  0.3799 -0.0651  0.9830
  813MPD2     N11974   2.449   2.133  13.152  0.1189 -0.2834  1.0046
  813MPD2    H511975   2.471   2.232  13.149 -1.2209  0.0338  1.4560
  813MPD2    N111976   2.832   2.086  12.867 -0.1808  0.1961  0.3704
  813MPD2    H711977   2.895   2.020  12.821  0.0542  0.4827  0.2810
  814MPD2     C11978   3.602   3.466  12.460  0.1930  0.5311 -1.2235
  814MPD2    C111979   3.602   3.508  12.329  0.8619 -0.8084 -0.6159
  814MPD2    C211980   3.671   3.628  12.298  0.0189  0.3049  0.3822
  814MPD2    C311981   3.751   3.691  12.393 -0.8215 -0.6028 -0.5883
  814MPD2    C411982   3.757   3.640  12.517  0.2553 -0.0565  0.0147
  814MPD2    C511983   3.675   3.536  12.551 -0.0227 -0.0978 -0.7236
  814MPD2     H11984   3.665   3.667  12.197 -2.2705 -1.0338  0.0118
  814MPD2    H111985   3.816   3.685  12.595 -0.0465 -0.7226  0.6246
  814MPD2    H211986   3.540   3.385  12.495 -0.7235  2.1379  0.8629
  814MPD2    H311987   3.676   3.515  12.658 -0.7419  0.7992 -0.5398
  814MPD2     N11988   3.822   3.806  12.366 -0.1100  0.2500  0.5407
  814MPD2    H511989   3.873   3.837  12.448 -1.3149  1.0363  0.9886
  814MPD2    N111990   3.521   3.436  12.232  0.3005 -0.1951  0.1936
  814MPD2    H711991   3.529   3.485  12.144 -0.3980 -1.1618 -0.4019
  815MPD2     C11992   3.704   2.306  11.722  0.3842  0.5851 -0.4518
  815MPD2    C111993   3.727   2.175  11.763 -0.2130  0.6282 -0.8532
  815MPD2    C211994   3.636   2.107  11.834 -0.6836 -0.7895  0.0751
  815MPD2    C311995   3.530   2.178  11.888  0.6494  0.7180  0.0877
  815MPD2    C411996   3.510   2.313  11.862  0.0836  0.1294  0.2703
  815MPD2    C511997   3.596   2.372  11.779 -0.6054  0.0901  0.4327
  815MPD2     H11998   3.642   2.000  11.844  0.8617 -0.7970 -0.9170
  815MPD2    H111999   3.424   2.374  11.885 -0.1673 -0.0645 -0.1612
  815MPD2    H212000   3.779   2.360  11.666 -0.8028  0.1425 -2.4828
  815MPD2    H312001   3.578   2.477  11.760  0.1538 -0.1981 -1.8694
  815MPD2     N12002   3.439   2.106  11.969  0.3567  0.0896  0.0899
  815MPD2    H512003   3.458   2.008  11.984  1.1485  0.0767 -0.9826
  815MPD2    N112004   3.841   2.107  11.706 -0.8078 -0.0297  0.9382
  815MPD2    H712005   3.884   2.155  11.628 -0.3517 -2.5623 -0.3696
  816MPD2     C12006   3.919   1.040   0.125  0.2570 -0.4804 -0.8564
  816MPD2    C112007   3.894   1.065  17.692  0.1572 -0.0933 -0.8587
  816MPD2    C212008   3.998   1.043  17.600  0.2164 -0.3527  0.2687
  816MPD2    C312009   4.129   1.009  17.645 -0.4066 -0.4014 -0.1759
  816MPD2    C412010   4.148   0.995   0.080  0.1792 -0.0999  0.0586
  816MPD2    C512011   4.046   1.017   0.163 -0.3636 -0.0180 -0.4449
  816MPD2     H12012   3.979   1.046  17.493  0.8715 -0.5444  0.1461
  816MPD2    H112013   4.245   0.969   0.120 -0.7983  0.5165  2.8613
  816MPD2    H212014   3.846   1.055   0.204  2.8078  0.0307  1.3906
  816MPD2    H312015   4.066   1.000   0.268 -0.7765  1.8031 -0.0795
  816MPD2     N12016   4.232   1.015  17.548  0.0519 -0.6883  0.4739
  816MPD2    H512017   4.206   1.051  17.457  0.8178  0.0631  0.5493
  816MPD2    N112018   3.758   1.091  17.662  0.5825 -0.2709 -0.0137
  816MPD2    H712019   3.695   1.103   0.038  0.5109  0.0827 -0.1225
  817MPD2     C12020   3.260   2.636   9.648  0.6187  0.2050  0.2813
  817MPD2    C112021   3.189   2.550   9.565  0.4119  0.3133 -0.0566
  817MPD2    C212022   3.067   2.591   9.516 -0.1601  0.2583 -0.4246
  817MPD2    C312023   3.018   2.717   9.551 -0.1138  0.2216  0.2723
  817MPD2    C412024   3.091   2.802   9.635 -0.2538  0.3551  0.0268
  817MPD2    C512025   3.207   2.757   9.690 -0.4704  0.1496 -0.3180
  817MPD2     H12026   3.013   2.522   9.452 -0.0638 -0.7447  0.5846
  817MPD2    H112027   3.044   2.897   9.659  1.8763  1.8726 -1.8524
  817MPD2    H212028   3.357   2.605   9.686  0.4630 -0.0796  0.4381
  817MPD2    H312029   3.264   2.828   9.750  0.4233 -1.3965  0.6559
  817MPD2     N12030   2.906   2.762   9.478  0.4480 -0.0948 -0.2765
  817MPD2    H512031   2.878   2.700   9.403  2.5220  0.4443 -1.4966
  817MPD2    N112032   3.240   2.423   9.515  0.2219  0.2756  0.3973
  817MPD2    H712033   3.185   2.377   9.442  0.7170 -1.9864  1.4608
  818MPD2     C12034   3.014   2.748  10.267 -0.2135 -0.0812 -0.2299
  818MPD2    C112035   2.899   2.678  10.241 -0.0498 -0.2706  0.1878
  818MPD2    C212036   2.918   2.543  10.216  0.8440  0.0149  0.3071
  818MPD2    C312037   3.045   2.481  10.214 -0.8459  0.0820 -0.6180
  818MPD2    C412038   3.160   2.561  10.233  0.0974 -0.4835  0.3080
  818MPD2    C512039   3.138   2.695  10.252 -0.1882 -0.1267  0.2380
  818MPD2     H12040   2.825   2.489  10.202  1.1981 -0.9409  1.7103
  818MPD2    H112041   3.265   2.534  10.224  0.8087  2.3826 -0.0355
  818MPD2    H212042   3.012   2.854  10.290 -2.1111 -0.7336  2.7182
  818MPD2    H312043   3.224   2.760  10.237 -0.1917 -0.0663  0.4899
  818MPD2     N12044   3.060   2.344  10.205 -1.0391 -0.0505  0.0662
  818MPD2    H512045   3.155   2.310  10.217 -1.0044 -0.3811 -1.0849
  818MPD2    N112046   2.766   2.725  10.253 -1.0750 -0.4800 -0.0320
  818MPD2    H712047   2.691   2.674  10.207  1.0133 -0.6137 -3.2935
  819MPD2     C12048   0.147   4.337  15.853 -0.2388  0.1209  0.2335
  819MPD2    C112049   0.238   4.238  15.830 -0.3932  0.8443  0.3045
  819MPD2    C212050   0.350   4.236  15.904  0.6837  0.4551  0.2964
  819MPD2    C312051   0.366   4.317  16.015  1.0903  0.1370  0.4149
  819MPD2    C412052   0.279   4.425  16.040 -0.4671  0.5604  0.3415
  819MPD2    C512053   0.172   4.433  15.954 -0.4037 -0.3995  0.5170
  819MPD2     H12054   0.431   4.166  15.885  1.1181  0.0883  3.4267
  819MPD2    H112055   0.297   4.501  16.115 -0.6748  0.7218  0.2256
  819MPD2    H212056   0.057   4.345  15.793  0.9855  0.8047 -1.4713
  819MPD2    H312057   0.098   4.510  15.968  0.9532  0.9334  0.3692
  819MPD2     N12058   0.486   4.296  16.082 -0.0570  0.2314 -0.1195
  819MPD2    H512059   0.542   4.215  16.056 -1.1238 -0.0563 -1.4879
  819MPD2    N112060   0.216   4.153  15.727 -0.1993 -0.7546  0.1712
  819MPD2    H712061   0.142   4.182  15.663  0.1898 -1.4891 -0.6139
  820MPD2     C12062   4.300   3.979  15.048  0.2461 -0.3688 -0.8031
  820MPD2    C112063   4.335   4.055  15.157  0.4753  0.5447  0.5208
  820MPD2    C212064   4.427   4.017  15.240  0.8106  0.1459 -0.2825
  820MPD2    C312065   4.498   3.897  15.223  0.1866 -0.3871  0.4378
  820MPD2    C412066   4.466   3.829  15.109  0.0243 -0.2175 -1.0947
  820MPD2    C512067   4.368   3.865  15.025  0.5563  0.2114  0.3420
  820MPD2     H12068   4.451   4.073  15.330  0.2436 -1.6801  1.0088
  820MPD2    H112069   4.526   3.741  15.092  1.2831  0.3367  0.5186
  820MPD2    H212070   4.216   4.013  14.988  1.3200  5.7200  1.1461
  820MPD2    H312071   4.340   3.798  14.944  0.0534  0.9050 -0.0631
  820MPD2     N12072   4.616   3.858  15.294 -0.8602 -0.2955 -0.3685
  820MPD2    H512073   4.673   3.783  15.255 -1.1125 -0.6010 -0.1441
  820MPD2    N112074   4.268   4.179  15.170  0.2847  0.2073 -0.4352
  820MPD2    H712075   4.187   4.188  15.109 -0.8231 -1.8717  0.7110
  821MPD2     C12076   0.742   0.485  13.064  0.0501 -0.0037 -0.1852
  821MPD2    C112077   0.826   0.441  13.159  1.3576 -0.0711 -0.3150
  821MPD2    C212078   0.961   0.440  13.121 -0.6482  0.5302 -0.4182
  821MPD2    C312079   1.002   0.467  12.999  0.5712 -0.4051 -0.5467
  821MPD2    C412080   0.920   0.517  12.904 -0.5003  0.9825  0.5265
  821MPD2    C512081   0.787   0.536  12.942  0.3315 -0.3084 -0.2724
  821MPD2     H12082   1.027   0.395  13.193 -1.9713 -1.7501 -0.6380
  821MPD2    H112083   0.944   0.535  12.800 -1.7708  1.0174  0.2489
  821MPD2    H212084   0.637   0.484  13.093  0.2986 -3.2148  0.6209
  821MPD2    H312085   0.723   0.589  12.872  0.0326 -0.6103 -0.2244
  821MPD2     N12086   1.136   0.463  12.962 -0.2783  0.1777 -1.5162
  821MPD2    H512087   1.159   0.506  12.873 -0.6210  3.0372 -0.2306
  821MPD2    N112088   0.791   0.419  13.299 -0.2617  0.6535 -0.8556
  821MPD2    H712089   0.861   0.368  13.350 -2.1754 -0.3717  0.7401
  822MPD2     C12090   0.795   0.739  16.024 -0.0872 -0.1071 -0.3970
  822MPD2    C112091   0.837   0.723  16.158  0.1871 -0.3320  0.0916
  822MPD2    C212092   0.798   0.822  16.245 -0.1162 -0.2351  0.5463
  822MPD2    C312093   0.752   0.949  16.201 -0.1028 -0.6130  1.0139
  822MPD2    C412094   0.719   0.965  16.065  0.4671  0.7247 -0.0429
  822MPD2    C512095   0.747   0.858  15.978 -0.4377 -0.3021 -0.3008
  822MPD2     H12096   0.837   0.810  16.345 -1.3508  0.5079  1.1175
  822MPD2    H112097   0.688   1.060  16.025 -1.0637  0.4249  0.4364
  822MPD2    H212098   0.810   0.658  15.954  1.6173 -1.4755  1.5449
  822MPD2    H312099   0.725   0.871  15.873 -2.4403 -0.7658  0.0713
  822MPD2     N12100   0.727   1.052  16.298 -0.4983  0.2733  0.2237
  822MPD2    H512101   0.741   1.034  16.396  2.9470  1.8707  0.0369
  822MPD2    N112102   0.898   0.603  16.206 -0.7136  0.1657  0.2937
  822MPD2    H712103   0.896   0.587  16.307 -2.3592  0.0321  0.2436
  823MPD2     C12104   0.769   1.369  17.071 -0.0816 -0.4211  0.2039
  823MPD2    C112105   0.700   1.289  16.975  0.2571  0.0747 -0.0073
  823MPD2    C212106   0.615   1.190  17.017 -0.1197 -0.2818 -0.3457
  823MPD2    C312107   0.600   1.169  17.153  0.9104  0.3150 -0.3630
  823MPD2    C412108   0.671   1.243  17.243  0.1006 -0.1834  0.2076
  823MPD2    C512109   0.754   1.344  17.202 -0.1332  0.0835 -0.6278
  823MPD2     H12110   0.566   1.129  16.941  1.1615  0.4448 -1.7479
  823MPD2    H112111   0.666   1.220  17.348 -0.4706  0.0969  0.2436
  823MPD2    H212112   0.852   1.436  17.050  0.8359 -1.9026 -0.9088
  823MPD2    H312113   0.810   1.406  17.271  1.9524 -0.2265 -2.0322
  823MPD2     N12114   0.522   1.067  17.203 -0.2380  0.3260  0.1829
  823MPD2    H512115   0.506   1.061  17.303  0.8636  0.8328  0.3937
  823MPD2    N112116   0.729   1.313  16.838  0.5386  0.6196 -0.1924
  823MPD2    H712117   0.802   1.382  16.824  0.9830  0.4308  1.1682
  824MPD2     C12118   1.522   0.020  16.217 -0.2346 -0.4397  0.2086
  824MPD2    C112119   1.458   0.092  16.118  0.1870  0.1886 -0.1856
  824MPD2    C212120   1.508   0.087  15.988  0.7438  0.0988  0.3245
  824MPD2    C312121   1.627   0.022  15.962  0.1627  0.4739  0.1015
  824MPD2    C412122   1.692   4.698  16.072  0.5793 -0.2669 -0.2300
  824MPD2    C512123   1.636   4.684  16.192  0.1546 -0.5722 -1.0013
  824MPD2     H12124   1.459   0.136  15.904  1.2463  2.0932  1.2012
  824MPD2    H112125   1.793   4.659  16.065  1.0157  1.0202 -1.0218
  824MPD2    H212126   1.482   0.014  16.318 -2.0216 -0.2797 -0.4934
  824MPD2    H312127   1.698   4.641  16.270 -0.8887  0.3847  0.3496
  824MPD2     N12128   1.672   0.004  15.828  0.2501  0.8207  0.1674
  824MPD2    H512129   1.616   0.034  15.749  1.5636  2.7141 -0.0360
  824MPD2    N112130   1.337   0.156  16.142  0.9662  0.7711  0.3804
  824MPD2    H712131   1.305   0.233  16.083 -1.2995 -1.0707 -0.7805
  825MPD2     C12132   2.083   0.240  15.094 -0.3690 -0.6953  0.6499
  825MPD2    C112133   2.077   0.239  15.230  0.1859  0.2512 -0.7217
  825MPD2    C212134   2.146   0.344  15.295  0.6704 -0.2068  0.4667
  825MPD2    C312135   2.225   0.436  15.221  0.5415 -0.2629 -0.1813
  825MPD2    C412136   2.223   0.435  15.084  0.0566  0.1258 -0.3668
  825MPD2    C512137   2.150   0.334  15.021 -0.0434 -0.0959 -0.1246
  825MPD2     H12138   2.142   0.363  15.402  2.3732 -1.9139  0.8231
  825MPD2    H112139   2.268   0.508  15.019 -1.0690  0.6042 -0.6148
  825MPD2    H212140   2.029   0.159  15.045 -0.0334  0.3269 -1.3926
  825MPD2    H312141   2.146   0.328  14.913  2.8370 -1.0522 -0.1773
  825MPD2     N12142   2.310   0.527  15.279 -0.1471 -0.4759  0.2842
  825MPD2    H512143   2.366   0.577  15.210  1.1940 -0.5158  1.3445
  825MPD2    N112144   2.006   0.140  15.293  0.0476 -0.7245 -0.2654
  825MPD2    H712145   1.980   0.065  15.230 -0.5979  0.1266 -1.0102
  826MPD2     C12146   2.159   4.415  13.397 -0.6591  0.2658 -0.0363
  826MPD2    C112147   2.024   4.386  13.393 -0.0780  0.1502 -0.2015
  826MPD2    C212148   1.936   4.486  13.419 -0.3986  0.1767  0.1285
  826MPD2    C312149   1.979   4.614  13.462 -0.8139 -0.4103 -0.0120
  826MPD2    C412150   2.114   4.630  13.479  1.0464  0.2574  0.2697
  826MPD2    C512151   2.203   4.537  13.439  0.2822  0.0317 -0.7437
  826MPD2     H12152   1.829   4.471  13.410 -0.5459  0.6666  1.0776
  826MPD2    H112153   2.148   0.001  13.516  1.1576  0.2261  0.2513
  826MPD2    H212154   2.242   4.348  13.380 -0.0091  0.4393  2.4808
  826MPD2    H312155   2.310   4.553  13.439  0.1631  0.7575  2.0393
  826MPD2     N12156   1.896   4.720  13.501  0.7229 -0.1369  0.7416
  826MPD2    H512157   1.937   0.069  13.556 -3.6275  0.7939  2.7019
  826MPD2    N112158   1.964   4.266  13.361  0.6640 -0.0229 -0.0600
  826MPD2    H712159   1.867   4.266  13.329  0.3999  0.8740  0.7488
  827MPD2     C12160   2.658   1.446  10.205  0.5808  0.5797 -0.2091
  827MPD2    C112161   2.665   1.309  10.218 -0.1830  0.6548  0.3194
  827MPD2    C212162   2.583   1.234  10.138 -0.6149  0.2449 -0.2844
  827MPD2    C312163   2.482   1.298  10.068 -0.1577  0.3543  0.4964
  827MPD2    C412164   2.476   1.432  10.056 -0.5035  0.5658  0.1253
  827MPD2    C512165   2.572   1.506  10.116  0.7889 -0.5591 -0.0029
  827MPD2     H12166   2.597   1.127  10.135 -1.1104  0.1316  1.7941
  827MPD2    H112167   2.397   1.485  10.004 -0.2912  0.3999 -0.3637
  827MPD2    H212168   2.733   1.516  10.241  0.3143  0.4760  0.5432
  827MPD2    H312169   2.587   1.613  10.101 -1.9764 -0.4293 -1.7637
  827MPD2     N12170   2.391   1.212  10.001 -0.1597 -0.3664 -0.6095
  827MPD2    H512171   2.407   1.112  10.011 -2.5443 -0.5375  1.5569
  827MPD2    N112172   2.762   1.268  10.308 -0.7438 -0.5461  0.0576
  827MPD2    H712173   2.821   1.341  10.348  1.6798 -2.4030 -0.1536
  828MPD2     C12174   1.024   1.141  12.661  0.0914  0.7560 -0.1932
  828MPD2    C112175   1.010   1.132  12.523 -0.0293 -0.3911  0.4907
  828MPD2    C212176   1.119   1.110  12.448 -0.1120 -0.1821  0.2175
  828MPD2    C312177   1.244   1.096  12.512  0.0323  0.1476  0.0599
  828MPD2    C412178   1.258   1.121  12.644 -0.9784 -0.2857 -0.2933
  828MPD2    C512179   1.145   1.151  12.719 -1.0131 -0.0032  0.4668
  828MPD2     H12180   1.092   1.083  12.347 -0.1314  1.5339 -0.2373
  828MPD2    H112181   1.343   1.124  12.710 -0.1148 -1.4294 -1.3661
  828MPD2    H212182   0.942   1.135  12.730 -0.2435  2.5908 -0.4299
  828MPD2    H312183   1.176   1.175  12.821  0.0279  4.2313 -0.8254
  828MPD2     N12184   1.364   1.058  12.440  0.1038 -0.3925  0.9785
  828MPD2    H512185   1.450   1.065  12.495  0.0445 -1.4733  1.2123
  828MPD2    N112186   0.886   1.143  12.462  0.4443  0.6377 -0.0652
  828MPD2    H712187   0.881   1.122  12.363 -2.3912  0.0645  0.2019
  829MPD2     C12188   0.475   1.282  11.742 -0.3154  0.5199 -0.1188
  829MPD2    C112189   0.373   1.221  11.811 -0.3345 -0.1026 -0.2247
  829MPD2    C212190   0.403   1.133  11.914  0.8151  0.3019 -0.1499
  829MPD2    C312191   0.537   1.124  11.960  0.1359  0.2119  0.5410
  829MPD2    C412192   0.636   1.188  11.883 -0.1372 -0.3732  0.0899
  829MPD2    C512193   0.608   1.259  11.767  0.6958 -0.3548 -0.2438
  829MPD2     H12194   0.325   1.094  11.979 -0.3534  1.4918 -0.8404
  829MPD2    H112195   0.739   1.181  11.914 -0.0887 -0.6301 -0.1271
  829MPD2    H212196   0.457   1.350  11.660  0.0408  0.1248 -0.5218
  829MPD2    H312197   0.685   1.315  11.716 -0.3259 -1.0633 -2.5462
  829MPD2     N12198   0.576   1.091  12.095  0.5227  0.3577  0.9479
  829MPD2    H512199   0.654   1.135  12.141  0.0879  1.1686  0.9160
  829MPD2    N112200   0.246   1.272  11.781 -0.3096 -0.2311 -0.2200
  829MPD2    H712201   0.238   1.304  11.685 -0.8052 -0.4792 -0.2657
  830MPD2     C12202   1.335   4.137  16.137  0.9911 -0.0814  0.0841
  830MPD2    C112203   1.219   4.158  16.068  0.1179  1.0612  0.3267
  830MPD2    C212204   1.226   4.146  15.929  0.1512 -0.1030 -0.5382
  830MPD2    C312205   1.341   4.084  15.865  0.1522  0.3232 -0.8105
  830MPD2    C412206   1.450   4.054  15.948 -0.0195 -0.8844 -0.1233
  830MPD2    C512207   1.450   4.091  16.081  0.3653  0.2552 -0.1716
  830MPD2     H12208   1.134   4.164  15.875 -0.5815  1.6393  1.2838
  830MPD2    H112209   1.545   4.023  15.905 -0.0417  1.8496 -2.1690
  830MPD2    H212210   1.330   4.177  16.238  3.3767  0.5142 -0.0377
  830MPD2    H312211   1.536   4.069  16.143  0.6799 -4.8138 -2.4959
  830MPD2     N12212   1.340   4.043  15.727  0.4032  0.2526 -0.6446
  830MPD2    H512213   1.418   3.988  15.692  1.2620 -0.0918  1.7819
  830MPD2    N112214   1.103   4.189  16.146  0.0512  0.9395 -0.3925
  830MPD2    H712215   1.116   4.176  16.245  2.0981 -0.3968 -0.8343
  831MPD2     C12216   1.024   0.952  16.662 -0.9562  0.1809 -0.2095
  831MPD2    C112217   1.027   0.841  16.581  0.0053 -0.1181  0.1896
  831MPD2    C212218   0.910   0.767  16.567 -0.3198 -0.1525 -0.2801
  831MPD2    C312219   0.795   0.803  16.622 -0.0147  1.2773 -0.1603
  831MPD2    C412220   0.789   0.912  16.698  0.8376  0.3526  0.1380
  831MPD2    C512221   0.905   0.989  16.718  0.5445 -0.1556  0.5113
  831MPD2     H12222   0.909   0.691  16.489  0.7252 -0.5731  0.1187
  831MPD2    H112223   0.700   0.945  16.750  0.2739 -1.7507  0.5063
  831MPD2    H212224   1.101   1.027  16.673  0.8826 -1.6847 -0.2823
  831MPD2    H312225   0.898   1.076  16.783 -0.5901 -0.1490  0.3817
  831MPD2     N12226   0.668   0.755  16.578 -0.2708  0.1621  0.6004
  831MPD2    H512227   0.589   0.811  16.609  0.9749  3.1530 -1.6012
  831MPD2    N112228   1.132   0.826  16.495 -0.4191  0.5235 -0.2398
  831MPD2    H712229   1.204   0.896  16.479  0.2117 -0.1116 -0.1505
  832MPD2     C12230   4.225   1.765  17.480 -0.3507 -0.0585 -0.6317
  832MPD2    C112231   4.258   1.891  17.427  0.1779  0.4663  0.3549
  832MPD2    C212232   4.176   1.945  17.327 -0.6867 -0.3534  0.6471
  832MPD2    C312233   4.061   1.876  17.293 -0.1753  0.1849 -0.3566
  832MPD2    C412234   4.024   1.763  17.354 -0.4766 -0.3374  0.2046
  832MPD2    C512235   4.106   1.704  17.438 -0.0682  0.3175 -0.9826
  832MPD2     H12236   4.195   2.042  17.283  2.0510 -1.3894 -0.4677
  832MPD2    H112237   3.923   1.731  17.330 -0.4853 -0.5539  0.5381
  832MPD2    H212238   4.286   1.717  17.556  0.9747  0.4969 -1.3561
  832MPD2    H312239   4.081   1.615  17.494 -0.1674  0.7625 -0.3144
  832MPD2     N12240   3.967   1.928  17.203 -0.0663 -0.5480 -0.3748
  832MPD2    H512241   3.873   1.889  17.200 -0.8032  1.0680  1.3169
  832MPD2    N112242   4.377   1.944  17.476  0.0066 -0.7937  0.4456
  832MPD2    H712243   4.425   1.888  17.545  2.0662  0.5953  0.1223
  833MPD2     C12244   1.564   3.512  12.584  0.5669 -0.4580  0.4796
  833MPD2    C112245   1.660   3.597  12.526  0.0976  0.4739  0.5708
  833MPD2    C212246   1.746   3.538  12.431 -0.3399 -0.1830 -0.8830
  833MPD2    C312247   1.758   3.401  12.419  0.0097 -0.4780 -0.1027
  833MPD2    C412248   1.668   3.320  12.492  0.6290  0.0793  0.0718
  833MPD2    C512249   1.568   3.374  12.564 -0.4414  0.0013  0.0079
  833MPD2     H12250   1.816   3.600  12.376  0.2827 -0.4396 -0.3827
  833MPD2    H112251   1.669   3.212  12.484  0.0763  0.1965 -1.6072
  833MPD2    H212252   1.488   3.550  12.651 -0.1886  1.0456 -1.2388
  833MPD2    H312253   1.495   3.312  12.615  0.7280  0.5328  2.3058
  833MPD2     N12254   1.842   3.338  12.328 -0.1359 -0.4253  0.0329
  833MPD2    H512255   1.841   3.237  12.318 -0.2645 -0.4672  0.4753
  833MPD2    N112256   1.653   3.731  12.558  0.1438  0.1088  0.0819
  833MPD2    H712257   1.574   3.764  12.611 -0.2441 -0.8321  0.0904
  834MPD2     C12258   1.902   2.791  11.441 -0.7254 -0.2559  0.5042
  834MPD2    C112259   1.887   2.926  11.404 -1.3543 -0.2822 -0.4431
  834MPD2    C212260   1.879   3.027  11.499 -0.1663 -0.4640 -0.8722
  834MPD2    C312261   1.887   2.998  11.630 -0.4013  0.4824 -0.5351
  834MPD2    C412262   1.917   2.871  11.666  0.2590  0.0745 -0.3328
  834MPD2    C512263   1.923   2.770  11.573  0.0396 -0.2942  0.2225
  834MPD2     H12264   1.852   3.126  11.462  1.7011 -0.3018 -1.7812
  834MPD2    H112265   1.938   2.848  11.770 -2.6381  1.3188  0.5455
  834MPD2    H212266   1.907   2.710  11.368  0.2827 -0.6461  1.0035
  834MPD2    H312267   1.941   2.671  11.615  1.8440  0.2434  0.7141
  834MPD2     N12268   1.888   3.109  11.716  0.1720 -0.2470  0.0917
  834MPD2    H512269   1.897   3.196  11.665 -3.2676  0.5234  0.7997
  834MPD2    N112270   1.866   2.946  11.270  0.4618  0.4725 -0.2273
  834MPD2    H712271   1.860   2.868  11.206 -0.5372  0.9676 -0.7459
  835MPD2     C12272   2.319   1.082  10.973  0.1389  0.0586  0.3499
  835MPD2    C112273   2.258   1.186  11.041 -0.3336  0.4479  0.5498
  835MPD2    C212274   2.316   1.231  11.158  0.7027  0.1297  0.8350
  835MPD2    C312275   2.422   1.165  11.217 -0.4984 -0.3387 -0.5657
  835MPD2    C412276   2.480   1.061  11.148  0.4874  0.8009 -0.4078
  835MPD2    C512277   2.428   1.022  11.029 -0.2829  0.0978 -0.2207
  835MPD2     H12278   2.273   1.318  11.206 -1.5734 -0.5286 -0.0146
  835MPD2    H112279   2.567   1.009  11.187  1.4864  1.2906 -1.9604
  835MPD2    H212280   2.290   1.053  10.873  1.4049 -0.3329  0.0942
  835MPD2    H312281   2.488   0.950  10.976 -0.5644 -1.4247  1.5237
  835MPD2     N12282   2.482   1.199  11.345  0.0364 -0.2972 -0.1968
  835MPD2    H512283   2.558   1.135  11.367  0.9140  1.0819  0.7395
  835MPD2    N112284   2.138   1.251  10.991 -0.3292 -0.3300  0.8325
  835MPD2    H712285   2.129   1.343  11.035 -2.2031 -0.2377  0.2578
  836MPD2     C12286   2.325   0.948  12.111  0.2744 -0.7267  0.0786
  836MPD2    C112287   2.290   1.069  12.062 -0.3996  0.2641  0.2064
  836MPD2    C212288   2.180   1.135  12.110  0.1724  0.5445 -0.6467
  836MPD2    C312289   2.107   1.080  12.213 -0.1196  0.1817  0.3463
  836MPD2    C412290   2.150   0.964  12.270  0.0747  0.0374  0.1872
  836MPD2    C512291   2.252   0.895  12.217  0.8197  0.5040  0.6029
  836MPD2     H12292   2.155   1.234  12.075  0.1154  1.1432  1.1339
  836MPD2    H112293   2.094   0.907  12.343  0.4435  1.0670  1.2715
  836MPD2    H212294   2.403   0.885  12.071  0.3598 -0.8925  0.5114
  836MPD2    H312295   2.275   0.793  12.246 -0.2686 -0.5720 -2.3490
  836MPD2     N12296   1.987   1.130  12.266  0.4619  0.2101  0.0858
  836MPD2    H512297   1.954   1.090  12.353 -0.9774 -0.2688 -0.6692
  836MPD2    N112298   2.374   1.105  11.952 -0.0595  0.2122 -0.4924
  836MPD2    H712299   2.441   1.035  11.924  0.3485  0.0222  0.9733
  837MPD2     C12300   0.195   0.614  10.008 -0.1038  0.1279  0.0100
  837MPD2    C112301   0.063   0.658   9.995 -0.0804  0.7232  0.4035
  837MPD2    C212302   0.036   0.786  10.018  0.1242 -0.6448 -0.0370
  837MPD2    C312303   0.128   0.873  10.076  0.3305  0.3525  0.0929
  837MPD2    C412304   0.261   0.826  10.097 -0.1939  0.3990 -0.1342
  837MPD2    C512305   0.289   0.699  10.058 -0.2272  0.7705 -0.2649
  837MPD2     H12306   4.659   0.819  10.002  0.1747  0.0876  1.1072
  837MPD2    H112307   0.347   0.888  10.118 -0.8823  0.6932  1.8449
  837MPD2    H212308   0.226   0.511   9.992  0.9413  0.6486 -1.2420
  837MPD2    H312309   0.388   0.655  10.061 -0.5140  0.1748  0.3538
  837MPD2     N12310   0.079   1.002  10.099 -0.2117  0.9040 -0.3573
  837MPD2    H512311   4.707   1.018  10.077 -0.5954 -2.0634 -0.7298
  837MPD2    N112312   4.682   0.574   9.962 -0.0753  0.3716 -0.0729
  837MPD2    H712313   4.681   0.474   9.975  0.0896  0.0812 -2.1856
  838MPD2     C12314   3.208   4.491  12.210 -0.2415  0.4447 -0.0740
  838MPD2    C112315   3.230   4.356  12.214  0.2120  0.3862 -0.0025
  838MPD2    C212316   3.134   4.271  12.262 -0.3398 -0.7228 -0.5961
  838MPD2    C312317   3.014   4.323  12.305 -0.1594  0.0055  0.6597
  838MPD2    C412318   2.988   4.460  12.306 -0.3433 -0.4274  0.1180
  838MPD2    C512319   3.090   4.542  12.260  0.1129  0.2863  1.1248
  838MPD2     H12320   3.150   4.164  12.255  1.2801 -0.5805  1.1763
  838MPD2    H112321   2.893   4.500  12.339 -0.4519 -0.6502  0.0732
  838MPD2    H212322   3.288   4.559  12.185 -1.6132  1.8556 -0.5915
  838MPD2    H312323   3.087   4.651  12.264 -1.3765  0.2141  1.9746
  838MPD2     N12324   2.909   4.224  12.331 -0.7102 -0.7039  0.8869
  838MPD2    H512325   2.926   4.130  12.298  0.6201  0.0249 -0.4872
  838MPD2    N112326   3.351   4.305  12.172 -0.4683  0.4787  0.0482
  838MPD2    H712327   3.381   4.211  12.194  2.7125  1.8264  1.5221
  839MPD2     C12328   3.182   3.535  12.130  0.6185  0.0675 -0.1496
  839MPD2    C112329   3.210   3.569  12.000  0.2326 -0.2123 -0.2526
  839MPD2    C212330   3.287   3.676  11.964 -0.8100 -0.1434 -0.0973
  839MPD2    C312331   3.344   3.751  12.067 -0.4620 -0.0151  0.3087
  839MPD2    C412332   3.329   3.701  12.194 -0.2456  0.7122 -0.4532
  839MPD2    C512333   3.256   3.597  12.228 -0.5026 -0.3200  0.1607
  839MPD2     H12334   3.304   3.703  11.861 -0.0895 -1.5520 -0.3503
  839MPD2    H112335   3.372   3.756  12.277  0.9392 -1.6525  0.4808
  839MPD2    H212336   3.122   3.450  12.160  1.4417 -0.2440  0.6074
  839MPD2    H312337   3.241   3.575  12.333  1.6192 -1.0478  0.3116
  839MPD2     N12338   3.422   3.864  12.058  0.1109 -0.3475 -0.3198
  839MPD2    H512339   3.435   3.920  12.142 -3.3856 -1.4585  0.9728
  839MPD2    N112340   3.148   3.500  11.899  0.4259  0.1268 -0.0818
  839MPD2    H712341   3.164   3.534  11.805 -1.2514 -1.3874 -0.9089
  840MPD2     C12342   3.262   1.539  10.249  0.3912 -0.7416 -0.0766
  840MPD2    C112343   3.289   1.481  10.369 -0.3663 -0.8903  0.1225
  840MPD2    C212344   3.402   1.511  10.443 -0.1978  0.9187 -0.1308
  840MPD2    C312345   3.483   1.618  10.398 -0.5048 -0.0044  0.5293
  840MPD2    C412346   3.457   1.679  10.280 -0.1340 -0.5750 -0.2106
  840MPD2    C512347   3.342   1.648  10.209  0.1871 -0.3779  0.0130
  840MPD2     H12348   3.436   1.463  10.534  0.5073 -0.4052 -1.0876
  840MPD2    H112349   3.513   1.766  10.246 -2.1099  1.2350  1.1260
  840MPD2    H212350   3.180   1.505  10.188  2.6384 -5.0880 -0.7077
  840MPD2    H312351   3.318   1.708  10.121 -1.0735  2.2259  2.1403
  840MPD2     N12352   3.584   1.673  10.480  0.1835  0.3099 -0.1823
  840MPD2    H512353   3.644   1.739  10.431  0.5156  0.0370 -0.1424
  840MPD2    N112354   3.197   1.388  10.415 -0.2522  0.3218 -0.2956
  840MPD2    H712355   3.112   1.373  10.362 -0.4237  0.6854 -0.1241
  841MPD2     C12356   3.208   1.171  14.074 -0.1656 -0.0236 -0.0088
  841MPD2    C112357   3.218   1.144  14.204  0.1701 -0.9426 -0.0880
  841MPD2    C212358   3.298   1.229  14.284 -0.4092 -0.0332  0.1258
  841MPD2    C312359   3.363   1.339  14.222 -0.2583  0.0830  0.1422
  841MPD2    C412360   3.348   1.365  14.086  0.8769 -0.2397  0.2390
  841MPD2    C512361   3.271   1.280  14.015  0.3565 -0.2471  0.1181
  841MPD2     H12362   3.298   1.211  14.391 -0.2181  2.4434  0.5473
  841MPD2    H112363   3.393   1.448  14.033  0.3430 -1.0892 -1.5299
  841MPD2    H212364   3.158   1.108  14.001 -1.3103  0.1518  0.6169
  841MPD2    H312365   3.254   1.295  13.909 -0.9379 -0.6564  0.2611
  841MPD2     N12366   3.456   1.407  14.310 -0.3522 -0.1263 -0.2138
  841MPD2    H512367   3.447   1.372  14.405  1.8401  3.8900  1.5105
  841MPD2    N112368   3.168   1.024  14.262  1.0319  0.0705  0.7813
  841MPD2    H712369   3.196   1.008  14.358  0.9836  0.8219  0.9223
  842MPD2     C12370   2.959   1.934  16.699 -0.6515 -0.4714  0.1465
  842MPD2    C112371   3.018   2.064  16.720  0.4517  0.2185 -0.3942
  842MPD2    C212372   3.113   2.080  16.820  0.2658 -0.3916  0.6058
  842MPD2    C312373   3.130   1.980  16.910  0.1600 -0.0799 -0.4364
  842MPD2    C412374   3.073   1.851  16.894 -0.1100 -0.0630 -0.2039
  842MPD2    C512375   2.987   1.831  16.784 -0.3856 -0.2355 -0.0635
  842MPD2     H12376   3.144   2.181  16.845 -0.7303 -0.3201  1.5554
  842MPD2    H112377   3.076   1.769  16.965 -0.7160  1.3759  1.4834
  842MPD2    H212378   2.888   1.924  16.617  1.4368  1.6136 -1.9143
  842MPD2    H312379   2.949   1.730  16.773 -2.8994  0.4704  2.1346
  842MPD2     N12380   3.208   1.999  17.025  0.5407  0.1761 -0.1755
  842MPD2    H512381   3.207   1.929  17.099 -0.2609  2.7613  2.2687
  842MPD2    N112382   2.972   2.173  16.645  0.1449  0.4441 -0.1984
  842MPD2    H712383   2.898   2.157  16.577  0.1353 -1.3198  0.2097
  843MPD2     C12384   0.503   2.842   1.185  0.7992 -0.3499  0.3365
  843MPD2    C112385   0.460   2.961   1.247 -0.1819 -0.0219  0.1585
  843MPD2    C212386   0.485   3.079   1.180 -0.1976  0.2765  0.0259
  843MPD2    C312387   0.543   3.080   1.053 -0.1213 -0.3064  0.3964
  843MPD2    C412388   0.586   2.961   0.992  0.1651  0.0417  0.0762
  843MPD2    C512389   0.564   2.849   1.065 -0.1670  0.5969 -0.0908
  843MPD2     H12390   0.436   3.165   1.224 -1.0152 -0.8859  1.3760
  843MPD2    H112391   0.639   2.956   0.898 -0.3748 -2.2202 -0.0910
  843MPD2    H212392   0.492   2.747   1.237 -1.3121 -0.2615  0.0266
  843MPD2    H312393   0.613   2.759   1.030 -0.5192  0.6496 -0.7207
  843MPD2     N12394   0.567   3.203   0.978  0.2634 -0.2912 -0.4756
  843MPD2    H512395   0.599   3.184   0.883 -1.7027  1.8941 -1.5704
  843MPD2    N112396   0.376   2.944   1.359  0.0953  0.4620 -0.0673
  843MPD2    H712397   0.363   2.850   1.397 -0.9228  0.1942 -1.0931
  844MPD2     C12398   3.738   1.476  16.703 -0.4334  0.8375 -0.2116
  844MPD2    C112399   3.846   1.400  16.740 -0.1925  0.0016 -0.0643
  844MPD2    C212400   3.964   1.466  16.783  0.6930  0.8025  0.3356
  844MPD2    C312401   3.967   1.605  16.790  0.2096  0.0343  0.6857
  844MPD2    C412402   3.858   1.676  16.753  0.2634 -0.1474  0.2504
  844MPD2    C512403   3.744   1.613  16.715 -0.2407 -0.5338  0.3963
  844MPD2     H12404   4.053   1.409  16.808 -0.7323 -1.5417  0.0363
  844MPD2    H112405   3.858   1.785  16.758  0.1302 -0.1543  0.3886
  844MPD2    H212406   3.643   1.440  16.666  0.2824 -1.2065 -0.0261
  844MPD2    H312407   3.672   1.680  16.670  0.3822  0.6498  1.1835
  844MPD2     N12408   4.085   1.660  16.837 -0.1958 -0.5005  0.1583
  844MPD2    H512409   4.155   1.594  16.870  2.5371  1.0777 -2.5087
  844MPD2    N112410   3.850   1.258  16.725 -0.2137 -0.2153 -0.2982
  844MPD2    H712411   3.938   1.217  16.753 -0.1481  1.1705  1.4956
  845MPD2     C12412   4.252   2.644  16.869 -0.1769 -0.1282 -0.2321
  845MPD2    C112413   4.307   2.592  16.979 -0.6364 -0.3848 -0.5891
  845MPD2    C212414   4.335   2.455  16.982 -0.4350 -0.6322  0.4185
  845MPD2    C312415   4.293   2.372  16.881 -0.5839  0.3783 -0.8110
  845MPD2    C412416   4.226   2.426  16.774  0.0690  0.4011  0.1317
  845MPD2    C512417   4.216   2.566  16.766  0.2303  1.0787  0.7906
  845MPD2     H12418   4.377   2.406  17.069 -1.2186 -2.7583 -0.4064
  845MPD2    H112419   4.186   2.358  16.700 -2.6946  0.0867  1.9241
  845MPD2    H212420   4.232   2.749  16.854 -0.7208  0.2207  3.0978
  845MPD2    H312421   4.182   2.610  16.673  0.6873  0.1628  0.1907
  845MPD2     N12422   4.306   2.232  16.886  0.5199 -0.1824 -0.0533
  845MPD2    H512423   4.264   2.175  16.813  0.1415 -1.8267  1.4472
  845MPD2    N112424   4.327   2.673  17.097 -0.4368  0.9888  0.2090
  845MPD2    H712425   4.301   2.769  17.076  0.4551  1.0286 -0.7287
  846MPD2     C12426   1.063   3.197  13.432  0.2298 -0.8690  0.1023
  846MPD2    C112427   0.970   3.285  13.474  0.0099  0.4372  0.3278
  846MPD2    C212428   0.911   3.270  13.593 -0.1094 -0.7065  0.5605
  846MPD2    C312429   0.939   3.169  13.674 -0.3593 -0.2707  0.4232
  846MPD2    C412430   1.031   3.071  13.635 -0.1162 -0.4537  0.1954
  846MPD2    C512431   1.099   3.087  13.513 -0.0032 -0.3510  0.2853
  846MPD2     H12432   0.837   3.339  13.632 -1.3379 -1.0858 -1.1059
  846MPD2    H112433   1.070   2.988  13.693  2.1860  0.6396  0.2416
  846MPD2    H212434   1.110   3.197  13.334 -1.6217 -0.7584 -0.7842
  846MPD2    H312435   1.166   3.008  13.482 -0.4329  0.1345 -1.9105
  846MPD2     N12436   0.866   3.174  13.795 -0.1773 -0.0099 -0.0714
  846MPD2    H512437   0.791   3.241  13.801 -0.8284 -0.3630 -4.3738
  846MPD2    N112438   0.922   3.390  13.392  0.3271  0.0446  0.3152
  846MPD2    H712439   0.855   3.449  13.440  1.0657  0.6636  0.5790
  847MPD2     C12440   1.163   4.112  14.047  0.2860 -1.0802 -0.2918
  847MPD2    C112441   1.188   4.191  14.158  0.1729  0.1005  0.0977
  847MPD2    C212442   1.261   4.137  14.263 -0.1174 -0.2928  0.4056
  847MPD2    C312443   1.321   4.013  14.251  0.0811  0.2014  0.0891
  847MPD2    C412444   1.305   3.938  14.137 -0.4034  0.4342  0.5254
  847MPD2    C512445   1.226   3.990  14.037 -0.1363  0.5155 -0.5148
  847MPD2     H12446   1.266   4.188  14.359 -1.8006  0.8254 -0.1060
  847MPD2    H112447   1.358   3.845  14.118 -1.1241 -0.0256  0.7559
  847MPD2    H212448   1.103   4.145  13.963 -0.6358  0.0040  0.8078
  847MPD2    H312449   1.211   3.938  13.943  2.1977  0.4452 -0.8385
  847MPD2     N12450   1.409   3.984  14.354  0.4839 -0.3718  0.5533
  847MPD2    H512451   1.434   4.059  14.417  1.5212 -0.3049  0.0444
  847MPD2    N112452   1.131   4.318  14.175  0.3655 -0.7721 -0.2170
  847MPD2    H712453   1.133   4.374  14.260  1.1964  1.0856 -1.4359
  848MPD2     C12454   3.850   2.178  16.434  0.4083 -0.6745  0.0205
  848MPD2    C112455   3.872   2.262  16.540  0.3083 -0.4896 -0.1744
  848MPD2    C212456   3.898   2.398  16.520  0.2309  0.3617 -0.1761
  848MPD2    C312457   3.912   2.451  16.391  0.5818 -0.2249 -0.0256
  848MPD2    C412458   3.902   2.360  16.293  0.1145 -0.3082 -0.0417
  848MPD2    C512459   3.871   2.227  16.309  0.1491 -0.0513 -0.1685
  848MPD2     H12460   3.912   2.461  16.607 -1.5516 -0.6458  0.8451
  848MPD2    H112461   3.918   2.384  16.188  1.3137 -0.8317  0.0275
  848MPD2    H212462   3.819   2.075  16.445 -2.2978 -0.0108 -1.3071
  848MPD2    H312463   3.863   2.155  16.228 -0.3585 -0.4404  0.2231
  848MPD2     N12464   3.936   2.589  16.361  0.3365  0.8479  1.1823
  848MPD2    H512465   3.947   2.605  16.261  0.8693 -1.5014  0.8669
  848MPD2    N112466   3.847   2.214  16.670  0.2315 -0.6867 -0.4343
  848MPD2    H712467   3.864   2.280  16.745 -1.4414 -2.4468  1.5156
  849MPD2     C12468   2.903   2.436  13.875  0.4607  0.2419 -0.3509
  849MPD2    C112469   2.936   2.347  13.975  0.7453 -0.2021 -0.5606
  849MPD2    C212470   3.005   2.392  14.086 -0.3013  0.4632 -0.4028
  849MPD2    C312471   3.028   2.527  14.105 -0.0440  0.6417 -0.6619
  849MPD2    C412472   2.975   2.620  14.017  0.6346  0.2612  0.2558
  849MPD2    C512473   2.925   2.565  13.899 -1.2990 -0.1181  1.3000
  849MPD2     H12474   3.041   2.325  14.163 -0.8787 -0.1418 -0.6541
  849MPD2    H112475   2.980   2.726  14.041  3.5061  0.2294 -0.1649
  849MPD2    H212476   2.849   2.399  13.788  1.1640 -1.0683 -0.2403
  849MPD2    H312477   2.885   2.633  13.826 -1.1213 -0.1955  1.1308
  849MPD2     N12478   3.101   2.561  14.224 -0.8098  0.6072  0.2788
  849MPD2    H512479   3.130   2.482  14.280 -1.5740  0.8745  1.0429
  849MPD2    N112480   2.941   2.212  13.946 -0.7780 -0.1515  0.3236
  849MPD2    H712481   2.910   2.188  13.852  1.8588 -4.1393  0.4476
  850MPD2     C12482   1.290   0.210  14.685  0.3158  0.4123 -0.3268
  850MPD2    C112483   1.256   0.228  14.817 -0.2412 -0.4439  0.1743
  850MPD2    C212484   1.355   0.278  14.904 -1.1214  0.4489 -0.0514
  850MPD2    C312485   1.493   0.272  14.867  0.1044 -0.4399 -0.6775
  850MPD2    C412486   1.520   0.247  14.731  0.9867  0.1514  0.3372
  850MPD2    C512487   1.416   0.221  14.643  0.0482  0.2829 -0.0770
  850MPD2     H12488   1.325   0.317  15.000  0.9434  1.9643 -0.0186
  850MPD2    H112489   1.622   0.236  14.694  0.7227  0.3057 -0.4391
  850MPD2    H212490   1.206   0.184  14.622 -0.8717 -0.6847  1.7018
  850MPD2    H312491   1.443   0.217  14.538 -2.0773  0.1883 -0.6331
  850MPD2     N12492   1.600   0.297  14.956 -0.1261  0.8919  0.4080
  850MPD2    H512493   1.689   0.305  14.907  1.0392  1.0201  2.5249
  850MPD2    N112494   1.117   0.215  14.849  0.5474  0.2213 -0.3708
  850MPD2    H712495   1.056   0.196  14.771  0.3576  0.0487 -0.1773
  851MPD2     C12496   1.629   4.574  15.180 -0.3879 -0.2590  0.3906
  851MPD2    C112497   1.493   4.556  15.209 -0.0191  0.5709  0.5082
  851MPD2    C212498   1.450   4.437  15.260 -0.0076  0.3063 -0.2695
  851MPD2    C312499   1.540   4.329  15.267  0.0780  0.2546  0.1337
  851MPD2    C412500   1.676   4.347  15.244 -0.1471 -0.0289 -0.0511
  851MPD2    C512501   1.719   4.468  15.191  0.3466  0.2912  0.1056
  851MPD2     H12502   1.346   4.420  15.286  0.6023 -1.6839  0.8951
  851MPD2    H112503   1.752   4.272  15.259 -0.1767  0.1934  1.2746
  851MPD2    H212504   1.663   4.666  15.135 -1.0093 -0.6613 -0.8920
  851MPD2    H312505   1.826   4.479  15.178  0.8445 -1.6015  2.5891
  851MPD2     N12506   1.483   4.210  15.304  0.1722  0.1285 -0.5345
  851MPD2    H512507   1.385   4.211  15.331  0.3478 -1.1960  0.1428
  851MPD2    N112508   1.409   4.667  15.188  0.5037 -0.7830 -0.0720
  851MPD2    H712509   1.448   0.020  15.137  0.1207 -1.0685 -0.7958
  852MPD2     C12510   1.068   2.917   9.310  0.6657  0.2251 -0.1683
  852MPD2    C112511   1.075   3.027   9.392  0.8208 -0.4835  0.3648
  852MPD2    C212512   1.201   3.073   9.428  0.0724  0.1783  0.1443
  852MPD2    C312513   1.312   3.001   9.389  0.0406  0.7462 -0.2039
  852MPD2    C412514   1.296   2.900   9.296 -0.2539  0.0828  0.7557
  852MPD2    C512515   1.178   2.848   9.264 -0.1791  0.0809 -0.0171
  852MPD2     H12516   1.201   3.148   9.506  1.2542  1.1147 -0.7619
  852MPD2    H112517   1.390   2.855   9.264 -0.8130  0.5255 -1.5050
  852MPD2    H212518   0.971   2.872   9.289  0.1285  1.7711 -0.9641
  852MPD2    H312519   1.156   2.758   9.207  1.7593 -1.1584  1.2134
  852MPD2     N12520   1.431   3.046   9.441  0.2858 -0.7380  0.5255
  852MPD2    H512521   1.414   3.124   9.505 -2.5529 -0.3405 -0.7360
  852MPD2    N112522   0.959   3.086   9.463 -0.0384  0.2040 -0.3464
  852MPD2    H712523   0.972   3.171   9.518 -0.8783 -1.5809  2.5972
  853MPD2     C12524   3.215   2.510  12.553 -0.2332 -1.0278 -0.7798
  853MPD2    C112525   3.119   2.600  12.508 -0.6602 -0.2961 -0.3512
  853MPD2    C212526   3.093   2.602  12.369 -0.1847 -0.2229  0.1695
  853MPD2    C312527   3.158   2.518  12.282 -0.1072 -0.1115 -0.2236
  853MPD2    C412528   3.246   2.425  12.333 -0.6151 -0.6648 -0.1511
  853MPD2    C512529   3.273   2.422  12.468 -1.1435 -0.7653  0.4199
  853MPD2     H12530   3.026   2.680  12.335 -2.6425 -2.6891 -0.7575
  853MPD2    H112531   3.292   2.356  12.263  1.8405 -2.5469  3.3726
  853MPD2    H212532   3.240   2.501  12.658  0.1650  3.3011 -0.5158
  853MPD2    H312533   3.346   2.350  12.501  0.2170 -0.2783 -1.5286
  853MPD2     N12534   3.133   2.520  12.139 -0.0098  0.0858  0.1030
  853MPD2    H512535   3.190   2.453  12.089 -0.2977 -0.4783  0.5210
  853MPD2    N112536   3.054   2.680  12.604  0.5724 -0.7567  0.4052
  853MPD2    H712537   3.082   2.662  12.700  0.4282 -0.7059  0.4573
  854MPD2     C12538   4.210   2.980  13.269  0.0544 -0.5092  0.3888
  854MPD2    C112539   4.317   2.966  13.190 -0.6495 -0.4204 -0.1790
  854MPD2    C212540   4.408   2.862  13.210  0.2192 -0.0447 -0.4685
  854MPD2    C312541   4.392   2.773  13.313 -0.6023 -0.5457  0.2273
  854MPD2    C412542   4.280   2.790  13.390 -0.0355 -0.5098  0.3921
  854MPD2    C512543   4.191   2.890  13.368  0.7089  0.0949 -0.3260
  854MPD2     H12544   4.494   2.853  13.145  0.6833  2.1088 -0.1251
  854MPD2    H112545   4.247   2.723  13.468 -0.9550 -1.7208 -1.0468
  854MPD2    H212546   4.130   3.050  13.249 -0.0342 -0.7681 -0.1542
  854MPD2    H312547   4.104   2.899  13.432  2.3378  1.0851  1.7415
  854MPD2     N12548   4.476   2.662  13.336 -0.7547  0.5852  0.7271
  854MPD2    H512549   4.447   2.593  13.404  1.2574 -0.7994  0.1793
  854MPD2    N112550   4.342   3.067  13.087 -0.6331  0.1451 -0.2639
  854MPD2    H712551   4.279   3.146  13.088 -1.8994 -0.8780  0.4601
  855MPD2     C12552   4.363   2.102  13.975 -0.1629  0.2855  0.3880
  855MPD2    C112553   4.489   2.134  13.993  0.5639 -0.4620  0.5243
  855MPD2    C212554   4.561   2.192  13.887 -0.1835 -0.6066  0.3429
  855MPD2    C312555   4.501   2.229  13.770  0.2923  0.0801  0.7335
  855MPD2    C412556   4.370   2.185  13.754  0.3281  0.1827  0.0220
  855MPD2    C512557   4.306   2.123  13.855  0.4819  0.3811 -0.3156
  855MPD2     H12558   4.666   2.211  13.903 -0.5883  2.0699 -0.1823
  855MPD2    H112559   4.309   2.213  13.669 -3.1971 -0.0494  2.5025
  855MPD2    H212560   4.299   2.065  14.055  2.3559 -0.3688  2.1201
  855MPD2    H312561   4.200   2.103  13.843  0.7709 -0.9488 -0.6204
  855MPD2     N12562   4.557   2.322  13.675  0.6684  0.7027 -0.2714
  855MPD2    H512563   4.500   2.341  13.593 -0.4336 -3.0018 -0.3459
  855MPD2    N112564   4.566   2.112  14.115 -0.3478  0.3736 -0.0330
  855MPD2    H712565   4.666   2.123  14.117 -0.2625 -0.5972  0.9661
  856MPD2     C12566   1.764   3.484  13.940 -0.4428 -0.1632 -0.2533
  856MPD2    C112567   1.858   3.583  13.978  0.1983  0.0074 -0.1514
  856MPD2    C212568   1.809   3.712  13.980  1.1999  0.2573 -0.3009
  856MPD2    C312569   1.674   3.745  13.950  0.2892  0.5473 -0.3641
  856MPD2    C412570   1.597   3.647  13.892  0.2899 -0.0963 -0.2328
  856MPD2    C512571   1.642   3.518  13.897 -0.2630  0.3532  0.5388
  856MPD2     H12572   1.878   3.779  14.030  1.5578 -1.4853  1.5321
  856MPD2    H112573   1.497   3.653  13.851 -0.0523 -0.6844  0.5055
  856MPD2    H212574   1.798   3.381  13.946  0.8596  0.1251 -2.6671
  856MPD2    H312575   1.580   3.439  13.858  0.0621  1.0242 -1.3193
  856MPD2     N12576   1.624   3.878  13.967 -0.4883 -0.5353 -0.5532
  856MPD2    H512577   1.529   3.899  13.938 -0.1609  0.9346 -0.5579
  856MPD2    N112578   1.990   3.566  14.018 -0.1085  0.2914 -0.2770
  856MPD2    H712579   2.042   3.641  14.063 -1.9040 -0.1407  2.4658
  857MPD2     C12580   3.510   0.883  12.861 -0.2651 -0.5327 -0.6500
  857MPD2    C112581   3.634   0.894  12.791 -0.0462 -0.1666  0.6309
  857MPD2    C212582   3.701   1.018  12.806 -0.3626 -0.5808 -0.3509
  857MPD2    C312583   3.644   1.127  12.866 -0.5024 -0.2553  0.3104
  857MPD2    C412584   3.520   1.111  12.928 -0.3483  0.0825 -0.3717
  857MPD2    C512585   3.457   0.990  12.928  0.1816 -0.1695 -0.0282
  857MPD2     H12586   3.802   1.028  12.767 -0.3598  1.0464  0.0597
  857MPD2    H112587   3.477   1.189  12.990 -1.5444  0.0790 -1.1764
  857MPD2    H212588   3.460   0.787  12.862  0.5077 -0.9248  0.1907
  857MPD2    H312589   3.373   0.983  12.996 -1.3062 -1.3626 -1.9672
  857MPD2     N12590   3.729   1.241  12.887 -0.3174  0.0271 -0.8429
  857MPD2    H512591   3.815   1.239  12.833  0.6512 -0.0541  0.7271
  857MPD2    N112592   3.684   0.775  12.731 -0.3972  0.3480  0.0582
  857MPD2    H712593   3.640   0.687  12.757  2.3529 -0.6779  1.2349
  858MPD2     C12594   3.778   4.450  17.038 -0.3221  0.0666  0.0337
  858MPD2    C112595   3.916   4.450  17.018 -0.1181  0.6605  0.4426
  858MPD2    C212596   4.000   4.507  17.116  0.5432 -0.0934 -0.3516
  858MPD2    C312597   3.936   4.557  17.232 -0.6971 -0.4750  0.4848
  858MPD2    C412598   3.800   4.561  17.239 -0.7043 -0.1185  0.5376
  858MPD2    C512599   3.726   4.488  17.151  0.1249 -0.1050  0.6620
  858MPD2     H12600   4.104   4.478  17.115  0.7693  0.6444  0.8899
  858MPD2    H112601   3.744   4.617  17.313  0.3095  1.7458 -0.1119
  858MPD2    H212602   3.706   4.412  16.967  1.1056  1.1551 -1.9962
  858MPD2    H312603   3.619   4.482  17.166 -0.2837 -0.8478 -2.5987
  858MPD2     N12604   4.005   4.615  17.342  0.0374 -0.0428  0.0808
  858MPD2    H512605   3.961   4.662  17.420  0.0550 -1.9005  1.1936
  858MPD2    N112606   3.964   4.405  16.890 -0.6010 -0.8618  0.1370
  858MPD2    H712607   3.899   4.361  16.825  0.8462 -2.4523 -0.2234
  859MPD2     C12608   3.051   2.013  15.891 -0.8897 -0.2755 -0.0788
  859MPD2    C112609   3.056   2.023  15.755  0.1727  0.0076 -0.1965
  859MPD2    C212610   3.062   1.911  15.674  0.0171 -0.8485 -0.5558
  859MPD2    C312611   3.065   1.788  15.738  0.6406  0.3869 -0.2429
  859MPD2    C412612   3.057   1.783  15.877  0.1611  0.0883 -0.4847
  859MPD2    C512613   3.036   1.891  15.950 -0.9139 -0.0346 -0.0516
  859MPD2     H12614   3.061   1.906  15.566  0.6757 -0.7653 -0.5670
  859MPD2    H112615   3.059   1.681  15.914  1.6675 -0.0911 -1.0607
  859MPD2    H212616   3.042   2.102  15.952  0.2350 -1.1415  1.3462
  859MPD2    H312617   3.010   1.887  16.056 -0.4656 -1.6413 -0.0044
  859MPD2     N12618   3.081   1.661  15.675 -0.4451 -0.3406  0.7524
  859MPD2    H512619   3.098   1.581  15.735  0.9646 -0.9158 -0.4185
  859MPD2    N112620   3.053   2.153  15.700 -0.4289  0.1797  0.4076
  859MPD2    H712621   3.045   2.224  15.771  1.6070  0.8605 -0.0537
  860MPD2     C12622   0.610   2.119  11.691  0.7806  0.6572  0.9015
  860MPD2    C112623   0.629   2.257  11.714  0.4628  0.7471  0.7627
  860MPD2    C212624   0.563   2.318  11.818  0.1190  0.4205  0.0582
  860MPD2    C312625   0.486   2.247  11.910 -0.0793  0.1129 -0.0518
  860MPD2    C412626   0.463   2.117  11.886 -0.3275 -0.1214  0.2567
  860MPD2    C512627   0.523   2.053  11.777  0.4362 -0.0641 -0.5351
  860MPD2     H12628   0.580   2.422  11.842 -0.8354  0.4180  0.7323
  860MPD2    H112629   0.392   2.063  11.947 -0.1449  0.5205  1.0245
  860MPD2    H212630   0.662   2.054  11.622  0.1969  1.5084 -0.3420
  860MPD2    H312631   0.505   1.948  11.758 -0.6143  0.2187 -1.0391
  860MPD2     N12632   0.428   2.300  12.026  0.5204 -0.3098 -0.4204
  860MPD2    H512633   0.429   2.399  12.050  0.8438 -0.5977  0.7422
  860MPD2    N112634   0.724   2.333  11.645  0.4317  0.1992  0.1209
  860MPD2    H712635   0.720   2.433  11.663  2.2759  0.4503 -0.9442
  861MPD2     C12636   3.950   0.654  11.054  0.0597 -0.2720  0.1378
  861MPD2    C112637   4.001   0.782  11.051  1.0530  0.4331 -0.1649
  861MPD2    C212638   3.958   0.863  10.952 -0.6112  0.4504 -0.2487
  861MPD2    C312639   3.851   0.832  10.875  0.0380  0.1424  0.0434
  861MPD2    C412640   3.808   0.701  10.870 -0.3670 -0.6567  0.0283
  861MPD2    C512641   3.860   0.619  10.959  0.3023  0.2875 -0.4739
  861MPD2     H12642   4.000   0.963  10.940 -2.1540  0.8461 -2.4260
  861MPD2    H112643   3.747   0.664  10.788  1.0912  3.4868 -2.9068
  861MPD2    H212644   3.954   0.593  11.143  1.4612 -0.1908  0.1215
  861MPD2    H312645   3.833   0.514  10.962 -1.4794  0.7788  0.6930
  861MPD2     N12646   3.787   0.923  10.789  0.5940  0.6210  0.6867
  861MPD2    H512647   3.712   0.900  10.726  1.2613  0.3922 -0.0273
  861MPD2    N112648   4.104   0.819  11.145 -0.3144 -0.1334 -0.1338
  861MPD2    H712649   4.157   0.905  11.137 -1.1864  0.4198  0.0391
  862MPD2     C12650   4.174   0.983  10.398  0.2993  0.3931  0.4484
  862MPD2    C112651   4.074   0.945  10.491 -0.4461  0.6317 -0.2756
  862MPD2    C212652   4.081   0.826  10.563 -0.2275 -0.7467  0.1971
  862MPD2    C312653   4.181   0.736  10.533 -0.2967  0.1260 -0.4043
  862MPD2    C412654   4.278   0.772  10.449  0.3168 -0.2341  0.2723
  862MPD2    C512655   4.275   0.894  10.385 -0.6338 -0.7476  0.2344
  862MPD2     H12656   3.997   0.802  10.628  1.1298  1.1929  2.6550
  862MPD2    H112657   4.358   0.702  10.426  2.3323  1.8580  0.8683
  862MPD2    H212658   4.184   1.078  10.347 -4.0279  0.2201 -0.7057
  862MPD2    H312659   4.360   0.923  10.323 -1.2080  0.6798  0.1311
  862MPD2     N12660   4.191   0.614  10.599 -0.1328  0.0346  0.1316
  862MPD2    H512661   4.283   0.572  10.591  0.0743  0.3570  0.8918
  862MPD2    N112662   3.964   1.023  10.520  0.4861 -0.5060 -0.2427
  862MPD2    H712663   3.909   0.989  10.598  0.8954  1.7343  1.0202
  863MPD2     C12664   2.841   3.716  16.708 -0.4197  0.0397 -0.3940
  863MPD2    C112665   2.735   3.650  16.776 -0.0550 -0.3665 -0.4221
  863MPD2    C212666   2.748   3.626  16.909 -0.8497  0.0964 -0.4206
  863MPD2    C312667   2.867   3.644  16.973 -0.6256 -0.7521  0.0691
  863MPD2    C412668   2.971   3.705  16.905  0.1171  0.1297  0.6374
  863MPD2    C512669   2.961   3.736  16.775 -0.1058 -1.1372 -0.1823
  863MPD2     H12670   2.666   3.587  16.969  0.9761  0.8355  2.5409
  863MPD2    H112671   3.059   3.722  16.967  1.8571 -0.2837 -1.7221
  863MPD2    H212672   2.836   3.752  16.606 -1.2204  0.1781 -0.3024
  863MPD2    H312673   3.043   3.788  16.726  0.5558  0.7261  2.9216
  863MPD2     N12674   2.897   3.594  17.105  0.0430 -0.8747  0.6385
  863MPD2    H512675   2.989   3.606  17.147 -0.1977 -1.5758  1.3717
  863MPD2    N112676   2.608   3.636  16.704 -0.2501  0.2854 -0.4130
  863MPD2    H712677   2.603   3.661  16.606  0.2372 -0.4601 -0.6292
  864MPD2     C12678   3.046   4.615  17.426 -0.3559 -0.4854 -0.5975
  864MPD2    C112679   3.127   4.569  17.325  0.2790  0.2363 -0.9387
  864MPD2    C212680   3.226   4.645  17.272 -0.0593 -0.0628  0.6161
  864MPD2    C312681   3.244   0.044  17.322  0.2323  0.7064 -0.2303
  864MPD2    C412682   3.170   0.095  17.425 -0.2412 -0.4101 -0.1405
  864MPD2    C512683   3.073   0.014  17.481 -0.6303 -0.3103 -0.6734
  864MPD2     H12684   3.286   4.606  17.191  1.9413 -0.3608  2.2453
  864MPD2    H112685   3.192   0.195  17.462  1.3087 -0.4479 -0.9299
  864MPD2    H212686   2.964   4.552  17.460  0.0201 -1.8088 -2.1061
  864MPD2    H312687   3.012   0.048  17.563  2.2643  0.9219  0.9596
  864MPD2     N12688   3.331   0.133  17.271  0.0416  0.4243  0.1314
  864MPD2    H512689   3.335   0.233  17.287  2.6548  0.0876  1.5163
  864MPD2    N112690   3.089   4.443  17.273 -0.4444 -0.0978 -0.3910
  864MPD2    H712691   3.019   4.395  17.329  0.6604  0.1246  1.1964
  865MPD2     C12692   3.285   0.504  16.326 -0.3279 -0.9563  0.0667
  865MPD2    C112693   3.217   0.404  16.394  0.1588 -0.0448  0.7557
  865MPD2    C212694   3.264   0.381  16.527 -0.1683  0.6839  0.2052
  865MPD2    C312695   3.370   0.448  16.578  0.0718 -0.0331  0.8586
  865MPD2    C412696   3.429   0.544  16.506 -0.2660 -0.1365 -0.0215
  865MPD2    C512697   3.387   0.579  16.380  0.8062  0.3406  0.1496
  865MPD2     H12698   3.220   0.296  16.577  2.1524  0.3811  1.7298
  865MPD2    H112699   3.514   0.601  16.543 -0.8752  0.2247  0.8325
  865MPD2    H212700   3.249   0.537  16.229  0.3500 -0.8727 -0.1558
  865MPD2    H312701   3.435   0.656  16.322 -0.3656 -0.0836 -1.3859
  865MPD2     N12702   3.421   0.414  16.705  1.0602  0.0151 -0.6552
  865MPD2    H512703   3.506   0.466  16.725  1.9654 -2.3176  1.7046
  865MPD2    N112704   3.135   0.311  16.316  0.4839 -0.3009  0.2617
  865MPD2    H712705   3.124   0.326  16.216  2.8913  0.7040  0.1599
  866MPD2     C12706   4.634   1.104  11.474  0.0145 -0.2690  0.1651
  866MPD2    C112707   4.662   1.163  11.353  0.0724  0.2116  0.4988
  866MPD2    C212708   4.570   1.250  11.299 -0.0552 -0.2434 -0.0383
  866MPD2    C312709   4.451   1.279  11.360 -0.4164 -0.0659 -1.2054
  866MPD2    C412710   4.427   1.217  11.479 -0.4213 -0.0473 -0.4216
  866MPD2    C512711   4.514   1.129  11.536  0.0518 -0.3212  0.7783
  866MPD2     H12712   4.595   1.286  11.200  1.7691  4.5777  2.1993
  866MPD2    H112713   4.338   1.236  11.537  0.1289 -2.9955  1.3973
  866MPD2    H212714   4.707   1.049  11.532  0.1653 -1.5011 -1.1837
  866MPD2    H312715   4.505   1.091  11.637  2.5920 -3.4799 -0.1891
  866MPD2     N12716   4.353   1.362  11.310  0.2134  0.4842  0.3450
  866MPD2    H512717   4.270   1.383  11.364  0.1368  1.2842 -0.0860
  866MPD2    N112718   0.062   1.125  11.294  0.3775 -0.0791  0.6416
  866MPD2    H712719   0.123   1.058  11.339 -1.3212 -0.0869  2.8960
  867MPD2     C12720   1.679   4.528  16.607 -0.6011  0.1570  0.1236
  867MPD2    C112721   1.814   4.539  16.606 -0.5260 -0.7800  0.0637
  867MPD2    C212722   1.869   4.665  16.583 -0.5146  0.0342  0.8074
  867MPD2    C312723   1.795   0.050  16.560  0.4900 -0.2638 -0.2597
  867MPD2    C412724   1.657   0.041  16.564 -0.2855 -0.4628 -0.5806
  867MPD2    C512725   1.605   4.645  16.587  0.1263  0.7581 -0.5947
  867MPD2     H12726   1.976   4.682  16.587 -0.3162 -1.0519  0.2280
  867MPD2    H112727   1.592   0.123  16.536 -0.2381  0.2697  1.4649
  867MPD2    H212728   1.628   4.435  16.622 -2.0153  0.8637 -0.3236
  867MPD2    H312729   1.497   4.631  16.582 -0.2206  1.4095  4.9624
  867MPD2     N12730   1.851   0.178  16.542 -0.1061 -0.3130  0.0717
  867MPD2    H512731   1.775   0.245  16.534 -0.2635 -0.5217 -0.2052
  867MPD2    N112732   1.891   4.431  16.632  0.4685 -0.2398  0.3103
  867MPD2    H712733   1.841   4.347  16.661  0.9238  0.0786  2.0397
  868MPD2     C12734   4.305   4.372  13.141  0.5570  0.0453 -0.0892
  868MPD2    C112735   4.326   4.284  13.239  0.6044  0.5267 -0.4057
  868MPD2    C212736   4.213   4.254  13.323 -0.0515  0.3407 -0.2820
  868MPD2    C312737   4.090   4.302  13.301 -0.8356  1.5497 -0.9674
  868MPD2    C412738   4.064   4.379  13.193  0.1493 -0.1776 -0.2543
  868MPD2    C512739   4.174   4.411  13.117 -0.1434  0.4254 -0.3085
  868MPD2     H12740   4.232   4.182  13.401 -0.3451 -2.0984 -2.4394
  868MPD2    H112741   3.964   4.420  13.178 -0.5886 -2.0252 -0.3544
  868MPD2    H212742   4.379   4.401  13.068  3.0983 -2.9791  1.3282
  868MPD2    H312743   4.164   4.470  13.027 -0.7336 -0.1953 -0.6541
  868MPD2     N12744   3.992   4.260  13.399 -0.3384 -0.0567 -0.4298
  868MPD2    H512745   4.040   4.202  13.468 -0.0491  0.3216 -0.3132
  868MPD2    N112746   4.450   4.216  13.263 -0.2057  0.3799 -0.3876
  868MPD2    H712747   4.523   4.239  13.196  1.7241 -2.2778  0.8169
  869MPD2     C12748   0.201   1.425   2.251 -0.3787 -0.1503 -0.2551
  869MPD2    C112749   0.072   1.424   2.203  0.4835  0.5893  0.4692
  869MPD2    C212750   0.028   1.525   2.121 -0.3324 -0.7323 -0.1207
  869MPD2    C312751   0.116   1.612   2.071 -0.1065 -0.3101  0.1154
  869MPD2    C412752   0.247   1.620   2.120 -0.0798  0.4167 -0.0145
  869MPD2    C512753   0.291   1.524   2.209 -0.5453 -0.2093 -0.1359
  869MPD2     H12754   4.652   1.517   2.083 -0.3919 -2.6496  0.4104
  869MPD2    H112755   0.313   1.698   2.083 -0.5078  0.8094  0.0428
  869MPD2    H212756   0.236   1.342   2.311  0.2168 -1.7626 -2.8157
  869MPD2    H312757   0.395   1.522   2.239 -0.3379 -0.4431 -0.8613
  869MPD2     N12758   0.074   1.703   1.971 -0.1794  0.6005  0.0515
  869MPD2    H512759   0.145   1.755   1.921  0.9693 -0.6210  0.4189
  869MPD2    N112760   4.716   1.317   2.246 -0.8008  0.2162  0.2609
  869MPD2    H712761   0.039   1.241   2.294  0.4514  1.1309  0.4489
  870MPD2     C12762   3.649   1.243   1.428  0.0780 -0.6556  0.0354
  870MPD2    C112763   3.787   1.223   1.441  0.7224 -0.0680  0.3801
  870MPD2    C212764   3.874   1.316   1.386 -0.3482 -0.2270 -0.6820
  870MPD2    C312765   3.827   1.404   1.291 -1.2761  0.7167 -0.4553
  870MPD2    C412766   3.693   1.424   1.280 -0.2284 -0.1142 -0.2867
  870MPD2    C512767   3.605   1.348   1.350 -0.9986 -0.3501 -0.0085
  870MPD2     H12768   3.982   1.307   1.392 -0.3499  0.6252  0.7364
  870MPD2    H112769   3.653   1.498   1.211 -0.4176 -0.4155 -0.5016
  870MPD2    H212770   3.578   1.181   1.482  2.9781 -1.0851  3.3920
  870MPD2    H312771   3.498   1.367   1.341 -0.9101 -0.3099 -1.0671
  870MPD2     N12772   3.916   1.489   1.219 -0.0996 -0.0607  0.4031
  870MPD2    H512773   4.014   1.468   1.233 -0.2727 -1.2441 -0.1352
  870MPD2    N112774   3.824   1.118   1.523  0.1291 -0.4390  0.3409
  870MPD2    H712775   3.747   1.063   1.560 -1.2418  1.3932  0.2092
  871MPD2     C12776   0.077   0.600  16.738  0.5027 -0.2606 -0.0736
  871MPD2    C112777   0.151   0.538  16.838  1.1092  0.5575  0.4119
  871MPD2    C212778   0.167   0.400  16.822 -0.4782  0.3769 -0.7450
  871MPD2    C312779   0.148   0.337  16.709  0.7003 -0.7178  1.0171
  871MPD2    C412780   0.082   0.402  16.604 -0.2106  0.5244  0.6334
  871MPD2    C512781   0.039   0.525  16.631 -0.0880 -0.2693 -0.5043
  871MPD2     H12782   0.221   0.342  16.897 -3.2275 -0.9758  0.1633
  871MPD2    H112783   0.073   0.358  16.505 -1.1626 -0.3299  1.1015
  871MPD2    H212784   0.032   0.698  16.750 -1.8269 -1.2720 -0.5085
  871MPD2    H312785   4.702   0.571  16.555 -1.2188 -1.6069 -0.3771
  871MPD2     N12786   0.185   0.200  16.702  0.3960  0.6446  0.3909
  871MPD2    H512787   0.213   0.171  16.795 -2.3612 -0.4061  0.8746
  871MPD2    N112788   0.199   0.614  16.941 -0.2021 -0.0889 -0.3653
  871MPD2    H712789   0.175   0.713  16.940  0.1224  0.0036  1.0944
  872MPD2     C12790   2.032   2.738  14.335  0.2035 -0.3736 -0.1385
  872MPD2    C112791   1.992   2.801  14.220 -0.0670 -0.6761 -0.3390
  872MPD2    C212792   1.855   2.804  14.196  0.3089  0.5471 -0.7294
  872MPD2    C312793   1.760   2.737  14.280  0.3844 -0.0439 -0.2288
  872MPD2    C412794   1.803   2.677  14.396 -0.4028 -0.3034 -0.3693
  872MPD2    C512795   1.940   2.678  14.423  0.0755  0.0504 -0.5756
  872MPD2     H12796   1.809   2.871  14.125 -1.9764  0.0944  0.3363
  872MPD2    H112797   1.740   2.632  14.472  0.5085  0.5715  0.8828
  872MPD2    H212798   2.133   2.752  14.371  0.2302 -1.9152  0.3810
  872MPD2    H312799   1.982   2.646  14.518 -1.6107 -0.0383  0.1287
  872MPD2     N12800   1.616   2.739  14.259  0.2029  0.8386  0.4207
  872MPD2    H512801   1.552   2.692  14.322  0.6347 -0.3666 -0.0430
  872MPD2    N112802   2.081   2.859  14.124 -0.6424 -0.3524 -0.1027
  872MPD2    H712803   2.030   2.908  14.052 -0.4329 -0.1821 -0.1382
  873MPD2     C12804   2.800   2.965   0.721  0.3767  0.0233 -0.6258
  873MPD2    C112805   2.835   2.868   0.807 -0.3234 -0.1867 -0.7451
  873MPD2    C212806   2.874   2.747   0.750  0.2776  0.1945  0.4880
  873MPD2    C312807   2.889   2.723   0.614 -0.1955  0.6886 -1.1517
  873MPD2    C412808   2.864   2.831   0.531  0.2803 -0.4650 -0.0184
  873MPD2    C512809   2.811   2.945   0.588 -0.2029  0.0045 -0.3176
  873MPD2     H12810   2.905   2.667   0.815  0.2212  0.1256  0.4304
  873MPD2    H112811   2.871   2.834   0.423  0.2013 -1.2560 -0.0438
  873MPD2    H212812   2.762   3.063   0.746 -0.4866 -0.4427 -0.0774
  873MPD2    H312813   2.775   3.027   0.526  1.4087 -0.4492 -1.8464
  873MPD2     N12814   2.922   2.594   0.566  0.0071  0.0320  0.9834
  873MPD2    H512815   2.901   2.582   0.467  0.1612 -1.4584  1.1406
  873MPD2    N112816   2.816   2.895   0.945 -0.4264  0.4849  0.0321
  873MPD2    H712817   2.787   2.990   0.967 -2.5244  0.4948 -2.7807
  874MPD2     C12818   3.166   3.020  16.288 -0.6883 -0.3199 -0.5185
  874MPD2    C112819   3.219   2.909  16.353  0.2513  0.2687 -0.8804
  874MPD2    C212820   3.357   2.891  16.365 -0.0210  0.3592 -0.3063
  874MPD2    C312821   3.446   2.978  16.301 -0.3233  0.0326  0.0876
  874MPD2    C412822   3.387   3.101  16.238  0.6970 -0.5622  0.1274
  874MPD2    C512823   3.252   3.119  16.244 -0.0316  0.3674 -0.2400
  874MPD2     H12824   3.407   2.805  16.409 -1.2903  0.1634  0.7880
  874MPD2    H112825   3.442   3.179  16.187  1.2130 -0.5559  0.6915
  874MPD2    H212826   3.059   3.034  16.278 -1.0933 -2.0406  1.2848
  874MPD2    H312827   3.209   3.214  16.214  0.0615  0.4231 -0.1957
  874MPD2     N12828   3.584   2.955  16.295  0.7205 -0.8034  0.1049
  874MPD2    H512829   3.616   2.875  16.349  1.8643 -0.7314 -0.4492
  874MPD2    N112830   3.127   2.814  16.395 -0.1043  0.3652  0.6363
  874MPD2    H712831   3.031   2.830  16.366 -0.1665  0.2943  0.8067
  875MPD2     C12832   4.209   1.128  14.796 -0.3759  0.0340 -0.4228
  875MPD2    C112833   4.157   1.250  14.770  0.1140  0.2720  0.1526
  875MPD2    C212834   4.136   1.338  14.875  0.8672  0.3591  0.8123
  875MPD2    C312835   4.176   1.291  15.004  0.7767 -0.3137 -0.4546
  875MPD2    C412836   4.248   1.185  15.019  0.0717 -0.2610 -0.8222
  875MPD2    C512837   4.253   1.094  14.919 -0.3466 -0.4846 -0.0856
  875MPD2     H12838   4.094   1.438  14.863  1.4781  0.6057  0.7219
  875MPD2    H112839   4.270   1.139  15.115 -1.0396  1.6547  0.3427
  875MPD2    H212840   4.214   1.051  14.720 -2.2530  0.5635 -1.0826
  875MPD2    H312841   4.278   0.989  14.931 -1.1478 -0.4193  2.0876
  875MPD2     N12842   4.149   1.366  15.121 -0.8399  0.1234  0.4687
  875MPD2    H512843   4.173   1.316  15.207 -1.0994  0.7470  0.9004
  875MPD2    N112844   4.099   1.280  14.644  0.1998  0.0695  0.4221
  875MPD2    H712845   4.034   1.358  14.637  1.0034  0.6646 -0.4615
  876MPD2     C12846   2.946   2.479  16.194  0.6968 -0.5774 -0.0354
  876MPD2    C112847   3.081   2.471  16.154  0.0977 -0.1712  0.0597
  876MPD2    C212848   3.138   2.340  16.158  0.0439 -0.3340  0.3514
  876MPD2    C312849   3.071   2.227  16.207 -0.2167 -0.0032 -0.0397
  876MPD2    C412850   2.938   2.240  16.231 -0.4229 -0.6202 -0.3042
  876MPD2    C512851   2.877   2.362  16.223  0.1046  0.2870 -0.6002
  876MPD2     H12852   3.244   2.326  16.140 -0.1445 -0.3163 -0.8037
  876MPD2    H112853   2.879   2.155  16.263  0.6452 -0.2141  2.7338
  876MPD2    H212854   2.887   2.570  16.189  0.0640 -0.9809  0.1407
  876MPD2    H312855   2.769   2.355  16.233  0.1856  1.2760  1.0148
  876MPD2     N12856   3.148   2.113  16.245  0.9902  0.6049 -0.4011
  876MPD2    H512857   3.249   2.116  16.233  1.2245 -5.3797  0.2186
  876MPD2    N112858   3.147   2.588  16.111  0.8992 -0.2283 -0.1021
  876MPD2    H712859   3.092   2.674  16.105 -0.3180 -1.0387 -0.5796
  877MPD2     C12860   3.051   2.949  15.520  0.3007 -0.6716  0.3435
  877MPD2    C112861   3.177   2.995  15.553 -0.6451  0.0633 -0.6252
  877MPD2    C212862   3.248   3.065  15.459 -0.4800 -0.0123 -0.0961
  877MPD2    C312863   3.198   3.092  15.329  0.0615  0.4675 -0.7069
  877MPD2    C412864   3.069   3.048  15.295 -0.6660  0.3028  0.3966
  877MPD2    C512865   3.001   2.975  15.395 -0.3278  0.2053 -0.4650
  877MPD2     H12866   3.341   3.112  15.488 -1.2086  2.1392 -1.2578
  877MPD2    H112867   3.029   3.056  15.195  0.5295  0.8079 -0.0445
  877MPD2    H212868   2.985   2.904  15.594 -0.6034  0.7839  0.4152
  877MPD2    H312869   2.900   2.943  15.373 -1.1620  1.2288  1.9001
  877MPD2     N12870   3.285   3.157  15.241 -0.3254  0.5660 -0.1779
  877MPD2    H512871   3.381   3.180  15.264  0.2026 -0.5014 -1.3515
  877MPD2    N112872   3.233   2.993  15.683  0.1300  0.6917  0.2856
  877MPD2    H712873   3.331   3.017  15.688  0.5079 -0.8655  0.3785
  878MPD2     C12874   3.492   2.033  13.338 -0.0327 -0.4316  0.3748
  878MPD2    C112875   3.357   2.048  13.322  0.3035 -0.4172  0.4650
  878MPD2    C212876   3.271   2.035  13.430  0.1137  0.1340 -0.5089
  878MPD2    C312877   3.308   1.975  13.548 -0.8607  0.0875  0.1457
  878MPD2    C412878   3.450   1.948  13.554  0.5136  0.1159  1.0690
  878MPD2    C512879   3.538   1.997  13.459 -0.6839  0.6933  0.0148
  878MPD2     H12880   3.168   2.070  13.423  0.3013  0.5106 -1.3591
  878MPD2    H112881   3.494   1.920  13.649  0.5703 -1.0936  0.6850
  878MPD2    H212882   3.558   2.028  13.252 -0.3250  1.5796  0.0446
  878MPD2    H312883   3.642   1.970  13.470 -0.4913  0.7877 -1.5801
  878MPD2     N12884   3.218   1.934  13.647  0.2234  0.1000  0.4473
  878MPD2    H512885   3.121   1.933  13.618  0.8467  0.8710 -1.6549
  878MPD2    N112886   3.319   2.105  13.199  0.4822 -0.1521 -0.6934
  878MPD2    H712887   3.390   2.106  13.126  0.0627 -1.2374 -1.1099
  879MPD2     C12888   3.712   3.166  17.512  0.1941 -0.1437  0.4087
  879MPD2    C112889   3.658   3.280  17.453  0.1608  0.1407 -0.3525
  879MPD2    C212890   3.642   3.271  17.314 -0.6809  0.1675 -0.1455
  879MPD2    C312891   3.670   3.155  17.242 -0.2487  0.5140 -0.6450
  879MPD2    C412892   3.715   3.050  17.311  0.0626  0.7320  0.3990
  879MPD2    C512893   3.736   3.052  17.443 -0.4683 -0.1565  0.1221
  879MPD2     H12894   3.617   3.364  17.264 -0.8551  0.7476  1.0164
  879MPD2    H112895   3.744   2.954  17.269  4.7998  2.1160  0.4350
  879MPD2    H212896   3.728   3.164  17.619  2.8477 -0.2099  0.0225
  879MPD2    H312897   3.760   2.960  17.494  1.3442 -1.2032 -2.6053
  879MPD2     N12898   3.674   3.150  17.100 -0.2622 -0.2333 -0.0056
  879MPD2    H512899   3.727   3.075  17.057 -1.4204 -2.4917  2.5141
  879MPD2    N112900   3.637   3.390  17.532 -0.3770  0.1742 -0.2899
  879MPD2    H712901   3.636   3.382  17.633 -0.9246 -1.6718 -0.4323
  880MPD2     C12902   4.679   0.547   0.278 -0.1552 -0.0568 -0.2223
  880MPD2    C112903   0.006   0.615   0.383  0.9619 -0.3758 -0.4899
  880MPD2    C212904   0.087   0.549   0.469  0.1341  0.8183 -0.1022
  880MPD2    C312905   0.141   0.426   0.437 -0.1461  0.0697  0.0554
  880MPD2    C412906   0.090   0.357   0.330 -0.4154  0.7787  0.1204
  880MPD2    C512907   4.723   0.419   0.248  0.3120 -0.2092 -0.4812
  880MPD2     H12908   0.117   0.600   0.559 -1.4421 -2.2151  2.1106
  880MPD2    H112909   0.114   0.254   0.308 -0.1809  0.6410  1.0085
  880MPD2    H212910   4.612   0.598   0.209 -0.5679  1.3487  1.2188
  880MPD2    H312911   4.686   0.377   0.156  1.3419 -1.4970 -0.3100
  880MPD2     N12912   0.237   0.376   0.525  0.4644  0.7207  0.2585
  880MPD2    H512913   0.276   0.445   0.589 -2.0860  1.1974  1.2908
  880MPD2    N112914   4.683   0.744   0.405 -0.9654 -0.3228  0.3032
  880MPD2    H712915   4.636   0.793   0.329 -0.2137  0.2374  0.1977
  881MPD2     C12916   0.403   1.567   0.086  0.0999  0.3907 -0.1103
  881MPD2    C112917   0.296   1.502   0.025 -0.6268 -0.1288 -0.3284
  881MPD2    C212918   0.217   1.422   0.097 -0.2731 -0.6852  0.3103
  881MPD2    C312919   0.243   1.399   0.234 -0.0699  0.2007  0.0749
  881MPD2    C412920   0.332   1.484   0.299  0.1192 -0.3176  0.3890
  881MPD2    C512921   0.409   1.560   0.220 -1.3423  0.5015  1.1444
  881MPD2     H12922   0.142   1.356   0.056 -1.0632  0.6991 -0.4652
  881MPD2    H112923   0.339   1.484   0.407 -0.4963 -2.0932  0.4393
  881MPD2    H212924   0.459   1.644   0.035  1.2460  0.0931  0.7104
  881MPD2    H312925   0.479   1.628   0.268 -1.8247  0.8160  1.4064
  881MPD2     N12926   0.168   1.316   0.321  0.6493 -0.4881 -0.6194
  881MPD2    H512927   0.199   1.325   0.417  0.3090  0.6399 -0.6086
  881MPD2    N112928   0.294   1.490  17.586  0.1169 -0.6220  0.2982
  881MPD2    H712929   0.368   1.535  17.533  0.2583  0.9653  1.8516
  882MPD2     C12930   3.519   3.174  14.417  0.3993 -0.1696 -0.1519
  882MPD2    C112931   3.422   3.216  14.501  0.7001  1.0554 -0.2439
  882MPD2    C212932   3.292   3.187  14.463  0.0792  0.3774  0.0155
  882MPD2    C312933   3.265   3.129  14.342  0.0744  0.2053 -0.2946
  882MPD2    C412934   3.369   3.082  14.263 -0.3617  0.2426  0.1654
  882MPD2    C512935   3.499   3.105  14.300 -0.5360 -0.7260 -0.6971
  882MPD2     H12936   3.210   3.201  14.532 -0.4922 -0.5181 -0.4813
  882MPD2    H112937   3.361   3.023  14.172 -0.5086 -1.4659  1.2687
  882MPD2    H212938   3.623   3.187  14.443  0.7693 -1.6454 -0.8581
  882MPD2    H312939   3.582   3.072  14.239  0.1339  1.5122 -1.0057
  882MPD2     N12940   3.128   3.104  14.313  0.1309 -0.2948 -0.3971
  882MPD2    H512941   3.065   3.108  14.393  2.8152  0.1248  1.7277
  882MPD2    N112942   3.454   3.284  14.619 -0.0631  0.2148 -0.1390
  882MPD2    H712943   3.547   3.317  14.641 -0.5038  0.7817  0.8404
  883MPD2     C12944   0.342   2.711  16.313 -0.0066  0.5134 -0.4452
  883MPD2    C112945   0.457   2.699  16.233  0.4092  0.7230  0.1884
  883MPD2    C212946   0.578   2.746  16.286 -0.0783 -0.0842  0.0287
  883MPD2    C312947   0.579   2.808  16.414  0.0569 -0.1881 -0.5382
  883MPD2    C412948   0.465   2.820  16.487  0.3766 -0.9358  0.0060
  883MPD2    C512949   0.347   2.773  16.435 -0.3121  0.4956 -0.2007
  883MPD2     H12950   0.666   2.732  16.225  1.5095  2.6008  1.6727
  883MPD2    H112951   0.465   2.858  16.589 -2.0519 -2.0425  0.4048
  883MPD2    H212952   0.244   2.686  16.274  1.0207  0.0383 -2.7131
  883MPD2    H312953   0.251   2.788  16.483 -1.1793  1.0407 -2.0737
  883MPD2     N12954   0.707   2.857  16.455 -0.2375  0.5178  0.0831
  883MPD2    H512955   0.785   2.817  16.403 -0.0753 -0.2617  0.9325
  883MPD2    N112956   0.452   2.647  16.107 -0.4993 -0.2399 -0.0437
  883MPD2    H712957   0.540   2.658  16.056 -1.6679  3.4027 -1.2210
  884MPD2     C12958   2.536   3.676  14.834  0.2773 -0.2151  0.3329
  884MPD2    C112959   2.491   3.789  14.896  0.5499  0.3507  0.0202
  884MPD2    C212960   2.358   3.801  14.927  0.4359 -0.0920 -0.0952
  884MPD2    C312961   2.270   3.701  14.902 -0.0809  0.0026 -0.4472
  884MPD2    C412962   2.312   3.584  14.847 -0.1312  0.3506  0.3511
  884MPD2    C512963   2.449   3.574  14.812 -0.3849  0.4727  0.0604
  884MPD2     H12964   2.323   3.892  14.974 -1.6888 -0.2907 -1.3217
  884MPD2    H112965   2.244   3.504  14.819 -2.4191  2.0004  1.2373
  884MPD2    H212966   2.641   3.670  14.807  0.1123  1.3321 -0.6143
  884MPD2    H312967   2.475   3.484  14.758  0.9919  2.6228 -2.8916
  884MPD2     N12968   2.139   3.715  14.956 -0.0149 -0.1969  0.4831
  884MPD2    H512969   2.114   3.802  15.001 -2.0760 -0.9233  0.7179
  884MPD2    N112970   2.582   3.893  14.929 -0.4661  0.2630 -0.4439
  884MPD2    H712971   2.533   3.980  14.945  1.0060  1.2062 -1.0136
  885MPD2     C12972   1.024   3.989   0.584  0.1868 -0.7979 -0.1511
  885MPD2    C112973   0.888   4.023   0.577 -0.3539 -0.7884 -0.0978
  885MPD2    C212974   0.830   4.008   0.455  0.7201 -0.9021 -0.1652
  885MPD2    C312975   0.893   3.961   0.348 -0.2142  0.2261 -0.8207
  885MPD2    C412976   1.026   3.944   0.353 -0.4555 -0.2475  0.1818
  885MPD2    C512977   1.093   3.962   0.471  0.1583  0.2717 -0.6225
  885MPD2     H12978   0.723   4.027   0.459  0.5217 -2.4468  2.0684
  885MPD2    H112979   1.082   3.922   0.263 -0.3220  0.0690  0.1882
  885MPD2    H212980   1.077   3.999   0.677  0.9781 -1.5797 -0.5177
  885MPD2    H312981   1.188   3.911   0.486 -0.6006 -1.4606 -1.6178
  885MPD2     N12982   0.820   3.931   0.232  0.0244  0.1544  0.0123
  885MPD2    H512983   0.719   3.943   0.229  0.0191 -0.1392 -0.9631
  885MPD2    N112984   0.830   4.073   0.695  0.1027 -0.3235 -0.1986
  885MPD2    H712985   0.888   4.084   0.777  0.4538 -3.2186 -0.0589
  886MPD2     C12986   1.924   2.029  15.064 -0.5983 -0.1262  0.8424
  886MPD2    C112987   2.002   2.095  15.164  0.3847  0.0536  1.4084
  886MPD2    C212988   2.012   2.232  15.163 -0.2718 -0.1157  0.7170
  886MPD2    C312989   1.952   2.311  15.063  0.4786  0.6702 -0.5431
  886MPD2    C412990   1.878   2.242  14.965 -0.1524  0.1060 -0.1968
  886MPD2    C512991   1.876   2.104  14.959  0.2320 -0.1266  0.2825
  886MPD2     H12992   2.073   2.286  15.235  1.5404  1.6278 -2.1231
  886MPD2    H112993   1.826   2.291  14.884 -0.0308 -0.1332 -0.4173
  886MPD2    H212994   1.913   1.922  15.054  0.6390 -0.3623  2.1362
  886MPD2    H312995   1.820   2.067  14.874 -0.6120  0.7906  0.4387
  886MPD2     N12996   1.955   2.450  15.061  0.2151  0.5628  0.0849
  886MPD2    H512997   1.929   2.485  14.970  1.3225 -0.7926 -0.7644
  886MPD2    N112998   2.085   2.027  15.253 -0.5849 -0.2322 -0.1683
  886MPD2    H712999   2.121   2.080  15.332  0.1213 -0.7152 -0.1621
  887MPD2     C13000   2.599   2.148  15.727  0.4739  0.2125 -0.0077
  887MPD2    C113001   2.495   2.191  15.651  0.3568  0.2674  1.2452
  887MPD2    C213002   2.486   2.322  15.615 -0.1424  0.2748 -0.5853
  887MPD2    C313003   2.578   2.420  15.656  0.0096  0.0207  0.1531
  887MPD2    C413004   2.690   2.370  15.722  0.0440 -0.8844  0.1844
  887MPD2    C513005   2.698   2.239  15.762 -0.2410  0.2945 -0.1854
  887MPD2     H13006   2.411   2.354  15.543  0.3274  1.5759 -0.4959
  887MPD2    H113007   2.765   2.438  15.760 -0.4407 -1.4701  2.2076
  887MPD2    H213008   2.617   2.043  15.749  0.2699  0.3662  0.8866
  887MPD2    H313009   2.783   2.201  15.818 -0.4908  1.0397  0.7070
  887MPD2     N13010   2.553   2.560  15.636 -0.7493 -0.3392  0.5154
  887MPD2    H513011   2.462   2.585  15.598 -0.8007 -1.7643 -0.3034
  887MPD2    N113012   2.407   2.096  15.596 -0.3378  0.4412  0.5477
  887MPD2    H713013   2.343   2.130  15.525  1.3775  2.0759 -0.2254
  888MPD2     C13014   4.160   2.568  15.028  0.0057  0.5087  0.3395
  888MPD2    C113015   4.184   2.668  15.115 -0.9524 -0.3264  0.0372
  888MPD2    C213016   4.256   2.779  15.085  0.1859 -0.1779 -0.6071
  888MPD2    C313017   4.315   2.794  14.959 -0.0522 -0.1922 -0.1317
  888MPD2    C413018   4.299   2.690  14.864  0.5201 -0.3186 -0.1392
  888MPD2    C513019   4.220   2.584  14.899  0.4210 -0.6619 -0.2479
  888MPD2     H13020   4.265   2.865  15.150  0.1434  1.2949 -2.5212
  888MPD2    H113021   4.331   2.696  14.761  0.2701 -0.2713 -0.2147
  888MPD2    H213022   4.083   2.494  15.046 -0.5983  0.8357 -0.8633
  888MPD2    H313023   4.203   2.515  14.818 -0.0283 -0.1652 -0.5735
  888MPD2     N13024   4.388   2.913  14.938 -0.2023  1.0302 -0.0384
  888MPD2    H513025   4.388   2.977  15.017 -0.7348 -1.3696  1.9129
  888MPD2    N113026   4.109   2.680  15.238  0.1645  0.1305  0.0413
  888MPD2    H713027   4.127   2.767  15.287  0.7124  0.0493 -0.0187
  889MPD2     C13028   3.555   1.975  12.846 -0.6277  0.3167  0.1767
  889MPD2    C113029   3.665   1.960  12.924 -0.4148  0.6658  0.0034
  889MPD2    C213030   3.697   2.059  13.015 -0.1043 -0.6422  0.1259
  889MPD2    C313031   3.627   2.178  13.013 -0.0604  0.4845 -0.4117
  889MPD2    C413032   3.530   2.193  12.917 -0.5729  0.1709  0.4824
  889MPD2    C513033   3.494   2.091  12.835 -0.2636 -0.3089 -0.3007
  889MPD2     H13034   3.787   2.060  13.075  1.9545  3.7384 -3.0532
  889MPD2    H113035   3.471   2.282  12.901  2.2102  1.6720 -1.4748
  889MPD2    H213036   3.533   1.888  12.785  2.9117 -0.5152  0.0950
  889MPD2    H313037   3.407   2.106  12.771 -2.2009  2.2487  2.9275
  889MPD2     N13038   3.666   2.281  13.107  0.4264 -0.1271  0.1253
  889MPD2    H513039   3.757   2.270  13.152  0.6228  1.0986  0.0430
  889MPD2    N113040   3.720   1.835  12.936  0.5180  0.7803 -0.0253
  889MPD2    H713041   3.684   1.764  12.873 -0.4368  0.6979  0.6164
  890MPD2     C13042   3.051   3.843  14.599  0.0824 -0.2199 -0.3533
  890MPD2    C113043   3.135   3.936  14.661 -0.1411  0.3671  0.4783
  890MPD2    C213044   3.177   3.915  14.789  0.1745 -0.6280 -0.4374
  890MPD2    C313045   3.140   3.801  14.859  0.1661 -0.6665 -1.1984
  890MPD2    C413046   3.077   3.701  14.787 -0.0049  0.1646 -0.1676
  890MPD2    C513047   3.029   3.730  14.667  0.2758  0.2475  0.0328
  890MPD2     H13048   3.237   3.990  14.840 -2.0581 -0.0954  1.4533
  890MPD2    H113049   3.045   3.604  14.824 -0.1160 -0.6591 -2.4302
  890MPD2    H213050   3.009   3.864  14.501 -1.4668  1.9038  0.7595
  890MPD2    H313051   2.972   3.651  14.619  0.8333  0.2006 -0.5436
  890MPD2     N13052   3.184   3.790  14.997 -0.7126  0.3136  0.0980
  890MPD2    H513053   3.227   3.871  15.040 -1.9484  0.0282  1.8361
  890MPD2    N113054   3.188   4.046  14.588 -0.3117 -0.0045 -0.2842
  890MPD2    H713055   3.170   4.041  14.488  4.6887 -2.0923 -1.0899
  891MPD2     C13056   1.336   2.193  16.303 -0.0393 -0.4918 -0.4154
  891MPD2    C113057   1.253   2.131  16.397  0.4474 -0.0316 -0.3987
  891MPD2    C213058   1.317   2.076  16.508  0.0402  0.0607  0.1894
  891MPD2    C313059   1.455   2.081  16.525  0.1562  0.3072  0.6587
  891MPD2    C413060   1.530   2.137  16.434  0.0863  0.4722  0.2214
  891MPD2    C513061   1.472   2.204  16.325 -0.0862  0.4985 -0.1925
  891MPD2     H13062   1.258   2.032  16.588 -0.5491 -2.1210 -1.4614
  891MPD2    H113063   1.637   2.128  16.423  0.0348 -1.4816  1.4111
  891MPD2    H213064   1.301   2.244  16.214 -0.0383  0.6608  0.2450
  891MPD2    H313065   1.538   2.235  16.245  2.1871 -1.3436  0.9894
  891MPD2     N13066   1.525   2.019  16.635 -0.3182  0.2321  0.9159
  891MPD2    H513067   1.477   2.004  16.723  0.1231 -0.5268  1.0319
  891MPD2    N113068   1.114   2.124  16.372 -0.2190 -0.6920 -0.2497
  891MPD2    H713069   1.083   2.173  16.289  1.7667 -0.1616 -0.6746
  892MPD2     C13070   2.525   3.200  14.869 -0.7216  0.0828  0.3905
  892MPD2    C113071   2.446   3.184  14.759 -1.2391 -0.2179 -0.0092
  892MPD2    C213072   2.509   3.139  14.643  0.4637  0.2450 -0.5613
  892MPD2    C313073   2.641   3.111  14.635  0.7354  0.7612  0.1604
  892MPD2    C413074   2.716   3.125  14.748  0.2958 -0.6721  0.1225
  892MPD2    C513075   2.656   3.174  14.864 -0.0396 -0.4626  0.5177
  892MPD2     H13076   2.448   3.157  14.555  1.0976  2.0207 -0.6369
  892MPD2    H113077   2.822   3.105  14.740  0.7174  1.5028  0.3389
  892MPD2    H213078   2.483   3.233  14.963  1.8331  2.6175  0.6375
  892MPD2    H313079   2.720   3.171  14.951  0.4338  2.0476  0.2675
  892MPD2     N13080   2.705   3.071  14.520  0.4246 -0.3682 -0.2363
  892MPD2    H513081   2.805   3.053  14.523  0.4578 -0.0276  0.6912
  892MPD2    N113082   2.304   3.194  14.764  0.2309  0.0181 -0.4360
  892MPD2    H713083   2.263   3.221  14.675  1.0653  2.1973 -0.1508
  893MPD2     C13084   3.363   1.640   1.299 -0.8525  0.3829 -0.4922
  893MPD2    C113085   3.378   1.633   1.438 -0.5862 -0.7331  0.4771
  893MPD2    C213086   3.263   1.641   1.514 -0.6161  0.0923  0.0565
  893MPD2    C313087   3.136   1.662   1.456 -0.1623  0.3274 -0.2976
  893MPD2    C413088   3.127   1.678   1.322 -0.4922  0.1204 -0.3332
  893MPD2    C513089   3.240   1.662   1.248 -0.4233 -0.1090 -0.1105
  893MPD2     H13090   3.268   1.636   1.622  0.1340  0.2638  0.0289
  893MPD2    H113091   3.036   1.700   1.266  0.4686 -3.4861 -3.2531
  893MPD2    H213092   3.450   1.634   1.234 -0.4697  1.3047 -0.0680
  893MPD2    H313093   3.225   1.670   1.141 -1.9354  1.1349  0.1985
  893MPD2     N13094   3.011   1.664   1.523  0.1270 -0.1918  0.4346
  893MPD2    H513095   2.933   1.668   1.459  1.2046 -0.3642 -0.9000
  893MPD2    N113096   3.507   1.643   1.483 -0.4966  0.0499 -0.7290
  893MPD2    H713097   3.578   1.658   1.413  2.0908  0.5827  2.0295
  894MPD2     C13098   2.067   4.106   1.008 -0.6246  0.3647 -0.1311
  894MPD2    C113099   2.088   4.212   1.101 -0.6927  0.0074 -0.4515
  894MPD2    C213100   2.125   4.336   1.058  0.2404 -0.0936 -0.4429
  894MPD2    C313101   2.152   4.358   0.923 -0.4654  0.3328  0.3140
  894MPD2    C413102   2.118   4.259   0.832 -0.1368  0.2099  0.2864
  894MPD2    C513103   2.079   4.131   0.869 -0.2538  0.6027  0.7197
  894MPD2     H13104   2.152   4.409   1.133 -0.1818  0.8730 -1.2374
  894MPD2    H113105   2.146   4.271   0.728  1.2391  2.7484  0.9496
  894MPD2    H213106   2.037   4.004   1.028  1.1150 -0.5159 -2.0118
  894MPD2    H313107   2.062   4.056   0.793  1.6025  1.5897 -0.6755
  894MPD2     N13108   2.208   4.483   0.896  0.7707 -0.1801  0.4109
  894MPD2    H513109   2.213   4.545   0.976  0.6979  1.2793 -0.7135
  894MPD2    N113110   2.085   4.186   1.237  0.6822 -0.1681 -0.4484
  894MPD2    H713111   2.113   4.267   1.292 -0.0772 -0.1962 -0.0243
  895MPD2     C13112   1.435   2.465  13.102 -0.0272 -0.2312 -0.1057
  895MPD2    C113113   1.340   2.459  13.003 -0.0330 -0.2907 -0.6060
  895MPD2    C213114   1.371   2.394  12.881 -0.1308 -0.4059  0.0755
  895MPD2    C313115   1.490   2.328  12.856 -0.2012 -0.2380  0.3720
  895MPD2    C413116   1.580   2.321  12.956  0.0982 -0.1135 -0.5486
  895MPD2    C513117   1.554   2.389  13.074 -0.1380  0.2132  0.4724
  895MPD2     H13118   1.288   2.372  12.814  0.0692 -0.7680 -0.0512
  895MPD2    H113119   1.675   2.269  12.944  0.8339  1.4446 -1.4663
  895MPD2    H213120   1.426   2.507  13.202 -1.8118  0.5601 -0.6049
  895MPD2    H313121   1.629   2.377  13.152  1.2650 -1.1239 -1.0666
  895MPD2     N13122   1.516   2.248  12.735 -0.0388 -1.1369 -0.0757
  895MPD2    H513123   1.587   2.179  12.757  0.8481 -0.7562 -1.7825
  895MPD2    N113124   1.211   2.507  13.027  0.4480 -0.2236  0.4413
  895MPD2    H713125   1.142   2.482  12.957  0.5529  1.1009 -0.1482
  896MPD2     C13126   3.290   4.220   1.458 -0.2367 -0.2168  0.5247
  896MPD2    C113127   3.334   4.346   1.499 -0.1177  0.0597  0.0415
  896MPD2    C213128   3.275   4.457   1.444 -0.4766 -0.0544 -0.5353
  896MPD2    C313129   3.170   4.447   1.351  0.0623 -0.4242 -0.1030
  896MPD2    C413130   3.135   4.324   1.304  0.5222 -0.2498  0.7775
  896MPD2    C513131   3.193   4.210   1.359  0.0648 -0.8639 -0.3388
  896MPD2     H13132   3.311   4.556   1.470 -2.1515  0.2807  0.4876
  896MPD2    H113133   3.062   4.299   1.228  1.5176  1.7042 -0.8261
  896MPD2    H213134   3.322   4.130   1.510 -0.5082 -0.1265  0.8516
  896MPD2    H313135   3.161   4.109   1.334 -1.1253 -0.3627 -0.8897
  896MPD2     N13136   3.131   4.568   1.289  0.3503 -0.1039  0.1664
  896MPD2    H513137   3.172   4.653   1.327  2.7144 -0.1320 -2.2810
  896MPD2    N113138   3.447   4.358   1.584  0.2392 -0.4079 -0.3138
  896MPD2    H713139   3.494   4.275   1.617 -0.9235  0.1322  2.7073
  897MPD2     C13140   0.363   1.257  10.624  0.2880 -0.4247 -0.4118
  897MPD2    C113141   0.330   1.367  10.549  0.5516  0.8524  0.3731
  897MPD2    C213142   0.227   1.448  10.586  0.0283 -0.0340  0.5819
  897MPD2    C313143   0.166   1.426  10.701  0.6107 -0.3421 -0.3044
  897MPD2    C413144   0.188   1.318  10.783 -0.2764 -0.0195 -0.1649
  897MPD2    C513145   0.287   1.239  10.738 -0.0598  0.5240 -0.0467
  897MPD2     H13146   0.212   1.538  10.527  1.1454 -0.8833 -1.0200
  897MPD2    H113147   0.141   1.296  10.878  1.3160 -0.7074  0.4576
  897MPD2    H213148   0.452   1.197  10.609 -0.7218 -2.2289  0.8133
  897MPD2    H313149   0.321   1.155  10.797 -0.7132 -0.5532 -1.2049
  897MPD2     N13150   0.077   1.521  10.747 -0.3899 -0.0694  0.1718
  897MPD2    H513151   0.017   1.490  10.822 -0.4910 -1.9909 -0.7237
  897MPD2    N113152   0.398   1.404  10.433 -0.1416  0.8153  0.5392
  897MPD2    H713153   0.355   1.478  10.378 -1.1480 -2.3202 -2.9308
  898MPD2     C13154   1.456   2.782   0.342 -0.1639 -0.8214  0.0770
  898MPD2    C113155   1.578   2.782   0.281 -0.3961 -0.4676  0.8017
  898MPD2    C213156   1.587   2.848   0.164  0.1472  0.3337  0.1768
  898MPD2    C313157   1.478   2.896   0.092  0.3281  0.1598  0.5393
  898MPD2    C413158   1.352   2.891   0.148  0.7295  0.3076 -0.2772
  898MPD2    C513159   1.350   2.839   0.276 -0.6946 -0.4384 -0.1823
  898MPD2     H13160   1.686   2.846   0.121 -0.3269  0.0003 -0.9246
  898MPD2    H113161   1.256   2.923   0.109  0.7374  0.7421  0.0622
  898MPD2    H213162   1.443   2.735   0.438  1.1365  1.4960  1.3980
  898MPD2    H313163   1.255   2.848   0.326 -0.0474 -0.9155  1.1310
  898MPD2     N13164   1.510   2.967  17.677 -0.5452 -0.2143 -0.1486
  898MPD2    H513165   1.608   2.969  17.651 -0.2912  0.6353  0.8905
  898MPD2    N113166   1.699   2.736   0.351  0.2734  0.5636 -0.2679
  898MPD2    H713167   1.780   2.745   0.290  0.3646 -2.9834 -0.6784
  899MPD2     C13168   2.550   3.028  17.522 -0.3875 -0.0830  0.2153
  899MPD2    C113169   2.598   3.130  17.603 -0.3677 -0.5967 -0.1423
  899MPD2    C213170   2.551   3.133   0.032  0.1792  0.2835 -0.3776
  899MPD2    C313171   2.465   3.030   0.081 -0.1758 -1.0790 -0.1322
  899MPD2    C413172   2.433   2.923   0.004 -0.0346 -0.5247  0.4423
  899MPD2    C513173   2.477   2.929  17.581  0.6060  0.7894  0.3848
  899MPD2     H13174   2.578   3.215   0.097 -1.2275 -0.6594  1.3954
  899MPD2    H113175   2.373   2.839   0.037 -2.7797  1.2944  0.1186
  899MPD2    H213176   2.578   3.012  17.419  0.9189  1.1889  0.3829
  899MPD2    H313177   2.457   2.842  17.519  0.9824  0.7454  0.3285
  899MPD2     N13178   2.416   3.031   0.209 -0.6747 -0.2113  0.1990
  899MPD2    H513179   2.334   2.976   0.232 -0.6255  0.7741  2.7231
  899MPD2    N113180   2.683   3.224  17.542 -0.0083  0.4654  0.3146
  899MPD2    H713181   2.701   3.206  17.444 -2.7849 -0.3359 -0.0265
  900MPD2     C13182   3.004   0.250  12.665  0.1083  0.0514  0.0762
  900MPD2    C113183   2.933   0.136  12.632 -0.1001  0.8046  0.4947
  900MPD2    C213184   2.809   0.145  12.576  0.3384 -0.9545 -0.0702
  900MPD2    C313185   2.754   0.272  12.543 -0.8782 -0.8808 -0.2009
  900MPD2    C413186   2.817   0.388  12.580 -0.0303  0.1237  0.0603
  900MPD2    C513187   2.939   0.376  12.640 -0.1679  0.1227 -0.5437
  900MPD2     H13188   2.747   0.059  12.555 -0.1286 -0.9924  1.4379
  900MPD2    H113189   2.753   0.475  12.575 -1.6168 -0.9624  1.4489
  900MPD2    H213190   3.105   0.250  12.704 -0.8596 -0.8038  2.5298
  900MPD2    H313191   2.989   0.470  12.657 -1.8299  1.0491 -0.7732
  900MPD2     N13192   2.627   0.261  12.474 -0.1309  0.0678  0.1648
  900MPD2    H513193   2.593   0.174  12.435  0.1042 -0.4274  1.0671
  900MPD2    N113194   2.999   0.010  12.659  0.4450 -0.1207  0.3197
  900MPD2    H713195   3.096   0.007  12.692  0.9207  0.0635 -1.0728
  901MPD2     C13196   3.125   3.744  13.066 -1.1704  0.1961  0.5181
  901MPD2    C113197   3.207   3.743  12.957  0.3351  0.2476  0.0938
  901MPD2    C213198   3.211   3.853  12.878  0.3652  1.4994 -0.0881
  901MPD2    C313199   3.150   3.968  12.916  0.1872  0.0350 -0.2547
  901MPD2    C413200   3.074   3.971  13.030  0.7581 -0.1363 -0.1832
  901MPD2    C513201   3.058   3.856  13.098 -0.5520  0.1588 -0.0982
  901MPD2     H13202   3.249   3.852  12.777 -1.2420 -1.3989 -0.6744
  901MPD2    H113203   3.019   4.059  13.062 -2.0608 -1.8937 -0.2016
  901MPD2    H213204   3.113   3.663  13.137  0.5851  0.2923  0.9333
  901MPD2    H313205   3.003   3.847  13.191  0.6096 -1.8087  0.4027
  901MPD2     N13206   3.157   4.088  12.839 -0.1143  0.2528 -0.0924
  901MPD2    H513207   3.225   4.101  12.764  1.1917 -1.4231  0.8279
  901MPD2    N113208   3.275   3.623  12.923  0.3301  0.2933  0.0387
  901MPD2    H713209   3.262   3.554  12.997  0.7740 -1.1345 -1.2192
  902MPD2     C13210   1.893   2.398  12.829  0.2270 -0.4158  0.5633
  902MPD2    C113211   1.817   2.476  12.746  0.3808 -1.5197  0.5986
  902MPD2    C213212   1.831   2.460  12.605  0.0315  0.0286  0.3433
  902MPD2    C313213   1.915   2.368  12.551  0.0658  0.4069 -0.2411
  902MPD2    C413214   2.003   2.305  12.631 -0.0349  0.3128 -0.0211
  902MPD2    C513215   1.986   2.316  12.769  0.1384 -0.3108  0.2224
  902MPD2     H13216   1.773   2.515  12.531 -0.6621  0.3931  1.1656
  902MPD2    H113217   2.075   2.235  12.591 -0.5822 -0.8940  1.0813
  902MPD2    H213218   1.874   2.387  12.935 -0.9676  1.2850  0.5309
  902MPD2    H313219   2.044   2.250  12.833  1.9675 -0.9609 -2.1108
  902MPD2     N13220   1.934   2.338  12.412  0.3467  0.2035 -0.1576
  902MPD2    H513221   1.991   2.257  12.392  3.8107  2.4276  0.6776
  902MPD2    N113222   1.729   2.575  12.804 -0.1020  0.3304  0.1727
  902MPD2    H713223   1.722   2.568  12.905  0.5566  1.8633  0.3197
  903MPD2     C13224   1.771   2.337  11.474  0.0340 -0.1788 -0.4618
  903MPD2    C113225   1.715   2.401  11.583 -0.1900  0.2145  0.1402
  903MPD2    C213226   1.582   2.443  11.570  0.5797  0.1061 -0.1418
  903MPD2    C313227   1.495   2.411  11.470  0.0585  0.7227 -0.6479
  903MPD2    C413228   1.553   2.339  11.364  0.0982  0.6501  0.6444
  903MPD2    C513229   1.686   2.308  11.366 -0.8517  0.0712 -0.3091
  903MPD2     H13230   1.531   2.499  11.647  0.4454 -0.7409  0.3801
  903MPD2    H113231   1.492   2.305  11.281 -0.5914  0.2862  1.3007
  903MPD2    H213232   1.873   2.301  11.472  0.2618  0.3819  1.3425
  903MPD2    H313233   1.722   2.258  11.276 -0.0233 -0.1752  0.1631
  903MPD2     N13234   1.362   2.446  11.477  0.8250  0.7153  0.0148
  903MPD2    H513235   1.343   2.503  11.558 -2.6210 -2.6729  1.5830
  903MPD2    N113236   1.794   2.419  11.700  0.0109 -0.1826 -0.0820
  903MPD2    H713237   1.889   2.384  11.693 -0.2923 -0.9156 -0.4638
  904MPD2     C13238   1.719   1.619  13.744  0.0956 -0.3732 -0.4561
  904MPD2    C113239   1.667   1.722  13.820 -0.1646 -0.0551  0.5021
  904MPD2    C213240   1.736   1.755  13.937 -0.3322  0.6736 -0.7184
  904MPD2    C313241   1.848   1.687  13.983  0.6755  0.3020 -0.1613
  904MPD2    C413242   1.888   1.579  13.901  0.4133  0.2411  0.0484
  904MPD2    C513243   1.827   1.554  13.783  0.2703 -0.5780  0.9437
  904MPD2     H13244   1.699   1.836  13.998 -0.0799  1.5658 -1.7624
  904MPD2    H113245   1.981   1.533  13.932  0.8651  1.2117  0.1383
  904MPD2    H213246   1.670   1.594  13.651  0.9005 -2.0663 -0.4285
  904MPD2    H313247   1.871   1.479  13.718 -1.4006 -0.2823 -0.5101
  904MPD2     N13248   1.919   1.725  14.095 -0.2738  0.0795 -0.4506
  904MPD2    H513249   1.899   1.815  14.139  0.6678 -0.2638  0.6842
  904MPD2    N113250   1.538   1.785  13.790  0.9296 -0.5085  0.2052
  904MPD2    H713251   1.513   1.866  13.847  1.1440  0.5825 -1.2727
  905MPD2     C13252   0.846   1.902  13.170 -0.2205 -0.1719 -0.6847
  905MPD2    C113253   0.978   1.906  13.206 -0.6366  0.6012 -0.5337
  905MPD2    C213254   1.071   1.913  13.103  0.2894  0.2478 -0.2475
  905MPD2    C313255   1.040   1.915  12.971 -0.4966  0.0876 -0.7412
  905MPD2    C413256   0.909   1.908  12.940  0.0674  0.9975 -0.4060
  905MPD2    C513257   0.817   1.900  13.032 -1.0561 -0.2422  0.3005
  905MPD2     H13258   1.177   1.911  13.125 -0.1329  0.3208  1.7799
  905MPD2    H113259   0.872   1.914  12.838 -0.9029 -0.4711 -0.1499
  905MPD2    H213260   0.760   1.909  13.236 -0.7396  0.0153 -1.3761
  905MPD2    H313261   0.712   1.908  13.007 -0.8874 -0.3196 -0.4341
  905MPD2     N13262   1.145   1.931  12.877 -0.0757  0.4760  0.5054
  905MPD2    H513263   1.236   1.947  12.918 -0.0967  2.2646 -0.1336
  905MPD2    N113264   1.016   1.899  13.347 -1.0272 -0.4718  0.2966
  905MPD2    H713265   0.948   1.916  13.421 -0.0358  1.7665  0.7062
  906MPD2     C13266   3.663   1.985  11.258  0.2403  0.6385 -0.1899
  906MPD2    C113267   3.642   1.869  11.182 -0.5924 -1.3570  0.1933
  906MPD2    C213268   3.615   1.755  11.253 -0.4049 -1.1066  0.0498
  906MPD2    C313269   3.596   1.755  11.391  0.0815 -0.2796  0.3013
  906MPD2    C413270   3.608   1.864  11.464 -0.3594  0.0499  0.0917
  906MPD2    C513271   3.651   1.971  11.392 -0.0770  0.1086  0.0438
  906MPD2     H13272   3.596   1.664  11.197  0.0191 -0.1697 -1.6244
  906MPD2    H113273   3.595   1.863  11.571 -0.0545  0.0161  0.1282
  906MPD2    H213274   3.702   2.072  11.206 -1.0636  1.5872  0.4467
  906MPD2    H313275   3.679   2.061  11.446  1.6317 -0.4127  0.0558
  906MPD2     N13276   3.544   1.636  11.452  0.2976 -0.6418 -0.0504
  906MPD2    H513277   3.536   1.562  11.383 -2.9809 -0.1863 -0.1538
  906MPD2    N113278   3.663   1.855  11.046 -0.0120  0.2637 -0.3560
  906MPD2    H713279   3.644   1.763  11.009 -1.9689 -0.6435  2.9352
  907MPD2     C13280   2.449   0.607  15.999 -0.0742 -0.3170  0.6954
  907MPD2    C113281   2.516   0.714  15.951  0.5075 -0.3833 -0.2793
  907MPD2    C213282   2.576   0.804  16.044 -0.5130  0.4858  0.8834
  907MPD2    C313283   2.567   0.780  16.179 -0.4520  0.8287  0.2290
  907MPD2    C413284   2.500   0.669  16.218 -0.3023  0.7432  0.4192
  907MPD2    C513285   2.446   0.582  16.129  0.2726 -0.4114  0.0484
  907MPD2     H13286   2.632   0.893  16.017  0.0546 -0.2165 -0.2363
  907MPD2    H113287   2.504   0.636  16.321  0.9053 -0.9985 -0.1972
  907MPD2    H213288   2.398   0.540  15.931  0.1546 -1.3855  1.5787
  907MPD2    H313289   2.385   0.503  16.169 -0.2085  0.0313  0.1812
  907MPD2     N13290   2.648   0.857  16.269 -0.3673 -0.5268  0.4518
  907MPD2    H513291   2.711   0.927  16.231 -0.5411  0.5665  2.1842
  907MPD2    N113292   2.523   0.713  15.816 -0.4141 -0.2718  0.3941
  907MPD2    H713293   2.479   0.633  15.771 -1.0410 -0.2587  0.9910
  908MPD2     C13294   0.090   1.066   9.665  0.7786 -0.3920 -0.6502
  908MPD2    C113295   0.195   1.003   9.731 -0.1335  0.1422 -0.1151
  908MPD2    C213296   0.263   1.084   9.816 -0.2699 -0.5386 -0.4403
  908MPD2    C313297   0.241   1.221   9.831  0.1446  1.2301 -0.1481
  908MPD2    C413298   0.136   1.276   9.778 -0.2943 -0.7410 -0.5406
  908MPD2    C513299   0.063   1.199   9.694  0.2308  0.2572 -0.3852
  908MPD2     H13300   0.345   1.039   9.870  0.5111  0.9113 -0.4142
  908MPD2    H113301   0.103   1.378   9.797  0.3719 -0.2548 -1.9876
  908MPD2    H213302   0.010   1.015   9.612  0.4338 -0.4168 -0.1089
  908MPD2    H313303   4.703   1.240   9.642 -0.8294  2.1598  2.8533
  908MPD2     N13304   0.332   1.291   9.918 -0.5080  0.4525 -0.0574
  908MPD2    H513305   0.409   1.239   9.959  0.1407  1.4779  0.0381
  908MPD2    N113306   0.229   0.870   9.713  0.2654 -0.2642 -0.0190
  908MPD2    H713307   0.163   0.818   9.657  2.7961 -1.8419 -1.5090
  909MPD2     C13308   0.891   4.441  11.835  0.5047 -0.1380 -0.2700
  909MPD2    C113309   0.838   4.535  11.740 -0.4940 -0.2625 -0.2779
  909MPD2    C213310   0.730   4.618  11.774 -0.0936 -0.6843 -0.4107
  909MPD2    C313311   0.676   4.613  11.904 -0.2376  0.2774 -0.3692
  909MPD2    C413312   0.734   4.529  11.999 -0.4235  0.9569 -0.8491
  909MPD2    C513313   0.839   4.443  11.958  0.1594  0.4387 -0.0576
  909MPD2     H13314   0.694   4.684  11.696  0.3965  0.7845  0.6004
  909MPD2    H113315   0.700   4.528  12.102  1.5312  0.3048 -0.1980
  909MPD2    H213316   0.965   4.363  11.818 -0.6431 -1.1590 -0.5746
  909MPD2    H313317   0.874   4.366  12.026 -1.4279 -0.0318  0.2358
  909MPD2     N13318   0.576   4.714  11.935  0.7512  0.4990 -0.4710
  909MPD2    H513319   0.554   0.058  11.865 -0.6603  0.6732  0.1588
  909MPD2    N113320   0.900   4.550  11.615 -0.6428  0.4275 -0.0011
  909MPD2    H713321   0.863   4.622  11.555  0.7029 -0.5710 -2.0183
  910MPD2     C13322   1.825   1.686  15.670 -0.2846 -0.5876 -0.3132
  910MPD2    C113323   1.839   1.552  15.624 -0.0418 -0.7741 -0.6693
  910MPD2    C213324   1.842   1.532  15.484  0.4572 -0.3055 -0.4547
  910MPD2    C313325   1.824   1.640  15.396  0.5375 -0.3531  0.2118
  910MPD2    C413326   1.818   1.764  15.440 -0.3160  0.6360 -0.2298
  910MPD2    C513327   1.814   1.790  15.574 -0.0309 -0.0174  0.3100
  910MPD2     H13328   1.845   1.432  15.441  0.4345 -0.1665 -0.7856
  910MPD2    H113329   1.819   1.847  15.370  0.0349  1.0860  0.3110
  910MPD2    H213330   1.820   1.712  15.775  1.3676 -0.7220 -0.2040
  910MPD2    H313331   1.817   1.894  15.605  1.1949  0.2328 -0.6492
  910MPD2     N13332   1.814   1.623  15.257  0.7514 -0.2297  0.1222
  910MPD2    H513333   1.824   1.714  15.212 -0.5647 -1.5505 -2.8410
  910MPD2    N113334   1.863   1.444  15.715  0.2028 -0.9961  0.4143
  910MPD2    H713335   1.869   1.350  15.677  2.0515  0.9130 -4.0575
  911MPD2     C13336   4.319   1.225  16.553 -0.4135 -0.8235  0.4023
  911MPD2    C113337   4.328   1.358  16.590  0.0402 -0.6607 -0.8799
  911MPD2    C213338   4.229   1.448  16.552 -0.8570  0.0143 -0.1935
  911MPD2    C313339   4.118   1.401  16.482 -0.2789 -0.2990  0.6434
  911MPD2    C413340   4.115   1.270  16.439  0.4666  0.5292  0.6589
  911MPD2    C513341   4.208   1.178  16.488 -0.6136 -0.2028  0.3630
  911MPD2     H13342   4.238   1.554  16.573  0.5242  0.4784 -3.0887
  911MPD2    H113343   4.035   1.236  16.374  1.3924  1.7775 -1.1255
  911MPD2    H213344   4.399   1.156  16.579 -1.6464 -2.7200 -0.8516
  911MPD2    H313345   4.194   1.075  16.457 -0.6351 -0.0438 -0.1601
  911MPD2     N13346   4.016   1.479  16.437  0.6144 -0.1936 -0.0045
  911MPD2    H513347   3.944   1.432  16.383 -0.3194 -0.6137  1.6262
  911MPD2    N113348   4.454   1.401  16.653  0.4587  0.2913  0.6946
  911MPD2    H713349   4.537   1.350  16.623 -0.8091 -0.6246 -1.2698
  912MPD2     C13350   3.597   1.179  16.003 -0.6615 -0.1074  0.2001
  912MPD2    C113351   3.582   1.251  16.119  0.2288 -0.2126  1.3820
  912MPD2    C213352   3.570   1.177  16.238  0.5595 -0.4284 -0.0235
  912MPD2    C313353   3.589   1.040  16.241 -0.2092 -1.3567  0.4107
  912MPD2    C413354   3.597   0.970  16.118  0.4546  0.1176  0.2717
  912MPD2    C513355   3.594   1.042  16.002  0.2906  0.6692  0.0605
  912MPD2     H13356   3.574   1.231  16.332 -0.1236 -0.4393  0.0113
  912MPD2    H113357   3.595   0.862  16.116  1.8823  0.1197 -1.1225
  912MPD2    H213358   3.614   1.230  15.909 -0.7746  0.8012  0.6782
  912MPD2    H313359   3.578   0.998  15.904  0.0156 -2.7001  1.6038
  912MPD2     N13360   3.606   0.988  16.367 -0.6973  0.5909  0.0762
  912MPD2    H513361   3.586   1.051  16.444 -1.0547  1.9742 -1.1341
  912MPD2    N113362   3.604   1.389  16.117  0.8044  0.2701  0.5862
  912MPD2    H713363   3.675   1.406  16.046 -0.7880 -2.2447 -1.6189
  913MPD2     C13364   0.362   2.757  11.288 -0.1261 -0.6262 -0.5419
  913MPD2    C113365   0.270   2.730  11.182 -0.5388 -0.4699 -0.5438
  913MPD2    C213366   0.256   2.803  11.067  0.7950 -0.3877 -0.4379
  913MPD2    C313367   0.326   2.926  11.063 -0.1386  0.1287  0.8287
  913MPD2    C413368   0.415   2.958  11.164  0.3382  0.0225 -0.0970
  913MPD2    C513369   0.432   2.878  11.277 -0.1622 -0.8150  0.1635
  913MPD2     H13370   0.185   2.768  10.993 -1.9746 -0.8583  2.4272
  913MPD2    H113371   0.453   3.059  11.169  2.8572 -0.7905 -2.6895
  913MPD2    H213372   0.375   2.699  11.378 -2.4045 -1.1256 -0.5319
  913MPD2    H313373   0.504   2.913  11.350  0.8718  0.2387 -1.3499
  913MPD2     N13374   0.325   3.016  10.955  0.4875 -0.3643  0.9351
  913MPD2    H513375   0.373   3.105  10.970 -1.0333  0.9430 -2.1563
  913MPD2    N113376   0.192   2.616  11.190  0.1383 -0.5790 -0.0796
  913MPD2    H713377   0.142   2.587  11.107  0.0893 -0.5801 -0.0499
  914MPD2     C13378   2.769   3.505  12.301 -0.4344  1.6228  0.1437
  914MPD2    C113379   2.836   3.606  12.375  0.0708 -0.1601  0.4924
  914MPD2    C213380   2.945   3.574  12.450  0.4924 -0.7643  0.5465
  914MPD2    C313381   3.008   3.447  12.452 -0.9757 -0.2339 -0.3354
  914MPD2    C413382   2.944   3.350  12.373 -0.1738  1.1710  1.0021
  914MPD2    C513383   2.822   3.375  12.310 -0.8832  0.0401 -0.2326
  914MPD2     H13384   2.991   3.656  12.504  1.4448 -0.4983 -0.6805
  914MPD2    H113385   2.982   3.252  12.347  3.6007  2.8569  0.1373
  914MPD2    H213386   2.691   3.525  12.228 -0.6016  1.2953  0.2315
  914MPD2    H313387   2.784   3.301  12.240 -1.3942  0.7839 -0.7316
  914MPD2     N13388   3.126   3.423  12.529  0.3771 -0.3097 -0.5275
  914MPD2    H513389   3.160   3.506  12.576  1.4684  0.3801 -2.5327
  914MPD2    N113390   2.789   3.740  12.375 -0.1612 -0.7308 -0.3660
  914MPD2    H713391   2.859   3.809  12.400 -1.7710  1.0237 -0.7326
  915MPD2     C13392   0.913   3.850  16.255  0.3050 -0.5152 -0.4847
  915MPD2    C113393   0.804   3.914  16.192 -0.0236  0.4963  0.2698
  915MPD2    C213394   0.701   3.946  16.277  0.0786 -0.6204 -0.4698
  915MPD2    C313395   0.706   3.907  16.409  0.1928  0.2221  0.6881
  915MPD2    C413396   0.824   3.865  16.473  0.0560  0.6548 -0.3171
  915MPD2    C513397   0.929   3.838  16.392 -0.5439  0.1186 -0.6654
  915MPD2     H13398   0.617   3.994  16.229  1.3417  1.9311 -0.1175
  915MPD2    H113399   0.830   3.842  16.579  0.7555  1.1066 -0.2587
  915MPD2    H213400   1.000   3.824  16.196  0.2576 -2.4474  0.3224
  915MPD2    H313401   1.020   3.808  16.442 -0.7173 -2.1278 -1.6852
  915MPD2     N13402   0.591   3.937  16.476  0.0649  0.1910  0.0888
  915MPD2    H513403   0.510   3.978  16.430  1.2813  1.0832 -1.2798
  915MPD2    N113404   0.804   3.935  16.051 -0.6947 -0.0565 -0.2176
  915MPD2    H713405   0.882   3.900  15.996 -0.8008 -0.4919 -0.0831
  916MPD2     C13406   3.562   1.785  15.854  0.4112 -0.1464 -0.4964
  916MPD2    C113407   3.471   1.691  15.899  0.2836 -0.4033  0.3445
  916MPD2    C213408   3.442   1.575  15.825  0.0523 -0.5973  0.9633
  916MPD2    C313409   3.509   1.546  15.706  0.0388 -0.1208 -0.5237
  916MPD2    C413410   3.596   1.645  15.657 -0.2466  0.7870  0.1491
  916MPD2    C513411   3.629   1.751  15.740 -0.3889 -0.5268 -0.5998
  916MPD2     H13412   3.354   1.513  15.840  0.4002 -1.0249  1.2051
  916MPD2    H113413   3.649   1.639  15.562 -0.7407 -0.2618 -0.0571
  916MPD2    H213414   3.573   1.879  15.907 -1.9154 -1.0090  1.5416
  916MPD2    H313415   3.696   1.831  15.711  1.6450 -2.5344 -1.4240
  916MPD2     N13416   3.477   1.425  15.640  0.5880 -0.7001  0.2988
  916MPD2    H513417   3.428   1.356  15.696 -0.6826  1.0875  1.3901
  916MPD2    N113418   3.409   1.726  16.019  0.4583  0.5951  0.5912
  916MPD2    H713419   3.410   1.821  16.055  1.9186  0.5438  0.7043
  917MPD2     C13420   4.307   3.862  11.188  0.1015  0.2425 -0.4867
  917MPD2    C113421   4.362   3.891  11.311  0.3483 -0.1133  0.6263
  917MPD2    C213422   4.468   3.981  11.318 -0.0370  0.6085  0.1239
  917MPD2    C313423   4.513   4.058  11.213 -0.0948 -0.5820 -0.8130
  917MPD2    C413424   4.446   4.035  11.086  0.0796 -0.5405  0.0439
  917MPD2    C513425   4.346   3.939  11.082  0.1142 -0.5796  0.7260
  917MPD2     H13426   4.523   4.009  11.407 -1.2156 -1.2394  1.4367
  917MPD2    H113427   4.472   4.097  11.001  3.3188 -0.8327  0.8588
  917MPD2    H213428   4.231   3.786  11.173  1.4987 -1.8172  2.9269
  917MPD2    H313429   4.303   3.925  10.983  2.5992  1.5687 -0.6515
  917MPD2     N13430   4.610   4.163  11.216  0.1019  0.5060  0.6098
  917MPD2    H513431   4.610   4.214  11.128 -0.5559 -0.1901  0.2000
  917MPD2    N113432   4.303   3.830  11.426  0.4209 -0.6530 -0.5549
  917MPD2    H713433   4.210   3.791  11.412  0.6368 -0.8583 -1.4221
  918MPD2     C13434   4.250   4.477  12.122 -0.1148 -0.0686 -0.2087
  918MPD2    C113435   4.335   4.369  12.160 -0.0662 -0.4252  0.8704
  918MPD2    C213436   4.316   4.250  12.093  0.6172 -0.2211  0.8294
  918MPD2    C313437   4.225   4.226  11.993 -0.1606  0.0076 -0.5110
  918MPD2    C413438   4.141   4.331  11.959  0.2120 -0.3407 -0.7263
  918MPD2    C513439   4.154   4.453  12.023  0.5170  0.4590  0.5314
  918MPD2     H13440   4.378   4.170  12.133 -1.3629 -3.3259 -2.3389
  918MPD2    H113441   4.056   4.317  11.893 -0.2046 -1.1080 -0.0279
  918MPD2    H213442   4.251   4.578  12.161 -1.4204 -0.5436  1.0634
  918MPD2    H313443   4.086   4.532  11.992 -0.5856 -0.0599  1.6127
  918MPD2     N13444   4.211   4.105  11.930  0.2841 -0.6337 -0.5506
  918MPD2    H513445   4.288   4.042  11.950  0.9007  1.2335  3.0228
  918MPD2    N113446   4.446   4.386  12.256 -0.1354 -0.3628 -0.7190
  918MPD2    H713447   4.509   4.307  12.270  1.1576  0.9677  0.9599
  919MPD2     C13448   0.231   3.020  11.718 -0.1811  0.0074 -0.2775
  919MPD2    C113449   0.188   2.912  11.643  0.7209 -0.2725 -0.0227
  919MPD2    C213450   0.148   2.940  11.510  0.2461 -1.3623 -0.0598
  919MPD2    C313451   0.146   3.069  11.457  0.1640  0.0254  1.2489
  919MPD2    C413452   0.177   3.174  11.537  0.1304  0.2024  0.1622
  919MPD2    C513453   0.241   3.145  11.657 -0.6462 -0.1388  0.3781
  919MPD2     H13454   0.109   2.865  11.442 -0.2298 -3.1660  2.2176
  919MPD2    H113455   0.182   3.273  11.494  1.8066  0.3865  0.7653
  919MPD2    H213456   0.274   3.008  11.817 -2.5859  0.4133  0.7992
  919MPD2    H313457   0.284   3.228  11.712 -0.8551  0.1426  0.1185
  919MPD2     N13458   0.112   3.100  11.324  0.1137  0.4608 -0.1186
  919MPD2    H513459   0.129   3.195  11.290  0.1804  0.4961  0.0099
  919MPD2    N113460   0.178   2.785  11.696  0.9425  0.1269 -0.3136
  919MPD2    H713461   0.146   2.714  11.631  2.0936 -0.3222 -0.3818
  920MPD2     C13462   4.642   3.802  10.659 -0.4013 -0.0781 -0.5861
  920MPD2    C113463   4.547   3.710  10.619  0.5184  0.4389 -0.3719
  920MPD2    C213464   4.544   3.583  10.678  0.4832 -0.9419  0.6035
  920MPD2    C313465   4.657   3.546  10.746  0.1123 -0.0711  0.2249
  920MPD2    C413466   0.035   3.634  10.766 -0.4322 -0.3761 -0.2668
  920MPD2    C513467   0.028   3.764  10.729  0.5243  0.1688  0.1169
  920MPD2     H13468   4.466   3.510  10.656 -0.2105  0.0537 -0.2722
  920MPD2    H113469   0.121   3.613  10.829 -1.7441  0.6662  1.8622
  920MPD2    H213470   4.650   3.903  10.620  0.4938 -1.1895 -3.2920
  920MPD2    H313471   0.106   3.836  10.750 -1.0999  1.9307  0.0726
  920MPD2     N13472   4.667   3.416  10.795  0.1224  0.0748  0.3133
  920MPD2    H513473   4.588   3.358  10.770  1.4050 -1.6729  0.3239
  920MPD2    N113474   4.443   3.740  10.522  0.4379  0.1616 -0.0882
  920MPD2    H713475   4.371   3.669  10.518  0.6355 -0.0092 -0.6758
  921MPD2     C13476   0.440   2.153  16.848 -0.0490  0.3317 -0.5849
  921MPD2    C113477   0.449   2.066  16.744 -1.1751  0.2935 -0.6042
  921MPD2    C213478   0.356   1.968  16.738 -0.2569  0.6758  0.2601
  921MPD2    C313479   0.253   1.958  16.834  0.9219  0.8498 -0.4485
  921MPD2    C413480   0.236   2.057  16.937  0.1532  0.0697 -0.1278
  921MPD2    C513481   0.335   2.159  16.934 -0.4338  0.0030 -0.1674
  921MPD2     H13482   0.367   1.890  16.663  1.0844 -0.6468  1.8468
  921MPD2    H113483   0.158   2.059  17.012  1.2982 -1.1157  1.1016
  921MPD2    H213484   0.517   2.228  16.860  1.2032 -0.9556 -0.5777
  921MPD2    H313485   0.331   2.235  17.011 -1.0894 -0.0082 -0.1941
  921MPD2     N13486   0.171   1.841  16.825 -0.0774 -0.0483  0.3654
  921MPD2    H513487   0.199   1.774  16.755  0.4628 -1.1052  1.5844
  921MPD2    N113488   0.551   2.076  16.652 -0.9986  0.3787  0.2609
  921MPD2    H713489   0.639   2.109  16.691  0.8837  1.6531 -4.9410
  922MPD2     C13490   1.246   0.150  16.838 -0.0328  0.4305 -0.1504
  922MPD2    C113491   1.319   0.149  16.952  0.0027  0.1922  0.3549
  922MPD2    C213492   1.266   0.086  17.063 -0.1058 -0.4279  0.0359
  922MPD2    C313493   1.139   0.029  17.064 -0.3510 -0.0741 -0.5512
  922MPD2    C413494   1.062   0.046  16.946 -0.2075  0.4794 -0.7198
  922MPD2    C513495   1.121   0.100  16.834  0.2463 -0.6321 -0.7714
  922MPD2     H13496   1.326   0.083  17.153  0.3506  0.5897 -0.2350
  922MPD2    H113497   0.959   0.015  16.934 -0.2509 -0.2084  1.3680
  922MPD2    H213498   1.284   0.199  16.749  1.0753  0.4190  0.3183
  922MPD2    H313499   1.062   0.092  16.743 -1.9039  1.0713  0.4851
  922MPD2     N13500   1.086   4.705  17.186 -0.1579 -0.4577  0.1350
  922MPD2    H513501   1.125   4.719  17.279 -1.5877 -0.5894  0.7571
  922MPD2    N113502   1.447   0.202  16.969 -0.0048  0.5217  0.1085
  922MPD2    H713503   1.497   0.183  17.055 -2.2108 -0.0337  1.2626
  923MPD2     C13504   2.922   1.176   9.393 -0.1543 -0.4649 -0.7078
  923MPD2    C113505   2.913   1.306   9.434  0.2349  0.1220  0.5912
  923MPD2    C213506   3.019   1.368   9.497 -0.4204 -0.9504  0.0842
  923MPD2    C313507   3.128   1.295   9.535 -1.3003 -0.2714 -0.8255
  923MPD2    C413508   3.133   1.163   9.506 -1.0504 -0.3340 -0.7130
  923MPD2    C513509   3.039   1.109   9.429  0.0757  0.3540 -0.6632
  923MPD2     H13510   3.010   1.474   9.520  3.5787 -0.9935  1.7971
  923MPD2    H113511   3.208   1.100   9.551  2.0296  3.1468 -1.0542
  923MPD2    H213512   2.853   1.129   9.325 -0.4317 -0.8775 -0.1403
  923MPD2    H313513   3.054   1.002   9.414 -0.5272  0.0720  0.7962
  923MPD2     N13514   3.237   1.339   9.626  0.7060 -0.1971 -0.2084
  923MPD2    H513515   3.303   1.273   9.665  2.6180 -0.3559 -3.7325
  923MPD2    N113516   2.806   1.384   9.383  0.5480  0.7668 -0.1369
  923MPD2    H713517   2.746   1.333   9.319  1.6280  0.1845 -0.6890
  924MPD2     C13518   2.780   0.452  15.904  0.2531 -0.1475 -0.1221
  924MPD2    C113519   2.762   0.394  16.031  0.5019 -0.7774 -0.5887
  924MPD2    C213520   2.832   0.450  16.143 -0.3304  0.3306 -0.3567
  924MPD2    C313521   2.912   0.561  16.128  0.3012 -0.2567 -0.1940
  924MPD2    C413522   2.922   0.622  16.008  0.5613 -0.2221 -0.3238
  924MPD2    C513523   2.859   0.565  15.903  0.3215  0.4567 -0.1762
  924MPD2     H13524   2.812   0.412  16.243 -0.2961 -1.7717 -1.1462
  924MPD2    H113525   2.974   0.717  16.006  2.2325 -1.1657 -1.1202
  924MPD2    H213526   2.740   0.410  15.811 -3.7374 -2.1199  2.4728
  924MPD2    H313527   2.879   0.602  15.803  1.2487 -0.0867 -0.1866
  924MPD2     N13528   2.962   0.633  16.242 -0.2633 -0.2628 -0.8982
  924MPD2    H513529   2.998   0.722  16.209  0.0380  0.7554  2.1725
  924MPD2    N113530   2.665   0.291  16.038  0.0201  0.3093 -0.1440
  924MPD2    H713531   2.637   0.271  15.942 -0.3547  3.2007 -0.6421
  925MPD2     C13532   1.048   3.064  14.565  0.3661 -0.9080 -0.5022
  925MPD2    C113533   1.155   2.973  14.558  0.7824 -0.3140  0.1355
  925MPD2    C213534   1.205   2.914  14.671 -0.2007 -0.1331  0.2442
  925MPD2    C313535   1.166   2.959  14.804 -0.4441  0.3331 -0.8172
  925MPD2    C413536   1.070   3.058  14.808  0.1471 -0.4124 -0.2178
  925MPD2    C513537   1.006   3.105  14.688  0.9563  0.2695 -0.3087
  925MPD2     H13538   1.273   2.833  14.650  0.0002  0.4809 -1.4788
  925MPD2    H113539   1.040   3.100  14.903  1.2098 -0.8958  0.3351
  925MPD2    H213540   1.002   3.113  14.481 -1.6122  0.1063  1.1748
  925MPD2    H313541   0.937   3.189  14.686  2.1876  1.1990 -4.1480
  925MPD2     N13542   1.206   2.894  14.923  0.2023  0.2924 -0.4631
  925MPD2    H513543   1.169   2.937  15.007  0.1598 -2.6269  1.0356
  925MPD2    N113544   1.203   2.915  14.439 -0.0683 -0.1475 -0.1926
  925MPD2    H713545   1.274   2.846  14.461  0.4178 -0.4794 -2.8603
  926MPD2     C13546   0.936   1.107  13.416 -0.1630  1.1320 -0.5627
  926MPD2    C113547   0.846   1.203  13.396 -0.7616 -0.3725 -0.6185
  926MPD2    C213548   0.837   1.271  13.275 -0.1443 -0.3881 -0.4479
  926MPD2    C313549   0.926   1.240  13.166  0.5842  0.0944 -0.4830
  926MPD2    C413550   1.018   1.141  13.191  0.4220 -0.8249 -0.1463
  926MPD2    C513551   1.016   1.072  13.312  0.5672 -0.0346 -0.2711
  926MPD2     H13552   0.751   1.335  13.258 -0.7690 -1.8264 -2.6553
  926MPD2    H113553   1.076   1.111  13.105 -0.8563 -3.5794 -0.0608
  926MPD2    H213554   0.941   1.056  13.512 -0.9132  1.1327 -0.5166
  926MPD2    H313555   1.096   1.001  13.330  0.2770  0.1783  1.8843
  926MPD2     N13556   0.935   1.303  13.039  0.1035 -0.0408  0.1798
  926MPD2    H513557   1.005   1.275  12.971  1.2454  0.6245  1.0823
  926MPD2    N113558   0.755   1.243  13.501  0.3960 -0.5044 -0.0535
  926MPD2    H713559   0.682   1.309  13.478  0.0892 -0.7429  0.2362
  927MPD2     C13560   4.248   3.488   0.312 -0.6632 -0.2749  0.2653
  927MPD2    C113561   4.314   3.390   0.385  0.1694  0.1133 -0.1686
  927MPD2    C213562   4.433   3.336   0.338  0.5782 -0.9013  0.2308
  927MPD2    C313563   4.474   3.381   0.211 -0.6472 -0.3014 -0.5307
  927MPD2    C413564   4.409   3.481   0.134 -0.2881  0.3432  0.1652
  927MPD2    C513565   4.288   3.527   0.186  0.0216  0.4867 -0.5511
  927MPD2     H13566   4.493   3.270   0.399  0.5871 -0.2935  0.8747
  927MPD2    H113567   4.437   3.512   0.034 -2.5603  0.1558 -0.5190
  927MPD2    H213568   4.152   3.527   0.342 -0.1166  0.2793  1.2608
  927MPD2    H313569   4.227   3.595   0.129 -1.4739 -2.1462 -2.1071
  927MPD2     N13570   4.585   3.326   0.145  0.3796 -0.1326 -0.0332
  927MPD2    H513571   4.604   3.369   0.055  0.6057 -1.9820 -0.8760
  927MPD2    N113572   4.253   3.354   0.501  0.3807 -0.4713 -0.0548
  927MPD2    H713573   4.178   3.412   0.537  0.3910 -0.4902 -0.0020
  928MPD2     C13574   1.656   2.376   0.343 -0.5969  0.4973 -0.1034
  928MPD2    C113575   1.745   2.330   0.442  0.2871  0.1057 -0.1455
  928MPD2    C213576   1.864   2.270   0.407  0.7207 -0.1828  0.4003
  928MPD2    C313577   1.904   2.270   0.278 -0.1598  0.3366 -0.6242
  928MPD2    C413578   1.822   2.325   0.182  0.2451  0.1196 -0.3032
  928MPD2    C513579   1.697   2.367   0.212  0.0325 -0.0985  0.2382
  928MPD2     H13580   1.947   2.246   0.473  0.7209 -1.9054 -0.2193
  928MPD2    H113581   1.845   2.314   0.077 -1.9717  0.8463 -0.8849
  928MPD2    H213582   1.557   2.416   0.361 -2.1532 -1.6651 -3.8491
  928MPD2    H313583   1.631   2.409   0.137  0.3862  0.9012  0.4838
  928MPD2     N13584   2.045   2.232   0.242  0.0199 -0.4854 -0.5966
  928MPD2    H513585   2.071   2.239   0.144  2.3506 -3.5089 -0.1907
  928MPD2    N113586   1.700   2.351   0.572  0.2921 -0.4685  0.2750
  928MPD2    H713587   1.615   2.406   0.584  0.3703 -0.1031 -0.8326
  929MPD2     C13588   3.247   1.731  10.806 -0.4926  0.1123 -0.8172
  929MPD2    C113589   3.153   1.665  10.720 -0.4774  1.0576  0.4039
  929MPD2    C213590   3.137   1.695  10.594 -0.0925  0.8995 -0.4056
  929MPD2    C313591   3.210   1.796  10.543 -0.4345  0.0947 -0.6748
  929MPD2    C413592   3.311   1.855  10.623 -0.1751  0.4809  0.8608
  929MPD2    C513593   3.326   1.827  10.756  0.2863 -1.4489 -0.2675
  929MPD2     H13594   3.052   1.658  10.537  0.0580 -0.9174  0.5677
  929MPD2    H113595   3.378   1.932  10.586 -0.4182  0.4360  0.3261
  929MPD2    H213596   3.253   1.706  10.911  2.1676  2.8370 -0.3287
  929MPD2    H313597   3.399   1.886  10.810 -0.4893  1.6124 -2.5827
  929MPD2     N13598   3.186   1.838  10.413 -0.0094  0.1642 -0.3499
  929MPD2    H513599   3.107   1.793  10.368  1.0429 -3.1017  1.0285
  929MPD2    N113600   3.072   1.569  10.785 -0.2335 -0.1438 -0.1389
  929MPD2    H713601   3.099   1.554  10.881 -2.2129 -0.5368  0.3421
  930MPD2     C13602   0.123   4.026  14.690 -0.1643  0.3072 -0.1071
  930MPD2    C113603   0.089   4.154  14.654  0.1304  0.1703 -1.0637
  930MPD2    C213604   0.036   4.173  14.527  0.6082  0.0164 -0.4334
  930MPD2    C313605   0.028   4.072  14.431 -0.1872 -0.0453  0.2165
  930MPD2    C413606   0.089   3.945  14.463  0.0404  0.1842 -0.4282
  930MPD2    C513607   0.120   3.927  14.594 -0.0062 -0.3204  0.2758
  930MPD2     H13608   0.018   4.275  14.496 -2.2349 -0.3067  0.1897
  930MPD2    H113609   0.080   3.860  14.397  1.3365 -0.3137  0.0451
  930MPD2    H213610   0.159   4.008  14.791 -0.0312  0.1898 -0.1771
  930MPD2    H313611   0.133   3.824  14.624 -0.2614 -1.4169 -3.4295
  930MPD2     N13612   4.715   4.105  14.297 -0.7716  0.5201  0.0692
  930MPD2    H513613   4.710   4.030  14.229  0.7524  0.6378 -0.1815
  930MPD2    N113614   0.126   4.260  14.739 -0.3856  0.2529  0.0632
  930MPD2    H713615   0.118   4.235  14.837 -2.4634  0.3351 -0.0920
  931MPD2     C13616   4.183   2.700   0.847  0.3736  0.2439 -0.0665
  931MPD2    C113617   4.112   2.792   0.927 -0.4252 -0.2702 -0.5500
  931MPD2    C213618   4.042   2.739   1.031  0.7923 -0.6565  0.5234
  931MPD2    C313619   4.042   2.599   1.051  0.4594  0.8839 -0.0711
  931MPD2    C413620   4.108   2.515   0.969 -0.1466 -0.0919  0.1869
  931MPD2    C513621   4.182   2.566   0.872  0.2947 -0.2710  0.5827
  931MPD2     H13622   3.994   2.803   1.104  1.5528 -0.0101  0.4537
  931MPD2    H113623   4.108   2.407   0.977 -0.2544 -0.1046  0.0210
  931MPD2    H213624   4.220   2.727   0.749 -2.0868 -0.0627 -1.0930
  931MPD2    H313625   4.228   2.497   0.802 -3.0300 -2.8335  0.8882
  931MPD2     N13626   3.963   2.543   1.154  0.9906 -0.3898  0.9982
  931MPD2    H513627   3.958   2.442   1.152  1.6612 -0.3620 -1.4295
  931MPD2    N113628   4.099   2.928   0.886 -0.0965  0.2184  0.3819
  931MPD2    H713629   4.132   2.948   0.792 -0.7383  1.9466  0.5398
  932MPD2     C13630   1.536   2.532  10.836  0.2960 -0.5569 -0.4363
  932MPD2    C113631   1.644   2.562  10.910  0.2937  0.0528 -0.3324
  932MPD2    C213632   1.706   2.458  10.978  0.2561  0.3452  0.6380
  932MPD2    C313633   1.687   2.325  10.941  0.2753  0.4038 -0.0999
  932MPD2    C413634   1.591   2.298  10.845  0.4390  0.0857 -0.5191
  932MPD2    C513635   1.507   2.400  10.809  0.4759  0.3457 -0.6370
  932MPD2     H13636   1.786   2.485  11.046 -0.5715  2.2976  0.8473
  932MPD2    H113637   1.568   2.203  10.799 -0.7564 -0.1907  0.6609
  932MPD2    H213638   1.457   2.603  10.816  1.0208  0.9938  2.2072
  932MPD2    H313639   1.417   2.370  10.757 -0.9250 -0.3667  2.1610
  932MPD2     N13640   1.762   2.229  11.009  0.5878 -1.2866 -0.4246
  932MPD2    H513641   1.820   2.265  11.084 -1.0431  0.2299  0.1171
  932MPD2    N113642   1.684   2.695  10.930  0.3469 -0.6088  0.1775
  932MPD2    H713643   1.756   2.707  11.001 -1.2182  0.8801  1.5118
  933MPD2     C13644   1.302   2.825   0.695 -0.2556  0.1310 -0.1921
  933MPD2    C113645   1.369   2.806   0.816 -0.2017 -0.4852  0.4374
  933MPD2    C213646   1.375   2.910   0.900  0.2080  0.7601  0.6354
  933MPD2    C313647   1.316   3.032   0.874 -0.0661  0.9416  0.2877
  933MPD2    C413648   1.240   3.047   0.760  0.8186  0.2113 -0.4950
  933MPD2    C513649   1.236   2.939   0.676  0.4384 -0.6617 -0.6441
  933MPD2     H13650   1.428   2.897   0.994  1.1268  0.3846  0.0675
  933MPD2    H113651   1.181   3.134   0.736 -0.6000 -0.1158  1.8157
  933MPD2    H213652   1.300   2.747   0.620  2.2881 -0.7997  0.6865
  933MPD2    H313653   1.182   2.936   0.582  0.0142  1.3422 -0.4807
  933MPD2     N13654   1.339   3.144   0.959  0.2080 -0.1594 -0.1276
  933MPD2    H513655   1.348   3.122   1.058  0.3878  0.0758 -0.0881
  933MPD2    N113656   1.438   2.682   0.832  0.5930 -0.3842 -0.3952
  933MPD2    H713657   1.445   2.624   0.750 -0.1100  1.6639 -1.9014
  934MPD2     C13658   3.367   4.693   2.096 -0.3577 -0.3745 -0.2408
  934MPD2    C113659   3.410   4.560   2.089  0.5764  0.2414  0.2440
  934MPD2    C213660   3.344   4.485   1.991 -0.3025  0.3256  1.1841
  934MPD2    C313661   3.233   4.534   1.920 -0.4003  0.2872 -0.6306
  934MPD2    C413662   3.181   4.661   1.948 -0.2066  0.0522  0.0422
  934MPD2    C513663   3.253   0.019   2.032 -0.3212  0.3098  0.3641
  934MPD2     H13664   3.381   4.384   1.980 -0.4375  0.5098 -0.9918
  934MPD2    H113665   3.096   4.706   1.898 -1.9449 -3.2382  0.0073
  934MPD2    H213666   3.418   0.034   2.165  0.2172 -3.0747  1.9454
  934MPD2    H313667   3.219   0.120   2.051 -0.9856  0.1939 -0.2343
  934MPD2     N13668   3.147   4.464   1.837  0.8463  0.4546 -0.1602
  934MPD2    H513669   3.064   4.516   1.809  2.1726  2.1058 -0.9855
  934MPD2    N113670   3.518   4.505   2.174  0.9176 -0.0847  1.0945
  934MPD2    H713671   3.537   4.406   2.169 -1.6425 -0.4801 -0.9276
  935MPD2     C13672   3.006   3.466   1.776 -0.2141  0.4721 -0.2037
  935MPD2    C113673   2.998   3.510   1.647  0.6463 -0.2679  0.4133
  935MPD2    C213674   2.980   3.647   1.617  0.2173 -0.0672 -0.6657
  935MPD2    C313675   2.976   3.734   1.727  0.3168 -0.2081  0.3356
  935MPD2    C413676   2.982   3.682   1.854  0.5030  0.0073 -0.5348
  935MPD2    C513677   2.990   3.549   1.875 -0.2073 -0.0474  0.4521
  935MPD2     H13678   2.956   3.676   1.515  0.5858 -0.4938 -0.8735
  935MPD2    H113679   2.970   3.747   1.940  1.6922  2.3974 -2.1808
  935MPD2    H213680   2.992   3.361   1.801 -0.5850  0.4999 -0.2906
  935MPD2    H313681   3.001   3.524   1.980  0.6367 -0.7133  0.2073
  935MPD2     N13682   2.972   3.871   1.718  0.0762 -0.0944 -0.5082
  935MPD2    H513683   2.985   3.925   1.803  0.9489  0.4262 -0.9695
  935MPD2    N113684   3.004   3.413   1.536 -0.2123 -0.2006 -0.1078
  935MPD2    H713685   2.978   3.446   1.444 -1.4890  0.8796  0.6494
  936MPD2     C13686   2.772   0.704  12.742  0.1926  0.3510 -0.4788
  936MPD2    C113687   2.678   0.785  12.808 -0.4200 -0.3094  0.0033
  936MPD2    C213688   2.626   0.894  12.751  0.4754  0.2732  1.1081
  936MPD2    C313689   2.649   0.914  12.617 -0.3782 -0.6040 -0.5035
  936MPD2    C413690   2.740   0.835  12.550 -0.4209 -0.3906  0.5237
  936MPD2    C513691   2.805   0.734  12.617 -0.5189  0.3582 -0.2069
  936MPD2     H13692   2.547   0.945  12.805  0.8746  0.2812  1.6878
  936MPD2    H113693   2.776   0.864  12.452 -1.0169 -1.0578  0.1120
  936MPD2    H213694   2.819   0.618  12.788 -1.3157 -0.3635 -0.2818
  936MPD2    H313695   2.864   0.667  12.555  0.8350  1.7677 -0.4577
  936MPD2     N13696   2.565   1.011  12.560 -0.1455 -0.9667  1.2317
  936MPD2    H513697   2.510   1.060  12.629 -0.2393 -0.3876  0.7392
  936MPD2    N113698   2.625   0.759  12.935  0.0597 -0.9150 -0.1135
  936MPD2    H713699   2.543   0.816  12.953  1.0278  1.2846 -2.6744
  937MPD2     C13700   0.258   2.082  11.507  0.0786 -0.1574 -0.5020
  937MPD2    C113701   0.291   2.224  11.510 -0.3001  0.0277  0.1036
  937MPD2    C213702   0.386   2.272  11.424  0.0285 -0.2288 -0.2009
  937MPD2    C313703   0.430   2.197  11.321 -0.2432  0.8599  0.4162
  937MPD2    C413704   0.395   2.062  11.314 -1.3560 -0.2893 -0.8221
  937MPD2    C513705   0.320   2.007  11.413 -0.0109 -0.1956 -0.8040
  937MPD2     H13706   0.423   2.374  11.434 -0.2386 -0.3010  1.5751
  937MPD2    H113707   0.426   1.994  11.236 -0.7304 -0.1109 -0.7282
  937MPD2    H213708   0.221   2.033  11.596 -1.6188  0.2307 -0.9865
  937MPD2    H313709   0.304   1.900  11.422 -1.3344  0.2983  2.9121
  937MPD2     N13710   0.511   2.259  11.228 -0.5279  0.4707  0.3579
  937MPD2    H513711   0.530   2.357  11.247 -0.4265  0.4418  0.4045
  937MPD2    N113712   0.247   2.302  11.621 -0.2175  0.0478  0.9905
  937MPD2    H713713   0.301   2.388  11.621 -1.4813  0.8334  2.7649
  938MPD2     C13714   2.094   3.590   0.724  0.2061 -0.5195 -0.0240
  938MPD2    C113715   2.169   3.683   0.790 -0.2013  1.0370 -0.3551
  938MPD2    C213716   2.203   3.645   0.924  0.1548  0.0073 -0.1033
  938MPD2    C313717   2.147   3.532   0.984 -0.5648 -0.7411  1.0450
  938MPD2    C413718   2.067   3.441   0.909  0.4951 -0.2953  0.3343
  938MPD2    C513719   2.042   3.472   0.778  0.0059  0.2086 -1.1855
  938MPD2     H13720   2.268   3.706   0.986 -1.1496 -1.0978  2.3490
  938MPD2    H113721   2.020   3.349   0.941 -2.0166  1.1281  0.7350
  938MPD2    H213722   2.045   3.609   0.629 -0.4426 -1.2946  0.1494
  938MPD2    H313723   1.984   3.408   0.713 -0.4876  0.4918 -1.0239
  938MPD2     N13724   2.174   3.506   1.124  0.0642  0.4576  0.2660
  938MPD2    H513725   2.196   3.581   1.189  0.2855  0.0592  0.6475
  938MPD2    N113726   2.213   3.792   0.718 -0.0785 -0.9247  0.3894
  938MPD2    H713727   2.183   3.802   0.622 -3.8489  0.2442  1.7102
  939MPD2     C13728   3.693   4.499   1.191  0.6585 -0.6243 -0.0869
  939MPD2    C113729   3.773   4.585   1.265  0.3461  0.4604 -0.3603
  939MPD2    C213730   3.913   4.588   1.241 -0.4605  0.4716 -0.3400
  939MPD2    C313731   3.972   4.498   1.159 -0.6496  0.1605 -0.4220
  939MPD2    C413732   3.890   4.399   1.098  0.0666 -0.0351 -0.4209
  939MPD2    C513733   3.756   4.404   1.115  0.6615 -0.4137  0.1728
  939MPD2     H13734   3.975   4.669   1.277  1.7557 -2.1182  1.6136
  939MPD2    H113735   3.927   4.332   1.021  1.4666  0.9658 -0.6226
  939MPD2    H213736   3.585   4.503   1.188  0.6363 -0.6297  0.7450
  939MPD2    H313737   3.691   4.334   1.063  1.8513 -1.4610  0.0967
  939MPD2     N13738   4.109   4.520   1.126 -0.1345 -0.0070  0.5741
  939MPD2    H513739   4.151   4.597   1.177 -0.1944  2.6606 -3.3853
  939MPD2    N113740   3.709   4.679   1.356 -0.1804 -0.4072  0.1859
  939MPD2    H713741   3.608   4.688   1.352 -0.4860 -3.9347 -0.4082
  940MPD2     C13742   2.636   0.899  13.431 -0.7643  0.3549  0.1857
  940MPD2    C113743   2.736   0.811  13.386 -0.0553 -0.0183  0.2745
  940MPD2    C213744   2.821   0.846  13.284  0.4984  0.0419  0.0908
  940MPD2    C313745   2.812   0.968  13.221  0.5684 -0.0092  0.6250
  940MPD2    C413746   2.734   1.061  13.283  0.3020 -0.2805  0.2180
  940MPD2    C513747   2.648   1.029  13.385 -0.3465  0.2149 -0.2173
  940MPD2     H13748   2.882   0.767  13.241 -2.4175 -2.4492  0.5477
  940MPD2    H113749   2.714   1.162  13.249  0.7252  0.0755  1.0162
  940MPD2    H213750   2.574   0.877  13.516 -0.3403 -0.3868  0.3068
  940MPD2    H313751   2.570   1.097  13.414  1.2716  1.6793  0.6913
  940MPD2     N13752   2.875   1.000  13.102  0.3550 -0.4216  0.6653
  940MPD2    H513753   2.841   1.085  13.056 -2.2302 -0.8649  1.7893
  940MPD2    N113754   2.741   0.676  13.431 -0.1285  0.0135  0.3024
  940MPD2    H713755   2.813   0.612  13.398  0.0738  0.6269 -0.4276
  941MPD2     C13756   2.031   0.145   9.389 -0.9230 -0.0258  0.2434
  941MPD2    C113757   2.124   0.099   9.477 -0.6244 -0.3524  0.2177
  941MPD2    C213758   2.124   4.691   9.519  0.7573 -0.5293  0.0586
  941MPD2    C313759   2.028   4.601   9.476  0.3612  0.4716 -0.4926
  941MPD2    C413760   1.932   4.649   9.386  0.0075  0.2677 -1.0426
  941MPD2    C513761   1.933   0.060   9.346 -0.7233 -0.3306 -0.7275
  941MPD2     H13762   2.197   4.655   9.590  1.1128  0.9880  0.4628
  941MPD2    H113763   1.861   4.581   9.342 -0.1468  0.4841 -1.1303
  941MPD2    H213764   2.021   0.248   9.358  0.7290 -0.3829 -1.4502
  941MPD2    H313765   1.860   0.100   9.277  0.0900 -0.7700 -1.8539
  941MPD2     N13766   2.044   4.464   9.514 -0.2147  0.2567 -0.0864
  941MPD2    H513767   2.109   4.450   9.590  2.3333  3.1516 -1.7087
  941MPD2    N113768   2.227   0.182   9.522  0.0604  0.2243  0.0477
  941MPD2    H713769   2.292   0.132   9.582 -0.1153 -1.9227 -1.5475
  942MPD2     C13770   1.283   1.485  10.101  0.3271 -0.2439 -0.3515
  942MPD2    C113771   1.233   1.514   9.977 -0.3959 -0.0682  0.1646
  942MPD2    C213772   1.293   1.608   9.892  0.5710 -0.5867  0.1104
  942MPD2    C313773   1.413   1.668   9.936  1.0901  0.3500  0.4513
  942MPD2    C413774   1.467   1.630  10.059  0.1825  0.2531  0.1857
  942MPD2    C513775   1.406   1.537  10.136  0.1353  0.1232  0.0701
  942MPD2     H13776   1.258   1.631   9.792 -0.2414 -0.6454  0.3812
  942MPD2    H113777   1.567   1.657  10.090  0.4749  2.0372 -2.3677
  942MPD2    H213778   1.233   1.412  10.164  0.8152 -0.8657 -0.6848
  942MPD2    H313779   1.466   1.509  10.221  2.8121  1.7742 -1.2899
  942MPD2     N13780   1.486   1.755   9.855 -0.8019 -0.3910 -0.2752
  942MPD2    H513781   1.570   1.800   9.890 -2.0271  0.7964  1.1456
  942MPD2    N113782   1.132   1.425   9.930  0.1191  0.3126 -0.5478
  942MPD2    H713783   1.113   1.346   9.992  1.0179 -0.4946 -1.2891
  943MPD2     C13784   0.932   4.311  10.151  0.5459  0.5430 -0.7171
  943MPD2    C113785   0.813   4.246  10.140  0.0736 -0.1920  0.6372
  943MPD2    C213786   0.759   4.186  10.024  0.3342 -0.2196 -0.2772
  943MPD2    C313787   0.836   4.198   9.909  0.3899  0.1147 -0.1607
  943MPD2    C413788   0.953   4.275   9.916  0.3577  0.3767  0.5705
  943MPD2    C513789   0.996   4.330  10.031  0.4600  0.0451  0.6288
  943MPD2     H13790   0.658   4.147  10.014 -1.1576  3.9675 -1.4074
  943MPD2    H113791   1.016   4.285   9.829 -1.6202  1.1460 -0.7753
  943MPD2    H213792   0.963   4.359  10.243  1.8965 -0.8082 -0.4610
  943MPD2    H313793   1.085   4.393  10.038  1.2499 -0.9225 -0.7553
  943MPD2     N13794   0.796   4.152   9.782  0.8523  1.2772  1.1938
  943MPD2    H513795   0.834   4.192   9.696 -1.1116  0.9413  0.1677
  943MPD2    N113796   0.735   4.254  10.259  0.5743  0.5637  0.0026
  943MPD2    H713797   0.787   4.285  10.341  0.3713 -0.2107  0.4301
  944MPD2     C13798   0.950   3.509  11.657  0.0222 -0.5075 -0.4936
  944MPD2    C113799   0.925   3.558  11.537  0.9972 -0.4925 -0.5525
  944MPD2    C213800   0.920   3.694  11.524  0.0256 -0.6028  0.1177
  944MPD2    C313801   0.923   3.780  11.629 -0.5142 -0.1492 -0.2828
  944MPD2    C413802   0.944   3.729  11.757  0.0669 -0.0287 -0.8251
  944MPD2    C513803   0.954   3.596  11.765 -0.4265  0.7531  0.4184
  944MPD2     H13804   0.892   3.735  11.427  1.4615  2.4102  0.9916
  944MPD2    H113805   0.963   3.788  11.847 -0.2236 -2.0105  0.5376
  944MPD2    H213806   0.951   3.403  11.678  0.0230 -0.0631  1.8015
  944MPD2    H313807   0.965   3.556  11.865  3.1765  3.3457  1.0251
  944MPD2     N13808   0.891   3.914  11.617 -0.2263  0.0917 -0.1163
  944MPD2    H513809   0.888   3.950  11.522 -1.1809  1.2893  0.3699
  944MPD2    N113810   0.897   3.471  11.436  0.2143  0.2247 -0.2737
  944MPD2    H713811   0.894   3.373  11.464 -0.0630  0.3726  0.2046
    1TCq1    O113812   3.716   4.440  14.063  0.2907  0.2202  0.0145
    1TCq1    C113813   3.695   4.501  14.184 -0.8810  0.0815  0.5729
    1TCq1    O213814   3.595   4.568  14.210  0.1575  0.6184  0.3909
    1TCq1    C213815   3.826   4.523  14.240  0.7021 -0.0644 -0.1339
    1TCq1    C313816   3.927   4.434  14.202 -0.6095 -0.1517  0.5097
    1TCq1    C413817   4.047   4.468  14.249  0.4084  0.2127  0.3086
    1TCq1    C513818   4.065   4.583  14.320 -0.4033 -0.2055 -0.9320
    1TCq1    C613819   3.969   4.669  14.356  0.1304  0.5022 -0.0246
    1TCq1    C713820   3.846   4.631  14.316 -1.0751  0.7187 -0.5497
    1TCq1    C813821   3.988   0.055  14.447 -0.8326 -0.0994  0.3513
    1TCq1    O413822   4.091   0.057  14.512  0.1397  0.1056  0.4860
    1TCq1    C913823   4.166   4.380  14.225 -0.2376 -0.8878  0.5641
    1TCq1    O513824   4.155   4.265  14.176  0.5889  0.1939  0.1504
    1TCq1    O613825   4.272   4.429  14.279 -0.1241 -0.1136 -0.1233
    1TCq1    H113826   3.809   4.436  14.032 -0.0403  1.7680 -1.2063
    1TCq1    H213827   3.914   4.342  14.147  0.6915  0.0572 -0.1414
    1TCq1    H313828   4.165   4.597  14.361 -2.3957  3.5567  2.5750
    1TCq1    H413829   3.754   4.678  14.349 -1.7856 -0.5653 -0.7024
    2MPD2     C13830   3.812   0.470  14.686  0.1061 -0.0772 -0.3755
    2MPD2    C113831   3.761   0.471  14.560  0.1168  0.0739 -0.1336
    2MPD2    C213832   3.782   0.360  14.474  1.1355  0.3147  0.2208
    2MPD2    C313833   3.866   0.256  14.518 -0.5435  0.6714  0.0792
    2MPD2    C413834   3.907   0.257  14.646  0.2844  0.4532 -0.1081
    2MPD2    C513835   3.885   0.361  14.727  0.7138  0.6490 -0.4903
    2MPD2     H13836   3.750   0.351  14.371 -1.5113 -0.1086  1.0860
    2MPD2    H113837   3.956   0.172  14.692 -0.6061  0.5673  1.0472
    2MPD2    H213838   3.805   0.556  14.752 -2.2634  1.2396 -2.3304
    2MPD2    H313839   3.933   0.365  14.824  0.6087 -0.1062 -0.4059
    2MPD2     N13840   3.888   0.151  14.429  0.7982  0.7657  0.0645
    2MPD2    H513841   3.852   0.154  14.335 -1.7506 -0.8337  1.0121
    2MPD2    N113842   3.687   0.586  14.521 -0.0671 -0.8645  0.1344
    2MPD2    H713843   3.701   0.668  14.579  2.5275 -1.5401  0.4543
    3TMC2    C113844   3.563   0.733  14.381 -0.0405 -0.3831 -0.5179
    3TMC2    C213845   3.619   0.842  14.448  0.9723 -0.1178 -0.7698
    3TMC2    C313846   3.593   0.967  14.401  0.3910  0.5296  0.0669
    3TMC2    C413847   3.490   0.743  14.262  0.6086  0.6839 -0.8651
    3TMC2    C513848   3.496   0.870  14.209 -0.3179  0.8457 -0.0677
    3TMC2    C613849   3.535   0.983  14.278 -0.5294 -0.0439  0.1092
    3TMC2     C13850   3.604   0.599  14.415  0.6055 -0.4070 -0.3541
    3TMC2     O13851   3.563   0.508  14.348 -0.5263  0.4348 -0.0561
    3TMC2     H13852   3.679   0.831  14.537  2.4621 -0.7957 -1.8563
    3TMC2    H113853   3.469   0.654  14.204 -1.5078  0.2895  0.5047
    3TMC2    H213854   3.521   1.082  14.235 -0.5649 -0.1708 -0.1714
    3TMC2    C713855   3.446   0.879  14.078  0.1576  0.8312  0.1976
    3TMC2    C813856   3.640   1.080  14.473 -0.4277 -0.2182  0.0760
    3TMC2    O113857   3.362   0.800  14.043  0.5102 -0.2799  0.1264
    3TMC2    O213858   3.567   1.179  14.472  0.1771 -0.2463 -0.0856
    3TMC2    O513859   3.775   1.074  14.500 -0.6876 -0.0445 -0.7212
    3TMC2    H513860   3.815   0.987  14.479  2.0974  1.0543 -0.0657
    4MPD2     C13861   3.118   1.730  13.182 -0.1872 -0.2385 -0.6973
    4MPD2    C113862   3.114   1.679  13.317  0.2267 -0.7816  0.3678
    4MPD2    C213863   3.228   1.657  13.387 -0.0324  0.1866 -0.0291
    4MPD2    C313864   3.351   1.679  13.324 -0.2580  0.8249 -0.0982
    4MPD2    C413865   3.361   1.726  13.195  0.5477  0.1116  0.1212
    4MPD2    C513866   3.240   1.760  13.132  0.2631  0.0704 -0.1835
    4MPD2     H13867   3.234   1.621  13.489 -0.9472 -0.9932 -0.3918
    4MPD2    H113868   3.452   1.746  13.139 -0.0201 -0.6932 -1.0877
    4MPD2    H213869   3.025   1.741  13.127 -1.3103 -0.5536  1.1168
    4MPD2    H313870   3.245   1.799  13.031 -0.4162 -1.9562 -1.0085
    4MPD2     N13871   3.468   1.655  13.397  0.0575 -0.7406 -0.2046
    4MPD2    H513872   3.465   1.628  13.494 -0.9253 -1.0342 -0.3194
    4MPD2    N113873   2.988   1.641  13.367  0.5089 -0.9925 -0.0952
    4MPD2    H713874   2.904   1.650  13.311  2.2086 -0.6093 -2.5805
    5TCq2    C113875   3.597   1.677  13.359 -0.4518  0.1256  0.0484
    5TCq2    O213876   3.648   1.734  13.260 -0.1887  0.1623  0.0432
    5TCq2    C213877   3.694   1.587  13.424  0.3851 -1.0393  0.0052
    5TCq2    C313878   3.828   1.616  13.403 -0.0738  0.4711 -0.5859
    5TCq2    C413879   3.926   1.537  13.457 -0.3114  0.1602 -0.1280
    5TCq2    C513880   3.894   1.440  13.539 -0.2006 -0.2864  0.2254
    5TCq2    C613881   3.761   1.412  13.565 -0.4071 -0.9540  0.4740
    5TCq2    C713882   3.657   1.493  13.515  0.0764  0.1729 -0.0954
    5TCq2    C813883   3.719   1.301  13.654  0.0903  0.8291  0.3290
    5TCq2    O413884   3.806   1.235  13.712 -0.0771 -0.3707 -0.5377
    5TCq2    C913885   4.061   1.580  13.440 -0.5663 -0.0410 -0.2838
    5TCq2    O513886   4.146   1.526  13.514 -0.0246 -0.5367 -0.4838
    5TCq2    O613887   4.079   1.680  13.369 -0.2449 -0.4354  0.6667
    5TCq2    H213888   3.853   1.698  13.336  2.9117 -0.4671 -0.6461
    5TCq2    H313889   3.973   1.378  13.579  2.9764  2.5292 -1.7430
    5TCq2    H413890   3.549   1.479  13.525 -0.0977  0.5041 -1.4636
    6MPD1     C13891   1.830   2.690  13.278 -0.1662 -1.1242 -0.0812
    6MPD1    C113892   1.897   2.625  13.180  0.4394  0.5602  0.1321
    6MPD1    C213893   1.904   2.488  13.192  0.2602 -0.3486 -0.4092
    6MPD1    C313894   1.851   2.417  13.296  0.0138 -0.4247 -0.5607
    6MPD1    C413895   1.784   2.486  13.394 -0.7987  0.5676 -0.1207
    6MPD1    C513896   1.775   2.624  13.382  0.6799  0.0367  0.2676
    6MPD1     H13897   1.958   2.446  13.109 -0.9766  0.3853 -1.5970
    6MPD1    H113898   1.744   2.431  13.478  0.1883 -0.3676 -0.2666
    6MPD1    H213899   1.832   2.798  13.287 -0.8166 -1.0488 -0.8802
    6MPD1    H313900   1.729   2.669  13.470  1.9086  0.2409  0.7962
    6MPD1     N13901   1.869   2.278  13.315 -0.3204  0.1828 -0.0161
    6MPD1    H513902   1.810   2.235  13.385  1.2959 -1.8921  0.0572
    6MPD1    N113903   1.945   2.680  13.061  0.1611 -0.5133 -0.6999
    6MPD1    H613904   2.013   2.610  13.030 -0.5379 -1.6966  0.3943
    6MPD1    H713905   1.983   2.774  13.072  3.6658 -2.2450  2.3270
    7MPD2     C13906   2.167   1.819  13.812  0.8346  0.4052 -0.2971
    7MPD2    C113907   2.162   1.745  13.693 -0.2653 -0.2032 -0.8381
    7MPD2    C213908   2.257   1.648  13.671 -0.4889 -0.7653  0.1366
    7MPD2    C313909   2.355   1.625  13.767 -0.3754  0.6884  0.4582
    7MPD2    C413910   2.356   1.693  13.889 -0.0268 -0.1162  0.1918
    7MPD2    C513911   2.259   1.794  13.909  0.7231  0.1830  0.2374
    7MPD2     H13912   2.277   1.602  13.575 -0.8761 -1.3689  0.3454
    7MPD2    H113913   2.429   1.673  13.967  0.3710  1.0280  0.1153
    7MPD2    H213914   2.085   1.890  13.822  1.1794  0.5840  1.2585
    7MPD2    H313915   2.251   1.848  14.002  0.0491  1.8431 -0.7872
    7MPD2     N13916   2.466   1.546  13.733 -0.2358 -0.4213 -0.0432
    7MPD2    H513917   2.462   1.494  13.646 -1.2171  2.0081 -1.4348
    7MPD2    N113918   2.088   1.781  13.578  0.1927  1.2857  0.2511
    7MPD2    H713919   2.112   1.738  13.489 -0.0513 -0.4623  1.0294
    8TMC3    C113920   2.692   1.495  13.714 -0.2350  0.4322  1.0249
    8TMC3    C213921   2.786   1.580  13.665 -0.1615 -0.1244  0.0858
    8TMC3    C313922   2.827   1.579  13.530 -0.3713  0.3957  0.0066
    8TMC3    C413923   2.642   1.405  13.619 -1.2482 -0.1220  0.2289
    8TMC3    C513924   2.678   1.417  13.486  0.3491 -0.0150 -0.2219
    8TMC3    C613925   2.768   1.502  13.436  0.2997  0.7984  0.0411
    8TMC3     C13926   2.590   1.554  13.798 -0.5647 -0.0612 -0.0623
    8TMC3     O13927   2.637   1.632  13.882 -0.0002 -0.0617 -0.2321
    8TMC3     H13928   2.831   1.651  13.733  1.2954 -3.1157  2.2402
    8TMC3    H113929   2.577   1.325  13.654 -1.0768 -0.8213 -1.0588
    8TMC3    H213930   2.796   1.504  13.331  0.0395  0.5585 -0.0300
    8TMC3    C713931   2.556   1.407  13.416 -0.3822 -0.3720  0.3189
    8TMC3    C813932   2.962   1.627  13.503 -0.5584  0.0976 -0.1688
    8TMC3    O113933   2.457   1.416  13.487 -0.4761 -0.0454 -0.3309
    8TMC3    O213934   3.030   1.634  13.600  0.5330 -0.0244  0.4225
    9TMC3    C113935   1.946   2.058  13.264  0.0222 -0.1682  0.3315
    9TMC3    C213936   1.992   1.963  13.177 -0.4929 -0.2891 -0.2757
    9TMC3    C313937   1.995   1.826  13.217 -0.5596  0.4223  0.2024
    9TMC3    C413938   1.937   2.024  13.399 -0.2539 -0.2307  0.3132
    9TMC3    C513939   1.953   1.893  13.433 -0.1506 -0.4810  0.0343
    9TMC3    C613940   1.978   1.789  13.345  0.5033 -0.3151 -0.3147
    9TMC3     C13941   1.949   2.201  13.233 -0.0452 -0.6868 -0.0347
    9TMC3     O13942   2.016   2.237  13.138  0.2526  0.4358  0.1151
    9TMC3     H13943   2.002   2.005  13.077 -1.7374 -1.7645 -1.0320
    9TMC3    H113944   1.934   2.096  13.480  2.2634  0.8167 -0.5398
    9TMC3    H213945   1.974   1.686  13.379 -2.2436 -0.2805 -0.5118
    9TMC3    C713946   1.999   1.879  13.567  0.3421 -0.0360  0.0711
    9TMC3    C813947   2.073   1.744  13.133 -0.3430 -0.3973  0.6164
    9TMC3    O113948   1.944   1.945  13.655  0.6583  0.0249  0.0835
    9TMC3    O213949   2.105   1.790  13.026  0.2093 -0.3556  0.2723
   10MPD2     C13950   2.493   1.444  13.061 -0.8576  1.0655 -0.0714
   10MPD2    C113951   2.465   1.451  13.197 -0.2878  0.1387  0.2490
   10MPD2    C213952   2.354   1.519  13.232 -0.4922 -0.7610  0.3953
   10MPD2    C313953   2.268   1.578  13.137 -0.0140 -0.7420  0.6526
   10MPD2    C413954   2.294   1.569  13.003 -0.3469  0.4468  0.1270
   10MPD2    C513955   2.406   1.503  12.972 -0.2118 -0.7861 -0.0475
   10MPD2     H13956   2.322   1.529  13.335  0.6154 -2.5728  0.9064
   10MPD2    H113957   2.232   1.611  12.925  1.9300  2.0043 -0.8460
   10MPD2    H213958   2.575   1.390  13.015  0.0374  0.0474  2.6650
   10MPD2    H313959   2.443   1.508  12.870  0.4682  0.2702  0.2507
   10MPD2     N13960   2.156   1.648  13.194 -0.1924  0.3532 -0.1638
   10MPD2    H513961   2.147   1.634  13.294  3.4491  0.7561  0.2058
   10MPD2    N113962   2.562   1.401  13.282  0.0715  0.4565 -0.4237
   10MPD2    H713963   2.652   1.382  13.240  0.6358 -1.3798  1.6221
   11MPD2     C13964   3.353   0.977  13.813 -0.2025 -1.0100  0.1368
   11MPD2    C113965   3.472   1.013  13.875  0.5364 -0.1553  0.4301
   11MPD2    C213966   3.559   1.100  13.805 -0.3249  0.2159 -0.2870
   11MPD2    C313967   3.513   1.163  13.691  0.5697  0.0522 -0.4168
   11MPD2    C413968   3.396   1.126  13.633  1.1009  0.2923  0.1855
   11MPD2    C513969   3.319   1.028  13.689 -0.4255  0.0323 -0.1088
   11MPD2     H13970   3.656   1.119  13.848 -0.3869 -0.9484  0.4026
   11MPD2    H113971   3.346   1.186  13.556  0.4974  0.5503  0.7771
   11MPD2    H213972   3.271   0.924  13.859 -0.9682  0.9463  1.0187
   11MPD2    H313973   3.229   1.005  13.633 -0.2660 -1.4411  0.2375
   11MPD2     N13974   3.586   1.271  13.627 -0.1205 -0.2917  0.1441
   11MPD2    H513975   3.554   1.315  13.541  0.1271 -2.8959 -1.2767
   11MPD2    N113976   3.504   0.987  14.011 -0.0209  0.1822 -0.1186
   11MPD2    H713977   3.583   1.036  14.049 -0.7662  0.4244  1.0967
    1MPD1     C13978   4.626   1.708  16.500  0.0331 -0.0602  0.6851
    1MPD1    C113979   4.571   1.825  16.543  0.0230 -0.3779 -0.6577
    1MPD1    C213980   4.646   1.941  16.539  0.0390  0.0677 -0.3115
    1MPD1    C313981   0.051   1.939  16.503 -0.2806 -0.7681  0.1970
    1MPD1    C413982   0.109   1.823  16.453 -0.5958 -0.0382  0.3232
    1MPD1    C513983   0.033   1.707  16.452  0.8261  0.3414 -0.4681
    1MPD1     H13984   4.594   2.034  16.558 -2.4134 -1.1289 -1.0763
    1MPD1    H113985   0.209   1.814  16.412 -1.9326  0.1816 -2.9460
    1MPD1    H213986   4.566   1.618  16.499  1.2491 -0.8483 -3.0570
    1MPD1    H313987   0.079   1.620  16.405  1.1911  0.8105 -0.9832
    1MPD1     N13988   0.133   2.059  16.500  0.3939  0.6167 -0.4484
    1MPD1    H513989   0.231   2.039  16.483  0.1834 -1.4156  0.7573
    1MPD1    N113990   4.431   1.829  16.555 -0.6390  0.0453 -0.1432
    1MPD1    H613991   4.391   1.743  16.593 -0.2701  0.2666  0.7586
    1MPD1    H713992   4.404   1.905  16.618 -0.0213  1.2102 -1.2963
    2MPD1     C13993   0.721   2.828  16.948  0.1595 -0.4041 -0.0395
    2MPD1    C113994   0.795   2.743  16.869 -0.3898  0.5632 -0.1468
    2MPD1    C213995   0.727   2.654  16.787 -0.1152 -0.4925  0.2526
    2MPD1    C313996   0.588   2.654  16.788 -0.1314  0.9500 -0.0778
    2MPD1    C413997   0.522   2.747  16.859  0.7937  0.5224 -0.2152
    2MPD1    C513998   0.587   2.834  16.935 -1.1498  0.2728 -0.3984
    2MPD1     H13999   0.787   2.576  16.743 -0.6075 -1.1904  0.8162
    2MPD1    H114000   0.415   2.754  16.840  1.1168  1.8668 -1.5335
    2MPD1    H214001   0.777   2.906  16.999 -1.8673  1.9047 -1.3258
    2MPD1    H314002   0.531   2.898  17.003  2.6866  2.0735  1.0645
    2MPD1     N14003   0.523   2.557  16.713  0.3244 -0.7010 -0.5864
    2MPD1    H514004   0.578   2.500  16.650  1.9633  2.0921 -1.6661
    2MPD1    N114005   0.931   2.727  16.892  0.5410  0.6254  0.3201
    2MPD1    H614006   0.984   2.803  16.934  0.8509  0.1857  0.7293
    2MPD1    H714007   0.988   2.710  16.809 -0.4249 -4.1044  0.6212
    3TMC3    C114008   0.357   2.435  16.598 -0.2576  0.0889  0.1522
    3TMC3    C214009   0.446   2.420  16.496 -0.0511 -0.3528  0.5887
    3TMC3    C314010   0.408   2.327  16.405 -0.0752  1.1652 -0.2066
    3TMC3    C414011   0.240   2.370  16.609 -0.4831 -0.1552  0.6907
    3TMC3    C514012   0.216   2.269  16.523 -0.5315  0.6364  0.3059
    3TMC3    C614013   0.295   2.253  16.414  0.0520  0.5980 -0.2197
    3TMC3     C14014   0.389   2.541  16.699 -0.5794 -0.2968 -0.6017
    3TMC3     O14015   0.296   2.578  16.767  0.1405 -0.0407 -0.3597
    3TMC3     H14016   0.517   2.498  16.470 -0.0396  0.1013  2.0056
    3TMC3    H114017   0.171   2.390  16.691  2.1981  0.7976  2.7405
    3TMC3    H214018   0.259   2.191  16.333 -0.6295 -2.3776  2.3617
    3TMC3    C714019   0.099   2.185  16.549 -0.3464  0.1418 -0.7502
    3TMC3    C814020   0.471   2.325  16.271  0.0563 -0.1275  0.0883
    3TMC3    O114021   4.721   2.227  16.600  0.0608  0.1769 -0.3400
    3TMC3    O214022   0.411   2.254  16.189  0.0967  0.4196  0.3012
    4MPD1     C14023   0.814   2.462  15.924  0.3932  0.2579  0.0797
    4MPD1    C114024   0.859   2.496  16.052 -0.3557 -0.7228 -0.0966
    4MPD1    C214025   0.785   2.461  16.161  0.1740 -0.3065  0.2081
    4MPD1    C314026   0.672   2.386  16.150  0.0059  0.0581 -0.1504
    4MPD1    C414027   0.633   2.339  16.023 -0.7119  0.6053  0.0259
    4MPD1    C514028   0.711   2.370  15.915  0.1998  0.6886  0.7113
    4MPD1     H14029   0.811   2.494  16.261  0.4835 -1.5854  0.5475
    4MPD1    H114030   0.544   2.281  15.998  0.2027 -1.1707  0.8970
    4MPD1    H214031   0.884   2.498  15.849  0.7180  1.7144  1.0899
    4MPD1    H314032   0.681   2.330  15.819 -1.3373 -1.1539  1.9467
    4MPD1     N14033   0.600   2.370  16.269  0.5896  0.0293 -0.1799
    4MPD1    H514034   0.641   2.395  16.358 -0.2201 -0.6774  0.4002
    4MPD1    N114035   0.957   2.594  16.056  0.1939 -0.9795  0.3913
    4MPD1    H614036   1.026   2.580  16.130  1.1563 -0.6592 -0.4367
    4MPD1    H714037   0.999   2.613  15.966  1.5409 -3.9549  0.4216
    1TCq1    O114038   2.170   2.998  10.832  0.5981  0.0030  0.1110
    1TCq1    C114039   2.160   2.911  10.726  0.4394  0.0576  0.0309
    1TCq1    O214040   2.187   2.933  10.609  0.1943  0.0542 -0.8213
    1TCq1    C214041   2.126   2.778  10.774 -0.3076 -0.1736 -0.7328
    1TCq1    C314042   2.059   2.775  10.891  0.0130  0.2657  0.3483
    1TCq1    C414043   2.077   2.662  10.973 -0.0179 -0.4827 -0.0905
    1TCq1    C514044   2.196   2.590  10.969 -0.3063 -1.1619  0.2425
    1TCq1    C614045   2.261   2.604  10.849  0.0969  0.1096 -0.0970
    1TCq1    C714046   2.233   2.695  10.753 -0.2232 -0.0734 -0.5385
    1TCq1    C814047   2.406   2.574  10.845  0.3949  0.1915 -0.1133
    1TCq1    O414048   2.467   2.584  10.738 -0.2333 -0.3630 -0.1434
    1TCq1    C914049   2.003   2.659  11.100 -0.9122 -0.4821 -0.0339
    1TCq1    O514050   1.904   2.737  11.098 -0.0321 -0.0906  0.5638
    1TCq1    O614051   2.049   2.600  11.198  0.1250  0.2041  0.3766
    1TCq1    H114052   2.143   2.956  10.916  1.7690  0.5582  0.7686
    1TCq1    H214053   1.979   2.847  10.903  0.5275  0.7651  0.7828
    1TCq1    H314054   2.219   2.518  11.046  2.7371 -1.9782 -1.4508
    1TCq1    H414055   2.282   2.690  10.656 -2.1171 -0.4784 -1.4605
    2MPD1     C14056   2.859   2.642  11.051 -0.6010 -0.0055 -0.0481
    2MPD1    C114057   2.771   2.644  11.155 -0.1914  0.7514  0.2258
    2MPD1    C214058   2.639   2.617  11.125 -0.2516  0.1007 -0.2518
    2MPD1    C314059   2.599   2.580  10.998  0.2861 -0.2824 -0.8895
    2MPD1    C414060   2.693   2.566  10.899  1.2863  0.1276 -0.3738
    2MPD1    C514061   2.823   2.602  10.927  0.6579  0.2968  0.2586
    2MPD1     H14062   2.563   2.621  11.202 -1.4779  1.8855 -1.5455
    2MPD1    H114063   2.663   2.520  10.805 -0.6309 -0.0367  0.3370
    2MPD1    H214064   2.958   2.682  11.071 -0.3710 -0.1337 -0.9203
    2MPD1    H314065   2.894   2.599  10.846  0.5967  0.0011  0.2154
    2MPD1     N14066   2.459   2.570  10.969 -0.4393  0.0605 -0.2847
    2MPD1    H514067   2.387   2.575  11.041  0.4287 -0.7779  0.6445
    2MPD1    N114068   2.805   2.676  11.286 -0.1533 -0.1416  0.2257
    2MPD1    H614069   2.731   2.728  11.333  0.4816  1.1578 -0.2273
    2MPD1    H714070   2.886   2.736  11.296  0.5757 -0.6246 -2.9081
    1TCq1    O114071   0.014   3.026   1.300  0.2400 -0.0056  0.3958
    1TCq1    C114072   4.725   2.934   1.209 -0.2322  0.2721 -0.1537
    1TCq1    O214073   4.680   2.820   1.230 -0.3870  0.4587  0.1667
    1TCq1    C214074   0.109   2.951   1.120  1.0672  0.2334  0.0776
    1TCq1    C314075   0.164   2.837   1.075  0.3485 -0.1407  0.4703
    1TCq1    C414076   0.244   2.844   0.960  0.3874 -0.8372 -0.1038
    1TCq1    C514077   0.240   2.952   0.876  0.1468 -0.0965 -0.2110
    1TCq1    C614078   0.178   3.062   0.925  0.7727 -0.7755  0.3407
    1TCq1    C714079   0.122   3.069   1.051 -0.2518 -0.5120  0.9494
    1TCq1    C814080   0.189   3.191   0.852 -0.0846 -0.0722  0.1681
    1TCq1    O414081   0.201   3.199   0.727 -0.0764  0.5192 -0.0143
    1TCq1    C914082   0.269   2.716   0.895 -0.1236 -0.6787 -0.4999
    1TCq1    O514083   0.328   2.704   0.780  0.1919  0.5212 -0.3747
    1TCq1    O614084   0.216   2.616   0.954 -0.3753 -0.5715  0.1132
    1TCq1    H114085   0.028   3.118   1.270 -1.1438  0.1163  0.1356
    1TCq1    H214086   0.154   2.743   1.129 -0.5739 -0.5916 -0.4688
    1TCq1    H314087   0.297   2.952   0.783 -0.7247 -0.8136 -0.7418
    1TCq1    H414088   0.061   3.155   1.079 -0.5657 -0.2122 -0.6432
    2MPD1     C14089   0.279   3.693   0.894  0.1326 -0.2004 -0.2944
    2MPD1    C114090   0.256   3.641   1.018  0.1914  0.6335 -0.1210
    2MPD1    C214091   0.242   3.505   1.031 -0.5115 -0.2865  0.3193
    2MPD1    C314092   0.219   3.424   0.917 -0.1997 -0.1988 -0.2291
    2MPD1    C414093   0.227   3.482   0.792 -0.2102  0.0326 -0.4574
    2MPD1    C514094   0.256   3.611   0.785 -0.6207 -0.0500  0.7319
    2MPD1     H14095   0.223   3.457   1.127 -1.0107 -2.2889 -0.7703
    2MPD1    H114096   0.209   3.427   0.700  0.0606 -1.8769  0.6284
    2MPD1    H214097   0.292   3.799   0.876  1.0853 -0.2350  0.2000
    2MPD1    H314098   0.258   3.665   0.691  0.7484  0.1282  0.8675
    2MPD1     N14099   0.206   3.290   0.946 -0.2870 -0.2613  0.1150
    2MPD1    H514100   0.194   3.259   1.042 -0.8313  2.1951  0.8367
    2MPD1    N114101   0.301   3.716   1.131 -0.0237  0.7482 -0.1721
    2MPD1    H614102   0.267   3.686   1.222  0.4925 -3.6199 -1.4450
    2MPD1    H714103   0.270   3.812   1.119  0.4969  0.8618 -0.5965
    1MPD1     C14104   3.539   1.885  12.237 -0.1412  0.5367 -0.5121
    1MPD1    C114105   3.512   1.997  12.308 -0.0159  0.0732  0.1270
    1MPD1    C214106   3.595   2.112  12.295 -0.6777 -0.3981 -0.0402
    1MPD1    C314107   3.698   2.111  12.208 -0.4274 -0.4244  0.7442
    1MPD1    C414108   3.717   2.006  12.126  0.2111  0.2626 -0.1485
    1MPD1    C514109   3.641   1.888  12.149  0.3055 -0.0628  0.4390
    1MPD1     H14110   3.581   2.199  12.358 -0.2154  1.3556 -2.3562
    1MPD1    H114111   3.809   2.007  12.068  0.6518 -0.0074  0.5499
    1MPD1    H214112   3.481   1.793  12.233 -0.7241  0.9274 -0.9490
    1MPD1    H314113   3.661   1.803  12.086 -1.6829 -0.1569 -0.0734
    1MPD1     N14114   3.773   2.232  12.186  0.2682 -0.3611 -0.0896
    1MPD1    H514115   3.757   2.311  12.247  2.1853 -0.0414 -0.0020
    1MPD1    N114116   3.422   1.984  12.417 -0.2874 -0.1983 -0.3517
    1MPD1    H614117   3.383   2.069  12.459 -0.3347 -0.3423 -0.1043
    1MPD1    H714118   3.348   1.915  12.404  0.2902 -0.2210 -3.6579
    2MPD1     C14119   3.998   2.566  11.715  0.0302 -0.3288  0.9056
    2MPD1    C114120   4.069   2.552  11.595  0.4061 -0.7483  0.1746
    2MPD1    C214121   4.008   2.590  11.481  0.0399 -0.0088 -0.6485
    2MPD1    C314122   3.886   2.650  11.477 -0.3036  0.6828 -0.4721
    2MPD1    C414123   3.820   2.669  11.592 -0.0002 -0.2414  0.4659
    2MPD1    C514124   3.873   2.621  11.708  0.3205  0.1041 -0.2269
    2MPD1     H14125   4.074   2.582  11.395  0.0471 -0.7226 -0.5729
    2MPD1    H114126   3.721   2.714  11.589 -0.2337 -0.9231 -1.5992
    2MPD1    H214127   4.023   2.520  11.810 -0.4645  1.6465  1.9951
    2MPD1    H314128   3.800   2.632  11.788  0.6579  1.7114 -0.1329
    2MPD1     N14129   3.839   2.715  11.368  0.2988 -0.2460 -0.3943
    2MPD1    H514130   3.770   2.789  11.371  0.6392  0.0274  0.5357
    2MPD1    N114131   4.193   2.496  11.593  0.5522  0.2233 -0.4164
    2MPD1    H614132   4.255   2.524  11.517 -2.0184  1.3946 -2.0866
    2MPD1    H714133   4.249   2.518  11.675 -1.1086  0.3275  0.6803
    3MPD1     C14134   3.784   2.389  10.424 -0.6300  0.2165 -0.4338
    3MPD1    C114135   3.751   2.336  10.549 -0.8028 -0.3339 -0.1548
    3MPD1    C214136   3.755   2.426  10.657  0.4426  0.1123 -0.0003
    3MPD1    C314137   3.795   2.554  10.643  0.2575 -1.0842  0.1692
    3MPD1    C414138   3.841   2.600  10.520 -0.7098 -0.6811  1.0609
    3MPD1    C514139   3.822   2.515  10.414 -0.3327 -0.4529 -0.1505
    3MPD1     H14140   3.713   2.386  10.749 -1.9308  2.4986 -0.0720
    3MPD1    H114141   3.882   2.699  10.509 -1.2498 -0.6644 -0.7127
    3MPD1    H214142   3.762   2.334  10.333 -0.1063 -0.7206  0.0045
    3MPD1    H314143   3.868   2.544  10.320  0.8637 -0.6883  0.3510
    3MPD1     N14144   3.802   2.632  10.760 -0.3311 -0.3099 -0.2545
    3MPD1    H514145   3.764   2.580  10.839 -2.2331  2.1940  0.4785
    3MPD1    N114146   3.706   2.207  10.570  0.7590  0.0259  0.4016
    3MPD1    H614147   3.646   2.216  10.652  1.1455 -0.5206  0.7414
    3MPD1    H714148   3.663   2.176  10.483  1.1462 -2.7058  1.1782
    4MPD2     C14149   3.845   2.935  11.857 -0.0962  0.6482 -0.4779
    4MPD2    C114150   3.954   2.904  11.942 -0.1287  0.1888  0.3249
    4MPD2    C214151   4.077   2.967  11.923  0.5654  0.1907 -0.4667
    4MPD2    C314152   4.092   3.070  11.835 -0.3211 -0.1916 -0.0456
    4MPD2    C414153   3.982   3.110  11.758  0.2101 -0.0670 -0.4874
    4MPD2    C514154   3.863   3.047  11.780  0.1602 -1.1511 -0.9464
    4MPD2     H14155   4.155   2.933  11.990  0.2517 -0.1596 -0.2761
    4MPD2    H114156   3.981   3.196  11.692  0.3635 -0.0922 -0.5224
    4MPD2    H214157   3.748   2.891  11.874 -0.6894  2.1372 -0.0165
    4MPD2    H314158   3.783   3.087  11.718 -0.7815  1.1122  1.7225
    4MPD2     N14159   4.212   3.151  11.809 -0.4969  0.5981 -0.4113
    4MPD2    H514160   4.210   3.219  11.734  0.4304  1.0079 -0.0644
    4MPD2    N114161   3.947   2.797  12.040 -1.0743  0.1062 -0.1800
    4MPD2    H714162   4.035   2.776  12.085 -0.5875 -1.4525 -1.8652
    5TMC3    C114163   3.882   2.607  12.159  0.1549 -1.1137  0.1514
    5TMC3    C214164   3.842   2.484  12.107  0.4473  0.2055  0.1484
    5TMC3    C314165   3.932   2.384  12.098  0.2605 -0.3358 -0.0799
    5TMC3    C414166   4.003   2.627  12.211 -0.1545  0.5875 -0.4488
    5TMC3    C514167   4.096   2.532  12.174 -0.2919 -0.7120 -0.3631
    5TMC3    C614168   4.066   2.407  12.129  0.7572 -0.3253  0.4269
    5TMC3     C14169   3.838   2.713  12.069 -0.6956  1.0181 -0.3720
    5TMC3     O14170   3.739   2.695  11.999  0.3914 -0.1976 -0.3235
    5TMC3     H14171   3.746   2.467  12.059  0.6314 -1.0483  0.2384
    5TMC3    H114172   4.035   2.718  12.261  0.9394  0.7037 -1.3688
    5TMC3    H214173   4.137   2.330  12.103  0.4582  0.9341 -4.1369
    5TMC3    C714174   4.206   2.599  12.109  0.4579  0.1928  0.3449
    5TMC3    C814175   3.886   2.240  12.107  1.0133  0.2447  0.1781
    5TMC3    O114176   4.204   2.722  12.121 -0.2233 -0.0501 -0.0819
    5TMC3    O214177   3.972   2.151  12.091 -0.0829 -0.3331 -0.4175
    6TMC3    C114178   3.843   2.774  11.135  1.0517 -0.3656 -0.1989
    6TMC3    C214179   3.826   2.718  11.009  0.0978 -0.4064  0.3188
    6TMC3    C314180   3.803   2.812  10.904  0.1697 -0.2275 -0.7375
    6TMC3    C414181   3.818   2.908  11.162 -0.7984 -0.5161  0.0379
    6TMC3    C514182   3.793   2.992  11.056  0.5692 -0.3749  0.1234
    6TMC3    C614183   3.790   2.944  10.928  0.5541 -0.3410 -0.0547
    6TMC3     C14184   3.892   2.691  11.240 -0.5616 -0.7107  0.0558
    6TMC3     O14185   3.964   2.599  11.202 -0.0493  0.2058 -0.3131
    6TMC3     H14186   3.855   2.613  11.008 -2.8957 -1.2455 -0.6759
    6TMC3    H114187   3.813   2.944  11.264  1.0114  0.5259 -0.2404
    6TMC3    H214188   3.785   3.018  10.850 -3.4677  2.1103  2.5850
    6TMC3    C714189   3.833   3.129  11.071  0.4150  0.2625 -0.1641
    6TMC3    C814190   3.827   2.766  10.769  0.1528 -0.0818  0.0636
    6TMC3    O114191   3.756   3.209  11.022 -0.9370  0.0611  0.1494
    6TMC3    O214192   3.869   2.849  10.689  0.1766 -0.0478  0.3275
    7MPD2     C14193   4.535   2.635  11.729 -0.3203 -0.5445 -0.5508
    7MPD2    C114194   4.479   2.738  11.802 -0.1935 -0.2576  0.4787
    7MPD2    C214195   4.393   2.698  11.906 -0.6326 -0.0441  0.1735
    7MPD2    C314196   4.361   2.564  11.928  0.0883  0.5279  0.4171
    7MPD2    C414197   4.424   2.463  11.853  0.6075  0.2277  0.1714
    7MPD2    C514198   4.513   2.503  11.752 -0.4477  0.1930 -0.2952
    7MPD2     H14199   4.356   2.779  11.968 -0.3095  0.3191 -0.1032
    7MPD2    H114200   4.397   2.358  11.851 -0.5944  0.5176  1.1510
    7MPD2    H214201   4.606   2.659  11.650  0.7130 -0.6000  0.3642
    7MPD2    H314202   4.558   2.429  11.687 -0.8246  0.8433 -1.2966
    7MPD2     N14203   4.268   2.520  12.025 -0.1128  0.5399 -0.5251
    7MPD2    H514204   4.240   2.423  12.024 -1.2771  0.8710 -0.1501
    7MPD2    N114205   4.503   2.876  11.776  0.1748 -0.4438  0.4830
    7MPD2    H714206   4.446   2.947  11.822  0.9109  0.6475 -0.2770
    8TMC3    C114207   4.585   3.067  11.672  0.3154  0.5422 -0.4791
    8TMC3    C214208   4.541   3.125  11.555 -0.7796  0.1696 -0.4752
    8TMC3    C314209   4.443   3.224  11.560 -0.0756 -0.0279  0.4144
    8TMC3    C414210   4.541   3.121  11.788  1.0395 -1.1724 -0.3774
    8TMC3    C514211   4.437   3.206  11.790  0.2476  0.5347 -0.3429
    8TMC3    C614212   4.393   3.265  11.676 -0.3541  0.3308 -0.2729
    8TMC3     C14213   4.586   2.925  11.672  0.3720 -0.4286  0.3353
    8TMC3     O14214   4.607   2.871  11.563  0.1713  0.9327 -0.0372
    8TMC3     H14215   4.574   3.078  11.463  1.9164  1.0964 -0.0055
    8TMC3    H114216   4.570   3.094  11.889 -0.4353 -2.0312 -0.1862
    8TMC3    H214217   4.318   3.342  11.688 -0.8158  0.0975 -1.6843
    8TMC3    C714218   4.333   3.142  11.866  1.2119 -0.8383  0.2341
    8TMC3    C814219   4.359   3.216  11.451  0.6485 -0.1046  1.0215
    8TMC3    O114220   4.369   3.063  11.952 -0.2891 -0.2556  0.6199
    8TMC3    O214221   4.368   3.125  11.369 -0.0305 -0.6014  0.0040
    9MPD2     C14222   4.145   3.459  11.300  0.2867  0.5356 -0.0637
    9MPD2    C114223   4.179   3.339  11.341  0.1933  0.4506 -0.3548
    9MPD2    C214224   4.111   3.236  11.285  0.0414 -0.1944  0.4704
    9MPD2    C314225   4.000   3.261  11.206 -0.1279  1.0077 -0.5122
    9MPD2    C414226   3.970   3.383  11.161 -0.2649 -0.0414  0.1024
    9MPD2    C514227   4.044   3.484  11.207  0.4068 -0.0641  0.2966
    9MPD2     H14228   4.133   3.134  11.314  0.0117 -0.9021 -1.9818
    9MPD2    H114229   3.889   3.408  11.094  1.4741 -0.7016 -2.2364
    9MPD2    H214230   4.198   3.544  11.341 -0.1410  0.9637 -0.3972
    9MPD2    H314231   4.014   3.587  11.191  0.4030  0.0786  1.2282
    9MPD2     N14232   3.936   3.140  11.161 -0.1853  0.0933  0.1081
    9MPD2    H514233   3.982   3.057  11.197 -0.4900  0.5810  1.6183
    9MPD2    N114234   4.278   3.326  11.440  0.2878 -0.3152 -0.3667
    9MPD2    H714235   4.311   3.415  11.479  1.4586 -0.3501 -1.2814
    1MPD1     C14236   3.942   1.464  17.174 -0.0314 -0.2953  0.0736
    1MPD1    C114237   3.934   1.330  17.176 -0.1183  0.2687  0.7897
    1MPD1    C214238   3.816   1.272  17.128  0.4798  0.2220  0.7197
    1MPD1    C314239   3.723   1.350  17.064 -0.0101 -0.0139  0.1079
    1MPD1    C414240   3.744   1.485  17.050  0.0441 -0.3839 -0.5681
    1MPD1    C514241   3.849   1.549  17.114  0.1242 -0.0202  0.4658
    1MPD1     H14242   3.807   1.164  17.134 -0.3966  0.3270  1.2431
    1MPD1    H114243   3.676   1.554  17.001  0.1638  1.3311  1.6506
    1MPD1    H214244   4.017   1.515  17.233  1.7588 -0.5818 -1.9461
    1MPD1    H314245   3.868   1.656  17.120  1.2180 -0.1557 -0.5414
    1MPD1     N14246   3.608   1.297  17.005 -0.3851 -0.2147  0.5092
    1MPD1    H514247   3.549   1.366  16.959 -0.0025 -0.6604 -0.6453
    1MPD1    N114248   4.027   1.260  17.259  0.1186  0.1683 -0.0630
    1MPD1    H614249   4.030   1.160  17.242  2.2143 -0.0078  1.2974
    1MPD1    H714250   4.122   1.294  17.269 -0.1774  0.9549  0.0700
    2MPD1     C14251   3.105   1.166  16.159 -0.2122 -0.5757 -0.3003
    2MPD1    C114252   3.004   1.144  16.250  0.2781  0.0114  0.0118
    2MPD1    C214253   3.025   1.149  16.380 -0.4621 -0.2802  0.1404
    2MPD1    C314254   3.147   1.204  16.427  0.2817  0.5426  0.3982
    2MPD1    C414255   3.244   1.239  16.338 -0.6370 -0.0435  0.0130
    2MPD1    C514256   3.224   1.207  16.210  0.0903 -0.1307 -0.3479
    2MPD1     H14257   2.944   1.120  16.447  1.3911 -0.7053  2.1855
    2MPD1    H114258   3.337   1.291  16.359 -0.1087 -1.3648  0.9568
    2MPD1    H214259   3.091   1.161  16.052 -1.9800  1.1436 -0.1496
    2MPD1    H314260   3.299   1.232  16.137 -0.0340  0.2634 -0.3424
    2MPD1     N14261   3.165   1.192  16.560  0.6409 -0.2027  0.2572
    2MPD1    H514262   3.103   1.134  16.614  0.5390 -0.2598  0.0782
    2MPD1    N114263   2.881   1.090  16.204  0.5077 -0.4791 -0.1611
    2MPD1    H614264   2.858   1.092  16.105  2.1044 -0.2197 -0.5224
    2MPD1    H714265   2.803   1.127  16.258 -0.7574 -1.0475 -1.5914
    3TCq2    C114266   3.273   1.245  16.627 -0.0216  0.3559 -0.4523
    3TCq2    O214267   3.349   1.334  16.590 -0.0570 -0.2542 -0.1221
    3TCq2    C214268   3.284   1.192  16.769  0.2064  0.3523 -0.6638
    3TCq2    C314269   3.204   1.094  16.818 -0.3216 -0.4309  0.7911
    3TCq2    C414270   3.242   1.022  16.927  0.7772  0.0383 -0.1554
    3TCq2    C514271   3.352   1.059  16.995  0.1329  0.0953  0.2003
    3TCq2    C614272   3.428   1.161  16.950  0.6403 -0.3053  0.4528
    3TCq2    C714273   3.397   1.236  16.836 -0.6428  0.2757 -0.3886
    3TCq2    C814274   3.568   1.169  17.004 -0.1451  0.6772 -0.4049
    3TCq2    O414275   3.617   1.071  17.058  0.1046 -0.6499 -0.8325
    3TCq2    C914276   3.172   0.909  16.969 -0.1843  0.4979  0.1599
    3TCq2    O514277   3.231   0.822  17.043 -0.4375  0.0373  0.1244
    3TCq2    O614278   3.054   0.888  16.930  0.3946  0.5278  0.1751
    3TCq2    H214279   3.114   1.060  16.769  0.9410 -1.6406 -0.6795
    3TCq2    H314280   3.389   0.994  17.074 -2.4229  1.3929  2.4798
    3TCq2    H414281   3.465   1.307  16.791  0.8706 -0.0997  1.3165
    1TCq1    O114282   0.766   0.152  12.879 -0.3603  0.7043  0.0237
    1TCq1    C114283   0.900   0.129  12.862  0.6276  0.2355 -0.8450
    1TCq1    O214284   0.972   0.173  12.772  0.2861  0.3602  0.9599
    1TCq1    C214285   0.954   0.029  12.958  0.0209  0.1808 -0.1619
    1TCq1    C314286   0.875   4.652  12.996 -0.4284 -0.0466  0.3322
    1TCq1    C414287   0.929   4.532  13.034  0.7867  0.3259 -0.0329
    1TCq1    C514288   1.064   4.528  13.054 -0.0482  0.3099  0.2709
    1TCq1    C614289   1.143   4.631  13.013  0.5210  0.2850 -0.1473
    1TCq1    C714290   1.093   0.022  12.951  0.4145  0.0795  0.1855
    1TCq1    C814291   1.289   4.612  12.999 -0.1211  0.1475 -0.3048
    1TCq1    O414292   1.346   4.526  13.065  0.5623 -0.6691 -0.6052
    1TCq1    C914293   0.853   4.424  13.087 -0.3545  0.1317  0.0740
    1TCq1    O514294   0.914   4.313  13.101 -0.5677  0.1771 -0.4458
    1TCq1    O614295   0.725   4.438  13.077 -0.0768 -0.2068  0.0037
    1TCq1    H114296   0.738   0.130  12.970 -1.0177  3.5176  0.4833
    1TCq1    H214297   0.767   4.653  13.002 -0.3344  1.4584  1.8995
    1TCq1    H314298   1.118   4.446  13.101  0.3090  0.3530 -0.0642
    1TCq1    H414299   1.148   0.110  12.921 -0.6230  0.8209  0.4555
    2MPD2     C14300   1.518   0.112  12.813 -0.0865  0.6070  0.2516
    2MPD2    C114301   1.483   4.724  12.882  0.1339  0.1891 -0.6086
    2MPD2    C214302   1.578   4.625  12.912 -0.5528  0.1880  0.5470
    2MPD2    C314303   1.704   4.642  12.867  0.0183  0.4441 -0.2094
    2MPD2    C414304   1.741   0.033  12.800  0.0271 -0.5659  0.1331
    2MPD2    C514305   1.647   0.120  12.765  0.7359 -0.0045  0.1544
    2MPD2     H14306   1.552   4.530  12.958 -0.2971  1.4923  3.3632
    2MPD2    H114307   1.842   0.049  12.765 -1.0986 -0.5196 -3.1444
    2MPD2    H214308   1.442   0.185  12.788  0.4145  1.2843  0.7101
    2MPD2    H314309   1.677   0.204  12.704 -0.7769 -0.0993 -0.7168
    2MPD2     N14310   1.807   4.553  12.912 -0.5532  0.1211  0.1230
    2MPD2    H514311   1.776   4.461  12.940  0.1072  0.5829  2.3552
    2MPD2    N114312   1.347   4.707  12.915  0.1313  0.2847 -0.0663
    2MPD2    H714313   1.278   0.041  12.870 -2.0442 -2.4581 -0.3474
    3TCq1    O114314   2.458   4.402  12.969 -0.5741  0.0810  0.1953
    3TCq1    C114315   2.396   4.481  13.053 -0.1413  0.1582 -0.1239
    3TCq1    O214316   2.441   4.581  13.107  0.0164  0.2433 -0.2239
    3TCq1    C214317   2.254   4.450  13.038 -0.0969  0.8854 -0.0584
    3TCq1    C314318   2.236   4.320  13.039 -0.8401 -1.4112  0.9011
    3TCq1    C414319   2.109   4.280  13.019 -0.3607  0.1301 -0.0736
    3TCq1    C514320   2.008   4.371  12.998  0.6460  0.9575  0.3374
    3TCq1    C614321   2.036   4.503  12.981 -0.4065  0.1427  0.4073
    3TCq1    C714322   2.164   4.547  13.000 -0.2935 -0.9775  1.1740
    3TCq1    C814323   1.941   4.603  12.938  0.1211  0.1396  0.4821
    3TCq1    O414324   1.998   4.714  12.917  0.2964  0.1239  0.1675
    3TCq1    C914325   2.072   4.140  13.015 -0.1537 -0.0912  0.6110
    3TCq1    O514326   1.954   4.110  12.984  0.6955 -0.5695  0.1233
    3TCq1    O614327   2.171   4.070  13.000 -0.3768 -0.6244 -0.2655
    3TCq1    H114328   2.396   4.358  12.907 -1.3204  1.6056 -0.1439
    3TCq1    H214329   2.315   4.252  13.069 -0.5317 -0.9755  1.0764
    3TCq1    H314330   1.905   4.340  12.980  1.4732 -0.9139 -1.1563
    3TCq1    H414331   2.197   4.648  13.021  1.3507 -1.0576 -1.0065
    1MPD2     C14332   0.933   1.025  15.309 -0.0812  0.3087  0.2849
    1MPD2    C114333   0.872   1.006  15.186  0.7115 -0.5224 -0.7268
    1MPD2    C214334   0.927   0.902  15.109 -0.6055  1.0796  0.2484
    1MPD2    C314335   1.032   0.823  15.155 -0.2180  0.6410 -0.0467
    1MPD2    C414336   1.076   0.842  15.290  0.6041  0.6081  0.5372
    1MPD2    C514337   1.032   0.942  15.365 -0.0623  0.6266  0.3823
    1MPD2     H14338   0.885   0.888  15.010  1.5716  2.1785 -0.8031
    1MPD2    H114339   1.144   0.775  15.341  1.0974  1.9810  1.6653
    1MPD2    H214340   0.902   1.110  15.369 -1.3867 -0.1209  0.2220
    1MPD2    H314341   1.066   0.951  15.468 -0.2611  0.8237  0.4322
    1MPD2     N14342   1.088   0.719  15.075  0.1120 -0.2589  0.2373
    1MPD2    H514343   1.174   0.678  15.112 -1.7144 -2.4602  2.0278
    1MPD2    N114344   0.758   1.078  15.153 -0.0310 -0.2299 -0.1660
    1MPD2    H714345   0.723   1.148  15.218 -0.1609  1.9450 -2.5914
    2TMC3    C114346   0.604   1.177  14.986 -0.4600  0.4482 -0.7514
    2TMC3    C214347   0.562   1.150  14.855  1.1013  0.5928  0.2977
    2TMC3    C314348   0.578   1.242  14.753 -0.5142  0.0951 -0.7169
    2TMC3    C414349   0.658   1.301  15.006 -0.1304  0.1770 -0.2201
    2TMC3    C514350   0.671   1.392  14.909  0.1160  0.1374  0.1384
    2TMC3    C614351   0.627   1.368  14.777 -0.8010  0.5452  0.2712
    2TMC3     C14352   0.685   1.063  15.033 -0.0654  0.7594 -0.5241
    2TMC3     O14353   0.685   0.964  14.960 -0.1997 -0.0020  0.5514
    2TMC3     H14354   0.520   1.055  14.825  0.4241  1.0401 -0.1900
    2TMC3    H114355   0.681   1.329  15.108  0.6264 -0.6850 -0.1550
    2TMC3    H214356   0.644   1.438  14.696  0.7402 -0.9237 -0.6901
    2TMC3    C714357   0.664   1.530  14.948 -0.1766 -0.1985  0.2394
    2TMC3    C814358   0.597   1.173  14.633  0.2775 -0.5585 -0.0128
    2TMC3    O114359   0.584   1.558  15.037 -0.1676 -0.6562  0.2951
    2TMC3    O214360   0.541   1.209  14.527  0.3908 -1.4891  0.3458
    3TCq1    O114361   0.880   2.270  13.963 -0.2309 -0.7827  0.1548
    3TCq1    C114362   0.792   2.229  14.058 -0.4272 -0.1630  0.1600
    3TCq1    O214363   0.673   2.253  14.057 -0.6262 -0.3306 -0.0469
    3TCq1    C214364   0.868   2.188  14.176  0.9459  0.0297  0.3760
    3TCq1    C314365   1.006   2.149  14.182  0.1486 -0.7992 -0.5912
    3TCq1    C414366   1.069   2.113  14.301 -0.3309  0.3878 -0.5013
    3TCq1    C514367   1.000   2.111  14.412  0.1561 -0.4586 -0.2139
    3TCq1    C614368   0.866   2.144  14.409  0.1388 -0.1642 -0.5341
    3TCq1    C714369   0.798   2.178  14.292  0.1173 -0.4215 -0.1836
    3TCq1    C814370   0.781   2.107  14.521  0.6067 -0.0133 -0.4258
    3TCq1    O414371   0.673   2.165  14.531  0.1723 -0.6711  0.2005
    3TCq1    C914372   1.200   2.062  14.300  0.3405 -0.3152 -0.3718
    3TCq1    O514373   1.229   2.005  14.408 -0.0323 -0.5140 -0.1430
    3TCq1    O614374   1.276   2.120  14.219  0.1695 -0.1999 -0.2966
    3TCq1    H114375   0.975   2.278  13.989  0.0226 -0.6025 -0.8594
    3TCq1    H214376   1.056   2.146  14.086  0.4418  0.4755 -0.4893
    3TCq1    H314377   1.045   2.088  14.508  0.9265  2.3828  0.1034
    3TCq1    H414378   0.690   2.191  14.294  0.1300 -0.6876  1.5012
    4MPD2     C14379   0.665   2.009  14.771 -0.0629  0.0772 -0.1408
    4MPD2    C114380   0.756   1.933  14.698  0.0462 -0.2910  0.1037
    4MPD2    C214381   0.789   1.806  14.745  0.8904  0.3977  0.5332
    4MPD2    C314382   0.723   1.748  14.855  0.6140 -0.3077  0.4306
    4MPD2    C414383   0.633   1.820  14.928 -0.2709 -0.1337  0.5810
    4MPD2    C514384   0.613   1.952  14.887 -0.1487  0.1048 -0.8048
    4MPD2     H14385   0.860   1.748  14.688 -2.4347  1.3197 -4.5449
    4MPD2    H114386   0.583   1.781  15.016 -0.9190  0.7943  0.6195
    4MPD2    H214387   0.625   2.103  14.738  1.6215 -0.0486 -2.5136
    4MPD2    H314388   0.556   2.018  14.952 -0.5146  0.6284 -1.6571
    4MPD2     N14389   0.743   1.609  14.866  0.1018 -0.4023  0.2477
    4MPD2    H514390   0.803   1.564  14.799 -0.5421 -2.5026  1.0969
    4MPD2    N114391   0.822   1.988  14.580  0.0829 -0.1380 -0.2584
    4MPD2    H714392   0.904   1.941  14.542  0.0394 -1.5691  1.4570
    5TMC2    C114393   1.106   0.522  14.655  0.0785 -0.3348 -0.5188
    5TMC2    C214394   1.242   0.538  14.649 -0.2499  0.0365  0.3359
    5TMC2    C314395   1.316   0.578  14.762 -0.5799  0.6592 -0.5139
    5TMC2    C414396   1.042   0.545  14.771 -0.3112 -0.4052 -0.0702
    5TMC2    C514397   1.113   0.595  14.880 -0.0563  0.0712  0.0361
    5TMC2    C614398   1.249   0.611  14.879 -0.2711  0.0102  0.3362
    5TMC2     C14399   1.036   0.597  14.549 -0.1928 -0.1072  0.4237
    5TMC2     O14400   1.054   0.570  14.430 -0.2555 -0.2543 -0.0320
    5TMC2     H14401   1.285   0.515  14.552 -0.0552  1.6074  0.0454
    5TMC2    H114402   0.934   0.537  14.777 -0.1357 -1.5360  1.8457
    5TMC2    H214403   1.299   0.657  14.964 -1.6268 -0.8285  1.5744
    5TMC2    C714404   1.035   0.676  14.957  0.7695 -0.0853 -0.4947
    5TMC2    C814405   1.458   0.600  14.743  0.2185  0.0330 -0.3915
    5TMC2    O114406   0.932   0.718  14.901  0.0554  0.3311  0.1720
    5TMC2    O214407   1.506   0.632  14.638  0.1037 -0.0936  0.0650
    5TMC2    O514408   1.517   0.618  14.865  0.1309 -0.0867  0.2246
    5TMC2    H514409   1.460   0.597  14.943  0.5073  0.2928  0.6057
    6MPD2     C14410   0.719   0.982  14.428  0.5277  0.6368 -0.1334
    6MPD2    C114411   0.760   0.997  14.565  0.6168  0.6767  0.7207
    6MPD2    C214412   0.854   0.912  14.609  0.1201  0.0804 -0.1862
    6MPD2    C314413   0.897   0.803  14.534 -0.2834  0.0629  0.0159
    6MPD2    C414414   0.855   0.796  14.404  0.1997 -0.0360  0.3054
    6MPD2    C514415   0.771   0.886  14.347 -0.2458  0.0178 -0.0042
    6MPD2     H14416   0.880   0.909  14.714 -0.4357  0.4510 -0.0411
    6MPD2    H114417   0.880   0.709  14.344 -4.0548 -1.6152  0.8209
    6MPD2    H214418   0.652   1.057  14.388 -1.3106 -1.8992 -1.7721
    6MPD2    H314419   0.751   0.861  14.244 -2.3131  2.6803 -0.2302
    6MPD2     N14420   0.968   0.709  14.601  0.9655  0.0907  0.5519
    6MPD2    H514421   0.973   0.727  14.701  2.9402  2.0684  0.0983
    6MPD2    N114422   0.698   1.083  14.651  0.1937  0.1619 -0.2060
    6MPD2    H714423   0.731   1.073  14.746 -0.4032  0.4284  0.0321
  945NH4     N114424   0.225   0.711  13.507  0.0402 -0.3232 -1.2630
  945NH4     H214425   0.329   0.713  13.518 -0.3259 -2.1876  2.2600
  945NH4     H314426   0.187   0.658  13.588  0.8852  0.4279 -0.3686
  945NH4     H414427   0.211   0.658  13.418 -2.3283 -0.7105 -0.6654
  945NH4     H514428   0.182   0.806  13.500  0.3947  0.0957  2.3532
  946SOD     NA14429   1.814   4.240  10.800  0.2621  0.0214 -0.0107
  947SOD     NA14430   0.510   4.645   2.217 -0.2082 -0.5302  0.2587
  948SOD     NA14431   2.027   1.605  10.640  0.0934 -0.3939  0.1202
  949SOD     NA14432   3.116   3.806   1.376  0.0624  0.5362  0.7071
  950SOD     NA14433   1.768   3.695  10.195 -0.3659 -0.3498  0.7937
  951SOD     NA14434   1.362   2.789  10.676 -0.1520  0.0310  0.1231
  952SOD     NA14435   2.824   0.432   9.868 -0.0429 -0.2093 -0.2899
  953SOD     NA14436   0.695   1.920  11.105  0.2068 -0.2419 -0.3216
  954SOD     NA14437   4.468   4.517  14.357  0.0449 -0.0721 -0.0685
  955SOD     NA14438   2.589   0.337  11.575  0.0489 -0.2040 -0.1387
  956SOD     NA14439   4.692   4.293  12.850  0.2268  0.1320 -0.1684
  957SOD     NA14440   0.279   2.774   9.990 -0.3634  0.6408 -0.0333
  958SOD     NA14441   3.537   3.567  14.515 -0.2439  0.1428 -0.0340
  959SOD     NA14442   2.612   4.489  12.567  0.1866 -0.2124 -0.2897
  960SOD     NA14443   1.481   2.975  10.366  0.1215  0.1355  0.0026
  961SOD     NA14444   3.178   4.209   3.176  0.3785 -0.0512 -0.0901
  962SOD     NA14445   2.414   0.050   3.531  0.3968  0.0684  0.5631
  963SOD     NA14446   4.323   2.295   1.569  0.4023 -0.4898 -0.3089
  964SOD     NA14447   2.127   1.136   6.219 -0.1329  0.0681 -0.1267
  965SOD     NA14448   1.427   4.540  10.043  0.5421  0.1344 -0.4788
  966SOD     NA14449   2.380   0.135  10.811 -0.4917 -0.0434  0.3338
  967SOD     NA14450   0.693   4.723  10.748 -0.2965 -0.1028  0.2956
  968SOD     NA14451   4.675   2.533   0.537 -0.0768  0.0031 -0.3227
  969SOD     NA14452   1.022   4.060  12.824  0.1237 -0.2572  0.4066
  970SOD     NA14453   0.542   3.948   4.277 -0.5656 -0.2526  0.2478
  971SOD     NA14454   2.883   2.912   4.654  0.0398 -0.3537  0.4320
  972SOD     NA14455   1.506   1.540  14.483  0.0779  0.0688  0.5004
  973SOD     NA14456   3.471   1.790   7.690 -0.1908 -0.2673  0.2785
  974SOD     NA14457   3.313   4.167   5.715 -0.6160 -0.1550 -0.2474
  975SOD     NA14458   0.562   2.683  10.152  0.6083 -0.2975  0.3536
  976SOD     NA14459   3.435   0.353  14.463  0.2234  0.3901 -0.3064
  977SOD     NA14460   0.946   4.506   8.975 -0.1549  0.4005  0.4682
  978SOD     NA14461   1.742   0.583  11.873  0.1265  0.7859  0.0776
  979SOD     NA14462   4.359   2.418  11.227 -0.1025  0.3529 -0.1408
  980SOD     NA14463   3.962   3.256   1.591  0.3418 -0.1560 -0.8131
  981SOD     NA14464   4.705   2.612   1.332 -0.2268  0.4159  0.0267
  982SOD     NA14465   1.904   2.937   0.948  0.0190  0.3623 -0.0246
  983SOD     NA14466   3.909   3.156   1.250 -0.2536 -0.2129 -0.0206
  984SOD     NA14467   2.180   0.325   2.303  0.2974 -0.1892  0.4735
  985SOD     NA14468   4.650   0.054  15.752  0.3057  0.6612 -0.0105
  986SOD     NA14469   0.536   0.565  15.084 -0.0794 -0.1048 -0.1519
  987SOD     NA14470   1.182   3.996  11.369 -0.0703 -0.3065  0.0345
  988SOD     NA14471   2.504   0.321  13.960 -0.2372 -0.2568 -0.0920
  989SOD     NA14472   2.105   4.172   0.136 -0.0977 -0.2975  0.5292
  990SOD     NA14473   0.631   3.771   1.629 -0.5274 -0.3068  0.5238
  991SOD     NA14474   3.138   0.562   1.204 -0.4737  0.6769 -0.0809
  992SOD     NA14475   4.354   1.913  16.322 -0.4817  0.0303 -0.2481
  993SOD     NA14476   2.695   1.922  14.837 -0.0238 -0.0382 -0.2860
  994SOD     NA14477   3.810   1.474  12.337  0.1187  0.3195 -0.1585
  995SOD     NA14478   0.976   0.535   2.899 -0.0635 -0.3841 -0.3692
  996SOD     NA14479   4.233   3.923  13.558  0.0301 -0.0357 -0.4088
  997SOD     NA14480   0.451   3.833   9.890  0.3905  0.4095 -0.2295
  998SOD     NA14481   2.695   2.307  12.158 -0.0937  0.0272  0.2164
  999SOD     NA14482   2.318   4.067  12.847  0.0398  0.4049 -0.0439
 1000SOD     NA14483   1.573   0.288  12.024 -0.0179 -0.4546  0.2335
 1001SOD     NA14484   1.200   1.793  14.453  0.3489 -0.5027  0.1462
 1002SOD     NA14485   1.614   0.184   9.731  0.1940 -0.0708 -0.5117
 1003SOD     NA14486   3.023   0.672  16.976  0.0589 -0.2425 -0.5075
 1004SOD     NA14487   4.097   2.591  15.966 -0.0536  0.4790  0.1335
 1005SOD     NA14488   0.018   0.326  13.892 -0.1402  0.2120 -0.0753
 1006SOD     NA14489   2.006   0.890  10.766 -0.5152  0.0999 -0.5157
 1007SOD     NA14490   2.647   0.429   1.018 -0.1415  0.1361  0.0606
 1008SOD     NA14491   1.174   1.628  11.550 -0.3857  0.3249  0.1082
 1009SOD     NA14492   1.229   3.316  13.092  0.0516 -0.3897 -0.3929
 1010SOD     NA14493   3.259   0.410  14.743  0.1867  0.0237  0.7314
 1011SOL     OW14494   1.646   3.714   3.204 -0.4142  0.4057  0.4966
 1011SOL    HW114495   1.650   3.630   3.158  0.9077  1.1694 -0.7412
 1011SOL    HW214496   1.636   3.672   3.290  1.0331  1.3597  1.1311
 1012SOL     OW14497   4.488   3.568  10.133  0.1829 -0.1080 -0.1147
 1012SOL    HW114498   4.535   3.510  10.193  1.4317  0.0513 -0.9372
 1012SOL    HW214499   4.559   3.631  10.123  0.9699 -0.6336  2.1037
 1013SOL     OW14500   0.485   3.503   8.950  0.1935 -0.5293 -0.6469
 1013SOL    HW114501   0.547   3.458   8.894  1.2547 -0.3658  0.3944
 1013SOL    HW214502   0.446   3.563   8.886  4.7039  1.7620 -1.1974
 1014SOL     OW14503   3.712   1.188  12.110 -0.2368  0.3000 -0.1815
 1014SOL    HW114504   3.756   1.273  12.101  0.3743  0.3323  3.2142
 1014SOL    HW214505   3.641   1.211  12.169  0.7642 -1.1168  1.5453
 1015SOL     OW14506   1.469   1.493  11.289  0.0449 -0.1958  0.3982
 1015SOL    HW114507   1.552   1.491  11.241  0.4910  1.3612  1.1082
 1015SOL    HW214508   1.415   1.442  11.230  0.9678  2.0929 -2.4117
 1016SOL     OW14509   1.019   2.819   0.839  0.3343  0.1182  0.4514
 1016SOL    HW114510   1.034   2.851   0.928  0.1019  1.9832 -0.1819
 1016SOL    HW214511   1.105   2.833   0.801 -0.5787  1.2530 -1.2161
 1017SOL     OW14512   2.289   1.605   4.723 -0.0062 -0.1540 -0.2301
 1017SOL    HW114513   2.200   1.595   4.689  0.3513 -1.2453 -0.8711
 1017SOL    HW214514   2.266   1.599   4.816 -0.1171  0.4273 -0.2224
 1018SOL     OW14515   0.623   0.690   4.475  0.3111  0.1670  0.1874
 1018SOL    HW114516   0.598   0.699   4.567 -0.9745  0.9639 -0.2400
 1018SOL    HW214517   0.568   0.762   4.443 -2.8042 -1.9440  0.7440
 1019SOL     OW14518   1.204   4.661   2.981 -0.4206  0.1951 -0.4621
 1019SOL    HW114519   1.153   4.721   2.926 -1.5332 -0.3665 -0.0326
 1019SOL    HW214520   1.266   4.634   2.913  1.0207  0.1321  0.8841
 1020SOL     OW14521   2.509   3.226  16.787 -0.7037  0.2219 -0.3977
 1020SOL    HW114522   2.568   3.242  16.713 -1.3599 -0.7920 -1.1360
 1020SOL    HW214523   2.493   3.132  16.787 -0.3496  0.1665  0.4144
 1021SOL     OW14524   4.696   1.065   5.109 -0.2482  0.1613  0.2186
 1021SOL    HW114525   0.049   1.084   5.057 -1.2829  0.2418 -1.3173
 1021SOL    HW214526   4.715   0.981   5.152  1.2119  0.4271  0.0969
 1022SOL     OW14527   1.548   4.640   2.571 -0.4837 -0.4295  1.5958
 1022SOL    HW114528   1.616   4.584   2.534 -1.5532  0.8376 -2.3302
 1022SOL    HW214529   1.567   4.716   2.517  2.8508 -1.3649  1.4526
 1023SOL     OW14530   3.660   0.769  14.780  0.0386  0.0255 -0.2249
 1023SOL    HW114531   3.749   0.772  14.745  0.5994  2.2072  1.4263
 1023SOL    HW214532   3.671   0.822  14.858 -2.7223 -2.8025  2.1355
 1024SOL     OW14533   4.378   3.141   3.341  0.0760 -0.1772 -0.2364
 1024SOL    HW114534   4.441   3.213   3.337  0.5735 -0.4985  1.8560
 1024SOL    HW214535   4.397   3.097   3.258  0.7866  1.2525 -0.8377
 1025SOL     OW14536   3.480   3.038   7.237  1.0797 -0.4180  0.3288
 1025SOL    HW114537   3.555   3.083   7.276  1.0718  0.7703 -1.0045
 1025SOL    HW214538   3.452   2.986   7.312 -0.6103  2.1177  1.4585
 1026SOL     OW14539   4.179   2.976   2.519 -0.1097  0.3626  0.1218
 1026SOL    HW114540   4.109   2.911   2.512 -1.0567  1.1318  2.2890
 1026SOL    HW214541   4.205   2.983   2.611  0.2647  2.3971 -0.1492
 1027SOL     OW14542   3.099   3.203   8.641  1.0069  0.4021 -0.0314
 1027SOL    HW114543   3.094   3.255   8.722  0.6460 -0.7849  0.7151
 1027SOL    HW214544   3.076   3.267   8.574  2.3318  0.7838 -0.1201
 1028SOL     OW14545   4.440   0.127  13.521  0.1112 -0.1822  0.1794
 1028SOL    HW114546   4.415   0.155  13.433  2.1410 -1.0913 -0.6884
 1028SOL    HW214547   4.533   0.152  13.516  0.2849 -1.3106 -2.3542
 1029SOL     OW14548   2.108   1.461  13.412 -0.7238  0.4176 -0.2006
 1029SOL    HW114549   2.165   1.415  13.474 -0.3113  0.5839 -0.4553
 1029SOL    HW214550   2.028   1.410  13.416  0.5762 -1.6183 -0.1868
 1030SOL     OW14551   2.788   0.634   6.851  0.2043  0.2916  0.0927
 1030SOL    HW114552   2.775   0.728   6.869 -1.2068  0.4325 -1.7407
 1030SOL    HW214553   2.866   0.618   6.904  0.9069  0.2144 -0.9633
 1031SOL     OW14554   0.807   0.828  11.068 -0.0376 -0.6095 -0.0671
 1031SOL    HW114555   0.868   0.876  11.123  0.6542 -0.0873 -1.2878
 1031SOL    HW214556   0.867   0.797  11.000  0.4133 -2.2407  1.0759
 1032SOL     OW14557   0.068   2.886   7.887  0.2395  0.1155  0.7392
 1032SOL    HW114558   0.154   2.905   7.924 -0.4648  0.5628  2.1718
 1032SOL    HW214559   0.091   2.899   7.795 -3.1821 -0.8894 -0.2824
 1033SOL     OW14560   0.571   2.447   8.456  0.5046  0.6977 -0.3852
 1033SOL    HW114561   0.642   2.444   8.392  0.4204 -2.7310 -0.3461
 1033SOL    HW214562   0.607   2.420   8.540  1.7476  1.6887 -0.6029
 1034SOL     OW14563   2.883   4.456   3.745 -0.3803  0.2880  0.2330
 1034SOL    HW114564   2.934   4.493   3.672 -0.3554 -1.1663 -0.4915
 1034SOL    HW214565   2.816   4.524   3.749  0.9949  1.7227 -0.5729
 1035SOL     OW14566   3.545   0.594   7.211  0.2394  0.2551 -0.1791
 1035SOL    HW114567   3.521   0.520   7.267  1.2401 -0.5951 -0.8613
 1035SOL    HW214568   3.487   0.662   7.247 -0.6902 -0.2550 -0.7260
 1036SOL     OW14569   0.682   0.202   9.282 -0.4014  0.0535 -0.3147
 1036SOL    HW114570   0.660   0.257   9.357  1.8077  0.5183 -0.0263
 1036SOL    HW214571   0.624   0.133   9.313  1.0634  0.0384  2.3365
 1037SOL     OW14572   1.094   2.525  11.978  0.2638  0.1684 -0.7185
 1037SOL    HW114573   1.031   2.465  12.018 -0.4633  1.4454  0.0608
 1037SOL    HW214574   1.109   2.588  12.048 -1.1575 -0.6725  0.3341
 1038SOL     OW14575   4.393   3.296   8.545 -0.0422  0.3234  0.2818
 1038SOL    HW114576   4.443   3.377   8.553  0.6063 -0.0174 -0.3486
 1038SOL    HW214577   4.392   3.280   8.451  0.9598 -2.6785  0.7728
 1039SOL     OW14578   2.056   1.719  17.513  0.3679  0.2848 -0.5032
 1039SOL    HW114579   1.993   1.722  17.441 -0.1740 -1.2909 -0.1013
 1039SOL    HW214580   2.111   1.786  17.472 -0.6874  0.7601 -1.1383
 1040SOL     OW14581   3.730   3.440   2.842  0.3401  0.3924 -0.5254
 1040SOL    HW114582   3.734   3.477   2.754  0.0026  2.3534  0.2880
 1040SOL    HW214583   3.810   3.388   2.848 -0.7948 -0.9638  2.8265
 1041SOL     OW14584   3.946   3.431  15.825 -0.4406  0.2682 -0.9320
 1041SOL    HW114585   3.923   3.352  15.875 -1.6260  0.3638 -1.3328
 1041SOL    HW214586   4.002   3.472  15.891 -2.0209 -2.6717  2.2902
 1042SOL     OW14587   1.026   3.892   5.742  1.0740  0.3121  0.0116
 1042SOL    HW114588   1.080   3.897   5.821  0.3296 -0.5777  0.5817
 1042SOL    HW214589   1.002   3.983   5.726  1.5365  0.4607  0.1671
 1043SOL     OW14590   0.525   4.416  12.906  0.0912 -0.4572 -0.1007
 1043SOL    HW114591   0.573   4.386  12.829 -2.0882 -0.7748 -1.3171
 1043SOL    HW214592   0.597   4.422  12.969  1.2132  0.7100 -1.5057
 1044SOL     OW14593   2.302   1.753   5.509  0.0953  0.4054 -0.2576
 1044SOL    HW114594   2.339   1.704   5.582  0.6777  1.0747 -0.1106
 1044SOL    HW214595   2.358   1.720   5.439 -0.4142 -0.5191 -0.2309
 1045SOL     OW14596   2.801   1.340  14.581 -0.0148 -0.2036  0.5107
 1045SOL    HW114597   2.740   1.381  14.642  0.4948  0.7500  0.3870
 1045SOL    HW214598   2.838   1.416  14.536 -3.3402  1.1022  0.0279
 1046SOL     OW14599   0.601   3.227  17.243 -0.7839 -0.4082 -0.3124
 1046SOL    HW114600   0.533   3.292  17.259 -0.5842 -0.4844  0.8298
 1046SOL    HW214601   0.608   3.248  17.150  0.0915 -1.4489 -0.4835
 1047SOL     OW14602   2.816   0.928   7.022  0.0255 -0.5909  0.2999
 1047SOL    HW114603   2.798   0.988   7.094 -1.7682  1.3632 -1.7818
 1047SOL    HW214604   2.907   0.954   7.008 -0.0160 -0.4505  0.2915
 1048SOL     OW14605   3.068   3.194   9.376 -0.3934  1.0880 -0.2311
 1048SOL    HW114606   3.102   3.147   9.300  0.0519  0.6880  0.2117
 1048SOL    HW214607   3.148   3.195   9.429  1.7552 -1.1601 -3.4349
 1049SOL     OW14608   1.062   0.170   8.752  0.0204 -0.0753  0.2651
 1049SOL    HW114609   0.973   0.134   8.754  0.1301 -0.4950 -2.7183
 1049SOL    HW214610   1.038   0.263   8.750 -1.0394 -0.3652 -0.7009
 1050SOL     OW14611   1.464   0.960   7.922 -0.8239  0.2641  0.0263
 1050SOL    HW114612   1.514   1.041   7.930 -2.1019  1.3176 -2.6645
 1050SOL    HW214613   1.433   0.964   7.832 -2.4255  0.4845  0.5848
 1051SOL     OW14614   4.564   2.828  10.177 -0.3783 -0.0471  0.1448
 1051SOL    HW114615   4.554   2.865  10.265  0.0289  0.7390 -0.1386
 1051SOL    HW214616   4.493   2.764  10.174  0.0746 -0.6674  2.7077
 1052SOL     OW14617   1.074   3.329   7.350  0.3997 -0.3858 -0.8453
 1052SOL    HW114618   1.052   3.407   7.401  1.1035  1.6776 -3.6932
 1052SOL    HW214619   1.159   3.336   7.308  1.7081  0.3158  1.9483
 1053SOL     OW14620   2.612   1.323  17.632 -0.6596  0.3812 -0.6922
 1053SOL    HW114621   2.627   1.287   0.017  1.7684  0.4223 -1.1067
 1053SOL    HW214622   2.528   1.278  17.620 -0.7225  0.3831 -0.2552
 1054SOL     OW14623   2.173   1.883  12.795 -0.3270 -0.4257 -0.0236
 1054SOL    HW114624   2.079   1.878  12.776  0.0193 -2.5955 -1.1089
 1054SOL    HW214625   2.165   1.870  12.890  0.7948  1.0991  0.2751
 1055SOL     OW14626   3.310   2.398  13.301 -0.2070  0.0529  0.3837
 1055SOL    HW114627   3.370   2.345  13.353 -0.5727 -0.4378  0.3115
 1055SOL    HW214628   3.234   2.411  13.358 -0.1382 -1.5262  0.8495
 1056SOL     OW14629   1.278   3.444   9.274  0.3758 -0.6578 -0.0418
 1056SOL    HW114630   1.255   3.411   9.361  0.9261  1.8764  1.0509
 1056SOL    HW214631   1.366   3.405   9.278  1.7021  2.5151  1.4540
 1057SOL     OW14632   3.010   1.032   8.017 -0.1218  0.2901 -0.7093
 1057SOL    HW114633   2.925   1.028   8.062 -0.9405  2.6382 -2.0416
 1057SOL    HW214634   3.048   0.955   8.058 -1.0516  0.2415  0.0736
 1058SOL     OW14635   1.487   1.257  11.099  0.1600 -0.9527  0.2419
 1058SOL    HW114636   1.402   1.230  11.132 -1.3082  1.4893 -1.5133
 1058SOL    HW214637   1.461   1.335  11.051 -0.2527  0.4598  2.7837
 1059SOL     OW14638   2.308   0.674   6.119  0.0845  0.7109  0.6390
 1059SOL    HW114639   2.250   0.693   6.046 -0.5463  1.8064  1.4151
 1059SOL    HW214640   2.253   0.641   6.190  1.6718  1.6550  2.3159
 1060SOL     OW14641   2.329   0.792  17.356 -0.3639  0.2216 -0.1401
 1060SOL    HW114642   2.282   0.746  17.287  0.9729 -1.2248 -0.0749
 1060SOL    HW214643   2.300   0.734  17.426 -3.8649  0.2614 -1.5465
 1061SOL     OW14644   0.117   0.652   4.636  0.4595  0.5980 -0.0572
 1061SOL    HW114645   0.152   0.617   4.554 -0.6291  1.2800 -0.8208
 1061SOL    HW214646   0.040   0.597   4.627 -0.0821  1.5671 -1.3266
 1062SOL     OW14647   1.583   3.502   5.759  0.4564  0.4658  0.1657
 1062SOL    HW114648   1.564   3.587   5.721  0.3615  0.3850  0.0293
 1062SOL    HW214649   1.598   3.544   5.843 -2.3950 -0.0508  0.9437
 1063SOL     OW14650   3.005   2.355  15.872  0.0616 -0.0400  0.2981
 1063SOL    HW114651   2.990   2.443  15.837 -2.1761 -0.2129  0.8013
 1063SOL    HW214652   2.986   2.372  15.964 -1.7264 -0.6531  0.0395
 1064SOL     OW14653   0.618   1.489  15.293  0.2350 -0.3443  0.3468
 1064SOL    HW114654   0.613   1.501  15.198 -0.3384 -0.9558  0.2990
 1064SOL    HW214655   0.669   1.566  15.316 -0.3045 -0.1847  1.0007
 1065SOL     OW14656   4.342   1.781  13.901 -0.4333 -0.1035  0.5891
 1065SOL    HW114657   4.264   1.736  13.870 -0.0704 -1.2747  1.3803
 1065SOL    HW214658   4.372   1.830  13.824 -0.4823 -0.4419  0.3559
 1066SOL     OW14659   0.850   1.012   6.051 -0.0288 -0.0682  0.0499
 1066SOL    HW114660   0.798   1.076   6.003  0.7186  0.2099 -0.3779
 1066SOL    HW214661   0.931   1.062   6.044 -1.6370  2.8893  2.3001
 1067SOL     OW14662   0.004   3.258   5.956  0.6839  0.3150 -0.5276
 1067SOL    HW114663   4.708   3.274   6.048  2.7764 -0.7953  0.1495
 1067SOL    HW214664   0.043   3.171   5.963 -1.6313 -0.8936 -2.7259
 1068SOL     OW14665   0.837   1.150   2.394 -0.6639  0.1417  0.0655
 1068SOL    HW114666   0.831   1.058   2.418 -0.4506 -0.4533 -2.1825
 1068SOL    HW214667   0.809   1.186   2.478 -1.5597 -0.0207 -0.1595
 1069SOL     OW14668   2.585   0.158  13.832 -0.4698 -0.2396  0.4307
 1069SOL    HW114669   2.670   0.115  13.841 -0.2075  0.3865  1.0024
 1069SOL    HW214670   2.529   0.089  13.868 -0.0339 -0.9554 -0.2687
 1070SOL     OW14671   0.985   4.035   9.091 -0.0956  0.0283 -0.5622
 1070SOL    HW114672   0.947   3.965   9.037 -2.6515  0.3525  0.8069
 1070SOL    HW214673   0.909   4.091   9.107 -1.2978 -1.2379 -1.8097
 1071SOL     OW14674   2.571   0.233   5.281  0.3666  0.3089 -0.4729
 1071SOL    HW114675   2.654   0.190   5.258  0.7034  1.0141 -0.5945
 1071SOL    HW214676   2.547   0.219   5.372  2.3616  1.0192  0.1575
 1072SOL     OW14677   4.190   4.253   5.490 -0.3172  0.6588  0.0449
 1072SOL    HW114678   4.211   4.210   5.407  0.3229 -0.6568  0.8879
 1072SOL    HW214679   4.278   4.250   5.527 -0.3857  0.5677  0.2058
 1073SOL     OW14680   3.579   3.928   3.513 -0.3084  0.1647 -0.1552
 1073SOL    HW114681   3.670   3.913   3.537 -0.9914 -0.8211  1.8444
 1073SOL    HW214682   3.535   3.984   3.578  2.4589  1.8184  0.3226
 1074SOL     OW14683   2.364   0.913   2.031 -0.7491 -0.8255  0.0849
 1074SOL    HW114684   2.351   0.862   1.951  1.0162 -0.1703 -0.6308
 1074SOL    HW214685   2.459   0.897   2.037 -0.7454 -0.8427 -0.0268
 1075SOL     OW14686   4.475   3.494   5.647  0.3926 -0.1390  0.1628
 1075SOL    HW114687   4.390   3.458   5.671  0.9416 -0.7074  1.2643
 1075SOL    HW214688   4.527   3.417   5.672  2.4091  1.1265 -0.1373
 1076SOL     OW14689   1.308   1.529  11.701 -0.5116  0.0890 -0.2318
 1076SOL    HW114690   1.263   1.531  11.785  1.5962 -1.0996  0.8951
 1076SOL    HW214691   1.394   1.501  11.730 -0.9662 -0.4038  0.6314
 1077SOL     OW14692   0.060   2.047   9.713  0.3492  0.3469 -0.4458
 1077SOL    HW114693   0.111   2.067   9.792  0.6394 -1.9773 -0.0599
 1077SOL    HW214694   0.087   2.129   9.671  1.5359  2.2738  3.9821
 1078SOL     OW14695   3.801   1.002   0.474 -0.3207  0.1340 -0.3692
 1078SOL    HW114696   3.876   1.015   0.532 -0.5111 -3.2744  0.6445
 1078SOL    HW214697   3.782   0.911   0.500 -1.0443 -0.2457 -2.2548
 1079SOL     OW14698   2.377   1.133   3.881 -0.6412  0.5201 -0.0901
 1079SOL    HW114699   2.288   1.150   3.851  0.5256  2.9502 -2.2117
 1079SOL    HW214700   2.408   1.223   3.888 -0.8078  0.5814 -0.1546
 1080SOL     OW14701   1.508   0.796   4.883 -0.6685  0.2512  0.0597
 1080SOL    HW114702   1.491   0.702   4.873 -0.5697  0.3683 -1.1138
 1080SOL    HW214703   1.441   0.834   4.826  0.7398  2.0749 -0.3853
 1081SOL     OW14704   3.061   3.990   8.613 -0.6094 -0.1933 -0.3155
 1081SOL    HW114705   3.091   4.060   8.672 -1.8545  0.9783 -1.0713
 1081SOL    HW214706   3.144   3.956   8.578  0.5779 -0.1256  2.4470
 1082SOL     OW14707   3.144   2.619   7.765  0.3259  0.3479 -0.2037
 1082SOL    HW114708   3.112   2.574   7.687  0.7326  0.8514 -0.6539
 1082SOL    HW214709   3.074   2.593   7.825 -0.2427  3.5005  0.4923
 1083SOL     OW14710   0.517   3.180  15.995  0.2743  0.1098  0.7138
 1083SOL    HW114711   0.514   3.236  16.073 -0.4784 -1.4455  1.7948
 1083SOL    HW214712   0.534   3.244  15.926 -0.0892 -0.2867  0.2572
 1084SOL     OW14713   4.178   1.299   8.790 -0.2472  0.2502  0.4298
 1084SOL    HW114714   4.175   1.204   8.800 -1.4718  0.3127  0.6503
 1084SOL    HW214715   4.211   1.312   8.701  1.9027 -1.0457  1.0174
 1085SOL     OW14716   1.004   4.631   4.035  0.2963  0.6707 -0.4940
 1085SOL    HW114717   1.023   4.539   4.013 -2.0591  0.2559 -0.7259
 1085SOL    HW214718   1.077   4.668   3.986  0.0615  1.3075 -0.3548
 1086SOL     OW14719   4.374   1.826   7.555 -0.7501  0.7026  1.3203
 1086SOL    HW114720   4.391   1.791   7.643  4.3013  0.2508  0.1335
 1086SOL    HW214721   4.306   1.890   7.576 -2.3044 -0.8056  0.9185
 1087SOL     OW14722   2.530   4.371   7.551 -0.2514 -0.1733  0.3377
 1087SOL    HW114723   2.578   4.434   7.497  0.2203 -0.7974  0.0345
 1087SOL    HW214724   2.478   4.319   7.489 -0.4865 -0.0904  0.4664
 1088SOL     OW14725   0.935   1.207  10.385 -0.5456 -0.5155  0.2827
 1088SOL    HW114726   0.959   1.117  10.407 -1.0162 -0.6610  0.2009
 1088SOL    HW214727   0.942   1.244  10.472  2.2666 -0.6625  0.1186
 1089SOL     OW14728   2.040   4.496  16.005  0.1627 -0.0217  0.0279
 1089SOL    HW114729   2.070   4.434  15.938  0.0216 -1.3777  1.2306
 1089SOL    HW214730   1.949   4.507  15.979  0.4215  1.1900 -0.4234
 1090SOL     OW14731   3.871   2.332   4.068 -0.2281  0.3938  0.0947
 1090SOL    HW114732   3.782   2.339   4.033 -1.1678 -1.1455  2.1157
 1090SOL    HW214733   3.926   2.358   3.995 -1.2467  2.3917  0.0353
 1091SOL     OW14734   1.430   0.225   0.715 -0.5068 -0.4879  0.1920
 1091SOL    HW114735   1.447   0.287   0.786  1.6880 -1.2703  0.3251
 1091SOL    HW214736   1.423   0.142   0.763  0.7155 -1.5561 -1.4780
 1092SOL     OW14737   1.136   1.899   6.752 -0.0672 -0.1681 -0.1645
 1092SOL    HW114738   1.135   1.809   6.786  0.1040  0.5891  1.8110
 1092SOL    HW214739   1.172   1.951   6.823 -0.5975 -1.2472  0.8874
 1093SOL     OW14740   1.721   3.609   9.414 -0.3133 -0.0417 -0.1378
 1093SOL    HW114741   1.749   3.694   9.380  0.0737 -0.7398 -1.5420
 1093SOL    HW214742   1.801   3.563   9.439 -0.5351 -0.2306  0.2215
 1094SOL     OW14743   2.672   1.192  17.057 -0.2700  0.1695 -0.9708
 1094SOL    HW114744   2.584   1.206  17.092  0.1572 -1.5179  0.7687
 1094SOL    HW214745   2.710   1.264  17.108 -0.3472  0.6057 -1.5346
 1095SOL     OW14746   3.302   0.114   6.170  0.7329 -0.4468  0.7469
 1095SOL    HW114747   3.375   0.059   6.143  1.2787  0.4967  0.2693
 1095SOL    HW214748   3.314   0.093   6.263  0.5571  3.9487  1.7867
 1096SOL     OW14749   4.644   1.988   6.499  0.3941 -0.4465  0.0369
 1096SOL    HW114750   0.008   1.991   6.531  0.2117  1.0271  0.3982
 1096SOL    HW214751   4.616   1.896   6.501  0.6916 -0.5331  0.2208
 1097SOL     OW14752   4.113   1.653   6.293  0.1267  0.1794  0.4018
 1097SOL    HW114753   4.155   1.619   6.372  0.1695 -2.2103 -0.6660
 1097SOL    HW214754   4.161   1.736   6.284  0.1914 -0.0895 -1.7966
 1098SOL     OW14755   3.979   2.642   6.625  0.0345  0.4338 -0.4406
 1098SOL    HW114756   3.887   2.656   6.605 -0.5745 -2.6769  0.3008
 1098SOL    HW214757   3.987   2.567   6.566  0.2054  0.6976 -0.7597
 1099SOL     OW14758   3.029   1.026   9.016 -0.0617 -0.4506 -0.1495
 1099SOL    HW114759   3.112   1.066   9.042  1.0103 -3.3431  0.9042
 1099SOL    HW214760   3.058   0.941   8.982  0.0104  0.1047 -1.4662
 1100SOL     OW14761   2.598   2.832   8.472 -0.2249  0.2786 -0.6942
 1100SOL    HW114762   2.589   2.925   8.451  0.9414  0.4793 -0.2729
 1100SOL    HW214763   2.553   2.795   8.396  0.3044  0.7334 -1.2253
 1101SOL     OW14764   2.160   0.685  17.130  0.4076  0.9763  0.1596
 1101SOL    HW114765   2.087   0.650  17.079  1.0248  0.1656 -0.1801
 1101SOL    HW214766   2.220   0.611  17.118 -0.4656  0.1602  0.8586
 1102SOL     OW14767   1.867   3.980   5.256 -0.1086 -0.3745  0.2165
 1102SOL    HW114768   1.868   3.884   5.252  0.4689 -0.3527 -0.2487
 1102SOL    HW214769   1.843   3.994   5.348  0.8092 -3.5323  0.9648
 1103SOL     OW14770   0.906   0.104   6.752  0.3243  0.4622  0.3163
 1103SOL    HW114771   0.817   0.086   6.721 -0.2927  1.6906  1.3690
 1103SOL    HW214772   0.953   0.023   6.733  0.7529  0.7227  0.2804
 1104SOL     OW14773   4.518   4.170   6.199  0.1022  0.2130 -0.1415
 1104SOL    HW114774   4.468   4.198   6.122 -0.9516  0.1245  0.5186
 1104SOL    HW214775   4.551   4.086   6.169  0.6972  0.8785 -1.3829
 1105SOL     OW14776   0.445   2.873   9.803 -0.0602  0.0983 -0.7026
 1105SOL    HW114777   0.525   2.869   9.751  1.0288 -1.2266  1.0907
 1105SOL    HW214778   0.471   2.906   9.889 -4.0757 -0.6478  0.7920
 1106SOL     OW14779   0.824   2.374   8.997  0.0759  0.2337  0.4164
 1106SOL    HW114780   0.744   2.411   9.034 -0.6320 -0.6026 -0.2655
 1106SOL    HW214781   0.894   2.434   9.024 -0.0558  0.1748  0.8862
 1107SOL     OW14782   4.590   2.421  10.856 -0.1595  0.7231  0.0496
 1107SOL    HW114783   4.624   2.387  10.774  1.7773  1.0520  0.7268
 1107SOL    HW214784   4.522   2.472  10.812 -1.0688  0.6427  1.3739
 1108SOL     OW14785   3.417   3.482   3.247 -0.2565 -0.1572  0.5546
 1108SOL    HW114786   3.362   3.470   3.325 -1.6523 -2.2456 -0.7607
 1108SOL    HW214787   3.409   3.577   3.232 -1.8805 -0.6861 -1.9148
 1109SOL     OW14788   4.468   1.136   1.198 -0.2316  0.2679 -0.1954
 1109SOL    HW114789   4.501   1.047   1.186  0.6925  0.6309 -0.3016
 1109SOL    HW214790   4.392   1.117   1.254 -0.5260 -1.3338 -1.1312
 1110SOL     OW14791   0.113   2.864   2.918  0.2238  0.0683  0.4213
 1110SOL    HW114792   0.050   2.842   2.849 -1.3547  0.6098  1.6970
 1110SOL    HW214793   0.140   2.951   2.888  1.0062 -0.8992 -1.7355
 1111SOL     OW14794   2.618   2.636   4.680  0.5582 -0.4477  0.1698
 1111SOL    HW114795   2.550   2.703   4.680  0.0273 -0.9968 -0.6991
 1111SOL    HW214796   2.564   2.563   4.709 -2.1634  1.5489  0.1308
 1112SOL     OW14797   3.109   2.118   7.573 -0.8211 -0.1302 -0.5297
 1112SOL    HW114798   3.049   2.137   7.645 -0.6513  0.0620 -0.4391
 1112SOL    HW214799   3.050   2.106   7.498 -0.2054  1.0193 -1.2016
 1113SOL     OW14800   2.362   1.713   0.706 -0.5640 -0.0986  0.0090
 1113SOL    HW114801   2.296   1.733   0.772 -0.1827  1.9505 -0.2279
 1113SOL    HW214802   2.430   1.757   0.756 -0.2866 -0.6794  0.1343
 1114SOL     OW14803   4.725   0.607   7.011  0.1237 -0.7127  0.5689
 1114SOL    HW114804   4.676   0.572   7.085 -1.0327 -1.7735 -0.6830
 1114SOL    HW214805   0.066   0.654   7.060  0.0028 -1.0679  1.0715
 1115SOL     OW14806   4.668   2.943   5.405  0.0615  0.5562  0.1792
 1115SOL    HW114807   0.032   2.940   5.373 -0.4441  0.5991 -1.2501
 1115SOL    HW214808   4.684   2.942   5.499  0.8701  0.7906  0.0385
 1116SOL     OW14809   3.626   4.666  11.608  0.3078 -0.4214 -0.4662
 1116SOL    HW114810   3.710   4.635  11.573  1.2973  2.0286 -0.3129
 1116SOL    HW214811   3.580   4.583  11.601 -0.0830 -0.1071 -1.5616
 1117SOL     OW14812   2.237   4.366   2.363 -0.0976 -0.4871 -0.0916
 1117SOL    HW114813   2.261   4.297   2.425 -1.9506 -1.7386 -0.7791
 1117SOL    HW214814   2.303   4.352   2.295  1.5000  0.8605  1.1833
 1118SOL     OW14815   4.618   1.462   7.396  0.3401  0.1309  0.4350
 1118SOL    HW114816   4.691   1.517   7.422  0.5567  0.3617 -0.6791
 1118SOL    HW214817   4.629   1.448   7.302  0.2266 -0.9706  0.5800
 1119SOL     OW14818   1.572   4.614   6.677  0.1054  0.4220  0.1075
 1119SOL    HW114819   1.534   4.628   6.590  2.0386 -1.6869 -1.0923
 1119SOL    HW214820   1.502   4.641   6.736  1.6428  0.8924  1.7166
 1120SOL     OW14821   4.681   2.738  16.868 -0.2139  0.4279  0.6793
 1120SOL    HW114822   0.036   2.762  16.822 -0.2919  0.6588  0.6639
 1120SOL    HW214823   4.635   2.820  16.888 -2.1726 -0.4047 -0.4232
 1121SOL     OW14824   1.893   1.943   6.455 -0.5376 -0.3189  0.0854
 1121SOL    HW114825   1.831   1.964   6.525 -2.1107 -2.4437 -0.6984
 1121SOL    HW214826   1.839   1.888   6.399  1.3478 -1.5370 -0.5298
 1122SOL     OW14827   3.997   2.999   8.973  0.2393  0.0322  0.2485
 1122SOL    HW114828   3.993   2.949   8.892  0.1076  0.4653 -0.0091
 1122SOL    HW214829   3.914   3.045   8.968 -0.2948 -0.7070  2.0788
 1123SOL     OW14830   1.086   2.745  10.356 -0.2404  0.3890 -0.7585
 1123SOL    HW114831   1.050   2.681  10.417 -1.3128  2.3299  0.6569
 1123SOL    HW214832   1.001   2.762  10.315 -0.9375  3.3292  1.9164
 1124SOL     OW14833   0.892   3.471  14.014  0.6546 -0.1626  0.0223
 1124SOL    HW114834   0.920   3.403  14.076 -0.0482  0.0147  0.5291
 1124SOL    HW214835   0.925   3.551  14.054  2.9128 -0.7990 -0.5388
 1125SOL     OW14836   3.034   4.506   7.131  0.1313 -0.0372  0.4805
 1125SOL    HW114837   2.961   4.536   7.077  0.1374 -0.7756  0.0687
 1125SOL    HW214838   3.005   4.422   7.166  3.1323 -1.6552 -0.9057
 1126SOL     OW14839   1.091   3.794   7.693 -0.6592  0.4893  0.6748
 1126SOL    HW114840   1.136   3.863   7.741 -1.1539 -0.1708  2.0666
 1126SOL    HW214841   1.028   3.835   7.633  1.9912  0.3629 -2.1894
 1127SOL     OW14842   0.832   3.231  14.931  0.1062  0.1281  0.4733
 1127SOL    HW114843   0.774   3.156  14.914  0.8027 -0.0005 -1.2795
 1127SOL    HW214844   0.836   3.282  14.851  1.9107  1.8500  1.6687
 1128SOL     OW14845   3.061   1.707   2.975 -0.4172 -0.4891 -0.0103
 1128SOL    HW114846   3.038   1.615   2.988 -2.0282 -0.3194 -1.5884
 1128SOL    HW214847   3.145   1.713   3.019 -1.3435  2.8272  1.3439
 1129SOL     OW14848   2.405   1.446   0.297  0.3956  0.0563 -0.2936
 1129SOL    HW114849   2.317   1.460   0.261  0.4035  2.2506  0.5280
 1129SOL    HW214850   2.402   1.453   0.393 -0.2234  1.4668 -0.4146
 1130SOL     OW14851   3.369   2.289  14.800 -0.0265  0.1892  0.0723
 1130SOL    HW114852   3.383   2.374  14.841  2.5952 -0.4298  0.4733
 1130SOL    HW214853   3.426   2.233  14.853 -0.4230 -0.3217 -0.0461
 1131SOL     OW14854   0.230   0.344   8.124 -0.2352 -0.0099  0.2448
 1131SOL    HW114855   0.305   0.291   8.152  0.1308  1.2086  1.5896
 1131SOL    HW214856   0.224   0.318   8.032 -0.4660  0.1109  0.2241
 1132SOL     OW14857   2.409   3.302   6.652 -0.3468  0.9126  0.0283
 1132SOL    HW114858   2.332   3.291   6.707  0.0547 -1.5551  0.1017
 1132SOL    HW214859   2.393   3.394   6.629 -0.0298  1.4360  1.8467
 1133SOL     OW14860   4.142   4.207   7.336  0.1281 -0.1436 -0.1953
 1133SOL    HW114861   4.085   4.275   7.301  0.3397  0.2457  0.2233
 1133SOL    HW214862   4.190   4.261   7.398  0.1794 -0.9837  0.4933
 1134SOL     OW14863   0.419   2.950  14.451 -0.0938 -0.5348 -0.0091
 1134SOL    HW114864   0.435   2.929  14.359 -0.7574 -2.1520  0.2520
 1134SOL    HW214865   0.330   2.916  14.455  0.1275 -1.1273 -0.1495
 1135SOL     OW14866   1.167   1.690  12.247 -0.2195 -0.7452  0.2415
 1135SOL    HW114867   1.079   1.728  12.239  0.9480  1.4899 -1.6666
 1135SOL    HW214868   1.216   1.737  12.180 -0.4063 -3.3373 -1.6740
 1136SOL     OW14869   0.512   3.593  16.961  0.4974 -0.7770  0.3165
 1136SOL    HW114870   0.419   3.612  16.949  0.0705 -2.1689  1.3777
 1136SOL    HW214871   0.529   3.641  17.042 -0.0902  0.3476 -0.2269
 1137SOL     OW14872   2.048   2.702   7.968 -0.2825  0.3463 -0.1386
 1137SOL    HW114873   2.003   2.761   8.028  2.8010  1.2522  1.2592
 1137SOL    HW214874   2.111   2.767   7.939  1.9603 -2.1273 -0.8188
 1138SOL     OW14875   0.296   4.060   3.041 -0.3741 -0.4955  0.0344
 1138SOL    HW114876   0.307   4.066   2.946  0.5240 -0.8553  0.1181
 1138SOL    HW214877   0.209   4.021   3.049 -1.2517  1.6394  0.9679
 1139SOL     OW14878   3.731   2.384   9.975 -0.2429 -0.1429  0.1482
 1139SOL    HW114879   3.754   2.317  10.039  1.8598 -1.7831 -2.3481
 1139SOL    HW214880   3.753   2.461  10.028  0.9106  0.0106 -0.5554
 1140SOL     OW14881   1.315   0.364  16.547 -0.5538 -0.4526 -0.0649
 1140SOL    HW114882   1.330   0.384  16.639 -1.4672  0.9637 -0.2116
 1140SOL    HW214883   1.237   0.417  16.532 -1.8224 -2.2386  0.2675
 1141SOL     OW14884   1.759   2.393   6.889  0.3878 -0.0017 -0.8762
 1141SOL    HW114885   1.800   2.424   6.970 -0.3256 -2.2788  0.3648
 1141SOL    HW214886   1.667   2.412   6.905  0.8124  0.6428  0.7854
 1142SOL     OW14887   1.511   0.304  12.254  0.2963 -0.5415  0.2333
 1142SOL    HW114888   1.436   0.331  12.306  0.0924  2.6976 -1.6764
 1142SOL    HW214889   1.576   0.289  12.322  0.9575 -1.3475 -0.5731
 1143SOL     OW14890   3.606   1.979   3.428 -0.8063 -0.2286 -0.6955
 1143SOL    HW114891   3.594   2.029   3.348 -1.0197 -0.5392 -0.8610
 1143SOL    HW214892   3.646   1.897   3.400  0.8994 -0.6576  3.0121
 1144SOL     OW14893   0.979   3.584   2.879  0.0236  0.1669 -0.3793
 1144SOL    HW114894   0.944   3.673   2.875 -2.6274 -1.0310 -3.8495
 1144SOL    HW214895   0.975   3.570   2.784 -0.0641  0.7106 -0.4557
 1145SOL     OW14896   1.185   2.406   9.910  0.3048 -0.8843 -0.4671
 1145SOL    HW114897   1.122   2.479   9.905  0.1670 -1.0205 -0.6926
 1145SOL    HW214898   1.163   2.385  10.000  3.4867  0.3382  0.6078
 1146SOL     OW14899   0.024   4.279   1.963  0.7591  0.1466  0.5239
 1146SOL    HW114900   4.689   4.228   2.017 -0.8701  2.5527  1.0042
 1146SOL    HW214901   0.050   4.214   1.898 -0.2907 -0.9447  1.2072
 1147SOL     OW14902   0.155   0.857  12.590 -0.0998 -0.1038  0.3745
 1147SOL    HW114903   0.224   0.908  12.632 -0.7422  0.0881  1.2155
 1147SOL    HW214904   0.181   0.863  12.498 -1.9581  1.0252 -0.0814
 1148SOL     OW14905   3.152   1.059   6.138 -0.0879 -0.2256  0.2213
 1148SOL    HW114906   3.213   1.117   6.094  0.5102 -0.1611  1.1376
 1148SOL    HW214907   3.079   1.064   6.077 -0.4917  1.4716  0.8669
 1149SOL     OW14908   2.491   0.962   5.581 -0.0742 -0.3558 -0.1033
 1149SOL    HW114909   2.398   0.947   5.562 -0.5929  0.9462  1.3982
 1149SOL    HW214910   2.501   1.049   5.542  3.6687 -1.2671 -1.1271
 1150SOL     OW14911   0.192   0.791   9.296 -0.2389  0.0282  0.3803
 1150SOL    HW114912   0.157   0.717   9.247  0.1668 -0.8015  1.3523
 1150SOL    HW214913   0.114   0.821   9.344  0.8570 -0.3083  2.3595
 1151SOL     OW14914   1.379   1.671   3.249  0.0342  0.0574 -0.3156
 1151SOL    HW114915   1.423   1.718   3.320 -0.9053 -0.5815  0.6960
 1151SOL    HW214916   1.416   1.711   3.170 -0.1913  0.6522 -0.1251
 1152SOL     OW14917   2.329   2.764  12.747  0.0210  0.0810 -0.2014
 1152SOL    HW114918   2.401   2.731  12.694  0.6024  0.9711  0.0373
 1152SOL    HW214919   2.377   2.789  12.826 -0.6190  0.7091 -0.0101
 1153SOL     OW14920   2.624   0.799  12.174  0.3316 -0.2941  0.1059
 1153SOL    HW114921   2.625   0.730  12.240  1.3793  0.7428  1.1757
 1153SOL    HW214922   2.612   0.880  12.225  2.3080  0.7290 -1.0481
 1154SOL     OW14923   2.558   1.729  15.888 -0.0974  0.3283  0.7498
 1154SOL    HW114924   2.582   1.648  15.842 -0.0626  0.5790  0.3286
 1154SOL    HW214925   2.531   1.790  15.820  0.2348 -1.0958 -0.6530
 1155SOL     OW14926   0.461   2.076   7.153 -0.3226 -0.4842  0.3443
 1155SOL    HW114927   0.470   1.982   7.136 -0.1929 -0.5122  0.5619
 1155SOL    HW214928   0.536   2.105   7.205  0.1418 -0.3924 -0.3697
 1156SOL     OW14929   0.512   1.376   7.413  0.8268  0.2332  0.2881
 1156SOL    HW114930   0.535   1.442   7.478  1.2551 -0.2075  0.5870
 1156SOL    HW214931   0.597   1.331   7.410  0.0367 -1.0943 -2.2603
 1157SOL     OW14932   3.314   4.430   2.453  0.0052  0.2841 -0.1002
 1157SOL    HW114933   3.358   4.367   2.397  0.0059 -1.5239  1.9559
 1157SOL    HW214934   3.232   4.381   2.452  0.8619 -1.1881  1.8028
 1158SOL     OW14935   4.394   3.546  15.879 -0.2299  0.3914 -0.1005
 1158SOL    HW114936   4.480   3.559  15.840 -0.4482 -1.0665 -1.0701
 1158SOL    HW214937   4.410   3.462  15.923 -1.6615  0.7730  1.1565
 1159SOL     OW14938   2.687   0.907   2.486  0.3506  0.4283  0.1000
 1159SOL    HW114939   2.662   0.999   2.490 -0.4720  0.2291 -0.4481
 1159SOL    HW214940   2.771   0.906   2.533  0.3101  0.8682  0.1844
 1160SOL     OW14941   2.025   4.178   5.479 -0.7513  0.1145 -0.2870
 1160SOL    HW114942   1.956   4.113   5.491  0.3440 -1.0323 -0.2110
 1160SOL    HW214943   1.987   4.234   5.411  0.0034 -1.1671 -1.7522
 1161SOL     OW14944   2.631   1.438  12.088 -0.6919 -0.2075 -0.1420
 1161SOL    HW114945   2.692   1.379  12.042 -2.3971 -1.4691 -0.7957
 1161SOL    HW214946   2.678   1.447  12.171 -0.3146 -0.5658 -0.3108
 1162SOL     OW14947   3.553   0.599  17.130 -0.1037 -0.2744  0.0438
 1162SOL    HW114948   3.554   0.616  17.036  0.4748  0.5158  0.1965
 1162SOL    HW214949   3.579   0.685  17.162 -0.7335  0.2219 -0.7793
 1163SOL     OW14950   0.668   2.241   7.227  0.3184  0.0246  0.3385
 1163SOL    HW114951   0.666   2.286   7.142 -1.3376  1.8735  1.3414
 1163SOL    HW214952   0.752   2.195   7.222  0.0055 -0.4900 -0.1866
 1164SOL     OW14953   1.205   3.688   2.388 -0.5135 -0.6423  0.2799
 1164SOL    HW114954   1.256   3.769   2.380  0.9109 -1.6430 -0.5064
 1164SOL    HW214955   1.232   3.659   2.475  1.0038  0.6250  0.2401
 1165SOL     OW14956   1.380   4.518   8.912  0.3675 -0.2319 -0.5255
 1165SOL    HW114957   1.395   4.489   8.822 -1.6222 -0.4061 -0.7956
 1165SOL    HW214958   1.323   4.455   8.956 -0.9296  0.8983 -0.5838
 1166SOL     OW14959   0.918   3.672   7.024 -0.0776  0.0303  0.2285
 1166SOL    HW114960   0.915   3.757   6.981 -1.6852 -0.8842 -1.4432
 1166SOL    HW214961   1.008   3.671   7.057  0.3086  1.2034 -0.8220
 1167SOL     OW14962   4.548   1.141   4.674  0.2487 -0.0964  0.2818
 1167SOL    HW114963   4.593   1.060   4.649  0.7978  0.9372 -2.1395
 1167SOL    HW214964   4.534   1.169   4.583 -0.4076 -1.5985 -0.0918
 1168SOL     OW14965   0.966   1.909   3.738 -0.4914  0.5287 -0.4172
 1168SOL    HW114966   0.906   1.924   3.665 -0.9452  2.6406  0.3890
 1168SOL    HW214967   0.915   1.854   3.797  0.6072  0.9676  0.9471
 1169SOL     OW14968   2.674   2.031   8.730 -0.0864 -0.1510 -0.2627
 1169SOL    HW114969   2.598   2.081   8.758 -0.2917 -0.5817 -0.0471
 1169SOL    HW214970   2.667   1.954   8.787  4.6102 -1.6235 -1.6072
 1170SOL     OW14971   0.361   3.022  16.170  0.3757  0.2026  0.2707
 1170SOL    HW114972   0.411   3.071  16.105 -0.8270  2.9188  1.3956
 1170SOL    HW214973   0.341   2.946  16.114  1.1076  1.8702 -2.2556
 1171SOL     OW14974   2.814   2.832   6.805 -0.1755  0.6073  0.2063
 1171SOL    HW114975   2.825   2.912   6.857 -1.2472  0.4473  0.6848
 1171SOL    HW214976   2.890   2.839   6.749 -0.0469  1.2180  0.4596
 1172SOL     OW14977   2.251   1.145   8.037 -0.3480 -0.7764  0.4228
 1172SOL    HW114978   2.196   1.096   8.098 -2.0466  0.0805 -0.4294
 1172SOL    HW214979   2.330   1.092   8.045  0.2086  0.1218  0.8244
 1173SOL     OW14980   3.185   3.907   6.169  0.8778 -0.3421 -0.3946
 1173SOL    HW114981   3.155   3.907   6.260  0.8275 -0.6955 -0.4117
 1173SOL    HW214982   3.226   3.821   6.169  0.6602 -0.4483  0.1447
 1174SOL     OW14983   1.294   1.135   2.424  0.2018  0.6056 -0.2105
 1174SOL    HW114984   1.224   1.151   2.487  0.5370  2.3138 -0.2625
 1174SOL    HW214985   1.240   1.102   2.352  0.3834  1.1853 -0.6122
 1175SOL     OW14986   1.883   3.683  10.441 -0.3492 -0.6305  0.0432
 1175SOL    HW114987   1.811   3.642  10.489 -1.3288 -1.3992 -2.0764
 1175SOL    HW214988   1.910   3.747  10.507 -0.2660 -0.5959 -0.0245
 1176SOL     OW14989   0.429   3.545  14.721  0.5375  0.5619  0.4402
 1176SOL    HW114990   0.414   3.638  14.702  0.5352  0.4901  0.0871
 1176SOL    HW214991   0.465   3.509  14.640  0.6392 -1.5019  1.4000
 1177SOL     OW14992   3.677   3.829  12.790  0.1375  0.0283  0.5939
 1177SOL    HW114993   3.745   3.860  12.731  2.4934  1.7233  4.1590
 1177SOL    HW214994   3.649   3.908  12.836 -0.9405 -0.1965  0.3211
 1178SOL     OW14995   3.908   0.273   3.452  0.1193 -0.6353 -0.6815
 1178SOL    HW114996   3.989   0.240   3.493 -1.0327 -2.0523  0.4535
 1178SOL    HW214997   3.854   0.195   3.444  2.0753 -1.9282 -1.4273
 1179SOL     OW14998   1.113   2.164  15.075 -0.5118  0.3614  0.7367
 1179SOL    HW114999   1.097   2.163  14.980  1.0383  0.6847  0.4703
 1179SOL    HW215000   1.110   2.070  15.091  0.1598 -0.1025 -1.8478
 1180SOL     OW15001   2.268   3.091   6.375  0.4178  0.4113  0.0204
 1180SOL    HW115002   2.316   3.032   6.317 -2.2006 -0.0809 -1.6730
 1180SOL    HW215003   2.276   3.045   6.458 -0.1207 -0.6470 -0.5036
 1181SOL     OW15004   4.361   4.321   9.259  0.3894 -0.1082  0.1092
 1181SOL    HW115005   4.372   4.413   9.235  0.6013 -0.5151 -1.3473
 1181SOL    HW215006   4.272   4.306   9.226  0.1837 -0.6438  0.9230
 1182SOL     OW15007   1.642   0.519   8.794 -0.8487 -0.5389  0.6786
 1182SOL    HW115008   1.673   0.431   8.775 -0.9774 -0.0105 -2.0195
 1182SOL    HW215009   1.651   0.529   8.889 -1.4977  0.3479  0.6470
 1183SOL     OW15010   1.930   4.246   2.019 -0.1730  0.1423  0.1614
 1183SOL    HW115011   2.002   4.296   1.981 -0.4866  0.7045  0.3077
 1183SOL    HW215012   1.986   4.205   2.086 -0.6288  1.1049  1.1262
 1184SOL     OW15013   2.662   0.953  16.927  0.2102 -0.1608  0.1545
 1184SOL    HW115014   2.735   0.925  16.982  1.4615 -0.4211 -1.6447
 1184SOL    HW215015   2.654   1.040  16.967  0.1386  0.3422 -0.9456
 1185SOL     OW15016   2.916   1.205   8.821 -0.1041 -0.1528  0.3018
 1185SOL    HW115017   2.960   1.129   8.859 -0.1594  0.2891  1.2629
 1185SOL    HW215018   2.989   1.241   8.771 -0.7125  1.2160  0.4131
 1186SOL     OW15019   2.615   4.522   5.379 -0.5173 -0.2333  0.3510
 1186SOL    HW115020   2.552   4.524   5.306 -0.7480  2.6498  0.6253
 1186SOL    HW215021   2.659   4.438   5.369 -1.0684 -0.5192  0.2774
 1187SOL     OW15022   1.062   3.114  16.336  0.6473  0.4406  0.4863
 1187SOL    HW115023   1.116   3.192  16.325 -1.2317  1.3368 -2.3538
 1187SOL    HW215024   1.003   3.111  16.261  1.6523 -0.2554 -0.2681
 1188SOL     OW15025   3.539   1.177   0.784  0.1758  0.5627 -0.4777
 1188SOL    HW115026   3.517   1.235   0.711 -1.3678  1.1846  0.4874
 1188SOL    HW215027   3.545   1.092   0.742 -1.5324 -1.2689  2.9513
 1189SOL     OW15028   2.038   0.086   8.971  0.0718 -0.4683 -0.0661
 1189SOL    HW115029   2.042   0.049   8.883 -0.3319  2.4240 -1.2914
 1189SOL    HW215030   2.039   0.000   9.014 -0.7257  0.1570  1.1913
 1190SOL     OW15031   2.220   1.225   1.613  0.2313  0.3394  0.5020
 1190SOL    HW115032   2.170   1.280   1.673 -2.7942 -0.1120 -1.5872
 1190SOL    HW215033   2.296   1.208   1.668  0.4543  0.6196  0.2811
 1191SOL     OW15034   1.584   2.459   9.032 -0.1585  0.0880 -0.1026
 1191SOL    HW115035   1.670   2.486   9.063 -0.9443 -0.0768  2.2756
 1191SOL    HW215036   1.584   2.369   9.065 -1.4241  0.3759  0.7049
 1192SOL     OW15037   0.158   2.880  16.023 -0.1278 -0.0239 -0.0976
 1192SOL    HW115038   0.134   2.805  16.077 -0.0254  0.6197  0.8330
 1192SOL    HW215039   0.076   2.881  15.973  1.0042 -3.7085 -2.0466
 1193SOL     OW15040   2.811   3.066   7.916  0.0400 -0.2301 -0.3180
 1193SOL    HW115041   2.906   3.050   7.921 -0.0056 -1.0680 -2.1100
 1193SOL    HW215042   2.810   3.141   7.855  1.3994  0.4936  0.5448
 1194SOL     OW15043   2.023   4.395   9.961  0.1413  0.2048 -0.1443
 1194SOL    HW115044   2.079   4.401  10.037  1.4599  2.2715 -1.2895
 1194SOL    HW215045   2.059   4.467   9.909 -0.0030 -1.5178 -2.6539
 1195SOL     OW15046   1.261   1.197   9.167 -0.2391  1.3086  0.5219
 1195SOL    HW115047   1.285   1.119   9.117  0.7966  2.3742 -0.6373
 1195SOL    HW215048   1.341   1.249   9.159 -0.5041  1.5610 -0.4122
 1196SOL     OW15049   0.688   4.235  11.029  0.3353 -0.3761  0.0218
 1196SOL    HW115050   0.708   4.311  10.976  0.5479 -0.0590  0.5588
 1196SOL    HW215051   0.715   4.258  11.118  0.1002 -0.5992  0.1538
 1197SOL     OW15052   3.100   2.304   4.087  0.5086 -0.3534 -0.5253
 1197SOL    HW115053   3.102   2.228   4.145  1.6116 -0.1613 -0.3070
 1197SOL    HW215054   3.053   2.375   4.130 -3.2789 -3.1808 -0.0220
 1198SOL     OW15055   1.422   3.984  11.308 -0.0319  0.1891  0.5770
 1198SOL    HW115056   1.488   4.012  11.372 -1.2682  0.7701  1.6094
 1198SOL    HW215057   1.438   3.890  11.318  1.9233  0.2095 -2.5500
 1199SOL     OW15058   2.446   0.049   4.087 -0.3751  0.1498 -0.6180
 1199SOL    HW115059   2.512   4.709   4.109  0.2709  1.0817  0.2214
 1199SOL    HW215060   2.394   4.719   4.028 -0.5228 -1.5342  1.1053
 1200SOL     OW15061   1.024   1.548   5.616 -0.1976  0.0701  0.0849
 1200SOL    HW115062   1.069   1.506   5.543 -2.0061  0.0951 -1.0344
 1200SOL    HW215063   1.102   1.573   5.667 -0.7262 -1.1641  1.5004
 1201SOL     OW15064   3.103   2.949   6.895 -0.3050 -0.1251 -0.2993
 1201SOL    HW115065   3.122   2.988   6.980  0.3875 -2.1583  0.4787
 1201SOL    HW215066   3.037   3.010   6.861  0.0925  0.9722  0.9061
 1202SOL     OW15067   0.835   2.445   1.951 -0.3924 -0.3036  0.0980
 1202SOL    HW115068   0.856   2.528   1.908 -0.0302 -0.0266  0.8185
 1202SOL    HW215069   0.914   2.413   1.995  3.1348  1.5984 -4.8801
 1203SOL     OW15070   4.386   0.027   8.276  0.7754 -0.0674  0.7866
 1203SOL    HW115071   4.478   0.006   8.262  0.5210 -0.4899 -0.2850
 1203SOL    HW215072   4.389   0.122   8.269 -1.0401 -0.0715  0.0274
 1204SOL     OW15073   2.122   0.566  16.200 -0.6388  0.8104  0.5602
 1204SOL    HW115074   2.113   0.655  16.234  1.7879  0.8733  0.9991
 1204SOL    HW215075   2.184   0.530  16.264 -0.9083 -1.8725 -0.6918
 1205SOL     OW15076   2.315   0.759  12.926  0.6798 -0.0362 -0.1126
 1205SOL    HW115077   2.296   0.783  12.835 -1.3527  0.9697  0.5830
 1205SOL    HW215078   2.242   0.698  12.939  1.6388 -1.1198  0.1484
 1206SOL     OW15079   3.375   0.864   4.852 -0.7571 -0.4589  0.3507
 1206SOL    HW115080   3.356   0.843   4.761 -1.8208  1.0936  0.1983
 1206SOL    HW215081   3.326   0.791   4.891 -0.9643 -1.0325 -1.0018
 1207SOL     OW15082   0.610   2.535   9.050  0.2845  1.1736 -0.7616
 1207SOL    HW115083   0.562   2.607   9.010 -0.6275  1.5335  0.9740
 1207SOL    HW215084   0.626   2.563   9.140 -0.7916 -1.1873  0.1548
 1208SOL     OW15085   2.681   0.800   8.371 -0.5067 -0.0833 -0.3448
 1208SOL    HW115086   2.691   0.773   8.463 -2.7147  2.1065  0.5439
 1208SOL    HW215087   2.591   0.774   8.354 -0.6225 -0.4495  0.7801
 1209SOL     OW15088   1.915   3.376   2.763 -0.3304  0.3831  0.1116
 1209SOL    HW115089   1.978   3.358   2.833 -0.3104 -1.9160 -0.4798
 1209SOL    HW215090   1.910   3.471   2.772  0.0719  0.3477  0.7154
 1210SOL     OW15091   1.031   3.276   9.682 -0.1618  0.2641  0.1757
 1210SOL    HW115092   1.058   3.247   9.769  0.3864  0.9332  0.2308
 1210SOL    HW215093   1.073   3.362   9.684  0.3118  0.0420 -0.4725
 1211SOL     OW15094   0.470   2.996   3.763  0.7421  0.1180  0.2804
 1211SOL    HW115095   0.542   3.021   3.705  0.4585 -2.7665 -1.2834
 1211SOL    HW215096   0.475   2.902   3.745  1.9800  0.1752  0.3087
 1212SOL     OW15097   2.524   2.054   0.563 -0.0943  0.6009 -0.6202
 1212SOL    HW115098   2.558   1.969   0.533  0.3815 -0.2481  2.3580
 1212SOL    HW215099   2.472   2.025   0.638  2.2389 -1.5926  0.1343
 1213SOL     OW15100   1.943   0.919  13.295 -0.1185  0.2976 -0.5646
 1213SOL    HW115101   2.032   0.909  13.330  0.1609 -0.5419 -1.5151
 1213SOL    HW215102   1.948   0.984  13.225  0.3453  0.1193 -0.7033
 1214SOL     OW15103   0.009   0.767   5.175  0.3902 -0.1978 -0.0819
 1214SOL    HW115104   4.716   0.691   5.119  3.4506  0.0913 -1.4651
 1214SOL    HW215105   0.098   0.738   5.196  0.0618  0.3242  2.0340
 1215SOL     OW15106   1.230   4.273   2.922  0.4552  0.3213 -0.0958
 1215SOL    HW115107   1.193   4.211   2.859 -0.7425  0.7104  0.2315
 1215SOL    HW215108   1.154   4.297   2.976  0.2270  1.0566 -0.7465
 1216SOL     OW15109   0.025   4.408   8.916 -0.1665  0.1674 -0.2469
 1216SOL    HW115110   0.037   4.409   9.011 -0.9631  0.3288 -0.1510
 1216SOL    HW215111   0.033   4.500   8.892 -0.6954  0.6064  1.2676
 1217SOL     OW15112   2.793   1.703  12.080 -0.5439 -0.2876 -0.1481
 1217SOL    HW115113   2.753   1.779  12.038  1.0223  0.5173 -0.1468
 1217SOL    HW215114   2.721   1.642  12.098 -0.2195 -1.3188 -2.3062
 1218SOL     OW15115   1.706   2.102  14.625  0.6500  0.5437  0.2845
 1218SOL    HW115116   1.745   2.112  14.538  0.3502  1.1830  0.2221
 1218SOL    HW215117   1.730   2.013  14.650  0.1754 -0.2495 -2.0896
 1219SOL     OW15118   4.313   1.851   3.019 -0.0085 -0.5766 -0.2821
 1219SOL    HW115119   4.285   1.829   3.108  0.6647  1.0269  0.3222
 1219SOL    HW215120   4.369   1.926   3.037 -1.6354  0.4366  0.5016
 1220SOL     OW15121   3.278   3.453   2.660 -0.1249  1.0633 -0.4878
 1220SOL    HW115122   3.265   3.488   2.571  3.0291 -1.5151 -1.9488
 1220SOL    HW215123   3.294   3.542   2.693  0.8423  0.3039  1.0587
 1221SOL     OW15124   3.543   2.895  13.681  0.8678  0.3002  0.5887
 1221SOL    HW115125   3.470   2.843  13.716  0.9101 -1.0563 -1.3513
 1221SOL    HW215126   3.519   2.933  13.597 -0.5396  1.3381  1.4717
 1222SOL     OW15127   4.491   2.503   5.563 -0.5477  0.9379 -0.3540
 1222SOL    HW115128   4.430   2.454   5.509  0.0235  0.5860 -0.6801
 1222SOL    HW215129   4.493   2.454   5.645 -1.3335  1.7176  0.1323
 1223SOL     OW15130   2.574   1.858  16.591  0.2177  0.0796 -0.0491
 1223SOL    HW115131   2.625   1.863  16.511 -0.3560 -2.5336 -0.5622
 1223SOL    HW215132   2.615   1.923  16.648 -1.6956  0.7972  0.5110
 1224SOL     OW15133   4.030   1.941   7.717 -0.1679 -0.0383  0.2506
 1224SOL    HW115134   3.974   2.011   7.684  1.6213  1.6062  0.7513
 1224SOL    HW215135   4.117   1.980   7.720 -0.5615  0.9385 -0.9540
 1225SOL     OW15136   2.375   4.247  11.305  0.3511 -0.2264 -0.5176
 1225SOL    HW115137   2.322   4.327  11.312 -1.0988 -1.2564  0.4332
 1225SOL    HW215138   2.417   4.266  11.222  2.2573 -0.3458  0.4289
 1226SOL     OW15139   2.194   3.734   6.482  0.5534 -0.2114  0.6134
 1226SOL    HW115140   2.149   3.764   6.403 -0.6000  0.8124  1.6570
 1226SOL    HW215141   2.255   3.802   6.510  1.2581 -1.4320  2.0650
 1227SOL     OW15142   1.496   1.817   3.436  0.1074  0.3543 -0.1322
 1227SOL    HW115143   1.440   1.893   3.451 -1.2796 -0.5080 -0.8735
 1227SOL    HW215144   1.519   1.794   3.526 -2.5848 -0.2227  0.4170
 1228SOL     OW15145   0.072   1.460   8.893  0.7338  0.1391  0.1070
 1228SOL    HW115146   0.164   1.485   8.903  0.7448  0.2730 -0.3352
 1228SOL    HW215147   0.018   1.539   8.900  0.3056 -0.2154  0.7850
 1229SOL     OW15148   3.619   3.867   9.347  0.4320  0.3667 -0.1549
 1229SOL    HW115149   3.614   3.950   9.299 -1.3101  1.3845  1.7910
 1229SOL    HW215150   3.583   3.893   9.431 -0.2400 -0.4462 -0.1973
 1230SOL     OW15151   4.311   3.330  16.502 -0.1413  0.6182 -0.4374
 1230SOL    HW115152   4.355   3.406  16.462 -1.4327  0.4235 -2.2358
 1230SOL    HW215153   4.233   3.370  16.540 -0.1798  1.3690 -1.3033
 1231SOL     OW15154   1.580   0.491  11.742  0.1735 -0.6258  0.1271
 1231SOL    HW115155   1.485   0.499  11.744  0.1742 -0.1854 -1.5391
 1231SOL    HW215156   1.602   0.404  11.711  0.1196 -0.9765  1.0671
 1232SOL     OW15157   3.694   3.920   5.835  0.1998  0.9047 -0.9735
 1232SOL    HW115158   3.695   3.838   5.884 -2.9194  0.1834 -2.1274
 1232SOL    HW215159   3.600   3.938   5.838  0.4109  2.0279 -1.1511
 1233SOL     OW15160   2.431   2.723  11.957  0.0823  0.1347  0.2831
 1233SOL    HW115161   2.438   2.818  11.946  1.0939  0.0924  0.5999
 1233SOL    HW215162   2.351   2.709  11.906 -0.0906 -0.0994  0.6152
 1234SOL     OW15163   1.034   2.139   2.673 -0.3688  0.2402  0.2758
 1234SOL    HW115164   1.040   2.107   2.583 -1.9879 -2.2248  1.0539
 1234SOL    HW215165   0.952   2.102   2.706  0.0763 -0.5233  0.5342
 1235SOL     OW15166   1.388   4.680  17.633  0.4314 -0.8326 -0.0366
 1235SOL    HW115167   1.443   4.697   0.006 -0.5635  0.5678  0.3703
 1235SOL    HW215168   1.410   4.590  17.611 -1.7525 -1.9435  2.3469
 1236SOL     OW15169   2.291   4.627  13.945 -0.4041  0.0209  0.5356
 1236SOL    HW115170   2.271   4.700  14.004 -1.5194  0.9058 -0.9365
 1236SOL    HW215171   2.282   4.552  14.003 -2.9140 -2.8595 -3.5934
 1237SOL     OW15172   2.481   4.213   3.830 -0.2357 -0.1111  0.0403
 1237SOL    HW115173   2.557   4.175   3.786  0.0453 -0.5289  0.8824
 1237SOL    HW215174   2.453   4.268   3.757  1.0684  0.0171 -0.3480
 1238SOL     OW15175   4.249   0.390   3.293 -0.1761 -0.2559  0.0701
 1238SOL    HW115176   4.306   0.316   3.310 -0.5414  0.0717  2.6771
 1238SOL    HW215177   4.239   0.419   3.383 -0.5349  0.7375 -0.2855
 1239SOL     OW15178   2.650   4.281  16.026  0.0692 -0.4366 -0.2094
 1239SOL    HW115179   2.637   4.376  16.020 -0.8820 -0.4001  2.1469
 1239SOL    HW215180   2.740   4.289  16.058 -0.3854 -1.7612  1.4285
 1240SOL     OW15181   4.567   1.349  17.339  0.2452  0.4195 -0.2632
 1240SOL    HW115182   4.585   1.396  17.420 -1.3725 -0.9011  0.8601
 1240SOL    HW215183   4.474   1.348  17.316  0.5080 -2.3890 -1.3022
 1241SOL     OW15184   1.101   0.159   4.346  0.7499 -0.0641 -0.0182
 1241SOL    HW115185   1.161   0.088   4.322  1.0393  0.4317 -0.8012
 1241SOL    HW215186   1.014   0.121   4.354  0.2577  1.3416  1.4054
 1242SOL     OW15187   1.672   3.727  15.337  0.2874 -0.4214  0.2398
 1242SOL    HW115188   1.720   3.796  15.381 -1.8584  1.3942 -0.2444
 1242SOL    HW215189   1.743   3.663  15.333  0.4158 -0.2906  0.5060
 1243SOL     OW15190   1.649   1.468   1.821  0.0644 -0.2913 -0.3538
 1243SOL    HW115191   1.595   1.400   1.782  0.6365  0.2205 -2.0273
 1243SOL    HW215192   1.595   1.543   1.800  0.4235  0.5179  1.6127
 1244SOL     OW15193   4.388   1.685   2.150  0.2814  0.1459  0.0225
 1244SOL    HW115194   4.462   1.651   2.101  1.3093  2.0551  0.2327
 1244SOL    HW215195   4.406   1.779   2.151 -0.7866  0.3516  0.3915
 1245SOL     OW15196   4.622   3.764   2.629 -0.1632 -0.1445 -0.5531
 1245SOL    HW115197   4.563   3.689   2.629 -1.2574  0.7181  0.1342
 1245SOL    HW215198   4.576   3.829   2.682 -1.5007 -1.5438 -0.0082
 1246SOL     OW15199   0.684   0.207  12.416 -0.3526  0.2681 -0.5447
 1246SOL    HW115200   0.676   0.254  12.333  1.1878 -0.8452 -1.3423
 1246SOL    HW215201   0.658   0.280  12.471 -1.0953  1.0523 -1.9423
 1247SOL     OW15202   4.508   3.973   3.459  0.0524 -0.0941  0.5469
 1247SOL    HW115203   4.530   3.928   3.540  0.3896 -1.6240 -0.4029
 1247SOL    HW215204   4.560   4.054   3.461  0.7576 -0.5773  2.1990
 1248SOL     OW15205   1.336   0.062   0.330  0.0835 -0.2102 -0.2748
 1248SOL    HW115206   1.258   0.107   0.297 -0.6268 -1.4297 -0.3003
 1248SOL    HW215207   1.308   0.025   0.414  0.4377 -0.4397 -0.2577
 1249SOL     OW15208   0.590   1.526  17.480  0.0426 -0.3456  0.3289
 1249SOL    HW115209   0.586   1.440  17.523 -3.2117 -0.5039 -0.2781
 1249SOL    HW215210   0.636   1.572  17.550 -0.8750 -0.1818  0.8275
 1250SOL     OW15211   1.962   1.910   3.448 -0.0686 -0.1258  0.1659
 1250SOL    HW115212   1.890   1.851   3.424  2.2669 -2.4839 -1.0782
 1250SOL    HW215213   1.984   1.939   3.359  0.7296  1.8421  1.0093
 1251SOL     OW15214   4.611   2.657   7.640 -0.6440  0.1589  0.6093
 1251SOL    HW115215   4.597   2.743   7.678 -2.5910 -1.1583  2.8866
 1251SOL    HW215216   4.667   2.610   7.702  0.1792  0.5536  0.1639
 1252SOL     OW15217   4.144   0.747   5.291 -0.0671  0.1374 -0.6555
 1252SOL    HW115218   4.194   0.816   5.248 -1.0708  1.2798  0.0061
 1252SOL    HW215219   4.171   0.743   5.382 -1.2586 -0.6258 -0.3263
 1253SOL     OW15220   4.515   4.663   8.823  0.5327  0.1694  0.6015
 1253SOL    HW115221   4.452   4.591   8.825  0.4891  0.1559 -1.2188
 1253SOL    HW215222   4.472   0.005   8.876  2.3543  2.6481 -1.0661
 1254SOL     OW15223   2.307   3.291   4.220  0.3905  0.3953 -0.0397
 1254SOL    HW115224   2.254   3.350   4.274 -0.1003  0.0733 -0.1739
 1254SOL    HW215225   2.354   3.358   4.170  2.0584  1.1202  2.4924
 1255SOL     OW15226   2.814   0.666  15.466  0.0150  0.3534  0.2444
 1255SOL    HW115227   2.826   0.733  15.533  0.7298  1.7453 -1.2851
 1255SOL    HW215228   2.893   0.612  15.475 -0.4289 -0.3628 -0.0946
 1256SOL     OW15229   4.600   4.162   3.928 -0.2251  0.6041 -0.3914
 1256SOL    HW115230   4.656   4.158   3.851 -0.4192  0.2433 -0.5165
 1256SOL    HW215231   4.560   4.248   3.926  0.9438  1.1254 -1.0975
 1257SOL     OW15232   2.656   0.533   8.241  0.2454 -0.1145  0.1687
 1257SOL    HW115233   2.590   0.534   8.171  1.0235  0.4930 -0.5553
 1257SOL    HW215234   2.637   0.613   8.290  2.0371  0.1030  0.4973
 1258SOL     OW15235   1.134   1.353   2.657 -0.3643 -0.0496 -0.3695
 1258SOL    HW115236   1.132   1.257   2.665  2.4054 -0.0747  0.1976
 1258SOL    HW215237   1.221   1.385   2.633  0.8108 -2.1660  1.0337
 1259SOL     OW15238   0.934   1.858   5.861 -0.6375 -0.4489  0.2738
 1259SOL    HW115239   1.005   1.895   5.913 -1.1195  0.3185  0.3819
 1259SOL    HW215240   0.973   1.855   5.774  0.8352  1.9404  0.8686
 1260SOL     OW15241   1.732   4.599   5.852  0.4044 -0.0880 -0.5538
 1260SOL    HW115242   1.723   4.576   5.759  0.0819 -0.2866 -0.4767
 1260SOL    HW215243   1.779   4.682   5.851 -1.4827  1.0085  0.7499
 1261SOL     OW15244   0.295   4.058   8.709  0.3606 -0.3718  0.3929
 1261SOL    HW115245   0.365   4.091   8.653  0.7079 -1.7576  0.0059
 1261SOL    HW215246   0.273   4.143   8.748  0.3091 -0.7314  1.1420
 1262SOL     OW15247   0.125   0.351   2.428 -0.0184 -0.4833 -0.1904
 1262SOL    HW115248   0.055   0.412   2.450 -0.7058 -2.2193  2.4564
 1262SOL    HW215249   0.078   0.272   2.453  2.6461 -1.8175  0.6257
 1263SOL     OW15250   1.995   1.091  11.492 -0.1438  0.2453 -0.2579
 1263SOL    HW115251   1.904   1.096  11.522 -0.7073  0.0024 -1.8877
 1263SOL    HW215252   2.045   1.094  11.573 -1.1463 -0.4696  0.3865
 1264SOL     OW15253   0.897   2.622   6.779  0.3498  0.7233 -0.4969
 1264SOL    HW115254   0.908   2.706   6.823  0.2774  1.1373 -1.2586
 1264SOL    HW215255   0.983   2.582   6.762  1.3786  1.5135  2.8314
 1265SOL     OW15256   2.116   1.154  11.747  0.2003  0.3462  0.7773
 1265SOL    HW115257   2.047   1.115  11.801  0.2684  0.6439  1.0740
 1265SOL    HW215258   2.147   1.233  11.790  1.3150 -0.1048  0.8076
 1266SOL     OW15259   0.232   1.175  13.246  0.4283 -0.4193 -0.1538
 1266SOL    HW115260   0.220   1.220  13.162  0.7521  0.3076  0.1841
 1266SOL    HW215261   0.179   1.096  13.245 -2.0993  1.2657  0.4145
 1267SOL     OW15262   2.435   4.156  15.858 -0.2844 -0.4603  0.1271
 1267SOL    HW115263   2.436   4.081  15.917 -1.0386  1.3190  2.3783
 1267SOL    HW215264   2.497   4.212  15.904 -1.3938  0.5841  0.3434
 1268SOL     OW15265   2.899   4.306   9.559  0.3156 -0.2766 -0.4332
 1268SOL    HW115266   2.909   4.384   9.506  0.2340  0.9712  1.3943
 1268SOL    HW215267   2.942   4.236   9.509 -0.7069 -2.2814  1.4468
 1269SOL     OW15268   4.697   1.154   6.144  0.2248 -0.1559 -0.1404
 1269SOL    HW115269   4.712   1.083   6.083 -1.2654 -1.2231  0.7300
 1269SOL    HW215270   4.615   1.186   6.108  0.5099  0.5178 -0.1876
 1270SOL     OW15271   0.130   0.915  15.948 -0.5204  0.1871  0.7366
 1270SOL    HW115272   0.193   0.969  15.900 -0.6836  0.9000  1.3083
 1270SOL    HW215273   0.177   0.836  15.974  0.4951  1.2854  2.2629
 1271SOL     OW15274   3.074   2.934   8.753  0.1781 -0.0838 -0.1274
 1271SOL    HW115275   3.151   2.908   8.805 -0.6887 -1.6706  0.3771
 1271SOL    HW215276   3.093   3.019   8.715  0.6925  0.5171  1.4502
 1272SOL     OW15277   2.473   1.745   8.299  0.1518 -0.1747  0.3471
 1272SOL    HW115278   2.403   1.766   8.361  1.2081  1.5884  0.9387
 1272SOL    HW215279   2.448   1.794   8.221 -0.5316 -0.4783  0.3772
 1273SOL     OW15280   0.980   1.789  14.403  0.3603 -0.4224  0.0168
 1273SOL    HW115281   1.000   1.774  14.310 -1.8602 -2.3610 -0.1724
 1273SOL    HW215282   0.898   1.739  14.412  0.5003 -0.8562 -1.1521
 1274SOL     OW15283   4.225   4.574   5.506 -0.3314  0.3871  0.6798
 1274SOL    HW115284   4.189   4.488   5.484  1.9729 -0.4008 -0.0675
 1274SOL    HW215285   4.145   4.620   5.531 -1.5992 -1.1776 -0.4482
 1275SOL     OW15286   4.526   4.690   7.731  0.3676 -0.0732  0.3919
 1275SOL    HW115287   4.549   4.599   7.710 -1.0165 -0.6138  1.2330
 1275SOL    HW215288   4.486   4.711   7.646  0.6625 -0.0904  0.2480
 1276SOL     OW15289   3.047   1.514   7.148  0.5863 -0.6600  0.8090
 1276SOL    HW115290   3.012   1.437   7.192  0.3573 -0.4844  0.9340
 1276SOL    HW215291   2.971   1.572   7.152  2.0176  1.4669 -2.5434
 1277SOL     OW15292   1.717   1.636  12.077  0.5351  0.1623  0.1619
 1277SOL    HW115293   1.733   1.606  11.988  0.8701  1.2269 -0.1372
 1277SOL    HW215294   1.683   1.719  12.043 -2.3614 -1.3913 -0.7882
 1278SOL     OW15295   2.767   2.055  13.750 -0.5739  0.2179  0.6401
 1278SOL    HW115296   2.702   2.053  13.680  0.7141 -0.6409 -0.5184
 1278SOL    HW215297   2.720   2.017  13.825 -0.5465 -1.6364 -0.2944
 1279SOL     OW15298   4.453   2.177   5.299 -0.3844  0.6100 -0.3018
 1279SOL    HW115299   4.380   2.223   5.340 -0.2231  0.2379  0.3969
 1279SOL    HW215300   4.530   2.210   5.346 -0.9682  1.9159 -0.2445
 1280SOL     OW15301   2.263   1.223   2.804 -0.0236 -0.1780  0.1053
 1280SOL    HW115302   2.309   1.305   2.819 -1.0460  0.5323 -0.6873
 1280SOL    HW215303   2.178   1.259   2.828 -0.7418  0.3882 -3.2118
 1281SOL     OW15304   2.847   3.542  15.091  0.2312  0.2980 -0.6908
 1281SOL    HW115305   2.825   3.615  15.033  0.3868  1.1710  0.3601
 1281SOL    HW215306   2.943   3.540  15.092  0.1675 -2.3215  0.0653
 1282SOL     OW15307   3.621   1.146   0.292 -0.1959  0.3783  0.0268
 1282SOL    HW115308   3.667   1.096   0.359  0.3304 -0.8758 -1.2685
 1282SOL    HW215309   3.605   1.076   0.228 -1.9775  1.1486 -0.3725
 1283SOL     OW15310   1.447   2.214  12.281  0.8057  0.5512  0.4096
 1283SOL    HW115311   1.355   2.201  12.303  0.6963 -0.8807 -0.8688
 1283SOL    HW215312   1.433   2.303  12.247 -1.0328 -0.6803 -2.1381
 1284SOL     OW15313   1.622   4.548   9.918  0.6899  0.2860 -0.1173
 1284SOL    HW115314   1.697   4.607   9.910  1.9855 -1.4758 -0.8554
 1284SOL    HW215315   1.657   4.478   9.864  1.1078  2.7839 -3.0293
 1285SOL     OW15316   0.881   1.800  15.629  0.1672 -0.3749 -0.1922
 1285SOL    HW115317   0.974   1.816  15.614  0.2372 -2.2836 -1.7586
 1285SOL    HW215318   0.856   1.738  15.560  0.1248 -1.4833  0.8123
 1286SOL     OW15319   4.631   0.205   2.459  0.4540 -0.0215  0.0815
 1286SOL    HW115320   4.661   0.203   2.550 -1.2970  0.0915  0.6616
 1286SOL    HW215321   4.545   0.242   2.477 -0.3944 -1.5467 -0.8501
 1287SOL     OW15322   1.978   2.955   6.876 -0.4143  0.1206  0.6002
 1287SOL    HW115323   2.036   2.936   6.802  2.4687 -1.0211  3.1664
 1287SOL    HW215324   1.896   2.975   6.832  0.7710 -0.8202 -2.0531
 1288SOL     OW15325   2.271   4.570  15.136 -0.2157 -0.2276  0.0918
 1288SOL    HW115326   2.315   4.655  15.146 -1.0518  0.3253 -0.8879
 1288SOL    HW215327   2.288   4.550  15.044  0.5593  2.3408 -0.3414
 1289SOL     OW15328   3.035   3.198   4.259 -0.0629  0.6071  0.2959
 1289SOL    HW115329   3.048   3.276   4.313  0.0764  1.3208 -0.7568
 1289SOL    HW215330   3.059   3.229   4.172 -0.7855  0.6772  0.1236
 1290SOL     OW15331   2.752   1.254  17.379 -0.0286 -0.1872 -0.0519
 1290SOL    HW115332   2.701   1.259  17.460 -1.7762 -0.5562 -1.1283
 1290SOL    HW215333   2.674   1.261  17.324  1.2273 -1.0883 -1.9639
 1291SOL     OW15334   4.336   2.726   4.647  0.3422 -0.3170 -0.4501
 1291SOL    HW115335   4.282   2.785   4.699  0.8203  1.0032 -1.4526
 1291SOL    HW215336   4.397   2.782   4.598  0.6008 -1.4039 -1.3803
 1292SOL     OW15337   2.003   1.438   2.172 -0.0717 -0.1640  0.0165
 1292SOL    HW115338   2.092   1.403   2.181  0.5165  1.3324  0.1323
 1292SOL    HW215339   1.997   1.436   2.076  0.2256  1.6420 -0.0429
 1293SOL     OW15340   1.817   2.876  13.852 -0.0581 -0.7129  0.5522
 1293SOL    HW115341   1.741   2.899  13.904 -1.9566 -0.1256 -2.4575
 1293SOL    HW215342   1.876   2.950  13.866 -0.4724  0.0471 -1.7963
 1294SOL     OW15343   0.422   4.463   2.075 -0.4171 -0.1759  0.0331
 1294SOL    HW115344   0.464   4.378   2.072 -1.0873 -0.5073  0.1063
 1294SOL    HW215345   0.442   4.491   1.986  1.4780 -2.1876 -0.1650
 1295SOL     OW15346   0.473   1.713  10.567  0.2379 -0.4186 -0.1118
 1295SOL    HW115347   0.381   1.722  10.594  0.1510  0.2947 -0.6419
 1295SOL    HW215348   0.508   1.652  10.632  0.3979 -0.2782 -0.0659
 1296SOL     OW15349   3.605   4.623  15.091 -0.1284 -0.0545 -0.2934
 1296SOL    HW115350   3.685   4.572  15.086 -0.5380 -0.3442 -3.3578
 1296SOL    HW215351   3.538   4.558  15.070  0.3901 -0.7970  0.3511
 1297SOL     OW15352   0.765   2.211  16.793 -0.0527  0.1387  0.4303
 1297SOL    HW115353   0.729   2.271  16.858 -3.2943  0.5513 -1.7721
 1297SOL    HW215354   0.854   2.215  16.829 -0.4896  0.6465  1.4698
 1298SOL     OW15355   3.468   3.643  14.732 -0.2553  0.4646  0.0471
 1298SOL    HW115356   3.382   3.678  14.710 -0.3585  0.6796  0.7974
 1298SOL    HW215357   3.492   3.678  14.817  0.6060 -2.1077  0.8717
 1299SOL     OW15358   1.422   4.682  12.485 -0.4200 -0.3819  0.2666
 1299SOL    HW115359   1.347   0.015  12.471  0.0109  0.2930  0.8407
 1299SOL    HW215360   1.493   0.017  12.504 -1.3344  0.4813  0.8811
 1300SOL     OW15361   0.617   0.286  17.232 -0.0665 -0.9362 -0.4545
 1300SOL    HW115362   0.622   0.274  17.138 -1.0424  2.5648 -0.9349
 1300SOL    HW215363   0.583   0.202  17.262  1.1664 -0.1241  3.3642
 1301SOL     OW15364   1.239   0.614   0.973 -0.7552  0.1845  0.3440
 1301SOL    HW115365   1.193   0.697   0.959  1.2902  1.2200 -0.2207
 1301SOL    HW215366   1.166   0.562   0.941 -0.9169 -0.4937  1.8035
 1302SOL     OW15367   1.924   2.721  13.658  0.4964 -0.5293  0.6708
 1302SOL    HW115368   1.882   2.753  13.738  0.3244 -1.3643  0.9137
 1302SOL    HW215369   1.968   2.802  13.636 -0.5719 -0.0764  0.2068
 1303SOL     OW15370   2.116   4.355   8.896 -0.0372  0.0531 -0.4737
 1303SOL    HW115371   2.211   4.343   8.900 -0.0745  0.3184  1.0755
 1303SOL    HW215372   2.101   4.435   8.945  1.0929 -0.4507  0.6766
 1304SOL     OW15373   1.343   2.589   7.266 -0.1856 -0.2869 -0.0950
 1304SOL    HW115374   1.301   2.503   7.264 -0.7825 -0.0147  0.6004
 1304SOL    HW215375   1.319   2.618   7.178 -1.1591 -0.0102  0.2592
 1305SOL     OW15376   0.707   2.793   6.152  0.0259  0.2588  0.2479
 1305SOL    HW115377   0.784   2.823   6.201  0.4723  2.6287 -1.8567
 1305SOL    HW215378   0.740   2.742   6.079 -1.2133 -1.4538  0.8864
 1306SOL     OW15379   1.349   3.216   3.223  0.0134 -0.4798 -0.5021
 1306SOL    HW115380   1.306   3.136   3.193 -1.1803  0.0926 -0.3397
 1306SOL    HW215381   1.437   3.181   3.235  0.5508  0.5906 -1.2778
 1307SOL     OW15382   3.502   0.225   4.222  0.5716 -0.3989 -0.3945
 1307SOL    HW115383   3.444   0.236   4.297  0.6084  2.1368 -0.7181
 1307SOL    HW215384   3.579   0.192   4.267  0.9811  1.0593 -0.0168
 1308SOL     OW15385   2.429   1.506  16.037 -0.0741 -0.0319 -0.5783
 1308SOL    HW115386   2.334   1.498  16.032 -0.2080 -0.1749  1.9295
 1308SOL    HW215387   2.441   1.594  16.001 -0.7723 -0.4170 -1.7468
 1309SOL     OW15388   2.686   2.360  13.616 -0.4671  0.1641  0.3203
 1309SOL    HW115389   2.780   2.376  13.610  0.0495 -2.2512  1.8509
 1309SOL    HW215390   2.679   2.269  13.590  0.0639  0.2777 -0.2148
 1310SOL     OW15391   2.354   3.743   3.894 -0.2620 -0.4579  0.3601
 1310SOL    HW115392   2.440   3.702   3.887 -0.0400 -0.4841  3.5312
 1310SOL    HW215393   2.377   3.816   3.836 -1.7611  0.3764  0.7999
 1311SOL     OW15394   2.420   2.865   7.007  0.2111  0.0733  0.0246
 1311SOL    HW115395   2.483   2.801   6.976 -0.8161 -1.8060  1.7833
 1311SOL    HW215396   2.462   2.948   6.985  0.7884  0.2054  1.6061
 1312SOL     OW15397   1.072   2.223   1.848  0.3854  0.3198 -0.3284
 1312SOL    HW115398   1.061   2.279   1.925 -2.0391 -0.0424 -0.4159
 1312SOL    HW215399   1.027   2.273   1.781 -1.7867  1.0721  1.6978
 1313SOL     OW15400   3.806   4.660  13.326  0.4027 -0.0305  0.7146
 1313SOL    HW115401   3.854   4.650  13.244  0.4867  0.1061  0.7475
 1313SOL    HW215402   3.718   4.674  13.290 -0.5578  0.0837  3.0907
 1314SOL     OW15403   2.275   1.474   6.292  0.8917  0.1309 -0.0458
 1314SOL    HW115404   2.357   1.508   6.258  0.2035 -0.8620 -2.7167
 1314SOL    HW215405   2.225   1.553   6.314  1.0453  0.0659  0.5265
 1315SOL     OW15406   0.055   2.970   0.590 -0.4494 -0.0322  0.2166
 1315SOL    HW115407   4.692   2.986   0.558 -0.3295 -0.7080 -0.4563
 1315SOL    HW215408   0.074   3.027   0.664 -1.0816  0.8316 -0.2961
 1316SOL     OW15409   1.438   0.213   1.745  0.4925  0.4885  0.1762
 1316SOL    HW115410   1.417   0.306   1.734 -1.4264  0.1823  1.3040
 1316SOL    HW215411   1.419   0.200   1.838  1.0561 -3.0040 -0.1955
 1317SOL     OW15412   1.367   3.634  11.680  0.0075 -0.1873  0.4926
 1317SOL    HW115413   1.441   3.694  11.685  0.0276 -0.2746  1.1719
 1317SOL    HW215414   1.363   3.619  11.585 -2.6900 -0.0504  0.5820
 1318SOL     OW15415   1.283   4.121  10.307  0.5518  0.7771  0.4020
 1318SOL    HW115416   1.292   4.028  10.284  1.3258  1.3692 -1.6610
 1318SOL    HW215417   1.236   4.101  10.389 -1.8688  0.7008 -1.0153
 1319SOL     OW15418   2.947   0.925   4.766 -1.1666 -0.0958 -0.1754
 1319SOL    HW115419   2.932   0.919   4.671  1.9825 -0.7727 -0.6461
 1319SOL    HW215420   2.995   0.842   4.765 -0.4636  0.3134 -1.0196
 1320SOL     OW15421   1.475   1.870  15.368 -0.5172  0.1189  0.4409
 1320SOL    HW115422   1.554   1.868  15.313 -0.1951 -0.4316  0.9264
 1320SOL    HW215423   1.426   1.808  15.315 -1.7069  2.3373 -1.0166
 1321SOL     OW15424   2.721   3.476   7.223 -0.6589  0.4824  0.1224
 1321SOL    HW115425   2.681   3.451   7.306 -0.4892 -2.4149 -0.6620
 1321SOL    HW215426   2.812   3.457   7.246 -0.9006 -0.9125 -0.0711
 1322SOL     OW15427   0.383   2.446   1.120 -0.0251 -0.4417 -0.1625
 1322SOL    HW115428   0.341   2.485   1.043 -2.5562  0.0182  1.4182
 1322SOL    HW215429   0.403   2.362   1.080 -2.3173 -0.7751 -0.6238
 1323SOL     OW15430   2.154   4.638  16.341  0.1881 -0.0532 -0.8591
 1323SOL    HW115431   2.241   4.659  16.374 -0.2517  1.7279 -0.7983
 1323SOL    HW215432   2.107   4.651  16.423  0.1241 -0.3631 -0.8483
 1324SOL     OW15433   0.676   3.309   7.623  0.4434 -0.2290 -0.0038
 1324SOL    HW115434   0.691   3.218   7.598  1.5751 -0.5561  1.8637
 1324SOL    HW215435   0.624   3.295   7.703 -1.7662 -0.6247 -1.5069
 1325SOL     OW15436   0.488   1.062   2.412 -0.0216 -0.0073  0.3550
 1325SOL    HW115437   0.520   0.994   2.473  3.2607  0.2868 -1.0077
 1325SOL    HW215438   0.536   1.032   2.335 -0.1599 -1.2346  0.7322
 1326SOL     OW15439   3.535   3.849   7.541 -0.1899 -0.2387  0.2752
 1326SOL    HW115440   3.556   3.882   7.453 -1.0245 -0.7576 -0.1148
 1326SOL    HW215441   3.443   3.871   7.552  0.1672  1.5310 -0.3710
 1327SOL     OW15442   1.206   3.462  12.929  0.5282  0.0647  0.2123
 1327SOL    HW115443   1.287   3.512  12.940  0.4751  0.8279 -2.6999
 1327SOL    HW215444   1.211   3.450  12.834  2.1406 -0.4738  0.3633
 1328SOL     OW15445   1.921   2.626   8.563 -0.0385 -0.3008 -0.1141
 1328SOL    HW115446   1.984   2.554   8.570 -0.6468 -0.7433  0.8005
 1328SOL    HW215447   1.894   2.631   8.471 -0.9197 -0.6780  0.1299
 1329SOL     OW15448   4.075   0.116   1.725 -0.0232 -0.0379 -0.2153
 1329SOL    HW115449   3.987   0.087   1.750  0.9504 -1.8777  1.0193
 1329SOL    HW215450   4.127   0.048   1.768  0.8207 -0.2749 -1.6131
 1330SOL     OW15451   3.331   2.473   3.978  0.7955 -0.4641 -0.4049
 1330SOL    HW115452   3.293   2.390   4.006  1.0653 -0.1892  0.7824
 1330SOL    HW215453   3.250   2.525   3.977  1.5513  0.6790 -3.0055
 1331SOL     OW15454   0.710   2.942   9.111 -0.6297 -0.0182  0.0155
 1331SOL    HW115455   0.641   2.982   9.165 -2.4055 -1.5477 -1.1334
 1331SOL    HW215456   0.766   3.015   9.084 -1.0699 -0.0152 -0.8874
 1332SOL     OW15457   2.024   3.059   8.789 -0.1258 -0.1059 -0.3938
 1332SOL    HW115458   1.990   3.038   8.876 -1.0418  0.9209 -0.5069
 1332SOL    HW215459   1.987   3.002   8.722 -1.4310 -0.1139  0.3340
 1333SOL     OW15460   3.302   4.419   8.688 -0.0849 -0.4147 -0.7389
 1333SOL    HW115461   3.256   4.495   8.653  1.8226  0.6951 -0.7728
 1333SOL    HW215462   3.326   4.376   8.606 -1.8537  1.4754 -2.2422
 1334SOL     OW15463   3.179   1.670   3.941  0.8185 -0.0310  0.4360
 1334SOL    HW115464   3.256   1.723   3.965  1.1964 -0.1518 -0.5135
 1334SOL    HW215465   3.215   1.603   3.883 -0.9402 -2.0061  1.6472
 1335SOL     OW15466   4.239   1.208  15.689  0.1831 -0.4715 -0.0325
 1335SOL    HW115467   4.221   1.248  15.604  0.9719 -2.3095 -1.0702
 1335SOL    HW215468   4.295   1.133  15.669 -0.7714 -1.2669  0.2757
 1336SOL     OW15469   4.513   1.571   3.356  0.5444 -0.1711  0.4198
 1336SOL    HW115470   4.489   1.546   3.266 -0.1270  1.6166  0.1018
 1336SOL    HW215471   4.429   1.596   3.394  0.5370  0.4771 -0.0152
 1337SOL     OW15472   4.082   1.375   6.744 -1.0715  0.3109  0.1796
 1337SOL    HW115473   4.099   1.297   6.690 -0.2778  0.0146  0.8523
 1337SOL    HW215474   4.170   1.412   6.755 -0.4408 -0.5175 -1.8465
 1338SOL     OW15475   2.342   0.052   9.773  0.0788  0.7743  0.1348
 1338SOL    HW115476   2.371   0.134   9.815  0.0823  1.7148 -1.6930
 1338SOL    HW215477   2.424   0.004   9.782  0.1454  0.7527 -0.6174
 1339SOL     OW15478   2.811   0.159   3.900  0.1617 -0.3767 -0.0842
 1339SOL    HW115479   2.789   0.188   3.989  1.6869 -0.6147  0.3780
 1339SOL    HW215480   2.813   0.242   3.853 -0.5256 -0.2331  0.1424
 1340SOL     OW15481   0.294   2.186   3.823  0.0676  0.2624  0.4715
 1340SOL    HW115482   0.249   2.183   3.738  1.2410  2.6023 -0.2660
 1340SOL    HW215483   0.275   2.278   3.845 -1.7632  0.4505 -1.8706
 1341SOL     OW15484   0.103   0.473   3.221  0.2100  0.3669 -0.2547
 1341SOL    HW115485   0.122   0.446   3.310  1.2155 -1.8741 -1.1451
 1341SOL    HW215486   0.192   0.486   3.189  0.4222 -0.0627  0.1800
 1342SOL     OW15487   2.352   2.691  15.457  0.3373  0.0294 -0.0046
 1342SOL    HW115488   2.385   2.780  15.464 -0.8274  0.2717  2.2288
 1342SOL    HW215489   2.377   2.666  15.368 -1.2967  0.9478 -0.7208
 1343SOL     OW15490   3.902   2.429  16.870  0.1101 -0.5382 -0.0632
 1343SOL    HW115491   3.860   2.448  16.953 -1.3600  1.0256 -1.1535
 1343SOL    HW215492   3.994   2.446  16.890 -0.0905 -0.3389  0.6758
 1344SOL     OW15493   4.300   2.187  13.220  0.5987 -0.0343 -0.5078
 1344SOL    HW115494   4.275   2.123  13.152  1.5113 -0.4612 -0.4337
 1344SOL    HW215495   4.336   2.121  13.279 -0.0748  1.4183  1.5172
 1345SOL     OW15496   1.698   3.636   4.308  0.1541  0.0803 -0.1064
 1345SOL    HW115497   1.700   3.684   4.225 -0.1862  1.6571  0.7839
 1345SOL    HW215498   1.792   3.642   4.326  0.3262 -1.4870 -0.5215
 1346SOL     OW15499   1.249   0.647   2.333 -0.0777 -0.4950  0.3554
 1346SOL    HW115500   1.191   0.579   2.301  2.2595 -3.0113  1.4773
 1346SOL    HW215501   1.336   0.609   2.318  0.2185 -0.2826  1.5034
 1347SOL     OW15502   0.321   1.605   8.041  0.6004 -0.5703  0.1550
 1347SOL    HW115503   0.327   1.511   8.028  1.4289 -0.9232  3.1943
 1347SOL    HW215504   0.382   1.616   8.113  0.4008 -2.4296  0.6062
 1348SOL     OW15505   0.025   4.166   6.551 -0.9301  0.2070 -0.3432
 1348SOL    HW115506   0.074   4.248   6.552 -1.1307  0.3208  0.0252
 1348SOL    HW215507   0.073   4.118   6.619 -0.2826 -2.1715 -2.5050
 1349SOL     OW15508   4.483   2.269  12.705  0.7072  0.3618  0.4749
 1349SOL    HW115509   4.539   2.285  12.629 -0.3687 -0.7974 -0.5847
 1349SOL    HW215510   4.467   2.357  12.738 -0.9855 -0.0965  0.8796
 1350SOL     OW15511   0.271   1.535  16.240  0.3702 -0.4093 -0.2539
 1350SOL    HW115512   0.214   1.470  16.283 -1.0732  0.8222 -0.3053
 1350SOL    HW215513   0.216   1.570  16.169  0.8716  0.4592 -0.2154
 1351SOL     OW15514   1.916   1.274   5.669  0.2047 -0.4176  0.1358
 1351SOL    HW115515   1.834   1.262   5.620 -0.7332  1.3223  1.2493
 1351SOL    HW215516   1.880   1.324   5.743  1.7292  1.4649 -0.3823
 1352SOL     OW15517   0.919   2.556   5.079 -0.2586 -0.2459  0.2926
 1352SOL    HW115518   0.987   2.541   5.145 -1.1044 -1.4333  0.9145
 1352SOL    HW215519   0.882   2.640   5.105 -1.4746 -0.2425 -1.4339
 1353SOL     OW15520   0.983   1.556  14.089 -0.1937 -0.4590 -0.3899
 1353SOL    HW115521   0.896   1.540  14.052 -0.8100 -0.6559  1.1303
 1353SOL    HW215522   1.024   1.558  14.003  0.3535  0.5466 -0.0985
 1354SOL     OW15523   4.461   0.198   7.389  0.6783 -0.2069 -0.4695
 1354SOL    HW115524   4.489   0.287   7.410 -2.4830  0.5855  0.2547
 1354SOL    HW215525   4.459   0.200   7.293  0.8706 -1.7416 -0.5097
 1355SOL     OW15526   0.376   3.720   6.904 -0.0444 -1.0509 -0.4915
 1355SOL    HW115527   0.414   3.808   6.905 -2.3506 -0.0491 -1.3360
 1355SOL    HW215528   0.443   3.679   6.851 -0.0093 -0.1903 -1.1091
 1356SOL     OW15529   0.844   3.141   4.107  0.3582  0.4635 -0.6918
 1356SOL    HW115530   0.910   3.086   4.148 -0.3289  0.9104  0.9889
 1356SOL    HW215531   0.843   3.111   4.016 -0.2898  3.5647 -1.7022
 1357SOL     OW15532   0.133   2.300   9.606 -0.0994  0.0246 -0.2027
 1357SOL    HW115533   0.092   2.318   9.521  0.2574 -1.3603 -0.6602
 1357SOL    HW215534   0.228   2.301   9.589 -0.3255 -0.3523 -1.5011
 1358SOL     OW15535   0.261   2.260   1.366 -0.2063  0.2380 -0.6572
 1358SOL    HW115536   0.350   2.268   1.399 -0.4774  0.1593  0.0849
 1358SOL    HW215537   0.225   2.349   1.364 -0.1304  0.2914  0.8198
 1359SOL     OW15538   4.666   3.571   3.258  0.4712  0.2978  0.2620
 1359SOL    HW115539   4.671   3.664   3.237  0.6773  0.0512 -0.7935
 1359SOL    HW215540   4.596   3.549   3.196  0.5916 -0.3582  0.3551
 1360SOL     OW15541   2.757   0.435   4.516  0.3516  0.3066 -0.2104
 1360SOL    HW115542   2.769   0.530   4.507 -0.7718  0.3955 -0.7924
 1360SOL    HW215543   2.662   0.430   4.519  0.4156 -0.5245  0.4818
 1361SOL     OW15544   0.845   2.665   6.534  0.3081  0.4865  0.7311
 1361SOL    HW115545   0.869   2.661   6.627 -0.2987 -0.3231  0.8492
 1361SOL    HW215546   0.901   2.735   6.500 -0.0802 -0.5378 -2.0484
 1362SOL     OW15547   2.051   3.860  11.398  0.2388 -0.3109 -0.1427
 1362SOL    HW115548   2.035   3.945  11.356  2.3412 -0.6306 -1.5949
 1362SOL    HW215549   2.125   3.888  11.451  0.6084  2.3248 -2.0646
 1363SOL     OW15550   2.596   1.876   5.197 -0.0583 -0.6958  0.5776
 1363SOL    HW115551   2.583   1.817   5.272  2.8943 -1.6444  0.3181
 1363SOL    HW215552   2.691   1.873   5.186  0.0624  2.1990  0.8725
 1364SOL     OW15553   1.101   4.307   8.680  0.2072 -0.1676 -0.5053
 1364SOL    HW115554   1.079   4.318   8.772  0.7639  3.6983 -0.8392
 1364SOL    HW215555   1.049   4.234   8.645 -1.2588  0.7315 -0.2044
 1365SOL     OW15556   0.049   3.081   2.689 -0.1787 -0.2141  0.2057
 1365SOL    HW115557   0.050   2.999   2.640 -2.0138 -2.0433  3.2183
 1365SOL    HW215558   0.069   3.149   2.625 -3.2597 -1.7403 -2.3841
 1366SOL     OW15559   1.724   4.020   4.875  0.9441 -0.3100  0.4421
 1366SOL    HW115560   1.640   4.054   4.907  1.4584  1.2573  0.1672
 1366SOL    HW215561   1.783   4.054   4.943  1.6442 -0.4392 -0.1103
 1367SOL     OW15562   3.050   0.412   9.914  0.1163  0.2236  0.2286
 1367SOL    HW115563   3.144   0.411   9.898  0.2388  1.3039  0.8728
 1367SOL    HW215564   3.044   0.439  10.005  0.7118 -0.4182  0.4583
 1368SOL     OW15565   2.794   1.045   5.128  0.1250  0.0542  0.3619
 1368SOL    HW115566   2.720   1.092   5.166 -1.3450 -2.7729  1.0602
 1368SOL    HW215567   2.755   1.005   5.050  1.3365 -2.8032  1.1909
 1369SOL     OW15568   2.514   0.214   5.558  0.0018 -0.3968  0.4149
 1369SOL    HW115569   2.445   0.242   5.619  0.5530 -0.3461  1.0104
 1369SOL    HW215570   2.508   0.120   5.574 -2.7432 -0.2321  0.4576
 1370SOL     OW15571   1.487   4.054  16.634 -0.1743 -0.5330 -0.1025
 1370SOL    HW115572   1.454   4.135  16.596  0.1366 -0.8803 -1.0999
 1370SOL    HW215573   1.415   3.992  16.621  0.8923 -1.7093 -0.3844
 1371SOL     OW15574   3.218   2.001   7.284 -0.3621  0.0595  0.3191
 1371SOL    HW115575   3.183   1.922   7.324  1.6461 -0.7694  0.4309
 1371SOL    HW215576   3.240   1.965   7.198  2.1887 -2.9896  2.2514
 1372SOL     OW15577   0.710   2.574   0.635  0.3716  0.8353 -0.0356
 1372SOL    HW115578   0.764   2.613   0.567 -0.1102  0.1262 -0.8146
 1372SOL    HW215579   0.779   2.565   0.701  1.1984 -0.6152 -1.1121
 1373SOL     OW15580   2.928   0.791   0.353 -0.4066 -0.0904 -0.0902
 1373SOL    HW115581   2.916   0.862   0.415 -3.3673  0.1868 -1.0172
 1373SOL    HW215582   3.016   0.809   0.320 -0.0719  0.8870  1.3600
 1374SOL     OW15583   2.134   0.564  12.880 -0.3341  0.0538 -0.0251
 1374SOL    HW115584   2.112   0.471  12.880  1.0109 -0.2718  0.8401
 1374SOL    HW215585   2.109   0.593  12.792  0.8851 -1.3113 -0.8243
 1375SOL     OW15586   1.142   4.543  10.678  0.0515 -0.4522 -0.0844
 1375SOL    HW115587   1.199   4.602  10.629  1.1144 -1.1171  0.3584
 1375SOL    HW215588   1.214   4.501  10.724 -1.3678 -2.7384  0.0796
 1376SOL     OW15589   2.675   1.623  17.323 -0.0520 -0.1099 -0.2780
 1376SOL    HW115590   2.611   1.625  17.394 -0.3827  1.5620 -0.6175
 1376SOL    HW215591   2.634   1.697  17.277 -1.0042 -0.0793  0.6076
 1377SOL     OW15592   3.542   4.486  11.172  0.0820  0.3812 -0.1699
 1377SOL    HW115593   3.596   4.486  11.250 -1.1496  0.9330  0.6824
 1377SOL    HW215594   3.552   4.575  11.137 -2.0675  0.4301 -0.6720
 1378SOL     OW15595   4.286   2.376   5.404  0.5874 -0.4764 -0.1897
 1378SOL    HW115596   4.258   2.458   5.364  1.3647 -0.1738 -0.1069
 1378SOL    HW215597   4.204   2.348   5.446  0.8003 -1.1294 -0.2212
 1379SOL     OW15598   3.135   2.566   6.104 -0.5470  0.1231 -0.3510
 1379SOL    HW115599   3.132   2.494   6.040 -2.2334 -0.5269  0.4602
 1379SOL    HW215600   3.160   2.636   6.044 -0.6897  0.6514  0.2118
 1380SOL     OW15601   1.362   2.811   8.791  0.5782  0.4897 -0.7182
 1380SOL    HW115602   1.424   2.777   8.855  0.5641  2.5195  0.3770
 1380SOL    HW215603   1.337   2.732   8.743  1.0801  0.2005 -0.5013
 1381SOL     OW15604   0.747   4.576   8.355 -0.1061 -0.2930  0.8958
 1381SOL    HW115605   0.676   4.594   8.294  1.0958 -0.6671 -0.6223
 1381SOL    HW215606   0.821   4.580   8.293 -1.0541 -0.0844 -0.2242
 1382SOL     OW15607   2.724   0.071   6.344  0.6086  0.2618  0.3359
 1382SOL    HW115608   2.671   0.069   6.424 -0.5694  0.2422 -0.4499
 1382SOL    HW215609   2.798   0.128   6.367  0.2230  1.1801 -0.7173
 1383SOL     OW15610   3.821   3.282  10.743 -0.2360 -0.0142 -0.5978
 1383SOL    HW115611   3.801   3.294  10.835  0.4447 -1.4376 -0.2733
 1383SOL    HW215612   3.747   3.228  10.713  0.3317 -1.8914  1.4552
 1384SOL     OW15613   3.359   4.176  15.861  0.2085  0.2592 -0.0217
 1384SOL    HW115614   3.367   4.261  15.818  0.6777 -0.0300 -0.5028
 1384SOL    HW215615   3.391   4.191  15.950  0.7836 -0.9977 -0.0244
 1385SOL     OW15616   1.440   3.643  15.261 -0.1854  0.6026  0.5559
 1385SOL    HW115617   1.465   3.550  15.267 -2.1577  0.1632  2.1796
 1385SOL    HW215618   1.522   3.682  15.290  1.1088 -0.8478 -1.0887
 1386SOL     OW15619   3.664   3.453   6.390  0.4003  0.1976  0.1329
 1386SOL    HW115620   3.687   3.387   6.455  0.5174 -0.5790 -0.7060
 1386SOL    HW215621   3.593   3.495   6.438  1.4229  0.2672  1.5985
 1387SOL     OW15622   2.256   4.584   7.177  0.0877 -0.4447 -0.8945
 1387SOL    HW115623   2.227   4.569   7.087  0.1167  0.7689 -1.1101
 1387SOL    HW215624   2.181   4.634   7.210 -0.4132 -2.6249  1.2388
 1388SOL     OW15625   3.405   0.172  17.641 -0.5340  0.0853 -0.0342
 1388SOL    HW115626   3.480   0.210  17.595 -0.1085  1.0222  1.4265
 1388SOL    HW215627   3.451   0.093  17.670 -0.5904 -0.9335 -2.7177
 1389SOL     OW15628   3.267   3.945  17.388 -0.2714  0.0448 -1.0021
 1389SOL    HW115629   3.259   4.001  17.465 -0.4588 -1.2970 -0.0553
 1389SOL    HW215630   3.206   3.875  17.411  0.8454 -0.2193  1.1083
 1390SOL     OW15631   0.454   3.968   3.716 -0.0522  0.4593 -0.6238
 1390SOL    HW115632   0.395   4.007   3.780 -1.9781 -2.2088 -0.7806
 1390SOL    HW215633   0.483   3.887   3.758 -2.2556  0.5964  1.1521
 1391SOL     OW15634   3.598   3.705  11.017  0.5083  0.5339  0.3344
 1391SOL    HW115635   3.637   3.627  10.978  0.9137  1.1997 -0.5768
 1391SOL    HW215636   3.506   3.681  11.007  0.4187  1.8339 -1.8487
 1392SOL     OW15637   0.812   1.762   9.363 -0.1934  0.2850 -0.1044
 1392SOL    HW115638   0.877   1.708   9.407 -0.5395 -0.9063 -1.0319
 1392SOL    HW215639   0.856   1.802   9.288  1.1180 -2.3941 -0.7806
 1393SOL     OW15640   1.691   0.550   5.113 -0.3768  0.2505 -0.2236
 1393SOL    HW115641   1.764   0.611   5.113 -0.6096  0.5376 -1.4198
 1393SOL    HW215642   1.741   0.468   5.112 -0.4734  0.1979 -1.7014
 1394SOL     OW15643   2.390   1.980  17.099 -0.4408  0.9306  0.3935
 1394SOL    HW115644   2.399   2.048  17.032 -0.0806 -1.1248 -1.6186
 1394SOL    HW215645   2.308   1.940  17.071 -0.1728  1.1603 -0.6951
 1395SOL     OW15646   1.136   0.265   9.191 -0.4228  0.0987 -0.7218
 1395SOL    HW115647   1.052   0.309   9.176 -0.9668 -0.6846  0.0608
 1395SOL    HW215648   1.091   0.182   9.207  0.8128 -0.5382 -0.6288
 1396SOL     OW15649   1.254   2.865  15.818  0.0363 -0.0189 -0.0195
 1396SOL    HW115650   1.216   2.940  15.774 -2.0535 -0.7347  0.5950
 1396SOL    HW215651   1.347   2.890  15.811  0.0455  0.6207  2.6438
 1397SOL     OW15652   4.159   1.998  13.089  0.1129 -0.2360  0.1921
 1397SOL    HW115653   4.174   1.921  13.034  0.0389  0.7383 -1.1945
 1397SOL    HW215654   4.075   1.980  13.130  0.9007 -1.2441  1.3719
 1398SOL     OW15655   4.481   2.884   3.596  0.2131 -0.5294  0.0850
 1398SOL    HW115656   4.461   2.925   3.681 -0.8987  1.8567 -1.3202
 1398SOL    HW215657   4.535   2.955   3.562  0.9192 -1.0208  0.1947
 1399SOL     OW15658   2.609   4.115   5.619 -0.3804  0.0269  0.5125
 1399SOL    HW115659   2.625   4.020   5.623 -2.5481 -0.3204  1.2406
 1399SOL    HW215660   2.548   4.117   5.545  1.9600  0.7975 -1.3862
 1400SOL     OW15661   3.538   3.100   2.177 -0.2228 -0.0282 -0.1419
 1400SOL    HW115662   3.510   3.165   2.113 -0.1761  0.0582 -0.0750
 1400SOL    HW215663   3.634   3.097   2.176 -0.2130 -0.0323  0.8393
 1401SOL     OW15664   2.122   1.796   3.952  0.0603  0.1764  0.3632
 1401SOL    HW115665   2.187   1.737   3.915 -0.4875 -1.4216  1.9344
 1401SOL    HW215666   2.080   1.815   3.868  0.0213 -2.1179 -0.1278
 1402SOL     OW15667   1.219   3.401  11.912  0.2902 -0.4894  0.3976
 1402SOL    HW115668   1.183   3.323  11.870  0.9350  1.2768 -3.4437
 1402SOL    HW215669   1.243   3.445  11.831 -0.5039 -2.0366 -0.6857
 1403SOL     OW15670   2.532   4.256   4.098 -0.2238 -0.3356  0.0700
 1403SOL    HW115671   2.504   4.257   4.006 -0.6048  0.1764  0.1941
 1403SOL    HW215672   2.588   4.179   4.095  1.5504  0.9985 -1.2254
 1404SOL     OW15673   1.082   3.502   2.586  0.1381  0.1108  0.3465
 1404SOL    HW115674   1.003   3.452   2.564  0.3276 -0.3904  0.7985
 1404SOL    HW215675   1.047   3.588   2.562  1.5689  0.1071 -1.7475
 1405SOL     OW15676   0.053   2.745   8.894  0.2241  0.0298  0.3615
 1405SOL    HW115677   0.042   2.700   8.978  2.5347 -0.1944  0.5418
 1405SOL    HW215678   4.694   2.721   8.856 -0.6757  1.8414  1.2396
 1406SOL     OW15679   2.824   2.083   3.540 -0.1000 -0.1484  0.1376
 1406SOL    HW115680   2.907   2.047   3.572  0.2532 -0.0764 -0.7084
 1406SOL    HW215681   2.845   2.142   3.467  0.5652 -0.6538 -0.0825
 1407SOL     OW15682   2.925   2.084   8.053 -0.5011 -0.5110  0.0991
 1407SOL    HW115683   2.927   2.161   7.995 -0.5332 -0.9874 -0.5318
 1407SOL    HW215684   2.934   2.119   8.142  0.2329 -0.3685 -0.0345
 1408SOL     OW15685   1.728   2.119   2.126  0.4381  0.3063 -0.0490
 1408SOL    HW115686   1.726   2.031   2.089 -0.5487 -0.0673  0.9051
 1408SOL    HW215687   1.801   2.109   2.188 -1.8425 -0.7435  2.4805
 1409SOL     OW15688   0.805   3.578   2.013  0.3652  0.4911 -0.1520
 1409SOL    HW115689   0.871   3.577   2.083  0.8427  0.4462 -0.5968
 1409SOL    HW215690   0.765   3.491   2.015  1.9399 -0.1743  1.9621
 1410SOL     OW15691   0.590   2.543   9.797  0.1124  0.4339  0.1507
 1410SOL    HW115692   0.598   2.602   9.722 -1.6529 -0.9760 -1.1510
 1410SOL    HW215693   0.661   2.483   9.776 -1.0550 -0.5447 -1.0345
 1411SOL     OW15694   3.889   4.206   6.339 -0.5398 -0.2938  0.2814
 1411SOL    HW115695   3.942   4.169   6.269  0.3579  1.3133  0.1084
 1411SOL    HW215696   3.951   4.278   6.351 -0.7017 -0.0025 -0.6446
 1412SOL     OW15697   1.154   3.580   7.887  0.2872 -0.1045 -0.2034
 1412SOL    HW115698   1.132   3.652   7.828 -1.2828  1.0037  1.7483
 1412SOL    HW215699   1.092   3.511   7.865  0.6290 -0.8459  1.1617
 1413SOL     OW15700   2.656   1.427   5.506  0.1765 -0.3500  0.0069
 1413SOL    HW115701   2.729   1.372   5.477 -0.1920 -1.2320  0.7446
 1413SOL    HW215702   2.692   1.469   5.584 -0.6911  0.9914 -0.3239
 1414SOL     OW15703   2.340   4.572   2.195  0.1604 -0.3927 -0.4468
 1414SOL    HW115704   2.254   4.601   2.163 -0.4433  0.0808  1.6380
 1414SOL    HW215705   2.317   4.524   2.275  0.5267  0.2380  0.0356
 1415SOL     OW15706   1.828   4.527   4.349 -0.1678 -0.5598  0.4937
 1415SOL    HW115707   1.804   4.616   4.372  1.3543 -0.2058  0.7334
 1415SOL    HW215708   1.798   4.481   4.428  2.1164  1.4270  2.5192
 1416SOL     OW15709   3.457   4.323  11.365  0.4551 -0.1494  0.4426
 1416SOL    HW115710   3.445   4.407  11.322  0.5538 -0.0846  0.5420
 1416SOL    HW215711   3.471   4.263  11.292  0.6987  0.1522  0.2416
 1417SOL     OW15712   3.670   0.268  15.077  0.2133  0.4822  0.0204
 1417SOL    HW115713   3.765   0.280  15.068  0.2553 -0.9850 -1.6068
 1417SOL    HW215714   3.645   0.360  15.082 -0.2011  0.3839 -0.2275
 1418SOL     OW15715   1.264   2.999  15.338 -0.0642  0.0452 -0.1078
 1418SOL    HW115716   1.343   2.968  15.295 -0.6998 -0.6702 -0.7452
 1418SOL    HW215717   1.300   3.026  15.423 -1.3898  1.4372  0.0369
 1419SOL     OW15718   2.110   1.631   4.922 -0.5627 -0.1773  0.0845
 1419SOL    HW115719   2.051   1.705   4.904 -0.8724 -0.5692 -0.5111
 1419SOL    HW215720   2.071   1.583   4.995  2.0788 -0.6367  1.2014
 1420SOL     OW15721   4.233   4.329   1.320 -0.4327 -0.2733 -1.1174
 1420SOL    HW115722   4.160   4.270   1.306  0.7126 -1.6573 -1.3008
 1420SOL    HW215723   4.192   4.400   1.370 -4.0947 -3.5009  0.4060
 1421SOL     OW15724   3.780   2.399  12.437 -0.6931  0.2043 -0.1104
 1421SOL    HW115725   3.808   2.485  12.467  0.9782  0.1377 -1.4345
 1421SOL    HW215726   3.743   2.364  12.518 -0.0991  0.1809  0.1577
 1422SOL     OW15727   0.676   3.199  16.268 -0.0481 -0.1479 -0.4079
 1422SOL    HW115728   0.607   3.251  16.228  0.4965 -0.6570 -2.0351
 1422SOL    HW215729   0.670   3.209  16.363 -1.6307  1.8813 -0.7271
 1423SOL     OW15730   1.235   0.987   9.379  0.3183  0.5929  0.8097
 1423SOL    HW115731   1.159   0.988   9.321  0.7185  0.6825  0.2875
 1423SOL    HW215732   1.306   0.992   9.315 -0.4068 -0.4144 -0.0596
 1424SOL     OW15733   4.030   2.425   6.443  0.1430 -0.0754 -0.2910
 1424SOL    HW115734   4.077   2.440   6.361 -1.9274  0.2339 -1.4326
 1424SOL    HW215735   4.061   2.337   6.463 -1.2761 -0.4414  0.3106
 1425SOL     OW15736   1.835   2.938   3.520 -0.4434 -0.1696 -0.0858
 1425SOL    HW115737   1.844   3.031   3.499 -2.0830  0.0054  0.0192
 1425SOL    HW215738   1.745   2.915   3.497 -0.7029  1.0203 -0.2697
 1426SOL     OW15739   1.094   3.448   8.823  0.1630  0.0093  0.8331
 1426SOL    HW115740   1.187   3.430   8.840  0.4296  0.2895 -0.3637
 1426SOL    HW215741   1.050   3.367   8.799 -0.9422  1.0092 -0.5197
 1427SOL     OW15742   1.028   3.529   5.883  0.0920 -0.1272 -0.0698
 1427SOL    HW115743   1.056   3.585   5.955 -0.6164 -0.2474  0.2982
 1427SOL    HW215744   1.108   3.536   5.831 -0.3073  0.7163 -0.5627
 1428SOL     OW15745   3.164   4.691  10.525  0.3309 -0.0592 -0.2054
 1428SOL    HW115746   3.240   4.644  10.491 -0.2651 -0.1427 -1.4410
 1428SOL    HW215747   3.140   4.622  10.587  2.3287 -0.4763  0.1166
 1429SOL     OW15748   3.397   1.199   9.141  0.1134 -0.3265  0.2336
 1429SOL    HW115749   3.472   1.243   9.179  0.6965 -1.4302  0.3603
 1429SOL    HW215750   3.365   1.159   9.222 -1.7525 -1.6352 -1.1422
 1430SOL     OW15751   0.757   4.194   2.962 -0.1154  0.2277 -0.3917
 1430SOL    HW115752   0.667   4.227   2.962 -0.1657  0.0859 -1.7353
 1430SOL    HW215753   0.748   4.104   2.933  2.0385  0.1451 -0.8044
 1431SOL     OW15754   1.477   1.512  15.361 -0.7879 -0.1503  0.4047
 1431SOL    HW115755   1.515   1.546  15.442  1.1700  0.9004 -0.9682
 1431SOL    HW215756   1.552   1.483  15.309  0.3938  0.3044  1.8739
 1432SOL     OW15757   0.438   1.797   8.440  0.2142  0.0256 -0.3392
 1432SOL    HW115758   0.499   1.723   8.432  1.3789  0.7279  2.1773
 1432SOL    HW215759   0.383   1.767   8.512 -1.6233  3.5522 -0.2823
 1433SOL     OW15760   4.500   1.795   8.207  0.3551  0.3006 -0.0664
 1433SOL    HW115761   4.493   1.824   8.298  0.3893 -0.0940  0.0599
 1433SOL    HW215762   4.594   1.779   8.201  0.5493  0.6418  2.1894
 1434SOL     OW15763   0.399   3.268   8.041  0.0132  0.4358 -0.4130
 1434SOL    HW115764   0.328   3.236   8.096 -0.0354  1.0017 -0.1501
 1434SOL    HW215765   0.435   3.342   8.090  0.5514 -1.0155  1.4373
 1435SOL     OW15766   1.780   2.960   6.322  0.2754  0.5844  0.6124
 1435SOL    HW115767   1.814   3.012   6.249  0.5231  1.3786  1.2906
 1435SOL    HW215768   1.686   2.975   6.319  0.2370 -0.4452 -4.1037
 1436SOL     OW15769   2.113   1.329   1.835  0.2910 -0.0579  0.0113
 1436SOL    HW115770   2.019   1.312   1.843  0.3557  0.2107  1.4200
 1436SOL    HW215771   2.151   1.264   1.894  0.2971  0.0656  0.1437
 1437SOL     OW15772   3.660   4.445   8.745 -0.0162 -0.7221  0.2831
 1437SOL    HW115773   3.595   4.377   8.764 -0.6007 -0.3552 -0.3985
 1437SOL    HW215774   3.618   4.517   8.793  0.1690  0.6589 -1.6337
 1438SOL     OW15775   1.716   0.736   4.397 -1.0200  0.0519 -0.4444
 1438SOL    HW115776   1.700   0.791   4.321  0.0625  1.5724  0.4240
 1438SOL    HW215777   1.677   0.660   4.355 -1.1236  0.0308 -0.3127
 1439SOL     OW15778   0.407   3.896   9.026 -0.7262  0.5522 -0.1550
 1439SOL    HW115779   0.483   3.952   9.014 -0.1793  0.5554  3.1686
 1439SOL    HW215780   0.461   3.844   9.086 -0.0471  0.2275 -1.0492
 1440SOL     OW15781   1.318   0.660   1.248  0.3667  0.8096 -0.2485
 1440SOL    HW115782   1.312   0.652   1.153  4.5153  0.2962 -0.4811
 1440SOL    HW215783   1.225   0.646   1.267  0.4577  2.7742  1.7632
 1441SOL     OW15784   0.716   2.690   2.731  0.1154 -0.1111 -0.0433
 1441SOL    HW115785   0.708   2.771   2.781 -1.3797 -0.3497  0.1026
 1441SOL    HW215786   0.628   2.678   2.694 -0.6609 -2.0347  2.4352
 1442SOL     OW15787   2.710   2.715   6.074  0.0299  0.0313  0.3821
 1442SOL    HW115788   2.683   2.750   5.989  0.1195 -0.9793 -0.0599
 1442SOL    HW215789   2.762   2.793   6.095 -0.0016  0.3178 -0.6018
 1443SOL     OW15790   3.173   3.908  17.114  0.0673  0.1399 -0.0798
 1443SOL    HW115791   3.171   3.814  17.133 -0.7555  0.0094 -0.7726
 1443SOL    HW215792   3.194   3.941  17.201 -0.4893  0.5625 -0.1021
 1444SOL     OW15793   2.872   1.074   7.286  0.2889  0.1127  0.0630
 1444SOL    HW115794   2.890   1.060   7.379  1.7531 -2.5707 -0.6400
 1444SOL    HW215795   2.908   1.162   7.274  0.2388 -0.1908 -2.2764
 1445SOL     OW15796   2.582   4.303  12.688  0.0335 -0.2212 -0.4223
 1445SOL    HW115797   2.604   4.226  12.740  4.9563  1.8238  0.4619
 1445SOL    HW215798   2.492   4.310  12.721 -0.1372  0.7068 -1.0887
 1446SOL     OW15799   4.485   2.321  11.068 -0.1703 -0.2799 -0.1586
 1446SOL    HW115800   4.505   2.228  11.059  1.0619 -0.2423  2.2097
 1446SOL    HW215801   4.530   2.362  10.993  0.0428 -0.1840  0.0224
 1447SOL     OW15802   3.686   2.462  12.694 -0.2201  0.1018 -0.1060
 1447SOL    HW115803   3.703   2.368  12.695 -2.2073 -0.2182  1.6741
 1447SOL    HW215804   3.756   2.489  12.754 -0.0508  2.0061 -1.1325
 1448SOL     OW15805   3.448   2.390   0.809  0.3402  0.1449  0.0873
 1448SOL    HW115806   3.466   2.356   0.721 -1.9501  3.0821 -1.5017
 1448SOL    HW215807   3.534   2.412   0.845  0.7429 -1.1115 -0.1005
 1449SOL     OW15808   0.296   2.715  10.580 -0.2835  0.4596 -0.0437
 1449SOL    HW115809   0.267   2.765  10.656 -0.4791  1.6980 -0.9374
 1449SOL    HW215810   0.369   2.767  10.549  0.5581  0.0182  1.1846
 1450SOL     OW15811   4.003   0.561   0.959 -0.5293  0.2309  0.0317
 1450SOL    HW115812   3.962   0.494   0.904  0.8473  1.3941 -2.4185
 1450SOL    HW215813   4.004   0.525   1.047  0.2285  0.0694 -0.0430
 1451SOL     OW15814   4.147   4.716   9.749  0.2295  0.1888  0.2494
 1451SOL    HW115815   4.239   0.010   9.764  0.9174  0.0528 -3.6894
 1451SOL    HW215816   4.121   0.067   9.696  0.3662 -1.6368 -2.4447
 1452SOL     OW15817   2.166   3.408   6.217  0.9769  0.5584 -0.3329
 1452SOL    HW115818   2.244   3.447   6.178  3.2232 -2.2018  1.4527
 1452SOL    HW215819   2.118   3.481   6.257 -1.1108 -0.5085 -0.8818
 1453SOL     OW15820   1.419   2.667   5.509 -0.0552  0.2549  0.0230
 1453SOL    HW115821   1.337   2.623   5.535 -0.5184  0.6266 -0.8209
 1453SOL    HW215822   1.402   2.704   5.422  2.9937 -1.1771 -1.1678
 1454SOL     OW15823   4.408   4.160  10.702 -0.0800 -0.0798 -0.5976
 1454SOL    HW115824   4.431   4.074  10.667  0.4252  0.2302 -1.0224
 1454SOL    HW215825   4.501   4.177  10.720 -0.3371 -0.4480  1.0630
 1455SOL     OW15826   4.303   2.618   7.066 -0.2554 -0.3138  0.3155
 1455SOL    HW115827   4.369   2.634   6.998 -0.8838  1.2005  0.0704
 1455SOL    HW215828   4.219   2.652   7.037  0.2133  1.2267  0.8006
 1456SOL     OW15829   0.720   0.136   5.355  0.0955  0.4530  0.6405
 1456SOL    HW115830   0.754   0.047   5.341  0.7855  0.2391  3.5672
 1456SOL    HW215831   0.786   0.167   5.418 -1.0335 -2.4555  3.2530
 1457SOL     OW15832   0.339   2.576   9.424  0.2004  0.3862  0.0569
 1457SOL    HW115833   0.347   2.527   9.342  0.0615  0.8114 -0.2114
 1457SOL    HW215834   0.380   2.515   9.485  0.3248 -0.7792 -1.1840
 1458SOL     OW15835   3.948   0.781   5.689 -0.1810  0.3547 -0.0837
 1458SOL    HW115836   3.981   0.813   5.772  2.9430  0.8177 -1.5271
 1458SOL    HW215837   3.868   0.732   5.709  0.2039  0.2276  1.1499
 1459SOL     OW15838   2.996   0.798  12.224  0.0977 -0.1532 -0.1301
 1459SOL    HW115839   3.031   0.808  12.313 -0.4675 -0.4361  0.1295
 1459SOL    HW215840   2.927   0.735  12.245 -1.4584  1.2970 -0.9323
 1460SOL     OW15841   2.635   1.430   8.481 -0.1641 -0.1858 -0.0949
 1460SOL    HW115842   2.587   1.355   8.517  0.5592 -0.7512 -0.3101
 1460SOL    HW215843   2.661   1.482   8.556  1.3585  0.9688 -1.4260
 1461SOL     OW15844   1.243   2.256  15.286 -0.0473 -0.6706 -0.4583
 1461SOL    HW115845   1.208   2.220  15.205  3.1426  1.4963 -2.8282
 1461SOL    HW215846   1.206   2.203  15.356  0.7327 -3.4461 -2.1731
 1462SOL     OW15847   0.165   1.916   7.576 -0.8183 -0.8196  0.6871
 1462SOL    HW115848   0.116   1.971   7.637 -0.0246  0.6592 -0.0055
 1462SOL    HW215849   0.185   1.848   7.640 -2.3134 -0.4139  1.5831
 1463SOL     OW15850   2.345   2.849   4.755  0.5414  0.0536  0.2237
 1463SOL    HW115851   2.392   2.877   4.677  1.5006 -0.7294  0.5198
 1463SOL    HW215852   2.356   2.928   4.808 -2.1087 -0.0007  0.8780
 1464SOL     OW15853   1.702   0.686   8.301 -0.3606 -0.6831 -0.1874
 1464SOL    HW115854   1.718   0.695   8.207  0.5592 -1.5090 -0.1078
 1464SOL    HW215855   1.716   0.779   8.321 -1.1437 -0.5348 -0.3065
 1465SOL     OW15856   4.185   1.033   7.645 -0.0003 -0.4513  0.3999
 1465SOL    HW115857   4.112   1.087   7.616 -0.0369  0.1623  1.6649
 1465SOL    HW215858   4.164   1.014   7.737 -0.8572  0.1450  0.3254
 1466SOL     OW15859   1.612   3.075  16.759  0.0163  0.2135  0.8917
 1466SOL    HW115860   1.591   3.159  16.719  0.7690 -0.7354 -1.5055
 1466SOL    HW215861   1.703   3.049  16.740 -0.5404  2.3128 -4.6373
 1467SOL     OW15862   0.672   0.598   3.221  0.5353 -0.1779  0.2968
 1467SOL    HW115863   0.648   0.690   3.210 -3.0636 -0.8986  1.9565
 1467SOL    HW215864   0.743   0.592   3.158 -1.0283 -1.8615 -1.3437
 1468SOL     OW15865   0.964   3.282  14.209  0.5137  0.3153  0.3183
 1468SOL    HW115866   0.937   3.198  14.246  3.1069 -0.9382 -0.5963
 1468SOL    HW215867   1.038   3.305  14.265  0.7659 -1.9633  0.9230
 1469SOL     OW15868   0.539   1.164  13.064  0.1704  0.3230  0.0595
 1469SOL    HW115869   0.480   1.227  13.104  0.8281  0.8374  0.2325
 1469SOL    HW215870   0.621   1.197  13.101 -0.0863  1.4808 -0.4155
 1470SOL     OW15871   1.674   0.153   9.955  0.2598  0.0734 -0.3175
 1470SOL    HW115872   1.672   0.073  10.007  1.1455  1.6566  2.2010
 1470SOL    HW215873   1.685   0.218  10.025  1.3134  0.8377 -1.1862
 1471SOL     OW15874   2.310   1.313   4.114 -0.6243 -0.2168 -0.1061
 1471SOL    HW115875   2.371   1.346   4.049 -0.3328  1.0454  0.7961
 1471SOL    HW215876   2.229   1.363   4.100 -0.7973 -0.5815 -0.3993
 1472SOL     OW15877   3.155   0.385   2.382 -0.0001 -0.5105 -1.0139
 1472SOL    HW115878   3.074   0.349   2.420  0.2236 -0.9271 -0.9341
 1472SOL    HW215879   3.215   0.358   2.452 -2.5221 -0.5654  1.1446
 1473SOL     OW15880   0.702   0.896  17.641  0.4040  0.0691  0.3519
 1473SOL    HW115881   0.741   0.922  17.557  0.4301 -1.6250 -0.1770
 1473SOL    HW215882   0.626   0.843  17.614  2.8964 -3.9689  1.2434
 1474SOL     OW15883   2.601   2.328  10.076 -0.4654  0.2896 -0.3269
 1474SOL    HW115884   2.684   2.314  10.123 -0.3855 -0.4577 -0.6849
 1474SOL    HW215885   2.532   2.291  10.131 -0.5040  1.9960  0.7612
 1475SOL     OW15886   3.014   0.204   6.243 -0.0974  0.2156  0.3764
 1475SOL    HW115887   2.988   0.260   6.170  2.8530  0.5965 -0.3829
 1475SOL    HW215888   3.106   0.200   6.219 -0.6440  0.4361 -1.7102
 1476SOL     OW15889   3.111   3.098   1.875  0.2278  0.0784 -0.0056
 1476SOL    HW115890   3.066   3.138   1.800  1.5581 -0.1411 -0.9249
 1476SOL    HW215891   3.198   3.137   1.876  0.2121  0.1663 -1.3104
 1477SOL     OW15892   4.366   1.603   7.071 -0.1420  0.2459 -0.0563
 1477SOL    HW115893   4.387   1.661   7.144 -0.1359  0.6115 -0.3464
 1477SOL    HW215894   4.449   1.559   7.054  1.4638  2.8543  1.0172
 1478SOL     OW15895   4.451   3.220   2.814  0.3081  0.4242  0.0913
 1478SOL    HW115896   4.528   3.264   2.849 -0.9316  3.4177 -1.0008
 1478SOL    HW215897   4.465   3.217   2.719 -0.4938  1.8624 -0.0732
 1479SOL     OW15898   1.874   2.363   8.129  0.6653 -0.5318  0.3375
 1479SOL    HW115899   1.788   2.350   8.170  1.3180 -0.6997  1.6176
 1479SOL    HW215900   1.842   2.412   8.053 -1.3981 -1.4659  0.5986
 1480SOL     OW15901   3.865   2.265   5.494 -0.0216 -0.1137 -0.0282
 1480SOL    HW115902   3.804   2.191   5.494 -0.2560  0.0790 -1.0606
 1480SOL    HW215903   3.796   2.327   5.518  0.7251  1.3636 -1.7257
 1481SOL     OW15904   0.711   4.531   4.777 -0.2202 -0.0216 -0.9658
 1481SOL    HW115905   0.805   4.517   4.785  0.0083  0.8580 -2.0576
 1481SOL    HW215906   0.705   4.518   4.683 -0.0609 -1.1186 -0.8252
 1482SOL     OW15907   3.565   2.358  17.455  0.9238  0.0570  0.0175
 1482SOL    HW115908   3.642   2.374  17.400  2.1877 -4.3424  0.5163
 1482SOL    HW215909   3.585   2.272  17.491 -1.1308  0.1179  1.3108
 1483SOL     OW15910   4.287   1.176   1.792 -0.3294 -0.0943  0.4312
 1483SOL    HW115911   4.208   1.219   1.760 -1.8739 -1.1983  2.7427
 1483SOL    HW215912   4.314   1.244   1.854 -0.9015 -0.1610  0.7573
 1484SOL     OW15913   1.145   2.349  13.992 -0.0121  0.2870 -0.0868
 1484SOL    HW115914   1.173   2.437  13.966  0.3990  0.0599 -0.4113
 1484SOL    HW215915   1.233   2.314  14.010 -0.9570 -1.9657  0.1431
 1485SOL     OW15916   3.853   2.396   4.777 -0.2055 -0.5169 -0.7348
 1485SOL    HW115917   3.762   2.422   4.763 -0.0789  0.0407 -0.5416
 1485SOL    HW215918   3.875   2.445   4.856 -3.0930  2.7279 -1.9349
 1486SOL     OW15919   2.716   3.959   3.204  0.1591 -0.0877 -0.5722
 1486SOL    HW115920   2.637   3.926   3.164 -0.1249  2.4689 -2.1169
 1486SOL    HW215921   2.783   3.903   3.165 -0.3276 -0.6109 -0.6421
 1487SOL     OW15922   3.974   4.498  13.618 -0.0088  0.2434  0.0244
 1487SOL    HW115923   4.042   4.529  13.558 -0.4831 -0.8596 -1.0731
 1487SOL    HW215924   3.892   4.521  13.574  0.0324  1.4340  0.5821
 1488SOL     OW15925   2.995   2.385   2.813 -0.2537 -1.1908  0.5312
 1488SOL    HW115926   2.945   2.464   2.791 -0.4206 -2.3895 -3.4157
 1488SOL    HW215927   3.052   2.382   2.737  0.9725  0.3742  1.4002
 1489SOL     OW15928   3.946   3.414   7.433  0.0589  0.2374  0.0982
 1489SOL    HW115929   3.981   3.498   7.403 -1.3747  1.6534  2.3985
 1489SOL    HW215930   3.983   3.420   7.521  0.5459 -0.5659 -0.0507
 1490SOL     OW15931   4.514   2.002  15.255 -0.6091 -0.3107  0.4373
 1490SOL    HW115932   4.453   1.934  15.282 -1.5414  0.1084 -0.6321
 1490SOL    HW215933   4.495   2.013  15.162 -0.6866  2.3070  0.7484
 1491SOL     OW15934   1.698   4.028  11.437 -0.7597  0.6975  0.0836
 1491SOL    HW115935   1.747   4.103  11.473  1.5142 -1.1903  0.8990
 1491SOL    HW215936   1.686   3.979  11.518  0.9147  2.6105  1.4851
 1492SOL     OW15937   2.346   2.862   6.257 -0.1036 -0.1358  0.0565
 1492SOL    HW115938   2.290   2.789   6.283 -0.1242 -0.0052  0.3845
 1492SOL    HW215939   2.338   2.847   6.163 -1.8342  1.0898 -0.0077
 1493SOL     OW15940   1.455   1.771   3.018  0.0016 -0.0055 -0.1692
 1493SOL    HW115941   1.487   1.839   2.958 -1.6524  1.0686  0.1656
 1493SOL    HW215942   1.427   1.698   2.962  0.8361 -1.1388  0.9006
 1494SOL     OW15943   4.010   4.387   6.931 -0.6835 -0.2005  0.0821
 1494SOL    HW115944   4.085   4.327   6.932 -0.7870 -0.3531 -3.5149
 1494SOL    HW215945   4.027   4.432   6.849  1.1770 -0.3630  0.3633
 1495SOL     OW15946   2.005   0.657   1.768  0.6403 -0.0875 -0.5208
 1495SOL    HW115947   1.915   0.634   1.746  0.5927  1.6107 -2.1090
 1495SOL    HW215948   2.007   0.612   1.852  2.5670  0.6627 -0.1626
 1496SOL     OW15949   2.688   1.234   6.282  0.0497 -0.0262  0.0656
 1496SOL    HW115950   2.741   1.192   6.349 -1.1620 -1.6067  0.0528
 1496SOL    HW215951   2.682   1.161   6.220  0.1052 -1.4470  1.7448
 1497SOL     OW15952   2.365   4.418   9.684  0.7555  0.5530 -0.4336
 1497SOL    HW115953   2.431   4.387   9.622  1.7528  0.0430  0.8983
 1497SOL    HW215954   2.414   4.481   9.736  0.2861  0.5601 -0.0086
 1498SOL     OW15955   2.194   0.094   3.537 -0.3693  0.8832  0.3490
 1498SOL    HW115956   2.166   0.162   3.598 -0.5958  1.0104  0.1052
 1498SOL    HW215957   2.109   0.083   3.496 -0.8604 -0.0348  1.6180
 1499SOL     OW15958   4.369   1.759   7.291  0.3139 -0.4639  0.3956
 1499SOL    HW115959   4.298   1.818   7.265  0.1682 -1.0949 -0.6535
 1499SOL    HW215960   4.364   1.768   7.386  1.8451 -1.0098  0.5391
 1500SOL     OW15961   3.984   1.909  13.335  0.0722  0.2186  0.0232
 1500SOL    HW115962   3.923   1.898  13.262  1.9116  1.0375 -1.6653
 1500SOL    HW215963   4.019   1.820  13.339  0.7893  0.5507  1.2358
 1501SOL     OW15964   1.033   2.931   5.023  0.2245  0.1312 -0.1399
 1501SOL    HW115965   0.940   2.912   5.039  0.1737  0.1886 -0.3718
 1501SOL    HW215966   1.026   2.984   4.944 -1.6626 -1.6952 -1.2009
 1502SOL     OW15967   4.519   4.406   7.016  0.1396 -0.5164 -0.4775
 1502SOL    HW115968   4.512   4.389   6.922  0.8797 -0.2818 -0.5782
 1502SOL    HW215969   4.485   4.319   7.038  3.0213 -1.4092  0.3775
 1503SOL     OW15970   3.080   3.677   7.414 -0.2527 -0.3635 -0.2968
 1503SOL    HW115971   3.058   3.639   7.499  0.3723  1.7467  0.8269
 1503SOL    HW215972   3.174   3.659   7.412  0.1936  1.9462 -1.1191
 1504SOL     OW15973   0.487   3.075   4.939  0.1960 -0.1915  0.4085
 1504SOL    HW115974   0.429   2.999   4.934 -0.1006 -0.0648  1.7596
 1504SOL    HW215975   0.476   3.105   4.849 -0.6529 -0.1737  0.5167
 1505SOL     OW15976   4.221   2.262   7.010  0.8342  0.1078 -0.0087
 1505SOL    HW115977   4.228   2.337   7.070  0.8732  0.2350 -0.1704
 1505SOL    HW215978   4.126   2.252   7.006  0.7477  0.3024  1.3339
 1506SOL     OW15979   3.609   3.433   3.828 -0.4247  0.3200 -0.0625
 1506SOL    HW115980   3.641   3.520   3.804  0.8237 -0.2422 -0.4425
 1506SOL    HW215981   3.578   3.394   3.746  0.7423 -0.5066 -0.1114
 1507SOL     OW15982   2.711   1.411  14.162  0.2211 -0.1442  0.3553
 1507SOL    HW115983   2.791   1.361  14.175  0.2335 -0.0909  0.4866
 1507SOL    HW215984   2.751   1.485  14.115  1.0575 -1.1191 -0.4542
 1508SOL     OW15985   0.538   2.342   0.194  0.2790 -0.4165 -0.1390
 1508SOL    HW115986   0.472   2.383   0.250  0.1621  0.1939 -0.7258
 1508SOL    HW215987   0.528   2.390   0.112 -2.3135 -2.0516 -0.7810
 1509SOL     OW15988   0.543   1.910   2.493 -0.3552  0.2761 -0.1791
 1509SOL    HW115989   0.613   1.877   2.549 -0.5523  1.1707  0.5948
 1509SOL    HW215990   0.553   2.004   2.507 -1.9998  0.3808  0.2389
 1510SOL     OW15991   3.435   2.871   9.150 -0.3363 -0.0219  0.5924
 1510SOL    HW115992   3.440   2.776   9.162 -1.0197 -0.3339 -1.5948
 1510SOL    HW215993   3.362   2.887   9.210 -0.0757  1.6478  0.4811
 1511SOL     OW15994   4.458   0.173  15.771 -0.6472  0.3427  0.1768
 1511SOL    HW115995   4.487   0.248  15.823 -1.0030  1.4287 -1.1637
 1511SOL    HW215996   4.370   0.201  15.746 -1.4927 -0.8415  1.8913
 1512SOL     OW15997   2.511   1.378   7.779 -0.0987 -0.6127 -0.2041
 1512SOL    HW115998   2.537   1.412   7.865  0.1478 -0.2755 -0.4110
 1512SOL    HW215999   2.604   1.366   7.758  0.0338  1.3466 -0.6793
 1513SOL     OW16000   3.646   3.785  11.462 -0.5281 -0.5313  0.0645
 1513SOL    HW116001   3.626   3.735  11.541  2.1785  2.9242  2.9584
 1513SOL    HW216002   3.602   3.869  11.477 -2.8519 -1.8293  0.4144
 1514SOL     OW16003   3.939   1.454   6.236 -0.0645 -0.3557  0.5479
 1514SOL    HW116004   3.918   1.505   6.157 -1.6743 -0.0429  1.1818
 1514SOL    HW216005   3.966   1.518   6.302  1.1503 -0.5760  0.2535
 1515SOL     OW16006   2.869   2.329   1.757 -0.5875  0.0974  0.2469
 1515SOL    HW116007   2.953   2.282   1.760 -0.3775  0.2829 -2.5415
 1515SOL    HW216008   2.879   2.352   1.665 -1.6022 -1.8210 -0.3303
 1516SOL     OW16009   4.535   3.571   7.944 -0.2109 -0.2324  0.5645
 1516SOL    HW116010   4.508   3.626   8.017 -0.4111 -0.7285  0.8683
 1516SOL    HW216011   4.608   3.520   7.981  1.6354  1.6942 -0.3846
 1517SOL     OW16012   1.846   0.496   0.388  0.0366  0.0968 -0.1380
 1517SOL    HW116013   1.815   0.431   0.450 -0.0684 -0.2634 -0.5671
 1517SOL    HW216014   1.826   0.454   0.304  0.1769  1.1777 -0.7227
 1518SOL     OW16015   2.459   0.439  11.725 -0.2842  0.0825  0.4662
 1518SOL    HW116016   2.367   0.445  11.751 -0.2814  1.1972  0.2122
 1518SOL    HW216017   2.500   0.466  11.807 -0.2791  1.6219 -0.0304
 1519SOL     OW16018   0.041   1.570   5.831 -0.3533 -0.6895 -0.2574
 1519SOL    HW116019   0.109   1.536   5.773 -0.6160  0.7004 -1.3930
 1519SOL    HW216020   4.717   1.626   5.770  3.2819 -0.1129 -2.6907
 1520SOL     OW16021   1.409   0.966   6.502  0.1109  0.3535 -0.1891
 1520SOL    HW116022   1.418   0.970   6.597 -1.9093  0.7755 -0.0218
 1520SOL    HW216023   1.317   0.987   6.489 -0.0816  0.9053  2.1561
 1521SOL     OW16024   1.202   0.490   2.569  0.2690  0.1389 -0.0781
 1521SOL    HW116025   1.148   0.431   2.517 -0.1625  0.5975 -0.1542
 1521SOL    HW216026   1.216   0.559   2.504 -0.7650  0.4217  0.0011
 1522SOL     OW16027   1.424   1.941   6.014 -0.4424  1.1165 -0.0661
 1522SOL    HW116028   1.445   1.848   6.009 -0.0512  1.0963  1.9490
 1522SOL    HW216029   1.330   1.933   6.026 -0.3088 -1.4532 -0.6601
 1523SOL     OW16030   0.719   2.777  16.008  0.3711 -0.2417 -0.6294
 1523SOL    HW116031   0.797   2.725  16.023  1.1210  0.6308 -1.4718
 1523SOL    HW216032   0.765   2.861  16.018 -0.4297  0.5187 -3.1897
 1524SOL     OW16033   1.081   4.542  13.776  0.2183  0.6827 -0.2255
 1524SOL    HW116034   1.122   4.467  13.818 -0.7499 -0.1037 -0.6546
 1524SOL    HW216035   1.152   4.568  13.718  0.4331  0.1421 -0.2034
 1525SOL     OW16036   0.371   2.266   7.001 -0.2198 -0.1771  0.3953
 1525SOL    HW116037   0.388   2.185   7.049 -1.2956 -0.0404  1.0130
 1525SOL    HW216038   0.458   2.305   6.994 -1.1015  1.5413 -1.1453
 1526SOL     OW16039   0.642   2.294   9.245 -0.5385  0.0038  0.3703
 1526SOL    HW116040   0.603   2.369   9.202 -0.4958 -0.1732  0.0258
 1526SOL    HW216041   0.574   2.226   9.241 -0.3833 -0.2710  2.3620
 1527SOL     OW16042   3.056   1.461  14.342 -0.2857 -0.2200 -0.5579
 1527SOL    HW116043   3.112   1.515  14.286 -0.1258 -1.4759 -1.6016
 1527SOL    HW216044   3.117   1.443  14.414 -1.3938  0.4748  0.5428
 1528SOL     OW16045   1.174   0.039   2.494 -0.4940  0.2890  0.5118
 1528SOL    HW116046   1.220   4.680   2.491 -0.1342  0.5008  0.0936
 1528SOL    HW216047   1.247   0.098   2.476 -2.0558  2.2699  0.7169
 1529SOL     OW16048   0.197   1.220   5.579  0.4845  0.1729  0.1881
 1529SOL    HW116049   0.220   1.291   5.639  0.7722 -0.1812  0.4943
 1529SOL    HW216050   0.261   1.225   5.507 -0.5005 -0.3337 -0.7119
 1530SOL     OW16051   4.017   4.068   6.603 -0.0093  0.0338  0.3971
 1530SOL    HW116052   4.056   3.983   6.580 -0.8467 -0.0419 -0.6985
 1530SOL    HW216053   3.936   4.073   6.553  0.2195  0.1661  0.0366
 1531SOL     OW16054   4.173   0.137   8.547 -0.3492 -0.8106  0.3956
 1531SOL    HW116055   4.143   0.055   8.508 -0.1080 -1.1822  0.9933
 1531SOL    HW216056   4.267   0.121   8.546 -0.3247 -0.6463 -0.0639
 1532SOL     OW16057   0.951   2.094  12.347  0.2148 -0.0742  0.4673
 1532SOL    HW116058   0.924   2.125  12.260 -1.5669 -1.4655  0.5263
 1532SOL    HW216059   1.020   2.159  12.365 -0.8373  1.4703 -1.0958
 1533SOL     OW16060   1.767   4.448   0.008  0.1356  0.2730  0.6845
 1533SOL    HW116061   1.832   4.508   0.043  1.7383 -1.2573  0.3042
 1533SOL    HW216062   1.813   4.401  17.642 -0.1344 -0.0069  0.6913
 1534SOL     OW16063   1.072   2.382   2.092  0.4084  0.0090  0.1730
 1534SOL    HW116064   1.061   2.437   2.170 -1.0232 -0.3095  0.2107
 1534SOL    HW216065   1.150   2.418   2.050  1.1500  1.6098  2.9525
 1535SOL     OW16066   0.807   0.897   2.492  0.3002  0.0686 -0.2084
 1535SOL    HW116067   0.891   0.854   2.477  0.1811 -0.6437  1.1545
 1535SOL    HW216068   0.738   0.846   2.450  1.6335 -1.7231 -0.1919
 1536SOL     OW16069   0.847   1.345   1.379  0.3654 -0.3897  0.1864
 1536SOL    HW116070   0.939   1.372   1.368  0.7078 -2.4503 -2.1637
 1536SOL    HW216071   0.818   1.381   1.462 -0.5267 -0.5178 -0.0760
 1537SOL     OW16072   3.691   0.287   8.589 -0.0380  0.0199 -0.0097
 1537SOL    HW116073   3.782   0.314   8.595  0.2885 -0.5921 -2.2089
 1537SOL    HW216074   3.673   0.302   8.496  0.6955 -2.0458 -0.4819
 1538SOL     OW16075   4.497   0.174   2.946 -0.1403  0.0295  0.0769
 1538SOL    HW116076   4.537   0.097   2.905  1.0380  1.0021 -0.6028
 1538SOL    HW216077   4.561   0.241   2.972  0.2716 -1.0464  1.8461
 1539SOL     OW16078   0.105   4.616   4.822  0.4352  0.7081 -0.6702
 1539SOL    HW116079   0.150   4.546   4.773  1.1892  1.1939 -0.6794
 1539SOL    HW216080   0.151   4.619   4.906  1.4605  1.5656 -1.2598
 1540SOL     OW16081   0.397   2.195   4.232 -0.1347 -0.1961  0.2559
 1540SOL    HW116082   0.311   2.200   4.275 -1.3718  0.7107 -2.3257
 1540SOL    HW216083   0.436   2.278   4.258  1.6278 -1.4074  1.4517
 1541SOL     OW16084   1.051   1.982   5.323 -0.7944 -0.2488  0.5449
 1541SOL    HW116085   0.960   1.988   5.292 -0.8060  1.4864  0.8897
 1541SOL    HW216086   1.103   1.976   5.243 -0.1633  0.3102  0.9095
 1542SOL     OW16087   1.078   2.184   6.640 -0.2747 -0.6168  0.2373
 1542SOL    HW116088   1.037   2.097   6.630  1.2203 -1.3630  0.6083
 1542SOL    HW216089   1.170   2.167   6.625 -0.3629 -0.5932 -0.3028
 1543SOL     OW16090   2.605   4.258   5.870 -0.0947 -0.1516  0.5577
 1543SOL    HW116091   2.611   4.214   5.786 -3.1758 -2.1434  1.3795
 1543SOL    HW216092   2.613   4.180   5.924 -1.4172 -0.4873  0.2637
 1544SOL     OW16093   3.443   0.950   7.541 -0.4046  0.5161  0.0363
 1544SOL    HW116094   3.533   0.944   7.573 -0.3101 -0.1665 -0.3460
 1544SOL    HW216095   3.389   0.926   7.616  1.0415 -1.9451  0.3036
 1545SOL     OW16096   0.295   0.230   2.248  0.1191 -0.6172 -0.1002
 1545SOL    HW116097   0.251   0.298   2.300 -0.2436 -1.4050  0.6130
 1545SOL    HW216098   0.256   0.150   2.283 -2.1016  1.5119  2.2949
 1546SOL     OW16099   0.506   0.165  10.150 -0.5614 -0.3491 -0.1150
 1546SOL    HW116100   0.435   0.103  10.167 -0.9660  0.4424  1.1055
 1546SOL    HW216101   0.455   0.246  10.155 -0.1676 -0.0605 -0.8149
 1547SOL     OW16102   4.343   2.473  12.803 -0.6319 -0.8296  0.2083
 1547SOL    HW116103   4.248   2.466  12.803 -0.7366  0.7805  1.1967
 1547SOL    HW216104   4.363   2.533  12.874 -0.5109 -0.1539 -0.4009
 1548SOL     OW16105   3.867   3.914  13.016 -0.3931 -0.4340  0.7579
 1548SOL    HW116106   3.897   3.974  12.947  0.9209 -3.0043 -0.8991
 1548SOL    HW216107   3.810   3.974  13.066 -1.4382  0.9175 -2.0534
 1549SOL     OW16108   3.810   4.329   8.562 -0.0037  0.3319 -0.3032
 1549SOL    HW116109   3.735   4.371   8.605 -1.3368 -1.1680 -1.1955
 1549SOL    HW216110   3.849   4.413   8.537  3.0288 -1.6154 -2.1132
 1550SOL     OW16111   2.475   1.694   7.569 -0.5934  0.2044 -0.0678
 1550SOL    HW116112   2.422   1.624   7.607  1.3590 -1.2242  0.0141
 1550SOL    HW216113   2.480   1.753   7.645 -0.4051  0.8632 -0.5956
 1551SOL     OW16114   2.677   1.293  15.377 -0.2217 -0.0096  0.4003
 1551SOL    HW116115   2.636   1.279  15.463  0.3520  3.7614  1.2917
 1551SOL    HW216116   2.655   1.210  15.334  1.2207  0.3799 -1.0830
 1552SOL     OW16117   1.929   2.365   3.765 -0.2872  0.2687  0.0431
 1552SOL    HW116118   1.849   2.410   3.791  0.3030  0.5194  1.4774
 1552SOL    HW216119   1.925   2.380   3.671 -1.8827 -1.8256 -0.2223
 1553SOL     OW16120   0.860   3.009   7.632  0.0398  0.4133  0.2397
 1553SOL    HW116121   0.849   2.915   7.619 -1.3097  0.4054  1.4728
 1553SOL    HW216122   0.946   3.017   7.590 -0.3814  1.8375 -0.3499
 1554SOL     OW16123   0.944   3.266  15.409 -0.5268 -0.0944 -0.0728
 1554SOL    HW116124   0.896   3.197  15.362 -2.4612  3.0247 -2.6541
 1554SOL    HW216125   0.995   3.302  15.337  2.1834  0.1773  1.9821
 1555SOL     OW16126   4.014   3.014   5.659 -0.5544 -0.1330  0.1169
 1555SOL    HW116127   3.989   2.922   5.650 -0.5094 -0.0015 -1.4667
 1555SOL    HW216128   4.065   3.015   5.578  0.2374  0.0411  0.6229
 1556SOL     OW16129   0.748   4.423   5.231  0.1893 -0.5013  0.1097
 1556SOL    HW116130   0.687   4.391   5.165  0.1132 -1.2870  0.5563
 1556SOL    HW216131   0.684   4.427   5.302 -0.6927 -1.0629 -0.6644
 1557SOL     OW16132   3.332   4.009   8.587  0.1490  0.9298 -0.5350
 1557SOL    HW116133   3.328   3.963   8.671 -2.2899  0.3162 -0.9744
 1557SOL    HW216134   3.400   3.956   8.545 -0.4328  1.2396 -1.8557
 1558SOL     OW16135   1.519   1.790   5.716  0.1092 -0.1339 -0.0633
 1558SOL    HW116136   1.593   1.730   5.706 -0.3616 -0.6286 -0.5392
 1558SOL    HW216137   1.554   1.867   5.761  0.8777 -1.0751  0.9453
 1559SOL     OW16138   4.251   4.269  11.102 -0.1595  0.6084 -0.0460
 1559SOL    HW116139   4.210   4.254  11.188  0.4529 -2.1776 -0.2315
 1559SOL    HW216140   4.247   4.177  11.076 -1.2291  0.1309  1.7608
 1560SOL     OW16141   0.951   1.837   7.907 -0.0985  0.5954 -0.1878
 1560SOL    HW116142   0.892   1.791   7.966  0.6267  1.4497  1.2153
 1560SOL    HW216143   0.892   1.865   7.837  1.6125  1.4422 -1.2988
 1561SOL     OW16144   0.482   2.486  13.582 -0.6041 -0.2357 -0.3516
 1561SOL    HW116145   0.449   2.429  13.513  0.1178 -0.8065 -0.2254
 1561SOL    HW216146   0.515   2.563  13.535  2.5003  1.0785  3.9927
 1562SOL     OW16147   4.033   3.409   4.532  0.0394 -0.1603  0.1859
 1562SOL    HW116148   4.009   3.330   4.581  1.0872 -0.3967  0.3091
 1562SOL    HW216149   4.122   3.421   4.565  1.0333  1.0710 -2.8674
 1563SOL     OW16150   2.519   4.709  10.071 -0.4395  0.3594  0.0569
 1563SOL    HW116151   2.610   4.681  10.060 -0.8596 -0.8246 -0.5202
 1563SOL    HW216152   2.519   0.073  10.103  1.3479 -0.1268  1.3727
 1564SOL     OW16153   2.266   3.668   2.747  0.2622  0.3219  0.7216
 1564SOL    HW116154   2.242   3.708   2.663  2.2528 -1.3467 -0.6098
 1564SOL    HW216155   2.320   3.598   2.710  0.9076  0.7219  0.9063
 1565SOL     OW16156   0.327   4.185   5.027  0.0494 -0.0163 -0.0164
 1565SOL    HW116157   0.315   4.130   5.104 -1.2515 -0.1756 -0.3439
 1565SOL    HW216158   0.359   4.118   4.967  0.3031  1.4402 -1.5242
 1566SOL     OW16159   3.733   3.131   0.230  0.1824  0.3514 -0.8660
 1566SOL    HW116160   3.752   3.050   0.278  0.0376  1.1028  0.4836
 1566SOL    HW216161   3.667   3.094   0.172 -1.8841  1.5702  0.6603
 1567SOL     OW16162   3.344   3.730   2.693  0.2542  0.1536 -0.0663
 1567SOL    HW116163   3.377   3.796   2.632 -0.0098 -1.4238 -1.9199
 1567SOL    HW216164   3.419   3.710   2.749  0.9404 -0.7530 -1.3156
 1568SOL     OW16165   2.919   3.643   7.940 -0.3612  0.6500 -0.5381
 1568SOL    HW116166   2.990   3.679   7.993 -0.1766  0.2541 -0.5157
 1568SOL    HW216167   2.855   3.714   7.933 -0.7757  0.1212 -2.1630
 1569SOL     OW16168   1.655   1.774  16.331  0.4303  0.0777  0.0548
 1569SOL    HW116169   1.688   1.844  16.388  1.1869 -0.0351 -0.2487
 1569SOL    HW216170   1.635   1.820  16.250  1.7859 -2.3031 -1.6188
 1570SOL     OW16171   2.807   1.104   4.158  0.1175  0.0918 -0.3047
 1570SOL    HW116172   2.891   1.144   4.178 -0.7460  1.6360  0.2684
 1570SOL    HW216173   2.756   1.182   4.134 -0.2316 -0.0954 -0.1774
 1571SOL     OW16174   0.386   1.682   9.717 -0.0007  0.1612  0.0515
 1571SOL    HW116175   0.333   1.664   9.640 -1.0546  2.5841  0.2137
 1571SOL    HW216176   0.331   1.649   9.788 -3.5227  0.9296 -2.3177
 1572SOL     OW16177   1.772   3.966   2.403  0.3215  0.1871 -0.3820
 1572SOL    HW116178   1.744   3.923   2.323 -1.5850 -0.8931  0.8558
 1572SOL    HW216179   1.734   3.913   2.474  0.2693  2.8678  1.5980
 1573SOL     OW16180   2.338   3.005   3.476 -0.0992  0.0590 -0.0114
 1573SOL    HW116181   2.278   2.940   3.513  2.1028 -0.8374  2.0622
 1573SOL    HW216182   2.277   3.078   3.466  0.1601  0.2624 -0.1072
 1574SOL     OW16183   3.412   3.538   6.531  0.1760  0.4175 -0.0337
 1574SOL    HW116184   3.386   3.448   6.511  1.5876  0.1222 -0.5483
 1574SOL    HW216185   3.359   3.554   6.609 -2.1970 -1.9552 -1.1661
 1575SOL     OW16186   0.575   4.334   6.420 -0.4385 -0.6752  0.2505
 1575SOL    HW116187   0.583   4.401   6.352 -1.4196 -0.9732 -0.1612
 1575SOL    HW216188   0.562   4.389   6.497  1.7304 -0.2537  0.2962
 1576SOL     OW16189   0.098   0.024   6.414  0.4783 -0.7791  0.7930
 1576SOL    HW116190   0.046   4.671   6.398 -1.9691  1.3044 -1.2787
 1576SOL    HW216191   0.131   0.037   6.325 -0.5286 -1.0491  0.3882
 1577SOL     OW16192   4.349   3.286  17.312  0.3222 -0.1628 -0.5260
 1577SOL    HW116193   4.254   3.289  17.303  0.3171 -0.1117 -0.4491
 1577SOL    HW216194   4.375   3.279  17.220  1.0823  0.3416 -0.3491
 1578SOL     OW16195   1.588   1.190   8.604  0.3502  0.0994 -0.5689
 1578SOL    HW116196   1.565   1.103   8.573  2.1128 -1.8296  3.6499
 1578SOL    HW216197   1.514   1.236   8.564  0.7835 -0.9391 -2.5926
 1579SOL     OW16198   4.207   0.452   8.734  0.1269  0.1762  0.4288
 1579SOL    HW116199   4.126   0.502   8.727 -1.0882 -1.7256  0.5886
 1579SOL    HW216200   4.173   0.386   8.795  3.3456 -2.0150 -0.1346
 1580SOL     OW16201   4.721   2.160   2.910 -0.1353  0.0907 -0.7136
 1580SOL    HW116202   0.087   2.132   2.912 -0.2613  0.0103  3.4931
 1580SOL    HW216203   4.683   2.084   2.867 -1.7052  0.1232  0.6197
 1581SOL     OW16204   4.060   3.615  13.681 -0.0755  0.1553  0.1164
 1581SOL    HW116205   3.968   3.613  13.652  0.4535 -0.6039 -1.5510
 1581SOL    HW216206   4.063   3.548  13.749 -1.4332  1.5467  1.5630
 1582SOL     OW16207   4.214   4.394   3.617  0.0883 -0.5587 -0.9236
 1582SOL    HW116208   4.271   4.442   3.677 -1.8981  0.0983  0.4374
 1582SOL    HW216209   4.143   4.362   3.673  0.1249 -0.8115 -1.0206
 1583SOL     OW16210   4.050   1.910   5.956 -0.2128 -0.5846 -0.2819
 1583SOL    HW116211   4.125   1.961   5.984 -0.9545 -0.0968  0.8297
 1583SOL    HW216212   4.054   1.933   5.863  1.7420 -0.2996 -0.1123
 1584SOL     OW16213   1.902   3.151   7.996 -0.3208  0.2075 -0.7662
 1584SOL    HW116214   1.929   3.201   8.073 -2.2209 -0.4642  0.3489
 1584SOL    HW216215   1.978   3.161   7.939 -0.1259  1.3001 -0.3130
 1585SOL     OW16216   2.922   2.251   2.277 -0.6328  0.4051 -0.4584
 1585SOL    HW116217   3.003   2.203   2.258 -1.3590 -1.5346  1.4111
 1585SOL    HW216218   2.924   2.307   2.199  0.4865  1.9304  0.6415
 1586SOL     OW16219   3.326   3.039   3.941 -0.2333 -0.3297  0.1518
 1586SOL    HW116220   3.406   2.986   3.932 -0.5226 -0.6256 -0.6865
 1586SOL    HW216221   3.261   2.969   3.947  0.1280 -0.7278 -0.4914
 1587SOL     OW16222   0.371   0.446   2.595  0.3312 -0.4283  0.2068
 1587SOL    HW116223   0.327   0.525   2.626  2.0475 -0.7203  3.3634
 1587SOL    HW216224   0.294   0.415   2.547 -1.5619  3.4102  0.7714
 1588SOL     OW16225   3.379   0.737   0.754  0.1974 -0.1337 -0.0402
 1588SOL    HW116226   3.375   0.643   0.770 -0.0916 -0.1958 -0.4672
 1588SOL    HW216227   3.293   0.766   0.785  0.4711  0.7848 -0.1221
 1589SOL     OW16228   1.359   4.283   3.512  0.4749  0.1692 -0.0289
 1589SOL    HW116229   1.414   4.247   3.444  0.3922 -1.0192  0.5380
 1589SOL    HW216230   1.281   4.232   3.492  1.0291 -0.7246  0.1184
 1590SOL     OW16231   1.432   1.375  16.755  0.0718 -0.7070 -0.7125
 1590SOL    HW116232   1.485   1.328  16.690  1.2911  0.6586 -0.7025
 1590SOL    HW216233   1.477   1.459  16.763  1.1047 -1.4066  0.7970
 1591SOL     OW16234   2.803   2.685  14.493  0.0087 -0.5652  0.0241
 1591SOL    HW116235   2.757   2.629  14.556  0.5384  0.9370  1.7384
 1591SOL    HW216236   2.838   2.758  14.543  1.3054 -1.3230  0.2233
 1592SOL     OW16237   1.080   1.190  17.083 -0.1970  0.1652  0.2531
 1592SOL    HW116238   1.091   1.263  17.023  0.9242  0.1435  0.4379
 1592SOL    HW216239   1.141   1.127  17.044 -0.1575 -0.7481  1.7932
 1593SOL     OW16240   2.538   4.259  11.077  0.6100  0.7392  0.0655
 1593SOL    HW116241   2.531   4.165  11.058  0.3669  1.1237 -1.8227
 1593SOL    HW216242   2.600   4.264  11.149 -1.7927 -2.9399  2.4293
 1594SOL     OW16243   2.583   2.704   7.607 -0.1787  0.2588  0.0379
 1594SOL    HW116244   2.633   2.764   7.662 -0.2410 -0.8782  1.3423
 1594SOL    HW216245   2.495   2.695   7.643 -0.5802 -0.1108 -1.0294
 1595SOL     OW16246   4.226   2.732   5.958  0.3570  0.0165  0.4323
 1595SOL    HW116247   4.162   2.666   5.930 -1.0099  1.8953 -0.8469
 1595SOL    HW216248   4.183   2.748   6.042  0.1164 -1.7377  0.6413
 1596SOL     OW16249   2.524   1.151   5.217 -0.0804  0.3896 -0.3981
 1596SOL    HW116250   2.545   1.232   5.171  1.0587  0.8507  0.9862
 1596SOL    HW216251   2.479   1.180   5.296  1.3341 -0.2090  0.6202
 1597SOL     OW16252   3.777   4.214   9.862  0.2303 -0.0763 -0.4791
 1597SOL    HW116253   3.835   4.274   9.815  0.6868  0.9985  1.4706
 1597SOL    HW216254   3.721   4.276   9.908  0.0242 -0.3221 -0.3979
 1598SOL     OW16255   0.690   2.626   1.350  0.1472  0.1146  0.2667
 1598SOL    HW116256   0.756   2.569   1.389  1.5438  2.4664  1.3339
 1598SOL    HW216257   0.635   2.650   1.424 -0.1043  1.4343 -0.3467
 1599SOL     OW16258   4.596   4.193   8.865 -0.1888 -0.7937 -0.2622
 1599SOL    HW116259   4.644   4.269   8.897  0.3946 -0.8902 -0.9027
 1599SOL    HW216260   4.568   4.221   8.777 -0.2656 -2.8677 -0.8959
 1600SOL     OW16261   3.230   3.746   3.975 -0.1210  0.0459  0.4761
 1600SOL    HW116262   3.310   3.754   4.026  0.1323  1.7097 -0.1919
 1600SOL    HW216263   3.260   3.677   3.916 -1.1578 -1.4312  1.6519
 1601SOL     OW16264   1.491   0.949   7.259  0.3372 -0.3975 -0.0158
 1601SOL    HW116265   1.528   0.870   7.298 -0.5842  0.1615  1.9817
 1601SOL    HW216266   1.415   0.910   7.216  0.0883 -1.3143  1.2401
 1602SOL     OW16267   0.883   3.462  14.471 -0.3775  0.5245 -0.1722
 1602SOL    HW116268   0.811   3.522  14.453 -0.7490 -0.1246 -0.8272
 1602SOL    HW216269   0.921   3.431  14.389 -1.4712  3.5784 -1.8235
 1603SOL     OW16270   3.928   4.507   4.439  0.4776  0.1775 -0.2848
 1603SOL    HW116271   3.840   4.542   4.453 -0.4329 -0.8901 -3.3240
 1603SOL    HW216272   3.956   4.498   4.530  0.3810 -1.6920 -0.4249
 1604SOL     OW16273   3.211   4.688   4.242 -0.6504  0.4528  0.4624
 1604SOL    HW116274   3.163   0.030   4.194  1.4452 -0.5452 -3.0393
 1604SOL    HW216275   3.151   4.615   4.226  1.0809 -0.4658 -1.8267
 1605SOL     OW16276   4.658   2.123   2.305 -0.0085  0.7092 -0.0938
 1605SOL    HW116277   4.698   2.102   2.389 -0.5447  2.1126  0.5252
 1605SOL    HW216278   4.568   2.148   2.329 -0.5271  0.5073 -1.8146
 1606SOL     OW16279   0.841   4.085  13.230  0.6233 -0.0460 -0.5703
 1606SOL    HW116280   0.863   4.170  13.193 -0.5980  0.6502  0.3038
 1606SOL    HW216281   0.746   4.095  13.230  0.6405  0.0626  0.1488
 1607SOL     OW16282   0.848   1.968   2.787 -0.0382  0.2718  0.1239
 1607SOL    HW116283   0.820   2.008   2.869  1.2854 -0.4050  0.9021
 1607SOL    HW216284   0.911   1.901   2.812  0.6584  1.3149  1.1267
 1608SOL     OW16285   4.627   1.254   8.975 -0.1118 -0.6568  0.1778
 1608SOL    HW116286   4.688   1.316   8.934  0.5603 -0.7510  1.0502
 1608SOL    HW216287   4.551   1.312   8.970 -0.1212 -0.9077 -2.6192
 1609SOL     OW16288   0.439   1.467  12.783  0.6932  0.0739 -1.0570
 1609SOL    HW116289   0.460   1.374  12.794 -0.0304  0.3472  2.5894
 1609SOL    HW216290   0.429   1.462  12.688  0.5655  0.3767 -1.0604
 1610SOL     OW16291   3.733   4.709   5.131 -0.6736  0.6801  0.1182
 1610SOL    HW116292   3.787   0.043   5.182 -1.3099  0.1523  1.4065
 1610SOL    HW216293   3.799   4.660   5.082 -1.9427 -2.3022  1.3493
 1611SOL     OW16294   1.645   2.175  13.475 -0.0706  0.1496  0.4464
 1611SOL    HW116295   1.563   2.186  13.428  0.0119 -0.4452  0.1555
 1611SOL    HW216296   1.621   2.141  13.562  0.9782  2.7832  1.7571
 1612SOL     OW16297   3.569   4.417   0.850  0.4189  0.6378  0.0963
 1612SOL    HW116298   3.501   4.398   0.914  0.0142 -0.0431 -0.5314
 1612SOL    HW216299   3.600   4.506   0.865 -1.9729  1.8437 -2.2366
 1613SOL     OW16300   0.254   0.752   8.944 -0.2161 -0.0954 -0.2568
 1613SOL    HW116301   0.315   0.804   8.892  1.6683  0.4427  2.5213
 1613SOL    HW216302   0.310   0.700   9.002  1.8802  1.7108 -0.6605
 1614SOL     OW16303   1.345   3.917   2.699  1.6014  0.4496  0.1061
 1614SOL    HW116304   1.326   3.826   2.678 -2.8032  1.9983 -2.5426
 1614SOL    HW216305   1.271   3.958   2.655  0.4269 -1.5787  0.1617
 1615SOL     OW16306   3.244   1.581   8.438 -0.1899  0.0509  0.2925
 1615SOL    HW116307   3.295   1.593   8.519 -0.4885  0.6809  0.3836
 1615SOL    HW216308   3.270   1.669   8.410 -1.3400  0.1642 -0.3863
 1616SOL     OW16309   3.212   2.766   0.419  0.5093  0.0614  0.3282
 1616SOL    HW116310   3.149   2.818   0.369  2.3080 -1.3332 -3.3411
 1616SOL    HW216311   3.213   2.807   0.506 -2.6643  0.3165  0.2567
 1617SOL     OW16312   2.192   0.660   0.951 -0.0735  0.0548 -0.0789
 1617SOL    HW116313   2.140   0.728   0.993 -0.0053 -0.1181  0.2912
 1617SOL    HW216314   2.184   0.677   0.858 -0.7124  3.4381  0.5941
 1618SOL     OW16315   4.544   3.880   3.698 -0.1663  0.0077  0.4609
 1618SOL    HW116316   4.634   3.852   3.718 -0.8068 -1.9830  0.5759
 1618SOL    HW216317   4.515   3.904   3.786  1.6976 -0.4071  1.1977
 1619SOL     OW16318   0.239   0.618  10.767 -0.6041 -0.2692 -0.6139
 1619SOL    HW116319   0.289   0.693  10.733 -2.8013  0.7222 -1.6384
 1619SOL    HW216320   0.285   0.603  10.850  0.9721  0.6723 -1.3165
 1620SOL     OW16321   1.646   0.470   1.176 -0.3303  0.4633 -0.2501
 1620SOL    HW116322   1.626   0.482   1.083 -0.9854 -1.8764 -0.4128
 1620SOL    HW216323   1.724   0.414   1.166 -1.6347 -1.5014  0.6038
 1621SOL     OW16324   3.793   3.277  15.525 -0.2642  0.7590 -0.0182
 1621SOL    HW116325   3.885   3.289  15.501  0.0408 -1.2936  0.1602
 1621SOL    HW216326   3.816   3.220  15.598 -3.0382  0.3230  0.4830
 1622SOL     OW16327   3.515   0.393  16.197  0.1173 -1.1758  0.0373
 1622SOL    HW116328   3.459   0.362  16.127 -1.2224  2.0895 -0.3323
 1622SOL    HW216329   3.467   0.356  16.272  2.2079 -1.2165  1.3750
 1623SOL     OW16330   3.213   0.768  14.826 -0.4464 -0.1948  0.6294
 1623SOL    HW116331   3.236   0.738  14.738  0.5327 -3.3774  1.9851
 1623SOL    HW216332   3.146   0.834  14.809  1.2115  1.4987  0.6732
 1624SOL     OW16333   4.175   2.416  13.231  0.5610  0.6294 -0.3235
 1624SOL    HW116334   4.218   2.332  13.215  3.0985  1.7377  0.5766
 1624SOL    HW216335   4.091   2.397  13.189 -0.0370  1.8846  0.3143
 1625SOL     OW16336   3.332   3.235   2.387 -0.5782 -0.6199  0.1823
 1625SOL    HW116337   3.417   3.235   2.430 -1.5709  0.2090  2.1263
 1625SOL    HW216338   3.322   3.143   2.364 -1.8195 -0.1732 -1.1250
 1626SOL     OW16339   1.095   0.086   2.776  0.2147  0.5611  0.1283
 1626SOL    HW116340   1.112   0.057   2.686 -2.8123  0.6166 -0.4563
 1626SOL    HW216341   1.003   0.113   2.778 -0.1177 -0.6604  1.7602
 1627SOL     OW16342   4.717   3.700   1.642  0.7970 -0.3080 -0.0686
 1627SOL    HW116343   4.624   3.717   1.632  1.0173  1.0697  0.2629
 1627SOL    HW216344   4.725   3.643   1.718  0.4861 -0.8535 -0.4478
 1628SOL     OW16345   3.768   0.543   3.092  0.2095  0.0736 -0.3826
 1628SOL    HW116346   3.799   0.464   3.048  1.1222  0.8263 -1.0744
 1628SOL    HW216347   3.695   0.562   3.032 -0.6221 -0.7424  0.3665
 1629SOL     OW16348   2.710   0.230   8.699 -0.2035 -0.2229 -0.3152
 1629SOL    HW116349   2.638   0.174   8.728 -0.1498 -0.6954 -1.0731
 1629SOL    HW216350   2.745   0.258   8.783 -0.7044 -0.8429  0.1000
 1630SOL     OW16351   3.530   2.810   9.814  0.9828  0.7153 -0.1643
 1630SOL    HW116352   3.544   2.745   9.745  1.5664  0.9979 -0.3101
 1630SOL    HW216353   3.622   2.820   9.838  1.4699 -2.7403 -0.5684
 1631SOL     OW16354   1.383   4.515   0.277  0.4319 -0.1775  0.2058
 1631SOL    HW116355   1.352   4.605   0.268 -1.3932 -0.7906  0.3729
 1631SOL    HW216356   1.453   4.519   0.212  1.3279  1.6886  1.2997
 1632SOL     OW16357   3.236   0.413   3.138 -0.4354 -0.1772  0.6365
 1632SOL    HW116358   3.239   0.325   3.174  0.1391  0.7614  2.8540
 1632SOL    HW216359   3.166   0.455   3.187 -0.3568  0.6786  0.0332
 1633SOL     OW16360   2.803   1.518  17.585  0.3021  0.2290  0.3337
 1633SOL    HW116361   2.733   1.454  17.588 -1.0176  1.6749  0.6284
 1633SOL    HW216362   2.804   1.559  17.498  2.8735  0.6050  0.5267
 1634SOL     OW16363   2.118   0.885  17.605 -0.3411 -0.1782  0.3168
 1634SOL    HW116364   2.067   0.826  17.550 -0.5777 -0.2449  0.6099
 1634SOL    HW216365   2.127   0.965  17.554 -1.9166  1.4560  2.6476
 1635SOL     OW16366   0.863   1.754   3.937 -0.6131 -0.0984 -0.0450
 1635SOL    HW116367   0.786   1.786   3.984  0.7012 -0.2171  2.2005
 1635SOL    HW216368   0.833   1.668   3.909  3.1199 -1.5570  0.3978
 1636SOL     OW16369   3.154   4.439   3.104 -0.0014  0.1956 -0.1744
 1636SOL    HW116370   3.099   4.517   3.109 -0.0723  0.1631 -0.4638
 1636SOL    HW216371   3.244   4.471   3.094 -0.3595  1.1184 -0.4780
 1637SOL     OW16372   0.997   0.857   2.199 -0.1198  0.7202  1.0163
 1637SOL    HW116373   1.090   0.880   2.205  0.7746 -2.1651 -1.4942
 1637SOL    HW216374   0.977   0.915   2.126 -1.3366  0.7140  1.3447
 1638SOL     OW16375   0.422   3.262   3.684  1.0651  0.1534  0.4573
 1638SOL    HW116376   0.413   3.169   3.706  1.5996  0.2585  1.1289
 1638SOL    HW216377   0.500   3.248   3.631 -0.0914  2.4910 -1.8211
 1639SOL     OW16378   4.051   2.031   9.347 -0.5733 -0.2521 -0.3622
 1639SOL    HW116379   4.017   2.118   9.325 -1.2166 -1.2352 -3.3504
 1639SOL    HW216380   4.116   2.048   9.415  0.2868  0.2953 -1.3090
 1640SOL     OW16381   2.187   4.017   5.247 -0.3094 -0.4858  0.5307
 1640SOL    HW116382   2.168   3.980   5.333  1.2754 -1.9476  0.2728
 1640SOL    HW216383   2.234   3.947   5.201 -1.8243  0.6293 -2.6984
 1641SOL     OW16384   3.142   2.347   6.556  0.4017 -0.0461 -0.5471
 1641SOL    HW116385   3.107   2.402   6.486 -1.6611 -2.2409 -1.2336
 1641SOL    HW216386   3.081   2.367   6.627 -0.6734  0.7083 -1.6883
 1642SOL     OW16387   0.140   2.874  14.516  0.3150 -0.6059 -0.0638
 1642SOL    HW116388   0.048   2.863  14.493  0.1191  0.9610 -0.0204
 1642SOL    HW216389   0.139   2.968  14.529  0.4268 -0.8265  1.6100
 1643SOL     OW16390   2.880   3.380   4.507 -0.4379 -0.1708  0.3703
 1643SOL    HW116391   2.869   3.469   4.475  0.6368 -0.4171 -0.6536
 1643SOL    HW216392   2.972   3.354   4.502 -0.4375  0.0823 -0.8646
 1644SOL     OW16393   1.545   0.698   2.612  0.2864 -0.0021 -0.1690
 1644SOL    HW116394   1.504   0.628   2.663  0.7619 -0.4507 -0.4024
 1644SOL    HW216395   1.475   0.763   2.616 -0.6321 -1.0585  0.9858
 1645SOL     OW16396   0.535   3.923   2.579 -0.1015 -0.0106  0.3123
 1645SOL    HW116397   0.478   3.969   2.517 -1.2173 -0.4070  1.0338
 1645SOL    HW216398   0.600   3.879   2.524 -1.1383 -1.0954 -0.0472
 1646SOL     OW16399   0.002   0.113   9.041 -0.5599  0.0455  0.5560
 1646SOL    HW116400   4.636   0.088   9.036 -0.1524 -1.1806 -0.7543
 1646SOL    HW216401   0.001   0.185   9.104  1.8004  1.0046 -0.5084
 1647SOL     OW16402   2.648   3.444   7.761 -0.6177  0.0934 -0.2543
 1647SOL    HW116403   2.611   3.356   7.754 -0.6102  0.1746 -1.2814
 1647SOL    HW216404   2.632   3.468   7.852  0.7003 -0.5369  0.1487
 1648SOL     OW16405   1.762   1.732   3.371  0.2362  0.5397  0.3375
 1648SOL    HW116406   1.761   1.697   3.281  0.5799 -1.6870  1.2083
 1648SOL    HW216407   1.672   1.763   3.381 -0.6760 -2.1468  0.4440
 1649SOL     OW16408   1.205   0.374   4.752 -0.7336  1.0851  0.2453
 1649SOL    HW116409   1.279   0.380   4.690 -0.1018 -2.4166  0.6707
 1649SOL    HW216410   1.204   0.279   4.763  1.4568  0.6158 -3.3439
 1650SOL     OW16411   1.492   2.620   3.639 -0.5863  0.1025  0.5150
 1650SOL    HW116412   1.405   2.624   3.599  0.4043 -0.6450 -1.7568
 1650SOL    HW216413   1.542   2.589   3.563  0.3128  2.2563  0.2288
 1651SOL     OW16414   0.058   3.629   8.843  0.1230 -0.3971 -0.2081
 1651SOL    HW116415   0.010   3.710   8.855 -1.0056 -1.0608 -0.2565
 1651SOL    HW216416   0.096   3.637   8.755 -0.9207  3.6235 -0.2653
 1652SOL     OW16417   2.552   0.751   6.656 -0.0539 -0.6291 -0.4222
 1652SOL    HW116418   2.618   0.741   6.725  0.3078 -2.4025 -1.0207
 1652SOL    HW216419   2.475   0.720   6.703  0.8707  1.5409  2.5203
 1653SOL     OW16420   4.343   0.102   0.373  0.1724 -0.4913 -0.1967
 1653SOL    HW116421   4.303   0.089   0.459  0.2869  0.4960  0.0020
 1653SOL    HW216422   4.432   0.097   0.409 -0.1754 -0.6284  0.6490
 1654SOL     OW16423   3.731   3.577  10.751  0.1790  0.0132  0.5764
 1654SOL    HW116424   3.802   3.625  10.793  0.6364  2.1540 -2.6072
 1654SOL    HW216425   3.728   3.503  10.810 -1.0114 -0.6123 -0.2626
 1655SOL     OW16426   3.203   3.620  11.613 -0.3049 -0.2135  0.6734
 1655SOL    HW116427   3.159   3.600  11.531  1.1039  2.2649 -0.6829
 1655SOL    HW216428   3.265   3.690  11.592 -1.2519  1.1007  2.2513
 1656SOL     OW16429   0.117   1.988  13.703 -0.5438  0.0489 -0.3236
 1656SOL    HW116430   0.108   1.997  13.608 -1.0680 -1.2595 -0.3946
 1656SOL    HW216431   0.087   1.898  13.714 -0.9881  0.2104 -0.2137
 1657SOL     OW16432   2.938   1.231  14.299 -0.4116  0.1527  0.6853
 1657SOL    HW116433   2.955   1.319  14.333 -0.0246  0.0127  0.8518
 1657SOL    HW216434   3.029   1.211  14.275 -0.8541  0.5201 -1.3473
 1658SOL     OW16435   0.597   2.055   1.635  0.1895 -0.4758 -0.4173
 1658SOL    HW116436   0.665   2.003   1.592  0.3511 -0.0276 -0.7040
 1658SOL    HW216437   0.635   2.135   1.599  2.2165  0.3140  3.4143
 1659SOL     OW16438   1.788   4.651   8.123 -0.4311 -0.3639 -0.2748
 1659SOL    HW116439   1.705   4.687   8.090 -0.3258 -0.1871 -0.3474
 1659SOL    HW216440   1.832   4.618   8.045  2.0642  1.4367  0.3704
 1660SOL     OW16441   4.626   1.741   6.405 -0.3039  0.2315 -0.0933
 1660SOL    HW116442   4.636   1.724   6.311 -0.8143  2.9005 -0.6254
 1660SOL    HW216443   4.678   1.668   6.439 -0.5799  0.1567  0.1714
 1661SOL     OW16444   4.124   1.466   0.359  0.2730  0.8052  0.3841
 1661SOL    HW116445   4.084   1.414   0.290  1.4663  0.6186 -0.1622
 1661SOL    HW216446   4.041   1.511   0.373 -0.5146 -0.1077 -1.3112
 1662SOL     OW16447   2.064   3.608   8.403 -0.3938  0.2694 -0.0769
 1662SOL    HW116448   1.991   3.650   8.449  0.2081 -1.4536  2.4442
 1662SOL    HW216449   2.021   3.551   8.340  2.8733 -2.5894  0.3099
 1663SOL     OW16450   4.560   1.499   4.007 -0.3332  0.2828  0.1365
 1663SOL    HW116451   4.641   1.480   4.055 -0.6288  0.6250  0.7636
 1663SOL    HW216452   4.536   1.590   4.026 -1.1491 -0.0598  0.7285
 1664SOL     OW16453   0.416   4.537   4.824 -0.5002  0.0096  0.3050
 1664SOL    HW116454   0.510   4.540   4.805 -0.8969  0.1147 -1.5959
 1664SOL    HW216455   0.392   4.582   4.744 -0.1197 -1.4203 -0.6051
 1665SOL     OW16456   3.177   3.904   1.979 -0.4704 -0.2307 -0.5430
 1665SOL    HW116457   3.206   3.914   1.889  0.2842  0.6232 -0.2107
 1665SOL    HW216458   3.222   3.821   1.997  0.4209  0.7195  1.5973
 1666SOL     OW16459   0.713   3.537   5.016  0.0229 -0.4988 -0.4855
 1666SOL    HW116460   0.655   3.486   4.958 -4.3170  2.1662  1.5622
 1666SOL    HW216461   0.785   3.555   4.955  0.0272 -1.1163 -0.6667
 1667SOL     OW16462   1.758   0.984   8.320  0.6339  0.1137  0.2003
 1667SOL    HW116463   1.810   1.011   8.396  0.3256  3.1844 -0.6643
 1667SOL    HW216464   1.716   1.063   8.285 -2.9336 -1.6458  0.5377
 1668SOL     OW16465   0.681   0.910  13.447 -0.0423  0.4301 -0.1584
 1668SOL    HW116466   0.591   0.937  13.426 -0.0691  0.7074  0.3081
 1668SOL    HW216467   0.717   0.901  13.359 -1.5237 -0.2041 -0.6953
 1669SOL     OW16468   2.163   2.093   3.941  0.1317 -0.6050  0.2137
 1669SOL    HW116469   2.168   1.997   3.938  2.7214 -0.4554 -0.0870
 1669SOL    HW216470   2.207   2.125   4.020 -0.7018  0.7819  0.1146
 1670SOL     OW16471   2.461   0.618   5.267 -0.4784  0.0448  0.1052
 1670SOL    HW116472   2.455   0.557   5.194  1.6804  0.5325 -0.4725
 1670SOL    HW216473   2.487   0.560   5.337  1.3278 -0.9382 -1.3777
 1671SOL     OW16474   0.555   1.332   8.969  0.0199  0.1790 -0.2969
 1671SOL    HW116475   0.650   1.324   8.958  0.2529  1.0566  1.1136
 1671SOL    HW216476   0.552   1.294   9.056  0.1764  0.1573 -0.3006
 1672SOL     OW16477   3.296   0.728  13.068  0.0891 -0.2923  0.3059
 1672SOL    HW116478   3.343   0.766  13.143  2.8397  1.9564 -2.5534
 1672SOL    HW216479   3.208   0.762  13.085 -0.4014 -2.0031  1.1842
 1673SOL     OW16480   1.815   2.973   7.675 -0.0194 -0.3737 -0.3010
 1673SOL    HW116481   1.835   3.030   7.748  3.5378 -0.2036 -1.4311
 1673SOL    HW216482   1.763   3.028   7.616  0.2954 -0.6940 -0.8828
 1674SOL     OW16483   3.908   0.022   6.168  0.1606 -0.2330 -0.3072
 1674SOL    HW116484   3.837   0.040   6.229  1.0951 -1.3597  1.1270
 1674SOL    HW216485   3.965   0.096   6.188 -2.3293  0.9758  2.2289
 1675SOL     OW16486   2.029   2.216   8.767  0.1126  0.4685 -0.1090
 1675SOL    HW116487   1.937   2.215   8.790 -0.1181 -1.4528 -1.0658
 1675SOL    HW216488   2.069   2.170   8.841  1.5625 -0.9075 -1.7400
 1676SOL     OW16489   0.009   4.179   4.786  0.3017  0.2015  0.2446
 1676SOL    HW116490   4.643   4.204   4.778 -0.3049 -2.2943 -0.6582
 1676SOL    HW216491   0.052   4.254   4.826 -1.3792  0.5666  1.3435
 1677SOL     OW16492   4.644   0.540  13.908 -0.3929  0.0343 -0.2073
 1677SOL    HW116493   4.634   0.619  13.961 -0.3344 -0.0774 -0.0252
 1677SOL    HW216494   4.620   0.580  13.825 -2.7483 -0.9915 -0.0073
 1678SOL     OW16495   0.859   3.731   4.306  0.2607 -0.2854 -0.1990
 1678SOL    HW116496   0.909   3.654   4.281  0.1522 -0.7744  1.0844
 1678SOL    HW216497   0.807   3.697   4.379 -1.3687 -0.1891 -1.3053
 1679SOL     OW16498   4.367   0.902   1.509 -0.4622  0.4361  0.3106
 1679SOL    HW116499   4.343   0.832   1.448  0.5409  1.3932 -1.2118
 1679SOL    HW216500   4.434   0.859   1.563 -0.4372  1.2525  0.9197
 1680SOL     OW16501   2.946   0.133   2.890  0.1537 -0.0211  0.9111
 1680SOL    HW116502   2.899   0.203   2.935  1.3182 -0.0477  2.1867
 1680SOL    HW216503   2.978   0.175   2.811 -3.0534 -0.1821 -0.4731
 1681SOL     OW16504   0.221   1.096   2.332 -0.0984  0.2621 -0.3996
 1681SOL    HW116505   0.176   1.021   2.293  0.9583 -0.5537 -0.0302
 1681SOL    HW216506   0.307   1.056   2.346  1.0421  3.6948  2.7316
 1682SOL     OW16507   2.386   3.952   1.143  0.2809 -0.5759 -0.1910
 1682SOL    HW116508   2.376   3.942   1.049  0.5233 -1.5099 -0.1176
 1682SOL    HW216509   2.378   4.047   1.149  1.8965 -0.2726 -2.6330
 1683SOL     OW16510   4.524   1.398   6.502 -0.3232 -0.0408 -0.3782
 1683SOL    HW116511   4.574   1.400   6.420 -2.2582 -0.4095 -1.5710
 1683SOL    HW216512   4.545   1.477   6.553  1.0222  0.3055 -1.4798
 1684SOL     OW16513   2.974   1.338   1.365 -0.1814 -0.5979  0.4723
 1684SOL    HW116514   2.955   1.307   1.453  0.0790 -1.8746  0.0846
 1684SOL    HW216515   2.910   1.409   1.359  0.3591  0.0208  2.0188
 1685SOL     OW16516   0.919   1.790  12.194  0.4202 -0.1163 -0.7868
 1685SOL    HW116517   0.842   1.817  12.244  1.3579 -0.3494  0.7838
 1685SOL    HW216518   0.956   1.873  12.164 -0.8005  1.1180  1.0783
 1686SOL     OW16519   2.652   1.148  12.967 -0.2167  0.6890 -0.4570
 1686SOL    HW116520   2.693   1.203  12.900  0.0279  0.6480 -0.3408
 1686SOL    HW216521   2.559   1.144  12.941 -0.5021 -0.2422  0.7310
 1687SOL     OW16522   3.280   1.916   7.709  0.1727  0.3979  0.0282
 1687SOL    HW116523   3.237   1.975   7.648  0.8130  1.0752  0.2372
 1687SOL    HW216524   3.215   1.908   7.778  0.3538 -1.3877 -0.0043
 1688SOL     OW16525   3.192   2.267   0.787 -0.7182 -0.0299 -0.8639
 1688SOL    HW116526   3.126   2.336   0.784 -0.6604  0.1214  0.9656
 1688SOL    HW216527   3.270   2.323   0.791 -0.2263 -0.8458  1.1630
 1689SOL     OW16528   0.200   4.173   8.384 -0.1061 -0.0252  0.5049
 1689SOL    HW116529   0.292   4.189   8.406  0.5500 -0.7604 -1.6824
 1689SOL    HW216530   0.162   4.251   8.425  0.1577 -0.3782  1.4184
 1690SOL     OW16531   4.069   0.169   1.064 -0.0987  0.2359  0.2119
 1690SOL    HW116532   4.043   0.245   1.117 -1.6986  0.4264 -0.8595
 1690SOL    HW216533   4.122   0.128   1.133  0.8384  0.6935 -0.2388
 1691SOL     OW16534   0.642   3.620   3.081 -0.3772 -0.0227 -0.7939
 1691SOL    HW116535   0.706   3.550   3.096  0.6826  0.6193 -2.3712
 1691SOL    HW216536   0.697   3.696   3.098 -0.7069  0.0705 -0.1334
 1692SOL     OW16537   1.176   0.926   6.745 -0.9218 -0.5293  0.7050
 1692SOL    HW116538   1.092   0.901   6.708 -0.1991 -2.6800  0.5577
 1692SOL    HW216539   1.220   0.843   6.763  0.9862  0.4219  0.5004
 1693SOL     OW16540   2.451   4.021   5.420  0.3315  0.5065  0.5606
 1693SOL    HW116541   2.422   4.103   5.380 -1.6793 -1.2634 -1.6420
 1693SOL    HW216542   2.376   3.962   5.416 -1.2177  2.3189  2.9242
 1694SOL     OW16543   0.653   4.524   3.207 -0.0651  0.3492 -0.3304
 1694SOL    HW116544   0.680   4.438   3.176 -1.0423  0.6472 -2.0471
 1694SOL    HW216545   0.585   4.558   3.148  0.3059  1.6652  0.0108
 1695SOL     OW16546   3.305   1.562   1.903 -0.3832  0.2816  0.0353
 1695SOL    HW116547   3.224   1.554   1.853 -0.5623  1.3468  0.1629
 1695SOL    HW216548   3.363   1.548   1.828 -0.4139  3.3757 -0.5408
 1696SOL     OW16549   2.715   2.286   4.006  0.3377 -0.6096 -0.1799
 1696SOL    HW116550   2.696   2.317   4.094 -1.4357 -1.4440 -0.2782
 1696SOL    HW216551   2.628   2.266   3.973  1.1237  0.5003 -2.9571
 1697SOL     OW16552   3.913   2.165   8.800 -0.3016 -0.1167  0.5864
 1697SOL    HW116553   3.976   2.119   8.855  0.7188  1.5413  0.7991
 1697SOL    HW216554   3.831   2.117   8.799 -0.1317 -0.3923 -1.1101
 1698SOL     OW16555   4.633   0.311   3.432 -0.1462 -0.1855 -0.0895
 1698SOL    HW116556   4.658   0.303   3.524 -0.7913 -2.0627 -0.0632
 1698SOL    HW216557   4.721   0.320   3.395 -0.9718 -0.7684 -2.2316
 1699SOL     OW16558   2.610   1.558  15.683  0.1240 -0.0209  0.3554
 1699SOL    HW116559   2.665   1.485  15.708 -0.2199 -0.8298 -1.2819
 1699SOL    HW216560   2.602   1.544  15.588  1.6807 -2.0191  0.5375
 1700SOL     OW16561   2.433   0.110   7.320  0.5649  0.4772  0.3560
 1700SOL    HW116562   2.453   0.177   7.254 -3.2239  1.9945  0.7579
 1700SOL    HW216563   2.520   0.071   7.322  1.2237  1.8968 -0.3420
 1701SOL     OW16564   2.789   4.552   2.570 -0.2603 -0.4310  0.0428
 1701SOL    HW116565   2.839   4.595   2.501  0.4836 -1.6964 -0.2120
 1701SOL    HW216566   2.803   4.461   2.543  2.3023 -0.5664  1.8213
 1702SOL     OW16567   0.918   3.331   8.089 -0.0419 -0.6273 -0.4938
 1702SOL    HW116568   0.973   3.269   8.042 -3.2003 -3.1739 -0.8476
 1702SOL    HW216569   0.850   3.274   8.127 -0.9387 -0.5139 -1.9069
 1703SOL     OW16570   0.688   0.710   7.955 -0.9749 -0.5639 -0.1842
 1703SOL    HW116571   0.725   0.625   7.932  0.3615 -0.1397  0.3815
 1703SOL    HW216572   0.748   0.771   7.912 -1.2541 -0.5971 -0.6148
 1704SOL     OW16573   0.950   2.840  12.537  0.1461  0.5345  0.4021
 1704SOL    HW116574   0.992   2.870  12.618  0.1894  0.0894  0.5414
 1704SOL    HW216575   1.033   2.825  12.492 -0.2195  3.1352 -1.1409
 1705SOL     OW16576   2.223   2.319  12.978  0.1688 -0.5058 -0.1563
 1705SOL    HW116577   2.160   2.277  13.037  0.2611 -1.6473 -0.8571
 1705SOL    HW216578   2.241   2.258  12.906 -1.3822 -0.4629 -0.5681
 1706SOL     OW16579   3.539   4.241   3.561 -0.7482 -0.3163 -0.2245
 1706SOL    HW116580   3.522   4.183   3.635  0.3796  0.5844  0.7314
 1706SOL    HW216581   3.627   4.230   3.526 -1.0797  0.5799 -1.3623
 1707SOL     OW16582   3.977   1.932   3.242 -0.1439 -0.0043  0.3530
 1707SOL    HW116583   4.058   1.881   3.246  0.8938  1.5668 -0.6733
 1707SOL    HW216584   3.972   1.957   3.335 -0.0906 -0.0772  0.3750
 1708SOL     OW16585   0.992   3.293   6.393 -0.7146  0.4293 -0.1083
 1708SOL    HW116586   1.014   3.333   6.309 -0.6261 -1.5901 -1.0544
 1708SOL    HW216587   0.906   3.331   6.408 -1.2721 -1.2092  0.8960
 1709SOL     OW16588   1.499   1.549  15.649 -0.1996  0.2367 -0.2448
 1709SOL    HW116589   1.460   1.635  15.637 -0.9733  0.3479  3.1606
 1709SOL    HW216590   1.562   1.562  15.720  0.1747 -0.1320 -0.5046
 1710SOL     OW16591   0.188   1.652   5.441  0.2417 -0.1432  0.1274
 1710SOL    HW116592   0.216   1.740   5.416  1.7706 -1.0464 -1.3498
 1710SOL    HW216593   0.094   1.662   5.452  0.4599  2.2853 -0.0419
 1711SOL     OW16594   3.464   0.300   8.734 -0.3995  0.3805  0.5784
 1711SOL    HW116595   3.538   0.288   8.675  0.7008 -1.0862  2.2941
 1711SOL    HW216596   3.435   0.389   8.714  0.4653  0.7637  1.0685
 1712SOL     OW16597   1.580   2.209   3.815 -0.1264  0.5375 -0.4642
 1712SOL    HW116598   1.602   2.215   3.722  2.4216  1.0153  0.1790
 1712SOL    HW216599   1.612   2.297   3.836  0.1119  0.7163 -1.5891
 1713SOL     OW16600   1.229   3.936   7.330 -0.0010  0.3022  0.0485
 1713SOL    HW116601   1.199   3.982   7.409 -0.7793 -1.0449  0.5490
 1713SOL    HW216602   1.221   4.006   7.265  0.7485  0.3009 -0.0485
 1714SOL     OW16603   2.715   3.509   7.497 -0.2717  0.3077  0.1556
 1714SOL    HW116604   2.805   3.524   7.525 -0.0034 -3.3081  1.1524
 1714SOL    HW216605   2.676   3.490   7.582 -1.8422  1.2023 -0.3639
 1715SOL     OW16606   3.142   2.579  14.921  0.0422 -0.3795 -0.4654
 1715SOL    HW116607   3.148   2.530  15.002  0.7386 -2.2295 -1.6306
 1715SOL    HW216608   3.236   2.599  14.911  0.1174 -1.8378 -2.6449
 1716SOL     OW16609   1.180   3.215   2.878 -0.6029  0.4111  0.2098
 1716SOL    HW116610   1.182   3.300   2.833  1.8212 -0.2734 -0.9753
 1716SOL    HW216611   1.241   3.155   2.835 -1.4757 -0.1671 -0.2173
 1717SOL     OW16612   3.488   0.443   4.055 -0.1802  0.1108  0.2099
 1717SOL    HW116613   3.568   0.457   4.005  0.0631 -0.9365  0.3027
 1717SOL    HW216614   3.495   0.352   4.083 -1.2360 -0.5674 -1.7697
 1718SOL     OW16615   2.897   4.661  16.621  0.0621  0.5049  0.2312
 1718SOL    HW116616   2.805   4.640  16.605  0.4406 -0.3540 -0.8647
 1718SOL    HW216617   2.894   0.028  16.597  1.9094  0.4135 -0.2972
 1719SOL     OW16618   1.269   4.541   9.897 -0.7504  0.3072  0.0745
 1719SOL    HW116619   1.254   4.452   9.864 -1.1653  0.7539 -0.9174
 1719SOL    HW216620   1.200   4.589   9.852 -0.4136  1.5676  0.9224
 1720SOL     OW16621   4.692   1.705   6.134 -0.3601  0.5442  0.0965
 1720SOL    HW116622   0.040   1.764   6.115  1.6436 -2.0497 -0.2750
 1720SOL    HW216623   4.724   1.624   6.094 -0.8864  0.7945 -0.8290
 1721SOL     OW16624   4.292   2.035   6.034  0.5820 -0.4754 -0.2553
 1721SOL    HW116625   4.298   2.129   6.050 -2.8805  0.1024 -2.4459
 1721SOL    HW216626   4.385   2.013   6.048  0.2792 -0.7296  1.3734
 1722SOL     OW16627   1.482   2.378   3.216 -0.5058 -0.6872  0.2384
 1722SOL    HW116628   1.430   2.305   3.248  0.9137 -1.7910  0.0232
 1722SOL    HW216629   1.527   2.329   3.148 -0.6283  1.1956 -1.2033
 1723SOL     OW16630   0.874   2.615   3.562 -0.4064  0.0382  0.1551
 1723SOL    HW116631   0.799   2.574   3.520 -1.8589  1.6389  1.1626
 1723SOL    HW216632   0.894   2.546   3.625  0.7227  0.3197  0.1085
 1724SOL     OW16633   4.278   3.244  10.444  0.1255  0.0655 -0.8541
 1724SOL    HW116634   4.251   3.154  10.464 -2.3223  1.0978  0.4304
 1724SOL    HW216635   4.250   3.246  10.352 -0.3028  0.6393 -0.7103
 1725SOL     OW16636   3.222   3.628  17.156  0.4644 -0.5564 -0.0016
 1725SOL    HW116637   3.291   3.593  17.212  2.0245  2.7704  0.1684
 1725SOL    HW216638   3.201   3.556  17.096  0.3910 -0.5181 -0.0217
 1726SOL     OW16639   2.674   3.041  12.557 -0.8243  0.7679 -0.0716
 1726SOL    HW116640   2.602   2.978  12.552 -0.8242  0.5069  3.2549
 1726SOL    HW216641   2.678   3.076  12.468 -0.7580  3.1549  0.8518
 1727SOL     OW16642   0.874   0.881   8.407  0.0699 -0.3803  0.3867
 1727SOL    HW116643   0.879   0.786   8.396  3.8418 -0.1576  0.2325
 1727SOL    HW216644   0.941   0.895   8.474  0.0951 -0.5565  0.3984
 1728SOL     OW16645   0.847   3.416   3.933 -0.1629 -0.8904 -0.0841
 1728SOL    HW116646   0.841   3.346   3.869 -1.4766 -2.8538  2.1711
 1728SOL    HW216647   0.755   3.404   3.957 -0.3480 -0.7739 -0.7544
 1729SOL     OW16648   1.082   3.436   4.046 -0.6144  0.4074 -0.4535
 1729SOL    HW116649   0.997   3.418   4.005  0.3592  0.5763 -2.5266
 1729SOL    HW216650   1.114   3.504   3.987 -1.9601 -0.4807 -2.2106
 1730SOL     OW16651   1.528   0.031   4.862  0.2209 -0.1040  0.0102
 1730SOL    HW116652   1.609   0.067   4.826  0.5394 -1.1993 -0.3873
 1730SOL    HW216653   1.564   4.711   4.938 -2.2500 -0.1066  1.1960
 1731SOL     OW16654   1.354   1.356   4.975  0.4699 -0.2912 -0.2475
 1731SOL    HW116655   1.300   1.426   5.010  0.9106 -0.5192  0.8667
 1731SOL    HW216656   1.440   1.398   4.980 -0.0922  0.6998  0.7767
 1732SOL     OW16657   2.134   4.344   3.939 -0.1547 -0.1794 -0.1557
 1732SOL    HW116658   2.105   4.378   3.854 -2.4812  0.2189  0.7992
 1732SOL    HW216659   2.053   4.364   3.985  1.5850  2.7317  1.6474
 1733SOL     OW16660   2.912   3.309   5.226 -0.7688  0.1802  0.3970
 1733SOL    HW116661   2.983   3.338   5.169 -0.2894 -0.3494  0.7195
 1733SOL    HW216662   2.853   3.279   5.158  0.3669  1.2464 -1.0509
 1734SOL     OW16663   1.098   0.020   6.400 -0.5358  0.3825 -0.3869
 1734SOL    HW116664   1.010   4.708   6.402 -0.0955 -0.6368  0.0465
 1734SOL    HW216665   1.141   4.676   6.350  3.5013  0.7624  2.5001
 1735SOL     OW16666   3.452   2.905   7.458  0.2521  1.0046  0.0770
 1735SOL    HW116667   3.398   2.881   7.533  0.4992  1.6464  0.4624
 1735SOL    HW216668   3.535   2.928   7.499  0.7436  0.1881 -0.4515
 1736SOL     OW16669   4.643   2.545  12.486  0.4688  0.0625 -0.4287
 1736SOL    HW116670   4.551   2.572  12.484  0.6974  0.8440 -0.2703
 1736SOL    HW216671   4.654   2.550  12.391  1.3099 -0.4047 -0.3531
 1737SOL     OW16672   2.230   4.305   6.217  0.9645  0.1619 -0.3218
 1737SOL    HW116673   2.236   4.333   6.126  0.8209 -0.5516 -0.5522
 1737SOL    HW216674   2.261   4.215   6.208 -1.0692 -0.4464 -1.2159
 1738SOL     OW16675   1.425   1.479  10.980 -0.0252 -0.1955 -0.7540
 1738SOL    HW116676   1.340   1.516  10.953 -0.4114 -0.4913  0.0512
 1738SOL    HW216677   1.470   1.561  10.999  1.2746 -1.1567  0.3289
 1739SOL     OW16678   2.402   3.901   4.574  0.2840  0.4250 -0.2685
 1739SOL    HW116679   2.461   3.968   4.539  0.4982  0.0885 -0.5572
 1739SOL    HW216680   2.363   3.935   4.655  0.5750 -1.0508  0.5044
 1740SOL     OW16681   1.992   1.709   6.847  0.0596  0.2042  0.0620
 1740SOL    HW116682   1.934   1.785   6.857 -2.1571 -1.2928 -1.7191
 1740SOL    HW216683   1.983   1.688   6.754  0.0616  1.8901 -0.3186
 1741SOL     OW16684   3.622   3.245   5.291  0.8302  0.5018 -0.3734
 1741SOL    HW116685   3.681   3.199   5.231  1.5370 -1.7401  2.0492
 1741SOL    HW216686   3.672   3.301   5.350 -0.1956  0.2071  0.7868
 1742SOL     OW16687   0.418   2.193   0.993  0.7073 -0.1195 -0.0829
 1742SOL    HW116688   0.370   2.179   0.911 -1.6355 -0.0121  1.2478
 1742SOL    HW216689   0.411   2.106   1.034  0.1690 -0.3286 -0.6114
 1743SOL     OW16690   1.422   0.975  11.283 -0.6340  0.1927  0.7383
 1743SOL    HW116691   1.344   0.970  11.228  0.5979 -0.9665 -0.9249
 1743SOL    HW216692   1.481   0.911  11.241 -0.8139  1.9181 -2.1506
 1744SOL     OW16693   4.310   0.125   8.978 -0.0644 -0.2492 -0.1655
 1744SOL    HW116694   4.331   0.204   9.030 -2.1441 -0.1147  0.4875
 1744SOL    HW216695   4.224   0.153   8.945  0.6241  3.3244  0.9658
 1745SOL     OW16696   0.174   2.089   5.182 -0.0492  0.3765  0.0201
 1745SOL    HW116697   0.166   2.038   5.262 -3.2170  0.9913  0.1164
 1745SOL    HW216698   0.180   2.017   5.118  0.0472  2.1717 -1.9779
 1746SOL     OW16699   4.718   0.356  15.387 -0.2345  0.2146 -0.4564
 1746SOL    HW116700   0.069   0.349  15.445  0.8940  0.0190 -1.9538
 1746SOL    HW216701   0.031   0.338  15.301  0.4299 -0.6867  0.0275
 1747SOL     OW16702   4.069   2.460   2.792 -0.5666 -0.8215  0.0397
 1747SOL    HW116703   4.125   2.521   2.744 -1.4166 -0.4407 -0.4687
 1747SOL    HW216704   4.045   2.401   2.720 -0.3423 -0.0311 -0.6734
 1748SOL     OW16705   3.643   2.951   6.337 -0.1500 -0.1264  0.3471
 1748SOL    HW116706   3.711   2.956   6.270 -0.8164  0.4186 -0.2924
 1748SOL    HW216707   3.670   2.866   6.372 -0.0432 -0.0501  0.4488
 1749SOL     OW16708   2.158   0.705  11.241 -0.0324 -0.6753 -0.2662
 1749SOL    HW116709   2.242   0.751  11.246  0.0725 -0.8825 -0.1074
 1749SOL    HW216710   2.183   0.618  11.273  2.3285 -0.3881 -1.2775
 1750SOL     OW16711   2.533   4.049  16.271 -0.0128  0.2784  0.2131
 1750SOL    HW116712   2.483   4.019  16.195 -0.5661 -1.4021  1.2288
 1750SOL    HW216713   2.594   4.110  16.230  0.2418 -1.3339 -1.8421
 1751SOL     OW16714   4.338   3.275   8.271 -0.0024 -0.8079  0.6433
 1751SOL    HW116715   4.295   3.314   8.194  0.5034 -0.2872  0.6294
 1751SOL    HW216716   4.409   3.226   8.230  0.0796 -1.4420  1.5466
 1752SOL     OW16717   1.263   2.134   9.964  0.1300 -0.1270  0.1427
 1752SOL    HW116718   1.173   2.155   9.987 -0.4683 -2.0765 -0.4087
 1752SOL    HW216719   1.293   2.222   9.941 -0.7374  1.0410  3.5722
 1753SOL     OW16720   0.564   4.370   4.331  0.0036 -0.2677  0.4496
 1753SOL    HW116721   0.469   4.378   4.337  0.1795  3.3412 -1.7774
 1753SOL    HW216722   0.573   4.283   4.369 -0.1571 -0.3466  0.3017
 1754SOL     OW16723   1.340   2.680  16.913  0.3367  0.1730  0.2241
 1754SOL    HW116724   1.313   2.668  16.822  0.3728  1.2334  0.0767
 1754SOL    HW216725   1.423   2.727  16.898  0.2985  0.5681  1.2168
 1755SOL     OW16726   3.812   3.297   2.431  0.6432  0.2126  0.1274
 1755SOL    HW116727   3.735   3.247   2.457  2.0407 -0.5277  2.7807
 1755SOL    HW216728   3.877   3.256   2.488  0.3984  1.2353  1.1355
 1756SOL     OW16729   3.265   4.125   4.728 -0.0507  0.0308  0.0930
 1756SOL    HW116730   3.261   4.107   4.634  1.3533 -0.3189  0.0886
 1756SOL    HW216731   3.345   4.084   4.763  2.0100  2.7404 -1.3886
 1757SOL     OW16732   2.887   2.389  10.662  0.0868  0.0462 -0.5516
 1757SOL    HW116733   2.812   2.425  10.615 -1.0728 -0.4123  0.9761
 1757SOL    HW216734   2.866   2.296  10.665 -1.0867  0.3948  1.4897
 1758SOL     OW16735   3.362   4.195   7.155  0.4822  0.2274 -0.0139
 1758SOL    HW116736   3.373   4.118   7.099 -4.5614 -0.5757  0.1444
 1758SOL    HW216737   3.450   4.233   7.151  1.5196 -2.1285  0.2956
 1759SOL     OW16738   3.243   0.423   8.420  0.2502  0.1132 -0.1194
 1759SOL    HW116739   3.215   0.335   8.448  0.6129  0.0209 -0.0492
 1759SOL    HW216740   3.248   0.463   8.507  2.5438  0.2604 -0.3360
 1760SOL     OW16741   1.473   1.391   5.733 -0.3736 -0.1393 -0.4944
 1760SOL    HW116742   1.452   1.363   5.644  0.8611 -0.6752 -0.6239
 1760SOL    HW216743   1.461   1.310   5.783 -0.8249  2.0665  2.9876
 1761SOL     OW16744   3.996   4.106  14.298 -0.0201 -0.3950  0.7293
 1761SOL    HW116745   4.053   4.164  14.249 -0.7294  0.5390  1.0117
 1761SOL    HW216746   3.921   4.164  14.307 -1.8219 -2.4759 -0.8459
 1762SOL     OW16747   2.678   4.524   0.078 -0.6271 -0.3795 -0.2041
 1762SOL    HW116748   2.762   4.535   0.033 -0.4827  1.3789  0.4776
 1762SOL    HW216749   2.710   4.465   0.146  0.5856  1.0941  0.4989
 1763SOL     OW16750   0.822   3.240   0.429  0.0342  0.2019 -0.1936
 1763SOL    HW116751   0.819   3.289   0.512  0.7684 -0.1680  0.0528
 1763SOL    HW216752   0.916   3.223   0.419  0.0708  0.6015 -0.5322
 1764SOL     OW16753   1.954   2.560   7.418  0.1853 -0.1234  0.6208
 1764SOL    HW116754   1.918   2.621   7.483  3.2736  1.1729  1.1556
 1764SOL    HW216755   1.956   2.473   7.459 -2.7604  0.4410  1.9528
 1765SOL     OW16756   2.689   1.940  11.119  0.2523 -0.3674 -0.1046
 1765SOL    HW116757   2.753   1.888  11.071  0.8263  0.1421  0.1084
 1765SOL    HW216758   2.720   2.028  11.098 -1.8388 -0.1286 -2.0774
 1766SOL     OW16759   3.511   4.497  15.974  0.2835  0.6857  0.9771
 1766SOL    HW116760   3.485   4.484  15.883 -0.0778  0.7310  1.0740
 1766SOL    HW216761   3.447   4.439  16.016  0.5319  0.8514  1.5910
 1767SOL     OW16762   2.024   3.950   4.097 -0.1155  0.1171 -0.0020
 1767SOL    HW116763   2.021   3.854   4.094  1.5114  0.0691 -0.1547
 1767SOL    HW216764   2.105   3.983   4.058 -0.2048  1.2347  0.7814
 1768SOL     OW16765   1.904   4.151   4.227  0.6669 -0.3597  0.6931
 1768SOL    HW116766   1.928   4.069   4.184 -1.0715 -0.3751 -0.2146
 1768SOL    HW216767   1.848   4.123   4.300  0.2254  1.8295  1.1827
 1769SOL     OW16768   0.625   0.234  16.303 -0.4801 -0.1232  0.3539
 1769SOL    HW116769   0.534   0.254  16.280  0.0381  0.8326 -0.8586
 1769SOL    HW216770   0.625   0.144  16.335  0.4648  0.7502  2.7679
 1770SOL     OW16771   4.377   0.904  13.153 -0.1892 -0.2035  0.4928
 1770SOL    HW116772   4.303   0.896  13.214 -0.0983 -0.4682  0.5709
 1770SOL    HW216773   4.348   0.965  13.085  1.8449 -0.0220 -0.1930
 1771SOL     OW16774   3.439   2.913   3.252  0.4712  0.5255 -0.6796
 1771SOL    HW116775   3.384   2.991   3.246 -0.5941 -0.2127 -0.4627
 1771SOL    HW216776   3.463   2.909   3.160  1.6282  1.2259 -0.4149
 1772SOL     OW16777   2.011   3.819  15.965  0.0254  0.3388  0.3204
 1772SOL    HW116778   1.929   3.858  15.995 -0.1470 -0.2701  0.6282
 1772SOL    HW216779   2.067   3.851  16.035  1.0946  0.3618 -0.5332
 1773SOL     OW16780   4.523   0.276  13.786  0.1948 -0.1856 -0.1000
 1773SOL    HW116781   4.454   0.343  13.790 -1.4507 -1.9290  0.5678
 1773SOL    HW216782   4.478   0.206  13.738  1.2351  0.2556 -1.7175
 1774SOL     OW16783   0.840   1.254   1.939  0.1246  0.4679 -0.0380
 1774SOL    HW116784   0.889   1.272   1.858 -1.3433 -0.2805 -1.0978
 1774SOL    HW216785   0.751   1.278   1.914 -0.2113 -1.2493 -0.4801
 1775SOL     OW16786   2.173   4.519   5.040  0.3895 -0.4439 -0.1482
 1775SOL    HW116787   2.125   4.573   4.977  0.2170 -0.8144 -0.3303
 1775SOL    HW216788   2.198   4.580   5.110  1.7017 -1.4524  0.2656
 1776SOL     OW16789   1.141   4.600   7.975 -0.3371 -0.1343  0.3667
 1776SOL    HW116790   1.170   4.568   8.061  0.8378  0.5834  0.2418
 1776SOL    HW216791   1.178   4.532   7.919  0.2399 -0.6879  1.4224
 1777SOL     OW16792   4.425   0.195   3.326  0.3245 -0.6225  0.3134
 1777SOL    HW116793   4.468   0.114   3.297 -0.1778 -0.8731  0.2670
 1777SOL    HW216794   4.503   0.244   3.352  0.0818 -1.5656  2.8447
 1778SOL     OW16795   0.541   4.031  17.083  0.3797  0.5369  0.3355
 1778SOL    HW116796   0.536   4.088  17.006 -1.0734 -0.8974 -0.6398
 1778SOL    HW216797   0.492   4.081  17.148 -0.4685  0.0791  0.0411
 1779SOL     OW16798   2.770   1.786   6.001  0.4372 -0.2245 -0.2484
 1779SOL    HW116799   2.804   1.874   6.018 -0.7214  0.3435 -0.8240
 1779SOL    HW216800   2.696   1.815   5.946 -1.5207  0.5743  2.7904
 1780SOL     OW16801   2.373   1.613  17.001 -0.0278  0.1556  0.1829
 1780SOL    HW116802   2.441   1.679  17.011  0.1486 -0.3605  2.2678
 1780SOL    HW216803   2.330   1.639  16.919 -0.2482 -0.9548 -0.0615
 1781SOL     OW16804   1.080   3.523   4.514  0.8270  0.2330 -0.0796
 1781SOL    HW116805   1.128   3.440   4.510 -1.0321 -0.8008 -1.1302
 1781SOL    HW216806   1.024   3.519   4.436 -0.6900 -2.0728  1.1216
 1782SOL     OW16807   4.111   3.226   4.816  0.0768  0.3720 -0.7582
 1782SOL    HW116808   4.048   3.258   4.880 -0.2988 -0.8569 -0.5100
 1782SOL    HW216809   4.054   3.171   4.763 -0.2242 -0.4206  0.3964
 1783SOL     OW16810   2.388   2.957   8.686  0.0994  0.0499 -0.3418
 1783SOL    HW116811   2.472   2.919   8.662  0.7836  2.1051 -1.1950
 1783SOL    HW216812   2.337   2.878   8.702  1.3549 -0.9711 -1.3361
 1784SOL     OW16813   1.612   3.524  10.184  0.1277 -1.0919  0.1830
 1784SOL    HW116814   1.531   3.531  10.235  0.1523 -0.4034  0.1206
 1784SOL    HW216815   1.590   3.441  10.141 -0.9192  0.0487 -1.5114
 1785SOL     OW16816   0.831   3.148   3.051 -0.2878 -0.4176 -0.5191
 1785SOL    HW116817   0.881   3.089   2.994 -1.8726 -0.5211 -1.7959
 1785SOL    HW216818   0.820   3.224   2.995  1.4160 -0.6718 -1.1889
 1786SOL     OW16819   0.163   0.505   4.404 -0.0911 -0.4376  0.2472
 1786SOL    HW116820   0.158   0.521   4.310 -0.3833 -1.7037  0.0480
 1786SOL    HW216821   0.120   0.420   4.398 -1.8090  0.4591 -0.1273
 1787SOL     OW16822   0.634   0.745   7.212 -0.1614 -0.0123 -0.3346
 1787SOL    HW116823   0.639   0.651   7.197 -0.4198 -0.3057  1.4251
 1787SOL    HW216824   0.622   0.746   7.307  0.7528 -0.2499 -0.2160
 1788SOL     OW16825   1.762   3.747   7.261 -0.1388 -0.3502 -0.1884
 1788SOL    HW116826   1.857   3.751   7.251 -0.1299 -0.0652  0.0480
 1788SOL    HW216827   1.720   3.813   7.207 -1.9696 -0.8212  0.6617
 1789SOL     OW16828   4.041   0.899   4.973  0.3843  0.1426 -0.7714
 1789SOL    HW116829   4.071   0.854   4.894 -1.2445 -1.2646 -0.5953
 1789SOL    HW216830   4.072   0.839   5.040 -2.1464  0.1283  0.3831
 1790SOL     OW16831   2.985   0.271   8.360 -0.3157  0.0902  0.3958
 1790SOL    HW116832   3.025   0.249   8.444 -3.0146 -2.1951  1.0589
 1790SOL    HW216833   2.899   0.229   8.362 -0.9701  1.3569 -1.1978
 1791SOL     OW16834   0.768   3.583  13.533 -0.0141 -0.7194 -0.2130
 1791SOL    HW116835   0.730   3.669  13.551  1.4622 -0.1980  0.4242
 1791SOL    HW216836   0.757   3.546  13.621 -4.2858  1.1192 -0.0048
 1792SOL     OW16837   1.104   3.178  15.934  0.1703  0.3922 -0.2062
 1792SOL    HW116838   1.168   3.214  15.995  0.0775  2.0008 -1.0556
 1792SOL    HW216839   1.038   3.248  15.936  1.3499  1.5255 -0.9071
 1793SOL     OW16840   4.256   1.432  17.534  0.0471 -0.7726 -0.0923
 1793SOL    HW116841   4.245   1.425  17.440  2.2588 -0.5271 -0.3789
 1793SOL    HW216842   4.350   1.448  17.540 -0.0659 -0.2195  0.1690
 1794SOL     OW16843   4.584   3.614  14.548 -0.1578 -0.2394  0.0047
 1794SOL    HW116844   4.528   3.682  14.510 -2.1347 -2.1863 -0.5868
 1794SOL    HW216845   4.568   3.540  14.489  0.4026 -2.0340  2.1274
 1795SOL     OW16846   3.751   4.511   9.611 -0.1088 -0.2749  0.3616
 1795SOL    HW116847   3.818   4.485   9.673  1.8253  0.0884 -1.5719
 1795SOL    HW216848   3.810   4.523   9.537  0.2234 -0.5373  0.5884
 1796SOL     OW16849   1.063   4.253   4.926 -0.2144  0.5724  0.0377
 1796SOL    HW116850   1.051   4.216   5.014 -0.5202 -0.5914 -0.4868
 1796SOL    HW216851   1.022   4.339   4.927  1.4844  1.3780 -2.3079
 1797SOL     OW16852   2.573   4.148   2.364 -1.1083  0.6112 -0.0665
 1797SOL    HW116853   2.481   4.138   2.391 -1.3465  0.3874 -0.9861
 1797SOL    HW216854   2.565   4.194   2.281  0.7542  0.7042 -0.1864
 1798SOL     OW16855   1.607   1.577   4.042  0.2251 -0.3482 -0.2815
 1798SOL    HW116856   1.651   1.602   3.961 -0.8948  0.1856 -0.7204
 1798SOL    HW216857   1.519   1.614   4.033  0.6630  0.7230 -0.0930
 1799SOL     OW16858   2.930   2.965  11.266  0.0144  0.0804  0.3400
 1799SOL    HW116859   3.008   2.932  11.311  0.1894 -0.8825 -0.6742
 1799SOL    HW216860   2.968   2.999  11.185  3.9385 -1.6299  1.4324
 1800SOL     OW16861   3.714   1.832   8.537 -0.1532  0.0129  0.1679
 1800SOL    HW116862   3.746   1.792   8.456  2.2593 -1.9670  2.1204
 1800SOL    HW216863   3.706   1.924   8.509  0.1519  0.8921  2.9485
 1801SOL     OW16864   1.163   1.805   3.606  0.4778 -0.3831 -0.2929
 1801SOL    HW116865   1.098   1.850   3.658  1.6619  0.3679  0.5362
 1801SOL    HW216866   1.121   1.789   3.521 -1.1026 -1.1646  0.6464
 1802SOL     OW16867   2.207   3.030  11.577  0.5182 -0.2286 -0.2840
 1802SOL    HW116868   2.274   3.093  11.604 -1.1930  0.9312  1.2846
 1802SOL    HW216869   2.186   2.991  11.661  0.9618  1.2363  0.5129
 1803SOL     OW16870   3.181   3.452   7.051  0.0539 -0.7161 -0.1552
 1803SOL    HW116871   3.235   3.407   7.116 -0.2216 -0.3992  0.2933
 1803SOL    HW216872   3.211   3.417   6.968  0.3689  0.6678 -0.6100
 1804SOL     OW16873   3.885   1.043   7.501  0.3383 -0.0175  0.5049
 1804SOL    HW116874   3.919   1.019   7.587  0.2624 -0.3677  0.4393
 1804SOL    HW216875   3.903   0.957   7.462  0.1516 -0.0954  0.5914
 1805SOL     OW16876   3.481   1.567   9.373 -0.2841 -0.5662  0.4701
 1805SOL    HW116877   3.564   1.558   9.326 -1.3307  1.5686 -1.7667
 1805SOL    HW216878   3.509   1.532   9.458 -0.5746 -2.3442 -0.1625
 1806SOL     OW16879   2.447   3.004   7.632  0.2064 -0.2394  0.1885
 1806SOL    HW116880   2.480   2.977   7.546  0.5819  1.2301 -0.1211
 1806SOL    HW216881   2.522   2.967   7.679  0.8893  0.0354 -0.6895
 1807SOL     OW16882   3.701   0.390  10.311 -0.1864 -0.8073  0.2015
 1807SOL    HW116883   3.620   0.353  10.346 -0.4210 -1.6465 -1.2149
 1807SOL    HW216884   3.729   0.454  10.376 -0.6752  0.0400 -0.4351
 1808SOL     OW16885   4.100   2.304   5.613 -0.1144  0.0811 -0.0886
 1808SOL    HW116886   4.077   2.273   5.700 -0.5841 -0.3778 -0.3729
 1808SOL    HW216887   4.012   2.311   5.576 -0.1901  0.8892  0.2600
 1809SOL     OW16888   4.069   1.766   2.846  0.5013 -0.5208 -0.1846
 1809SOL    HW116889   4.076   1.673   2.824 -3.4451 -0.5410 -1.3413
 1809SOL    HW216890   4.136   1.771   2.915 -1.1495 -0.5119  1.4098
 1810SOL     OW16891   2.211   4.068  17.206  0.4396  0.0528  0.2235
 1810SOL    HW116892   2.247   4.104  17.125  1.4208  0.7265  0.9595
 1810SOL    HW216893   2.292   4.036  17.246  1.0339  0.6027 -0.5691
 1811SOL     OW16894   3.620   1.867  17.671  0.1146  0.3063  0.2242
 1811SOL    HW116895   3.623   1.833  17.582 -0.2039  0.4807  0.1464
 1811SOL    HW216896   3.691   1.815   0.006  0.1736  0.8651  0.8771
 1812SOL     OW16897   0.977   3.349  15.112 -0.1779 -0.0777  0.3492
 1812SOL    HW116898   0.905   3.306  15.066 -1.6697  1.5812  1.1375
 1812SOL    HW216899   1.053   3.307  15.072  0.2202  2.0041 -1.0919
 1813SOL     OW16900   2.243   2.549  12.223 -0.6626 -0.4760 -0.1861
 1813SOL    HW116901   2.315   2.606  12.249  1.0404 -1.9575 -1.7064
 1813SOL    HW216902   2.263   2.476  12.281  0.3731  0.1999  0.3048
 1814SOL     OW16903   2.855   3.628   4.426 -0.6195  0.2157  0.2331
 1814SOL    HW116904   2.829   3.719   4.409 -2.9688 -0.5418 -0.2645
 1814SOL    HW216905   2.948   3.650   4.434 -0.8995  1.0516  1.1485
 1815SOL     OW16906   4.628   4.104   2.839 -0.0562 -0.6788 -0.0350
 1815SOL    HW116907   4.573   4.031   2.811  1.0783 -2.4799  2.4016
 1815SOL    HW216908   4.571   4.181   2.840 -0.6234 -1.0964 -0.2890
 1816SOL     OW16909   0.862   2.490   3.250 -0.4123 -0.1211  0.5733
 1816SOL    HW116910   0.804   2.566   3.243 -0.5357 -0.0733  2.1461
 1816SOL    HW216911   0.828   2.428   3.185  1.5897  0.6151 -1.1806
 1817SOL     OW16912   0.007   2.603   6.195 -0.5412 -0.2021  0.2521
 1817SOL    HW116913   0.091   2.648   6.200 -1.1280  0.7565  1.4584
 1817SOL    HW216914   0.038   2.541   6.129  0.9191  2.0079 -1.1321
 1818SOL     OW16915   1.248   2.741   7.021 -0.5592 -0.1686 -0.5826
 1818SOL    HW116916   1.183   2.795   7.066 -1.0406 -1.8649  0.7913
 1818SOL    HW216917   1.296   2.807   6.972 -0.3666  2.1477  2.7121
 1819SOL     OW16918   3.240   0.680   5.001 -0.8342  0.3412 -0.3344
 1819SOL    HW116919   3.165   0.723   5.043 -0.5676 -0.7573  1.2549
 1819SOL    HW216920   3.251   0.608   5.063 -0.7427  0.6227 -0.0285
 1820SOL     OW16921   2.897   0.745   0.679 -0.0334 -0.2522 -0.3709
 1820SOL    HW116922   2.811   0.774   0.711  0.8559  0.8930  1.0198
 1820SOL    HW216923   2.911   0.825   0.629  0.8745 -0.2835 -0.1590
 1821SOL     OW16924   3.397   0.228   5.020 -0.3810  0.1110  0.2343
 1821SOL    HW116925   3.410   0.181   5.102 -1.7170  1.1107  1.0325
 1821SOL    HW216926   3.379   0.315   5.057  0.9298  1.5358 -2.4600
 1822SOL     OW16927   1.263   3.651   3.267  0.1580 -0.3349 -0.8317
 1822SOL    HW116928   1.227   3.688   3.186 -3.5798 -0.3564  0.8468
 1822SOL    HW216929   1.331   3.711   3.299 -1.1474  0.7749 -0.1915
 1823SOL     OW16930   0.355   0.644   6.436 -0.2519 -0.1958 -0.0603
 1823SOL    HW116931   0.316   0.560   6.463 -0.2294 -0.4225 -0.7270
 1823SOL    HW216932   0.447   0.629   6.459 -0.5943  1.5918  2.5255
 1824SOL     OW16933   3.420   0.839   8.668  0.8554  0.1271 -0.3390
 1824SOL    HW116934   3.499   0.824   8.615  0.9190 -0.4452 -0.0802
 1824SOL    HW216935   3.402   0.921   8.622  1.8296 -0.0317 -1.0246
 1825SOL     OW16936   1.068   1.240   3.882  0.1051 -0.1494  1.1322
 1825SOL    HW116937   1.059   1.300   3.957 -1.8831  0.0277  0.7304
 1825SOL    HW216938   1.072   1.154   3.923 -1.2789 -1.6423 -1.9464
 1826SOL     OW16939   0.766   2.070   8.212 -0.1226  0.0994  0.0970
 1826SOL    HW116940   0.755   2.115   8.128  2.3731 -1.1780 -0.9135
 1826SOL    HW216941   0.705   1.997   8.200 -0.7958  1.0459 -2.3281
 1827SOL     OW16942   2.807   4.174   3.986  0.3858  0.1156 -0.2790
 1827SOL    HW116943   2.853   4.131   4.057  1.1767  1.4702  0.0356
 1827SOL    HW216944   2.880   4.209   3.934  0.0280  2.2818  0.6817
 1828SOL     OW16945   4.540   1.762   4.027  0.2177 -0.0584 -0.0588
 1828SOL    HW116946   4.489   1.841   4.005 -2.0160 -1.2241  0.9541
 1828SOL    HW216947   4.622   1.810   4.041 -0.9791  1.1769  2.7256
 1829SOL     OW16948   4.483   0.112   7.991  0.4232 -0.0074  0.0261
 1829SOL    HW116949   4.520   0.051   7.926  0.2851  1.1070 -1.1137
 1829SOL    HW216950   4.505   0.071   8.074  1.1201 -0.5972 -0.4466
 1830SOL     OW16951   0.119   0.082  17.007  0.2636 -0.0582 -0.0119
 1830SOL    HW116952   0.034   0.119  16.983  0.0809 -1.7619 -2.0415
 1830SOL    HW216953   0.090   0.031  17.083 -0.9161  1.2984  0.4384
 1831SOL     OW16954   3.685   1.576   3.471 -0.0283  0.1282 -0.3593
 1831SOL    HW116955   3.712   1.573   3.563  1.7677 -1.8131 -0.9616
 1831SOL    HW216956   3.751   1.625   3.423 -1.0627  2.5278  0.6244
 1832SOL     OW16957   1.865   2.016   7.561  0.0592 -0.0047  0.1220
 1832SOL    HW116958   1.926   2.065   7.616  1.0494  0.5013 -1.3986
 1832SOL    HW216959   1.919   1.942   7.534  0.4781  0.1769  0.4672
 1833SOL     OW16960   1.139   2.419   3.341  0.3550 -0.2057 -0.4982
 1833SOL    HW116961   1.047   2.416   3.313  0.4252  3.2730 -1.1434
 1833SOL    HW216962   1.184   2.416   3.257  0.7989 -0.2299 -0.2566
 1834SOL     OW16963   2.347   4.721   2.886  0.2000  0.4361  0.5513
 1834SOL    HW116964   2.320   4.705   2.976  1.6575 -0.4423  0.8436
 1834SOL    HW216965   2.433   0.035   2.906  1.5062 -1.7379 -0.8196
 1835SOL     OW16966   2.722   1.555   8.994 -0.1723  0.1208  0.5219
 1835SOL    HW116967   2.806   1.599   9.006  1.0760 -1.8902 -0.8602
 1835SOL    HW216968   2.754   1.467   9.015  0.5359 -0.0687 -1.3802
 1836SOL     OW16969   0.271   1.296   0.643  0.3234 -0.0400  0.2266
 1836SOL    HW116970   0.349   1.351   0.636 -0.2038  0.3834 -2.3458
 1836SOL    HW216971   0.269   1.263   0.733  1.1453  1.9054  0.9577
 1837SOL     OW16972   0.526   0.273   5.567 -0.0603 -0.3342  0.2560
 1837SOL    HW116973   0.571   0.238   5.490  0.4368 -1.6493  1.1647
 1837SOL    HW216974   0.546   0.219   5.643  0.8654 -0.3546  0.0050
 1838SOL     OW16975   3.418   2.568  14.883  0.0735  0.4728  0.3055
 1838SOL    HW116976   3.438   2.642  14.941  1.3168 -0.1631  0.7087
 1838SOL    HW216977   3.455   2.594  14.798  1.0966 -0.4181  0.4657
 1839SOL     OW16978   2.577   1.803  16.966  0.2863  0.4739 -0.4672
 1839SOL    HW116979   2.582   1.881  17.021  1.4869  0.5116 -0.6317
 1839SOL    HW216980   2.514   1.829  16.899  1.4121  1.3921 -1.1864
 1840SOL     OW16981   1.711   0.495  10.888 -0.5235 -0.1197 -0.4972
 1840SOL    HW116982   1.760   0.438  10.947  0.4752  0.9821 -0.2456
 1840SOL    HW216983   1.636   0.525  10.940  1.1754 -1.7205  2.8871
 1841SOL     OW16984   1.489   1.149   9.518 -0.4508 -0.0262  0.0768
 1841SOL    HW116985   1.443   1.083   9.465 -3.9460  0.8600  1.9663
 1841SOL    HW216986   1.517   1.210   9.450 -0.9740  0.9850  0.7647
 1842SOL     OW16987   1.354   4.532   3.406 -0.0657  0.3204 -0.0080
 1842SOL    HW116988   1.298   4.510   3.333 -0.6216  1.7133 -0.0134
 1842SOL    HW216989   1.357   4.445   3.446  1.2230 -0.4674 -1.8275
 1843SOL     OW16990   3.511   0.370   7.355  0.0883 -0.4111  0.0008
 1843SOL    HW116991   3.548   0.287   7.387  1.6129  0.8691  1.5111
 1843SOL    HW216992   3.423   0.365   7.393 -0.5237 -1.1333 -1.5117
 1844SOL     OW16993   4.659   1.362   3.450 -0.0834  0.3900  0.1284
 1844SOL    HW116994   4.585   1.334   3.504 -0.3554 -0.7154 -0.8080
 1844SOL    HW216995   4.615   1.430   3.400  0.1999 -0.5316 -1.3601
 1845SOL     OW16996   3.890   3.339  14.825 -0.3282 -0.0562  0.3326
 1845SOL    HW116997   3.918   3.362  14.914 -0.0615  3.0754 -0.5623
 1845SOL    HW216998   3.936   3.402  14.770  3.3916 -2.0557  1.1076
 1846SOL     OW16999   0.498   1.473  15.534 -0.3004 -0.3112 -0.0646
 1846SOL    HW117000   0.569   1.430  15.582 -0.1793 -0.6268 -0.5241
 1846SOL    HW217001   0.543   1.492  15.452 -2.2875  1.6476 -0.7231
 1847SOL     OW17002   4.617   3.750   8.643  0.0872  0.3804  0.2347
 1847SOL    HW117003   4.699   3.747   8.593  0.0203  2.5123 -0.0140
 1847SOL    HW217004   4.635   3.816   8.710 -0.7582  1.6669 -0.7970
 1848SOL     OW17005   1.591   3.749   8.674  0.0983  0.3332  0.2889
 1848SOL    HW117006   1.623   3.808   8.742 -1.9968  2.9533 -0.9725
 1848SOL    HW217007   1.586   3.667   8.723  1.1787  0.7358  1.0478
 1849SOL     OW17008   3.625   1.364   9.114 -0.2004  0.4099 -0.4392
 1849SOL    HW117009   3.692   1.302   9.142  0.5249  2.0992  1.5344
 1849SOL    HW217010   3.660   1.445   9.151 -0.7183  0.0498  0.8492
 1850SOL     OW17011   0.546   3.714   2.242  0.6470 -0.2093 -0.0220
 1850SOL    HW117012   0.553   3.619   2.255 -0.0244 -0.1570  0.7064
 1850SOL    HW217013   0.489   3.717   2.165  0.2870 -0.1751  0.2441
 1851SOL     OW17014   0.191   2.922   3.797 -0.4505  0.3797  0.3004
 1851SOL    HW117015   0.276   2.966   3.787  0.7487 -1.7083  1.1966
 1851SOL    HW217016   0.149   2.975   3.864 -2.1352  2.5923 -2.5149
 1852SOL     OW17017   2.230   0.302   1.213  0.3836 -0.1361 -0.0132
 1852SOL    HW117018   2.284   0.321   1.137 -2.3163  0.5295 -1.7819
 1852SOL    HW217019   2.146   0.307   1.168  1.5831 -1.0405 -2.3327
 1853SOL     OW17020   3.207   2.893   3.442 -0.4942 -0.2161 -0.5555
 1853SOL    HW117021   3.290   2.876   3.396  0.9209 -0.2034  1.9687
 1853SOL    HW217022   3.169   2.806   3.457  1.4319 -0.9097  0.4171
 1854SOL     OW17023   2.977   4.393  13.109  0.2780 -0.1053  0.2169
 1854SOL    HW117024   2.957   4.345  13.029 -2.0357  2.2365 -0.5987
 1854SOL    HW217025   2.907   4.458  13.118  0.0663 -0.2477 -0.4117
 1855SOL     OW17026   2.384   0.296  10.654 -0.1484 -0.9470 -0.2128
 1855SOL    HW117027   2.448   0.305  10.583 -1.1033 -2.3593 -1.2460
 1855SOL    HW217028   2.316   0.357  10.625  0.2670 -1.5259 -2.4323
 1856SOL     OW17029   2.635   1.585   4.446 -0.3670 -0.2102 -0.1809
 1856SOL    HW117030   2.559   1.589   4.388  0.2231 -1.0635 -1.0148
 1856SOL    HW217031   2.699   1.641   4.403 -0.7833  1.0510  0.8616
 1857SOL     OW17032   3.766   1.369   0.186  0.5454  0.2114 -0.0034
 1857SOL    HW117033   3.727   1.300   0.239  0.4087 -0.5415 -1.1005
 1857SOL    HW217034   3.688   1.401   0.141 -2.2567 -3.0016  2.5661
 1858SOL     OW17035   3.933   0.801  16.952  0.1496 -0.0773  0.2306
 1858SOL    HW117036   3.846   0.837  16.932  1.4524  2.1327 -1.5121
 1858SOL    HW217037   3.912   0.708  16.950 -0.4293  0.0449  0.6713
 1859SOL     OW17038   3.697   3.152   8.708 -0.7193  0.1382  0.0518
 1859SOL    HW117039   3.769   3.191   8.658  0.8679 -5.7275 -2.2217
 1859SOL    HW217040   3.619   3.184   8.663 -1.1706 -3.7225 -1.9719
 1860SOL     OW17041   1.218   4.348   4.080  0.9196  0.1106 -0.0927
 1860SOL    HW117042   1.220   4.307   4.167  2.1340  1.7176  0.6403
 1860SOL    HW217043   1.307   4.358   4.046  0.9002  0.6004 -0.0046
 1861SOL     OW17044   1.841   3.538   8.141  0.2861  0.3163 -0.5523
 1861SOL    HW117045   1.870   3.448   8.157 -2.0166 -0.1962  0.8302
 1861SOL    HW217046   1.747   3.526   8.125  0.7230 -4.1487  0.1167
 1862SOL     OW17047   3.138   4.336  10.327  0.2291 -0.0732  0.3703
 1862SOL    HW117048   3.175   4.248  10.328  2.7847  1.0402  1.8444
 1862SOL    HW217049   3.160   4.352  10.235  0.4145  1.5453  0.7085
 1863SOL     OW17050   4.284   4.043   2.434  0.0835  0.5932 -0.3613
 1863SOL    HW117051   4.279   4.058   2.528 -0.2879 -2.6683  0.1533
 1863SOL    HW217052   4.266   4.134   2.412  1.4262  0.9059 -0.1835
 1864SOL     OW17053   0.338   0.730   4.008  0.6599 -0.0800 -0.8453
 1864SOL    HW117054   0.331   0.796   3.939  0.0973  1.2299  0.4756
 1864SOL    HW217055   0.434   0.729   4.001  0.8308 -1.5307  1.8832
 1865SOL     OW17056   2.324   2.799   4.201 -0.2227 -0.4007  0.2610
 1865SOL    HW117057   2.335   2.890   4.228 -0.9595 -0.1473 -0.3164
 1865SOL    HW217058   2.230   2.795   4.182 -0.3961  0.6671  0.9044
 1866SOL     OW17059   4.103   0.208   1.485  0.3546  0.4005 -0.5906
 1866SOL    HW117060   4.033   0.149   1.457  1.1295  0.4750 -2.6683
 1866SOL    HW217061   4.093   0.198   1.580  0.3443 -2.4641 -0.8801
 1867SOL     OW17062   2.426   4.717  14.621 -0.3107  0.3912  0.0190
 1867SOL    HW117063   2.475   4.636  14.631  2.2131  1.5818 -2.6118
 1867SOL    HW217064   2.402   4.713  14.528 -2.2531 -1.4204  0.6220
 1868SOL     OW17065   3.132   4.184   8.301  0.1038  0.1320  0.3529
 1868SOL    HW117066   3.108   4.231   8.222 -2.0921 -0.5797  0.5881
 1868SOL    HW217067   3.054   4.150   8.345 -0.0393 -1.2569 -0.9988
 1869SOL     OW17068   3.826   3.257   4.917 -0.0905  0.0111 -0.4242
 1869SOL    HW117069   3.806   3.170   4.953 -1.6331  0.7854  0.6048
 1869SOL    HW217070   3.767   3.261   4.842 -2.3762 -1.5994  1.2943
 1870SOL     OW17071   2.994   0.252   1.948 -0.1192 -0.2918  0.2245
 1870SOL    HW117072   3.027   0.332   1.987  1.0579  1.0017 -3.3512
 1870SOL    HW217073   3.009   0.276   1.856 -1.2288 -1.8240 -0.3557
 1871SOL     OW17074   2.799   2.298  13.294  0.1760  0.3953 -0.1890
 1871SOL    HW117075   2.862   2.355  13.250  0.9544 -1.9311 -2.1376
 1871SOL    HW217076   2.717   2.341  13.270 -0.2549 -0.9133 -1.0842
 1872SOL     OW17077   4.701   0.710   9.585  0.2000 -0.0525 -0.0141
 1872SOL    HW117078   4.660   0.742   9.665 -0.7150 -0.7647 -0.2085
 1872SOL    HW217079   4.678   0.782   9.525 -1.6189  1.0004  1.9840
 1873SOL     OW17080   0.672   3.303   3.238  0.5122 -0.7682 -0.0183
 1873SOL    HW117081   0.608   3.249   3.192  0.2890 -1.3544  0.9814
 1873SOL    HW217082   0.752   3.282   3.189  0.7311  1.1886 -0.4978
 1874SOL     OW17083   2.594   1.068   8.394 -0.7542  0.2511 -0.3393
 1874SOL    HW117084   2.670   1.108   8.436 -0.9653  0.2618  0.0280
 1874SOL    HW217085   2.618   0.976   8.395 -1.0396  0.1765 -0.4430
 1875SOL     OW17086   0.994   4.170   6.619  0.4243  0.2329  0.1345
 1875SOL    HW117087   0.908   4.141   6.651  1.3804 -0.5082  1.9934
 1875SOL    HW217088   1.042   4.093   6.589  1.3658  0.5633  0.8120
 1876SOL     OW17089   0.381   2.578  13.824  0.2518 -0.4868 -0.3116
 1876SOL    HW117090   0.419   2.561  13.737 -0.8130 -0.3456 -0.8113
 1876SOL    HW217091   0.422   2.510  13.877 -1.0244 -0.0570  1.2142
 1877SOL     OW17092   0.880   3.903   7.552  0.0563 -0.0995  0.5763
 1877SOL    HW117093   0.887   3.993   7.584  1.0959  0.2817 -0.7703
 1877SOL    HW217094   0.879   3.913   7.457  1.5085 -4.4611  0.0969
 1878SOL     OW17095   0.096   4.350   5.230 -0.4920  0.5759 -0.5840
 1878SOL    HW117096   0.096   4.262   5.193 -0.7332  1.4942 -2.8064
 1878SOL    HW217097   0.188   4.368   5.210  0.2203 -2.4889 -0.0008
 1879SOL     OW17098   2.645   0.875  14.859 -0.5001  0.4381  0.4523
 1879SOL    HW117099   2.593   0.799  14.832  2.5629 -1.2146 -0.7449
 1879SOL    HW217100   2.614   0.939  14.796 -1.1247  1.5649  1.9036
 1880SOL     OW17101   4.352   2.066   0.848 -0.0753  0.1743  0.2746
 1880SOL    HW117102   4.438   2.056   0.890 -0.1080  2.0253  0.7983
 1880SOL    HW217103   4.355   2.161   0.835  0.2230  0.4185  2.0629
 1881SOL     OW17104   4.544   0.541  16.223 -0.5514  0.0877  0.4843
 1881SOL    HW117105   4.475   0.495  16.270  0.3663 -1.7346  0.0420
 1881SOL    HW217106   4.522   0.634  16.235 -0.0039  0.4592 -1.4417
 1882SOL     OW17107   0.727   4.533   9.444 -0.1780  0.1961  0.0406
 1882SOL    HW117108   0.767   4.452   9.413  0.6393  0.3313  0.7504
 1882SOL    HW217109   0.789   4.572   9.505 -0.5947  0.9030  0.0177
 1883SOL     OW17110   3.901   0.542   5.486 -0.5940  0.1003  0.5371
 1883SOL    HW117111   3.943   0.599   5.550  0.3900  2.2998 -2.0619
 1883SOL    HW217112   3.965   0.472   5.481 -1.1270 -0.2745 -0.8759
 1884SOL     OW17113   0.619   4.201  13.116  0.1156 -0.5143  0.0755
 1884SOL    HW117114   0.651   4.292  13.112 -1.4006 -0.0030 -0.5655
 1884SOL    HW217115   0.551   4.196  13.183  0.0453  0.7509  0.1005
 1885SOL     OW17116   3.294   2.919  12.680  0.0997 -0.4646 -0.7318
 1885SOL    HW117117   3.376   2.963  12.656 -0.6041  1.4171  0.2771
 1885SOL    HW217118   3.272   2.885  12.593 -0.4952  2.1417 -1.5937
 1886SOL     OW17119   1.808   0.872   6.461 -0.7282  0.4407  0.2383
 1886SOL    HW117120   1.787   0.796   6.517 -2.3316  1.6222  1.2505
 1886SOL    HW217121   1.796   0.948   6.518  0.0309 -0.1796  1.2393
 1887SOL     OW17122   2.661   4.566   7.926 -0.1051 -0.0388  0.3966
 1887SOL    HW117123   2.573   4.539   7.898 -0.9013  0.3882  2.5146
 1887SOL    HW217124   2.714   4.494   7.893  0.1722  0.8367 -1.0730
 1888SOL     OW17125   4.493   1.496   8.679 -0.4444 -0.5676  0.1802
 1888SOL    HW117126   4.414   1.460   8.638  1.4001 -1.1852 -2.8767
 1888SOL    HW217127   4.459   1.530   8.762 -0.9744  2.4038 -1.2717
 1889SOL     OW17128   3.747   3.755   6.468  0.2784 -0.2899  0.2812
 1889SOL    HW117129   3.719   3.735   6.557  0.9891  0.3498  0.6353
 1889SOL    HW217130   3.739   3.850   6.468  1.0676 -0.2246  0.5859
 1890SOL     OW17131   2.972   2.513   8.194  0.0222  0.2389 -0.0014
 1890SOL    HW117132   2.963   2.538   8.286  0.5785 -0.9574  0.3758
 1890SOL    HW217133   2.988   2.419   8.195  1.4196  0.4787  0.2583
 1891SOL     OW17134   4.682   2.154   6.252 -0.2281 -0.2395 -0.4446
 1891SOL    HW117135   4.669   2.099   6.328 -2.7393  0.2766 -0.4881
 1891SOL    HW217136   4.620   2.227   6.261 -1.3217 -1.2002 -0.0652
 1892SOL     OW17137   0.791   4.224   3.231 -0.4811  0.1365  0.2655
 1892SOL    HW117138   0.785   4.189   3.142  0.2883  1.7868 -0.4249
 1892SOL    HW217139   0.831   4.152   3.280 -1.6983  0.8728  2.3396
 1893SOL     OW17140   0.845   2.447  12.077 -0.1505 -0.1639  0.4985
 1893SOL    HW117141   0.816   2.502  12.005 -0.9117  0.0715  0.9768
 1893SOL    HW217142   0.798   2.490  12.148 -0.3543 -1.8145  1.3748
 1894SOL     OW17143   1.002   4.238   2.702 -0.2992 -0.8378  0.1278
 1894SOL    HW117144   0.987   4.150   2.668 -0.8087 -1.0176  0.8297
 1894SOL    HW217145   1.076   4.274   2.653 -1.3386  1.2441  0.0746
 1895SOL     OW17146   1.342   1.488   9.086 -0.4563  0.1070  0.0926
 1895SOL    HW117147   1.399   1.565   9.082 -0.4454  0.2061  1.8884
 1895SOL    HW217148   1.253   1.525   9.090 -0.4281  0.2230 -0.4412
 1896SOL     OW17149   2.034   0.852   7.692  0.4099 -0.0872 -0.1078
 1896SOL    HW117150   2.072   0.830   7.607 -0.6213  0.1361 -0.6293
 1896SOL    HW217151   2.097   0.909   7.737 -0.0654  1.4736 -1.4124
 1897SOL     OW17152   4.058   3.863  14.894 -0.0931 -0.6972  0.3730
 1897SOL    HW117153   3.996   3.925  14.855  1.9970  0.9326 -0.3280
 1897SOL    HW217154   4.050   3.875  14.989 -1.3894 -3.3765  0.6248
 1898SOL     OW17155   3.958   3.900   3.206 -0.5986 -0.0694 -0.2444
 1898SOL    HW117156   3.996   3.909   3.118  0.5687 -3.0426 -0.0629
 1898SOL    HW217157   3.903   3.823   3.194 -0.2843 -0.4039  0.4517
 1899SOL     OW17158   4.556   3.186   8.124  0.0165 -0.3134 -0.1848
 1899SOL    HW117159   4.554   3.257   8.059  1.1996  1.1182  1.3587
 1899SOL    HW217160   4.557   3.118   8.057  0.9631 -0.5885  0.1097
 1900SOL     OW17161   3.513   4.622  16.897 -0.0487 -0.5847  0.0464
 1900SOL    HW117162   3.423   4.653  16.909  0.1020  0.5094 -1.6676
 1900SOL    HW217163   3.541   4.622  16.988 -3.0917 -0.3253  0.9892
 1901SOL     OW17164   3.159   4.297   5.610 -0.7082 -0.2536  0.1638
 1901SOL    HW117165   3.070   4.266   5.593 -0.7475 -1.1166  1.9099
 1901SOL    HW217166   3.160   4.380   5.562  2.3565 -0.6433 -0.4388
 1902SOL     OW17167   1.145   2.693   4.251 -0.4911  0.3903  0.0069
 1902SOL    HW117168   1.192   2.659   4.326  1.1029  0.8849 -0.7693
 1902SOL    HW217169   1.208   2.745   4.200  1.4611 -0.8293  1.1705
 1903SOL     OW17170   0.079   1.118   8.026  0.2874  1.2755 -0.0605
 1903SOL    HW117171   0.121   1.139   8.110 -2.6356  0.3174  1.6547
 1903SOL    HW217172   0.124   1.033   8.020  0.2008  1.2842 -0.7827
 1904SOL     OW17173   3.555   3.554   7.241  0.0390 -0.1840 -0.2802
 1904SOL    HW117174   3.598   3.473   7.271  1.2088  0.1964 -0.9160
 1904SOL    HW217175   3.617   3.580   7.173  1.3923 -2.7038 -0.0347
 1905SOL     OW17176   4.167   4.115   7.680 -0.7212 -0.3931 -0.2757
 1905SOL    HW117177   4.159   4.155   7.593 -3.0106 -0.6639 -0.1833
 1905SOL    HW217178   4.076   4.089   7.693 -1.0773  1.7016  1.5636
 1906SOL     OW17179   1.207   0.129  12.676 -0.5658  0.4215  0.0996
 1906SOL    HW117180   1.223   0.171  12.591  0.4668  0.8038  0.4791
 1906SOL    HW217181   1.120   0.155  12.706 -0.5219 -0.9944  1.4158
 1907SOL     OW17182   1.563   0.222   1.345  0.1023 -0.1610  0.6651
 1907SOL    HW117183   1.521   0.172   1.275  1.3253 -1.8115  1.0981
 1907SOL    HW217184   1.509   0.300   1.357 -0.4793 -0.6496  1.3208
 1908SOL     OW17185   0.668   2.081   4.201  0.5605 -0.0252  0.6913
 1908SOL    HW117186   0.637   2.007   4.254 -1.9344 -0.4568 -1.3902
 1908SOL    HW217187   0.586   2.130   4.194  1.3308  1.1449 -0.0071
 1909SOL     OW17188   2.890   1.476  16.174 -0.2947 -0.4797  0.5026
 1909SOL    HW117189   2.954   1.452  16.107  0.1762 -1.2584  1.2315
 1909SOL    HW217190   2.815   1.420  16.153 -0.3590 -0.5705  0.9743
 1910SOL     OW17191   1.433   2.579  14.432  0.5922 -0.1283  0.1657
 1910SOL    HW117192   1.412   2.491  14.400 -0.7314 -0.6996  2.6408
 1910SOL    HW217193   1.417   2.574  14.526  0.5338  2.2970  0.2696
 1911SOL     OW17194   3.120   3.540   6.373 -0.2095 -0.4985  0.3862
 1911SOL    HW117195   3.113   3.554   6.467 -0.3949  0.0307  0.2907
 1911SOL    HW217196   3.029   3.530   6.345 -0.0884 -0.6040  0.0164
 1912SOL     OW17197   3.750   1.424   7.949  0.4031  0.2952  0.0241
 1912SOL    HW117198   3.712   1.440   8.036 -2.4921 -0.5574 -1.1192
 1912SOL    HW217199   3.832   1.472   7.964 -0.0878  0.1692  3.1393
 1913SOL     OW17200   2.267   1.791   8.466  0.2641  0.1790  0.1005
 1913SOL    HW117201   2.284   1.836   8.549  0.7934  0.5947 -0.2351
 1913SOL    HW217202   2.205   1.847   8.419 -0.2490 -1.0406 -0.6637
 1914SOL     OW17203   3.340   0.945   2.577  0.7223  0.1251  0.2334
 1914SOL    HW117204   3.322   1.024   2.526 -2.4332  0.0909  1.2615
 1914SOL    HW217205   3.325   0.884   2.506 -0.5004 -0.5805  1.1024
 1915SOL     OW17206   3.238   0.824   4.359 -0.0022  0.0684  0.3404
 1915SOL    HW117207   3.259   0.892   4.423  0.9897 -0.9742  1.1208
 1915SOL    HW217208   3.308   0.845   4.298  1.0469 -2.5449  0.6342
 1916SOL     OW17209   4.266   2.788   3.957 -0.2459  0.1904 -0.0864
 1916SOL    HW117210   4.287   2.824   3.871  2.9191  1.0760  1.0393
 1916SOL    HW217211   4.278   2.694   3.951  1.8169  0.3228  1.6663
 1917SOL     OW17212   3.434   3.507   2.255 -0.1557  0.3923 -0.0501
 1917SOL    HW117213   3.394   3.425   2.283 -0.3198 -0.2026 -2.0255
 1917SOL    HW217214   3.523   3.478   2.234 -0.0237 -0.1688  1.2644
 1918SOL     OW17215   3.339   4.406  15.273  0.3869 -0.1504  0.4763
 1918SOL    HW117216   3.338   4.471  15.203 -1.1298  0.0868  0.7184
 1918SOL    HW217217   3.289   4.330  15.243 -0.6419  0.6344  0.1689
 1919SOL     OW17218   0.573   0.991   2.163 -0.1090 -0.3749 -0.3282
 1919SOL    HW117219   0.515   1.022   2.094 -0.1180  2.1772  0.8412
 1919SOL    HW217220   0.620   0.924   2.113 -1.7337 -1.5586 -0.2415
 1920SOL     OW17221   2.930   4.105   8.899 -0.1698 -0.4870 -0.0042
 1920SOL    HW117222   2.929   4.167   8.972 -1.1393 -0.1273 -0.3274
 1920SOL    HW217223   3.004   4.144   8.853 -1.1751  0.7499 -0.5656
 1921SOL     OW17224   0.387   0.807   6.990 -0.0426  0.2996 -0.2729
 1921SOL    HW117225   0.410   0.714   6.994 -2.0362 -0.2183 -0.9867
 1921SOL    HW217226   0.356   0.810   6.900  0.7230  0.3642 -0.5358
 1922SOL     OW17227   3.504   3.503  13.213 -0.2597  0.3137  0.0827
 1922SOL    HW117228   3.445   3.517  13.286  0.4607  0.1230  0.7003
 1922SOL    HW217229   3.501   3.590  13.174 -1.5835  0.3402  0.2658
 1923SOL     OW17230   4.637   2.994   9.175  0.1807 -0.4916 -0.0310
 1923SOL    HW117231   4.656   2.998   9.082  0.8613 -2.3614  0.0342
 1923SOL    HW217232   4.613   3.084   9.198  1.5335  0.3616 -2.0340
 1924SOL     OW17233   2.812   1.577   8.716 -0.6240 -0.5071  0.0974
 1924SOL    HW117234   2.906   1.576   8.696 -1.0655  1.5108 -2.1490
 1924SOL    HW217235   2.795   1.501   8.771 -1.9190 -0.5527 -0.3624
 1925SOL     OW17236   1.472   2.252   8.362 -0.5156  0.0039  0.1365
 1925SOL    HW117237   1.530   2.223   8.432 -0.1749  0.3745  0.0073
 1925SOL    HW217238   1.444   2.328   8.413 -0.6147 -1.0390  1.6292
 1926SOL     OW17239   2.032   2.085  14.030 -0.2732 -0.1104 -0.0619
 1926SOL    HW117240   2.017   2.113  13.939 -2.9023 -1.3382 -0.0277
 1926SOL    HW217241   1.942   2.105  14.057  0.3202  1.1891  0.9170
 1927SOL     OW17242   0.896   4.700   1.861  0.1963  0.2473  0.2689
 1927SOL    HW117243   0.885   4.612   1.897  1.0035  0.6459  1.4756
 1927SOL    HW217244   0.830   0.014   1.918  1.1425  1.3368  0.6135
 1928SOL     OW17245   0.128   2.205   7.703 -0.4992  0.2327  0.1963
 1928SOL    HW117246   0.106   2.127   7.755  0.3325  0.6040  1.0850
 1928SOL    HW217247   0.209   2.234   7.744 -0.1944 -0.1850 -0.1036
 1929SOL     OW17248   4.312   2.191  15.101 -0.4760 -0.1776 -0.2422
 1929SOL    HW117249   4.222   2.190  15.134 -0.5426 -0.8424 -0.4528
 1929SOL    HW217250   4.324   2.100  15.074  0.1063 -0.7668  2.0160
 1930SOL     OW17251   0.928   0.331   3.007  0.1886  0.1936 -0.3844
 1930SOL    HW117252   0.962   0.267   3.070 -0.4789  0.7586  0.5542
 1930SOL    HW217253   0.875   0.279   2.947  1.3205  0.8021 -1.9236
 1931SOL     OW17254   3.327   1.023   2.925 -0.1560 -0.3278  0.0812
 1931SOL    HW117255   3.366   1.080   2.991 -1.0388  0.1581  0.1827
 1931SOL    HW217256   3.397   1.003   2.862 -0.0485 -1.0654  0.4467
 1932SOL     OW17257   4.265   0.969   2.923 -0.0997  0.0250  0.1339
 1932SOL    HW117258   4.261   0.875   2.943 -1.2882 -0.2944 -1.5947
 1932SOL    HW217259   4.337   0.989   2.983  0.8015 -3.1943  0.1417
 1933SOL     OW17260   3.095   1.912   7.898  0.3527 -0.2780  0.4595
 1933SOL    HW117261   3.040   1.982   7.934 -0.9172 -0.3370 -1.3880
 1933SOL    HW217262   3.027   1.850   7.871  1.5220 -0.5930 -1.7439
 1934SOL     OW17263   0.238   0.855  17.689 -0.2677  0.1658 -0.0357
 1934SOL    HW117264   0.314   0.854  17.632  0.7619 -0.3435  1.3466
 1934SOL    HW217265   0.211   0.947  17.686  1.6373  0.7358  0.3451
 1935SOL     OW17266   1.890   0.112   2.619 -0.1559  0.7074 -0.3904
 1935SOL    HW117267   1.837   0.044   2.577 -0.4993  0.9003 -0.2718
 1935SOL    HW217268   1.824   0.164   2.664  1.6295 -0.0419  3.0462
 1936SOL     OW17269   1.754   4.254   4.028  0.7041  0.7424 -0.4395
 1936SOL    HW117270   1.789   4.227   4.112  0.6471 -1.2459 -1.0627
 1936SOL    HW217271   1.805   4.208   3.962 -1.7458  0.1758 -1.9648
 1937SOL     OW17272   1.238   4.248   4.339 -0.2951  0.2320  0.1862
 1937SOL    HW117273   1.307   4.277   4.399  0.2886 -1.0016  0.1008
 1937SOL    HW217274   1.236   4.154   4.355 -1.8765  0.6603  2.4415
 1938SOL     OW17275   0.795   2.244   6.512  0.1069 -0.2095  0.5602
 1938SOL    HW117276   0.781   2.300   6.588  2.0041  1.1842 -0.1127
 1938SOL    HW217277   0.818   2.307   6.443 -1.0393  0.9150  1.2141
 1939SOL     OW17278   1.252   3.862   8.950  0.9478 -0.0293 -0.1315
 1939SOL    HW117279   1.222   3.901   8.868 -0.8747  1.0878  1.0518
 1939SOL    HW217280   1.240   3.934   9.012 -0.6609 -0.0376 -0.4361
 1940SOL     OW17281   1.244   1.920  17.058 -0.1433  0.7159 -0.4082
 1940SOL    HW117282   1.182   1.975  17.106 -2.1560 -2.0825  0.2326
 1940SOL    HW217283   1.183   1.848  17.039  0.5468 -0.0711  0.4098
 1941SOL     OW17284   1.077   0.865   7.247  0.5533 -0.3993 -0.6945
 1941SOL    HW117285   1.030   0.877   7.164 -2.3025  1.6896  1.2530
 1941SOL    HW217286   1.063   0.771   7.260 -2.4957 -0.2424 -2.7856
 1942SOL     OW17287   0.826   1.914   6.904 -0.3770  0.1840 -0.6532
 1942SOL    HW117288   0.879   1.854   6.852 -0.2338  1.6289 -2.1839
 1942SOL    HW217289   0.742   1.918   6.859  0.0721 -0.9862 -1.5890
 1943SOL     OW17290   0.429   4.323   3.933 -0.2180  0.3177 -0.0717
 1943SOL    HW117291   0.342   4.352   3.961 -0.6921 -2.0971  0.9427
 1943SOL    HW217292   0.407   4.317   3.840 -2.5545  0.0129  0.5006
 1944SOL     OW17293   1.297   2.966   7.259 -0.5870  0.3650 -0.1681
 1944SOL    HW117294   1.236   2.892   7.253  0.5921 -0.6795  0.7259
 1944SOL    HW217295   1.330   2.941   7.345 -1.0955 -0.6978 -0.2814
 1945SOL     OW17296   4.474   3.359   5.941 -0.1114 -0.1384  0.0726
 1945SOL    HW117297   4.546   3.297   5.935 -1.1120 -1.3902  0.9037
 1945SOL    HW217298   4.515   3.444   5.931 -1.0826  0.6039  2.4834
 1946SOL     OW17299   0.711   1.086   7.862 -0.1188 -0.1722  0.4442
 1946SOL    HW117300   0.688   1.119   7.948 -2.3672 -0.9262  0.1442
 1946SOL    HW217301   0.704   1.169   7.815  3.3857 -0.7161 -1.0798
 1947SOL     OW17302   4.099   3.712  17.224 -0.5060 -0.5916 -0.2138
 1947SOL    HW117303   4.076   3.662  17.302 -1.3418 -0.4893 -0.4029
 1947SOL    HW217304   4.025   3.693  17.168 -1.2324  1.9384 -0.1071
 1948SOL     OW17305   1.749   3.423   7.711 -0.0740  0.1238  0.0859
 1948SOL    HW117306   1.719   3.479   7.639 -3.0218 -3.3848 -1.4239
 1948SOL    HW217307   1.793   3.356   7.660 -0.2526  0.0865 -0.0193
 1949SOL     OW17308   1.404   0.201   9.818 -0.4531  0.7142  0.2026
 1949SOL    HW117309   1.319   0.188   9.778  0.0912  1.0628 -1.0624
 1949SOL    HW217310   1.385   0.237   9.905 -0.4478 -1.5289  1.1356
 1950SOL     OW17311   2.914   4.347  13.937 -0.4218 -0.1819 -0.2713
 1950SOL    HW117312   2.844   4.412  13.946 -0.8650 -0.8064  0.7387
 1950SOL    HW217313   2.978   4.406  13.975  2.4080 -2.1476 -1.9748
 1951SOL     OW17314   2.622   0.373   3.848 -0.3758  0.2875 -0.1561
 1951SOL    HW117315   2.640   0.467   3.844 -0.4187  0.3654  1.3266
 1951SOL    HW217316   2.604   0.357   3.941  1.5888 -0.5785  0.0810
 1952SOL     OW17317   3.210   0.360   4.795 -0.1281 -0.1908  0.9375
 1952SOL    HW117318   3.205   0.294   4.726 -3.7639 -1.1740  2.1710
 1952SOL    HW217319   3.277   0.316   4.846 -1.3825 -2.9121  0.2429
 1953SOL     OW17320   0.985   4.009   0.911  0.2727 -0.5538  0.4829
 1953SOL    HW117321   0.906   3.955   0.919  0.4480 -1.2140 -2.1997
 1953SOL    HW217322   1.050   3.947   0.879 -0.4474  0.2064 -2.4424
 1954SOL     OW17323   1.809   2.728   2.917  0.0197  0.1983 -0.2060
 1954SOL    HW117324   1.800   2.758   3.007  1.8464 -0.6082  0.2479
 1954SOL    HW217325   1.727   2.680   2.914  0.4511 -0.5839  0.4043
 1955SOL     OW17326   3.337   4.399  16.175 -0.3378  0.2183 -0.3249
 1955SOL    HW117327   3.293   4.334  16.229 -1.5501  1.2901 -0.0104
 1955SOL    HW217328   3.360   4.461  16.245  1.1198 -0.5590 -0.1131
 1956SOL     OW17329   0.405   4.674   4.434 -0.1996  0.0305 -0.2074
 1956SOL    HW117330   0.316   4.707   4.421 -0.2862 -0.1848 -0.1698
 1956SOL    HW217331   0.453   0.030   4.421  2.2394 -1.4284 -0.2089
 1957SOL     OW17332   3.685   2.049   5.485 -0.0408  0.1064  0.9201
 1957SOL    HW117333   3.652   2.030   5.572 -0.5972 -0.4453  0.5926
 1957SOL    HW217334   3.602   2.063   5.440  0.2254 -0.7111  0.1762
 1958SOL     OW17335   3.614   3.103   9.406 -0.2515  0.0308  0.0097
 1958SOL    HW117336   3.688   3.162   9.420 -0.2363 -0.6054  2.4957
 1958SOL    HW217337   3.634   3.041   9.476 -0.0925  2.4650  2.1460
 1959SOL     OW17338   3.612   4.627  15.602 -0.6907 -0.2046  0.5514
 1959SOL    HW117339   3.562   4.569  15.546 -0.3084 -1.3978  1.4533
 1959SOL    HW217340   3.697   4.587  15.584 -0.5766  1.0440 -1.6177
 1960SOL     OW17341   3.955   0.739   3.816  0.5534 -0.4451 -0.4322
 1960SOL    HW117342   3.937   0.762   3.725  2.6566  0.2221 -0.6740
 1960SOL    HW217343   3.885   0.779   3.868  0.8055 -0.0538 -0.3911
 1961SOL     OW17344   2.348   4.055   2.027  0.4340  0.1881  0.0778
 1961SOL    HW117345   2.365   4.004   1.948 -2.8709 -0.4418 -0.1932
 1961SOL    HW217346   2.354   3.987   2.093 -1.7659  0.4823  0.5765
 1962SOL     OW17347   0.419   2.225   9.810 -0.5146  0.0441  0.2819
 1962SOL    HW117348   0.367   2.250   9.886  0.1192 -3.5397  1.9087
 1962SOL    HW217349   0.456   2.140   9.835  0.5650  0.3866 -0.1454
 1963SOL     OW17350   0.866   3.696  12.102  0.2712  0.2657 -0.3967
 1963SOL    HW117351   0.960   3.676  12.100  0.6033  2.1972 -3.1788
 1963SOL    HW217352   0.866   3.792  12.101  1.3420  0.3294  2.9069
 1964SOL     OW17353   0.166   0.916   4.586  0.1910  0.3778  0.6941
 1964SOL    HW117354   0.164   0.911   4.490 -0.1156 -2.1437  0.8329
 1964SOL    HW217355   0.162   0.822   4.600 -0.9638  0.4482  0.7987
 1965SOL     OW17356   3.131   4.451   8.983 -0.1944 -0.0781 -0.1886
 1965SOL    HW117357   3.166   4.414   8.902  1.6947  0.2530  0.4656
 1965SOL    HW217358   3.137   4.376   9.042  1.4632  1.4567  1.6092
 1966SOL     OW17359   0.913   1.970   8.698 -0.0755 -0.6609 -0.3917
 1966SOL    HW117360   0.872   2.015   8.623  1.6896 -1.8205 -2.0440
 1966SOL    HW217361   0.937   2.044   8.753  0.8080 -0.0921 -1.5472
 1967SOL     OW17362   3.888   4.064   3.805 -0.2745  0.3048 -0.4952
 1967SOL    HW117363   3.926   3.982   3.836 -0.0495  0.3294 -0.7094
 1967SOL    HW217364   3.817   4.078   3.869  0.5450  0.4146  0.3965
 1968SOL     OW17365   1.605   4.558   9.273  0.1673  0.0632  0.7724
 1968SOL    HW117366   1.609   4.597   9.186  0.8295  0.5623  1.0239
 1968SOL    HW217367   1.541   4.493   9.244  1.0784 -0.4403 -0.0779
 1969SOL     OW17368   0.513   3.520   8.158 -0.3299  0.1383 -0.1374
 1969SOL    HW117369   0.436   3.567   8.126 -1.9765 -1.5450  1.3796
 1969SOL    HW217370   0.584   3.555   8.104  1.4074 -0.5363  1.7046
 1970SOL     OW17371   2.315   3.469  11.619 -0.3449  0.2988  0.1304
 1970SOL    HW117372   2.241   3.456  11.560  0.0655 -1.4622 -0.0161
 1970SOL    HW217373   2.270   3.513  11.690 -1.2883  1.7181 -1.3482
 1971SOL     OW17374   1.810   1.791  17.338 -0.4147  0.5153  0.2026
 1971SOL    HW117375   1.857   1.853  17.394 -3.4893  1.1207  2.1143
 1971SOL    HW217376   1.852   1.803  17.253  1.4341 -2.2486  0.7433
 1972SOL     OW17377   4.594   3.981   9.614  0.2723 -0.5739  0.0627
 1972SOL    HW117378   4.536   4.054   9.592  1.2936  0.5821  1.2117
 1972SOL    HW217379   4.587   3.928   9.535 -1.0850  0.6401 -0.6255
 1973SOL     OW17380   1.423   4.508  16.023  0.0890 -0.3659  0.0912
 1973SOL    HW117381   1.457   4.596  16.042  0.5273 -0.3651 -0.6832
 1973SOL    HW217382   1.386   4.521  15.936 -1.1555 -0.7538  0.5525
 1974SOL     OW17383   4.377   1.782  15.335 -0.1705  0.1892 -0.3079
 1974SOL    HW117384   4.358   1.692  15.361 -0.0015  0.1774 -0.2220
 1974SOL    HW217385   4.429   1.807  15.412  0.7392  1.1594 -1.2373
 1975SOL     OW17386   2.138   0.726   2.113  0.0548 -0.2797 -0.0519
 1975SOL    HW117387   2.067   0.790   2.104  2.5257  2.5241  0.3334
 1975SOL    HW217388   2.186   0.764   2.186 -1.2310  0.2693  0.5179
 1976SOL     OW17389   1.474   1.852   7.915 -0.5174  0.1750 -0.4653
 1976SOL    HW117390   1.430   1.767   7.927  3.7521 -2.0195 -0.2112
 1976SOL    HW217391   1.435   1.903   7.986 -0.3975  1.3676 -1.2534
 1977SOL     OW17392   1.717   1.169   6.629 -0.3223  0.2374  0.0645
 1977SOL    HW117393   1.743   1.175   6.720 -2.2654  0.3507  0.6225
 1977SOL    HW217394   1.622   1.165   6.642 -0.3248 -1.8861 -0.6093
 1978SOL     OW17395   0.173   0.971   4.938 -0.0128  0.1885  0.0960
 1978SOL    HW117396   0.248   0.977   4.878  0.1254  2.4322  0.4807
 1978SOL    HW217397   0.121   0.914   4.882  0.8040  0.2378 -0.7169
 1979SOL     OW17398   4.656   0.787  12.695  0.1862 -0.3269 -0.2530
 1979SOL    HW117399   0.021   0.807  12.671  0.0157  1.8399  0.8999
 1979SOL    HW217400   4.669   0.730  12.770  0.3109 -1.2712 -0.9804
 1980SOL     OW17401   2.644   3.315   4.172  0.2486 -0.1351  0.3804
 1980SOL    HW117402   2.626   3.389   4.115  0.2661  0.2169  0.8369
 1980SOL    HW217403   2.634   3.347   4.261 -1.2837 -0.8095  0.4428
 1981SOL     OW17404   3.536   3.913  11.158  0.1671 -0.1249  0.6539
 1981SOL    HW117405   3.626   3.943  11.171  0.8613 -1.6377 -0.6695
 1981SOL    HW217406   3.564   3.839  11.105  0.0945  0.2894  0.0382
 1982SOL     OW17407   1.130   2.785   8.970  0.4393 -0.1047  0.0294
 1982SOL    HW117408   1.224   2.790   8.957  0.2875 -2.1733 -1.8344
 1982SOL    HW217409   1.106   2.878   8.964 -0.0693 -0.2171  0.2671
 1983SOL     OW17410   3.457   2.538   0.128  0.1273  0.0918 -0.3363
 1983SOL    HW117411   3.411   2.512   0.049  0.2018 -1.4230  0.1064
 1983SOL    HW217412   3.537   2.485   0.129  0.8575  1.1953  0.2134
 1984SOL     OW17413   3.113   0.671   2.446 -0.2509 -0.4291  0.1737
 1984SOL    HW117414   3.107   0.678   2.351  0.8139  3.1644  0.3626
 1984SOL    HW217415   3.154   0.585   2.454  2.4047  0.6288 -2.1327
 1985SOL     OW17416   3.414   1.395   3.580  0.0250 -0.0174  0.4189
 1985SOL    HW117417   3.475   1.344   3.633 -0.4669 -0.6249  0.4092
 1985SOL    HW217418   3.378   1.324   3.527 -2.7280  1.4704  0.2741
 1986SOL     OW17419   1.321   3.718   4.202 -0.3507 -0.2614 -0.4985
 1986SOL    HW117420   1.228   3.727   4.183  0.3389  1.5944 -3.0779
 1986SOL    HW217421   1.352   3.806   4.222 -0.6477  0.0808 -1.5537
 1987SOL     OW17422   4.312   0.848  15.204 -0.9337  0.8057  1.0147
 1987SOL    HW117423   4.276   0.784  15.265 -1.8485 -0.8757 -1.2743
 1987SOL    HW217424   4.326   0.922  15.263 -1.7392  1.4057  0.4474
 1988SOL     OW17425   2.361   2.698   5.567 -0.4174  0.5788 -0.3264
 1988SOL    HW117426   2.271   2.681   5.595  0.1008  1.6299  2.0108
 1988SOL    HW217427   2.357   2.684   5.472  0.4529 -0.3368 -0.2230
 1989SOL     OW17428   3.700   1.454   0.899 -0.3971 -0.5866  0.0771
 1989SOL    HW117429   3.632   1.496   0.951 -0.1774  2.3053 -2.0202
 1989SOL    HW217430   3.649   1.391   0.848 -1.4807  0.3956 -0.0522
 1990SOL     OW17431   2.035   0.808  11.013 -0.0917 -0.2396 -0.0471
 1990SOL    HW117432   2.066   0.768  11.094 -0.0542 -1.4983 -0.6801
 1990SOL    HW217433   1.965   0.860  11.053 -1.3232 -1.5903 -0.4554
 1991SOL     OW17434   0.263   1.322  15.207 -0.0934  0.1646  0.7467
 1991SOL    HW117435   0.189   1.331  15.267 -0.7580  2.5064 -0.4169
 1991SOL    HW217436   0.291   1.414  15.205 -1.8152  0.6660 -1.0137
 1992SOL     OW17437   4.197   3.027   6.572  0.0632  0.1497 -0.6299
 1992SOL    HW117438   4.226   3.028   6.663  0.1916 -0.7847 -0.6651
 1992SOL    HW217439   4.191   2.933   6.557 -0.5409 -0.1133  1.3629
 1993SOL     OW17440   0.137   0.993   8.984  0.4846 -0.1129  0.0196
 1993SOL    HW117441   0.197   0.919   8.978 -0.0869 -0.4524 -1.6415
 1993SOL    HW217442   0.161   1.054   8.914  0.6496 -0.1847  0.0153
 1994SOL     OW17443   3.128   1.024   9.818 -0.7226 -0.2507 -0.3197
 1994SOL    HW117444   3.152   0.943   9.864 -2.1401 -1.7494 -2.2004
 1994SOL    HW217445   3.122   1.087   9.889 -0.2872  0.6465 -1.0769
 1995SOL     OW17446   2.980   0.561   7.210 -0.4743  0.1592 -0.0219
 1995SOL    HW117447   3.005   0.558   7.118  3.0853 -1.4975  1.0009
 1995SOL    HW217448   2.891   0.596   7.213 -1.3733 -2.1836  1.0918
 1996SOL     OW17449   4.269   0.129   3.517 -0.0276 -0.0265 -0.6292
 1996SOL    HW117450   4.313   0.178   3.448  0.9649  1.2748  0.9213
 1996SOL    HW217451   4.276   0.036   3.496 -0.1432  0.0011 -0.7846
 1997SOL     OW17452   0.278   3.680   6.108 -0.0815  0.0014 -0.4603
 1997SOL    HW117453   0.337   3.638   6.170 -0.8676 -0.5227 -0.0726
 1997SOL    HW217454   0.245   3.602   6.063  0.3022 -1.3419  1.5748
 1998SOL     OW17455   3.562   3.990  14.660  0.2276  0.2766  0.6230
 1998SOL    HW117456   3.493   3.937  14.619  0.0777  0.1109  1.0911
 1998SOL    HW217457   3.636   3.957  14.609  0.6989  0.8144  0.9697
 1999SOL     OW17458   3.660   0.101   8.309  0.9791  0.0939 -0.4915
 1999SOL    HW117459   3.648   0.103   8.214 -1.7040 -1.2786 -0.1735
 1999SOL    HW217460   3.746   0.142   8.304  1.3500 -0.6135  0.2008
 2000SOL     OW17461   1.301   0.459  11.745 -0.3477 -0.4097  0.1552
 2000SOL    HW117462   1.227   0.485  11.800  0.4218 -0.8256  1.4056
 2000SOL    HW217463   1.263   0.436  11.661  1.8494  2.4384 -1.5989
 2001SOL     OW17464   1.001   3.449   0.106  0.1115 -0.0110  0.6569
 2001SOL    HW117465   1.012   3.387   0.178  0.9774 -0.9217 -0.2629
 2001SOL    HW217466   0.913   3.424   0.078  0.8453 -1.1650 -0.5683
 2002SOL     OW17467   2.866   2.904   5.240 -0.0272  0.1399 -0.6012
 2002SOL    HW117468   2.938   2.892   5.302 -0.5397 -0.5844 -0.1443
 2002SOL    HW217469   2.901   2.846   5.172  0.6299  0.2108 -0.3301
 2003SOL     OW17470   2.650   3.443   0.243  0.2666  0.0796 -0.0759
 2003SOL    HW117471   2.670   3.369   0.301 -0.0386  0.8899  1.0620
 2003SOL    HW217472   2.687   3.409   0.161  1.5458  0.1940  0.4532
 2004SOL     OW17473   0.152   0.040   7.181  0.0717  0.4742 -0.1581
 2004SOL    HW117474   0.119   0.130   7.177 -1.4338 -0.0665 -0.1529
 2004SOL    HW217475   0.068   0.001   7.206  0.6504 -1.1783 -0.7686
 2005SOL     OW17476   3.755   2.546   9.172  0.6126  0.4385  0.7956
 2005SOL    HW117477   3.678   2.591   9.137 -0.0830 -0.6771  0.8854
 2005SOL    HW217478   3.724   2.455   9.167  0.9956  0.3079  0.8407
 2006SOL     OW17479   1.567   3.069  10.182  0.2779  0.1936 -0.3632
 2006SOL    HW117480   1.613   3.143  10.142  1.6064 -0.2965  0.2634
 2006SOL    HW217481   1.624   2.995  10.163 -0.0870  0.0108 -0.7605
 2007SOL     OW17482   2.149   1.216  14.586  0.1731 -0.7341 -0.1574
 2007SOL    HW117483   2.183   1.128  14.573 -0.8702 -1.2243  0.4532
 2007SOL    HW217484   2.205   1.262  14.523  0.2663  0.3298  0.6861
 2008SOL     OW17485   2.276   4.676  11.146 -0.2943 -0.1188  0.1448
 2008SOL    HW117486   2.318   0.036  11.153  1.5379 -0.8721 -1.7833
 2008SOL    HW217487   2.257   4.670  11.053 -0.1757 -1.3246  0.2025
 2009SOL     OW17488   0.276   0.816   2.453 -0.0495 -0.1596  0.2909
 2009SOL    HW117489   0.239   0.746   2.507  0.5005 -0.4831  0.2531
 2009SOL    HW217490   0.197   0.828   2.401 -0.0364 -2.2727 -0.2348
 2010SOL     OW17491   2.687   2.313   8.955  0.4417  0.3356 -0.1742
 2010SOL    HW117492   2.655   2.365   9.028 -1.1382 -0.4293 -0.3340
 2010SOL    HW217493   2.695   2.375   8.882 -3.2552 -0.0118 -0.8832
 2011SOL     OW17494   2.568   1.805   0.196 -0.1456 -0.2426 -0.6647
 2011SOL    HW117495   2.533   1.738   0.136  1.2860 -0.8208 -0.8551
 2011SOL    HW217496   2.587   1.878   0.137 -0.5101 -0.8718 -1.5689
 2012SOL     OW17497   1.632   3.158   5.162  0.0205  0.2019 -0.2625
 2012SOL    HW117498   1.708   3.198   5.120  1.4928 -1.4898  0.8139
 2012SOL    HW217499   1.643   3.068   5.131  0.3107  0.3507 -0.5930
 2013SOL     OW17500   4.463   1.591  14.835  0.7416  0.0204 -0.1693
 2013SOL    HW117501   4.401   1.628  14.897  1.0251  0.1981  0.0094
 2013SOL    HW217502   4.413   1.605  14.754 -1.4426  0.2546  1.2339
 2014SOL     OW17503   4.063   2.547  17.312 -0.7948 -0.2187 -0.3876
 2014SOL    HW117504   4.110   2.465  17.301 -0.9387 -0.1899 -1.2602
 2014SOL    HW217505   4.037   2.569  17.222  0.3469 -1.5583 -1.0432
 2015SOL     OW17506   2.134   2.870   8.268 -0.3475 -0.1740 -0.1250
 2015SOL    HW117507   2.154   2.927   8.342 -0.3285 -1.5864  0.9467
 2015SOL    HW217508   2.046   2.890   8.238 -0.0230  0.9682 -0.3527
 2016SOL     OW17509   0.843   1.447   5.870 -0.1718  0.1040  0.2604
 2016SOL    HW117510   0.920   1.471   5.922 -0.9747  2.1012  0.5163
 2016SOL    HW217511   0.838   1.526   5.816 -1.9175 -0.8883 -1.0693
 2017SOL     OW17512   1.760   3.329   4.321  0.1581 -0.1021 -0.2722
 2017SOL    HW117513   1.699   3.274   4.272  0.0107  0.1000 -0.3157
 2017SOL    HW217514   1.730   3.417   4.298 -1.4307 -0.5996 -0.1455
 2018SOL     OW17515   2.735   3.196   6.371 -0.0208 -0.7190 -1.0286
 2018SOL    HW117516   2.664   3.138   6.344  0.0060 -1.3812  0.3297
 2018SOL    HW217517   2.748   3.174   6.463 -0.3412  0.7535 -0.6372
 2019SOL     OW17518   4.296   1.112   1.384 -0.0871 -0.1985 -0.3741
 2019SOL    HW117519   4.210   1.107   1.424  0.0105  1.7175  0.1008
 2019SOL    HW217520   4.341   1.041   1.430 -0.9969 -0.4091  0.1775
 2020SOL     OW17521   2.534   2.301   6.343 -0.1579 -0.1467  0.3611
 2020SOL    HW117522   2.587   2.284   6.421  1.5243  2.4496 -0.2294
 2020SOL    HW217523   2.575   2.375   6.297 -0.0163 -1.3231 -1.4140
 2021SOL     OW17524   0.082   1.976   7.842  0.0768  0.7708 -0.4233
 2021SOL    HW117525   0.084   2.027   7.923  0.8121  0.0797 -0.0047
 2021SOL    HW217526   0.120   1.893   7.870  2.9216  1.3681 -2.4517
 2022SOL     OW17527   3.912   2.072  17.611  0.0557  0.5684  0.4114
 2022SOL    HW117528   4.002   2.102  17.618  0.4546 -1.2272  3.1507
 2022SOL    HW217529   3.931   1.990  17.656  1.1202  0.4949 -0.1781
 2023SOL     OW17530   3.352   2.292  14.105  0.2669  0.2172 -0.1825
 2023SOL    HW117531   3.389   2.212  14.068  1.0021  1.4239 -2.0444
 2023SOL    HW217532   3.266   2.256  14.129  0.6018  1.0500  2.2551
 2024SOL     OW17533   2.435   2.772   8.193 -0.2445 -0.5270  0.1290
 2024SOL    HW117534   2.341   2.782   8.210  0.1867  0.0231  2.1615
 2024SOL    HW217535   2.428   2.823   8.112  0.0409  0.2688  0.6017
 2025SOL     OW17536   3.728   2.906   7.950  0.0850 -0.3262  0.6451
 2025SOL    HW117537   3.717   2.817   7.985 -1.9789 -0.7665 -1.1244
 2025SOL    HW217538   3.822   2.922   7.963  0.0431 -0.4627  1.1163
 2026SOL     OW17539   3.876   1.039   6.083 -0.4781 -0.3024 -0.5481
 2026SOL    HW117540   3.815   0.998   6.021  1.6201 -1.5897 -1.7645
 2026SOL    HW217541   3.820   1.109   6.116  0.5148  0.1366  0.1915
 2027SOL     OW17542   0.266   1.308   6.386  0.2960 -0.2949 -0.3265
 2027SOL    HW117543   0.344   1.296   6.440 -0.8243 -0.9591  1.1414
 2027SOL    HW217544   0.211   1.234   6.412 -1.4846  0.4502 -1.9825
 2028SOL     OW17545   0.079   4.132   6.871  0.2609 -0.0734  0.4093
 2028SOL    HW117546   0.065   4.140   6.966 -1.1485  1.6798  0.0550
 2028SOL    HW217547   0.102   4.040   6.859 -0.9603 -0.6065  2.2320
 2029SOL     OW17548   2.204   4.534  10.445 -0.1907 -0.7300 -0.0767
 2029SOL    HW117549   2.147   4.610  10.452 -0.0709 -0.8297  2.0401
 2029SOL    HW217550   2.255   4.534  10.527 -1.5377 -2.0858  0.7641
 2030SOL     OW17551   2.359   3.116   4.865  0.5928 -0.0773 -0.0014
 2030SOL    HW117552   2.339   3.145   4.777  0.9464 -0.1478 -0.1078
 2030SOL    HW217553   2.297   3.169   4.914  1.6120 -0.1639  1.3923
 2031SOL     OW17554   3.997   1.745   6.678  0.6147 -0.4854  0.3617
 2031SOL    HW117555   4.084   1.760   6.641  0.7338 -1.3500  0.3122
 2031SOL    HW217556   4.032   1.738   6.766  1.6476 -0.5405 -0.0468
 2032SOL     OW17557   3.352   1.506   3.837 -0.2822  0.2595  0.1377
 2032SOL    HW117558   3.396   1.466   3.762 -0.3474  1.4654 -0.5485
 2032SOL    HW217559   3.337   1.432   3.896  0.5892  0.2991  0.4109
 2033SOL     OW17560   2.321   1.639   3.592  0.0528  0.5534 -0.2127
 2033SOL    HW117561   2.292   1.559   3.549  0.4227  1.3218 -1.8742
 2033SOL    HW217562   2.293   1.701   3.524 -1.1962  1.2125  0.8767
 2034SOL     OW17563   0.945   1.782  15.139 -0.0952  0.0956 -0.0639
 2034SOL    HW117564   0.989   1.765  15.055 -2.9370  0.3384 -1.5861
 2034SOL    HW217565   1.011   1.846  15.167 -0.9020  1.1678 -0.6431
 2035SOL     OW17566   3.585   1.227   7.864 -0.3307  0.4042 -0.2064
 2035SOL    HW117567   3.644   1.296   7.891 -0.9138  0.4815  0.8634
 2035SOL    HW217568   3.614   1.217   7.773  0.9134  0.9394  0.1373
 2036SOL     OW17569   1.960   4.330   5.747 -0.1143  0.3722 -0.4558
 2036SOL    HW117570   2.011   4.272   5.690  0.8712  0.2482  0.5578
 2036SOL    HW217571   1.976   4.420   5.718  0.9160  0.5609  0.6834
 2037SOL     OW17572   0.271   4.129   2.018  0.0826  0.1689  0.2431
 2037SOL    HW117573   0.234   4.047   2.052  0.6184 -0.3036 -0.3183
 2037SOL    HW217574   0.233   4.144   1.932  0.2951  0.0619  0.1310
 2038SOL     OW17575   2.903   0.010   7.330  0.4419  0.1119 -0.2702
 2038SOL    HW117576   2.955   0.089   7.346  0.1380 -0.0643  1.5648
 2038SOL    HW217577   2.942   4.673   7.392 -0.3335 -1.5686 -1.4952
 2039SOL     OW17578   2.916   3.830   1.223  0.1232  0.1415  0.7179
 2039SOL    HW117579   2.828   3.868   1.226 -0.0420 -0.2199  0.4218
 2039SOL    HW217580   2.963   3.900   1.177 -0.6471  0.7751  0.8944
 2040SOL     OW17581   1.390   1.092   8.390 -0.3559  0.3695 -0.8979
 2040SOL    HW117582   1.438   1.100   8.308 -1.2574  3.3679 -1.1307
 2040SOL    HW217583   1.384   0.996   8.394 -2.3181  0.4483 -2.0553
 2041SOL     OW17584   4.472   2.109   8.277  0.3372  0.1626 -0.7904
 2041SOL    HW117585   4.426   2.169   8.335  2.7561 -0.0972  1.4284
 2041SOL    HW217586   4.406   2.048   8.245  0.8810  0.0580 -1.7169
 2042SOL     OW17587   0.788   2.350   3.011 -0.0475  0.1487 -0.1930
 2042SOL    HW117588   0.753   2.409   2.945  0.2986  0.9703  0.3611
 2042SOL    HW217589   0.880   2.338   2.987  0.0840 -0.4019  0.5532
 2043SOL     OW17590   2.261   0.592   7.155  0.6742 -0.1762  0.4754
 2043SOL    HW117591   2.206   0.529   7.109  1.0472  0.4472 -0.8117
 2043SOL    HW217592   2.293   0.534   7.225  1.6578  0.7973  0.8309
 2044SOL     OW17593   2.552   4.630   6.004 -0.4800 -0.6493  0.6800
 2044SOL    HW117594   2.497   4.664   5.934 -0.2156  0.3663  0.9472
 2044SOL    HW217595   2.606   4.704   6.033 -1.3089  0.3773 -0.4148
 2045SOL     OW17596   1.149   3.513   2.018 -0.1532 -0.0557  0.3793
 2045SOL    HW117597   1.194   3.578   1.964 -1.3787  0.4783  0.0016
 2045SOL    HW217598   1.168   3.441   1.957 -0.9962 -0.0400  0.0973
 2046SOL     OW17599   3.093   4.176  16.118 -0.1307  0.1951 -0.0435
 2046SOL    HW117600   3.130   4.178  16.206 -0.5069  2.7930  0.0561
 2046SOL    HW217601   3.062   4.266  16.106 -0.6761  0.1148  0.7434
 2047SOL     OW17602   2.854   2.046   3.943  0.5198 -0.0842  0.3290
 2047SOL    HW117603   2.826   2.129   3.980  0.7614  0.1994 -0.1305
 2047SOL    HW217604   2.768   2.023   3.907  0.9089  0.7180 -1.0936
 2048SOL     OW17605   1.390   3.887  13.763  0.2867  0.5230 -0.1360
 2048SOL    HW117606   1.301   3.855  13.750  0.7335 -0.8312  0.1702
 2048SOL    HW217607   1.438   3.830  13.703 -1.0343 -1.5339  0.7620
 2049SOL     OW17608   1.048   2.536   9.016 -0.0529 -0.5280  0.2116
 2049SOL    HW117609   1.067   2.483   8.939  1.5712  0.0561  0.2068
 2049SOL    HW217610   1.074   2.622   8.984  1.7981 -0.9441  0.5778
 2050SOL     OW17611   1.804   2.511  14.796 -0.4586  0.5094  0.1548
 2050SOL    HW117612   1.887   2.550  14.770  0.3506 -1.3750 -0.0679
 2050SOL    HW217613   1.785   2.468  14.713 -0.9744  1.5222 -0.2541
 2051SOL     OW17614   0.224   1.598  13.752  0.0786 -0.0792  0.1898
 2051SOL    HW117615   0.177   1.619  13.833 -1.9555  0.5340 -1.1275
 2051SOL    HW217616   0.149   1.609  13.693  0.1378  0.1293  0.1549
 2052SOL     OW17617   2.848   3.270  15.183 -0.0846 -0.0991 -0.3253
 2052SOL    HW117618   2.935   3.255  15.149 -0.4999 -1.3626 -0.8271
 2052SOL    HW217619   2.814   3.339  15.125 -1.6375 -1.6918 -1.3089
 2053SOL     OW17620   1.448   1.994   2.333 -0.4213 -0.3894 -0.8364
 2053SOL    HW117621   1.520   2.043   2.372 -0.8964 -1.2445  1.1181
 2053SOL    HW217622   1.432   2.046   2.254  0.0636  0.6797 -0.2408
 2054SOL     OW17623   1.140   3.538   3.718  0.5883  0.2919  0.0726
 2054SOL    HW117624   1.224   3.534   3.672 -0.6853 -0.7702 -2.1453
 2054SOL    HW217625   1.091   3.465   3.680 -0.9747  1.9174 -1.0546
 2055SOL     OW17626   4.646   4.081   5.883  0.0768 -0.0181 -0.2840
 2055SOL    HW117627   0.000   4.031   5.866  0.6342  0.2816  1.4050
 2055SOL    HW217628   4.609   4.037   5.960  1.7632 -0.2204  0.4277
 2056SOL     OW17629   1.248   0.637   8.084  0.1141 -0.0253  0.0016
 2056SOL    HW117630   1.257   0.732   8.090  0.6636 -0.0982  0.3402
 2056SOL    HW217631   1.324   0.622   8.140  0.7267  0.4819 -0.6927
 2057SOL     OW17632   4.198   1.888  10.257 -0.4927 -0.1983  0.0980
 2057SOL    HW117633   4.127   1.907  10.318 -1.1738  0.0071 -0.7629
 2057SOL    HW217634   4.232   1.810  10.301 -1.1698  0.6791  2.1911
 2058SOL     OW17635   2.350   4.095  11.665  0.7904  0.2763  0.9313
 2058SOL    HW117636   2.445   4.098  11.658  0.7644 -0.3303  0.2781
 2058SOL    HW217637   2.323   4.183  11.692  2.2371  1.2345 -0.6978
 2059SOL     OW17638   3.763   0.381   9.268  0.2698  0.5261 -0.2559
 2059SOL    HW117639   3.733   0.471   9.284  1.3225  0.5196  1.8039
 2059SOL    HW217640   3.687   0.330   9.296 -0.2310 -0.4279 -3.4036
 2060SOL     OW17641   1.530   0.393   0.507  0.0330  0.3439 -0.4384
 2060SOL    HW117642   1.511   0.312   0.556  0.8287  0.8956  0.7908
 2060SOL    HW217643   1.533   0.351   0.421  0.5452 -0.2874 -0.1157
 2061SOL     OW17644   4.556   2.397   6.289  0.5544 -0.0452 -0.2534
 2061SOL    HW117645   4.577   2.389   6.382  0.9106  1.4845 -0.2205
 2061SOL    HW217646   4.630   2.448   6.257  0.3275  0.7481  0.4846
 2062SOL     OW17647   1.207   1.503   1.029 -0.0460 -0.2767  0.5822
 2062SOL    HW117648   1.141   1.547   0.975 -0.2423 -1.7192 -0.3485
 2062SOL    HW217649   1.157   1.431   1.066 -1.0923 -0.4484 -1.1545
 2063SOL     OW17650   3.868   0.545   8.246 -0.6615  0.1931  0.6018
 2063SOL    HW117651   3.883   0.640   8.243  0.3125 -0.0159 -1.4139
 2063SOL    HW217652   3.779   0.550   8.211 -0.8093  2.1315  1.2426
 2064SOL     OW17653   1.632   1.831   4.136  0.1410  0.6239 -0.5101
 2064SOL    HW117654   1.543   1.824   4.103  0.4407  2.1432 -1.6670
 2064SOL    HW217655   1.662   1.740   4.131  1.9435  1.0643  1.8019
 2065SOL     OW17656   2.709   1.891  11.895  0.0167  0.2207  0.2273
 2065SOL    HW117657   2.793   1.877  11.851  0.6512  0.8411  1.2548
 2065SOL    HW217658   2.651   1.851  11.831 -0.6012  0.0900  0.8649
 2066SOL     OW17659   1.529   3.028   8.771 -0.3847  0.5862  0.5510
 2066SOL    HW117660   1.547   3.012   8.864 -2.1979 -1.8351  0.4912
 2066SOL    HW217661   1.581   2.959   8.731 -1.1109 -0.0958  0.7933
 2067SOL     OW17662   4.068   2.915   8.020  0.7668  0.0118  0.1818
 2067SOL    HW117663   4.109   2.842   7.974 -0.8657  0.3206 -1.7622
 2067SOL    HW217664   4.137   2.934   8.083 -0.7446  2.0868  1.2097
 2068SOL     OW17665   4.094   4.174   3.184  0.0736  0.0454  0.3837
 2068SOL    HW117666   4.094   4.110   3.255 -0.2935 -0.9360 -0.4989
 2068SOL    HW217667   4.184   4.206   3.173 -0.0112 -0.2239 -1.1468
 2069SOL     OW17668   3.753   3.095   4.350  0.2314 -0.1884 -0.1511
 2069SOL    HW117669   3.803   3.017   4.328 -0.9277 -1.2175  0.9372
 2069SOL    HW217670   3.815   3.163   4.322 -0.9095  0.7386 -0.4306
 2070SOL     OW17671   4.134   3.034   5.111 -0.4919 -0.4062  0.3488
 2070SOL    HW117672   4.214   2.981   5.104  0.2200  0.3649  2.9120
 2070SOL    HW217673   4.182   3.114   5.132  1.9041 -2.1500  1.5008
 2071SOL     OW17674   0.447   2.338   1.852  0.2322 -0.0090 -0.1052
 2071SOL    HW117675   0.352   2.352   1.851  0.3072  0.1981 -3.6684
 2071SOL    HW217676   0.450   2.242   1.843 -0.7249  0.0130 -0.6289
 2072SOL     OW17677   4.383   4.583   9.143 -0.7486  0.4977 -0.5913
 2072SOL    HW117678   4.478   4.586   9.159 -0.3131 -0.2772 -3.1540
 2072SOL    HW217679   4.365   4.676   9.127  1.1512  0.9092 -0.3452
 2073SOL     OW17680   2.217   3.821   7.903 -0.4277 -0.2824  0.4892
 2073SOL    HW117681   2.221   3.847   7.996  0.9208  1.2312  0.0097
 2073SOL    HW217682   2.209   3.726   7.910 -0.1771 -0.3289  0.0946
 2074SOL     OW17683   4.601   0.517   6.034 -0.5134  0.3581 -0.0802
 2074SOL    HW117684   4.638   0.483   6.115 -1.0465 -1.4446 -0.5937
 2074SOL    HW217685   4.540   0.578   6.077 -0.1443  1.7086 -1.4827
 2075SOL     OW17686   1.056   3.991   2.891  0.2943 -0.1810  0.2484
 2075SOL    HW117687   0.972   3.945   2.883  1.6608 -2.5251 -0.5773
 2075SOL    HW217688   1.085   4.001   2.800  1.1494 -2.6264  0.2646
 2076SOL     OW17689   1.912   2.044   4.183 -0.4469 -0.2075  0.5658
 2076SOL    HW117690   1.864   2.057   4.101 -0.9106 -1.8433  0.5812
 2076SOL    HW217691   1.850   2.068   4.252  0.4673  1.1682  0.8927
 2077SOL     OW17692   0.202   1.331  11.494  0.1768 -0.4215 -0.4295
 2077SOL    HW117693   0.213   1.239  11.472 -0.2477 -0.3620 -0.8880
 2077SOL    HW217694   0.186   1.381  11.414 -0.2384 -0.5752 -0.4428
 2078SOL     OW17695   3.603   1.596   2.160  0.2643 -0.1002 -0.4242
 2078SOL    HW117696   3.536   1.633   2.217  0.0255  1.4089 -1.6870
 2078SOL    HW217697   3.682   1.611   2.212 -0.5375  0.6197  0.5892
 2079SOL     OW17698   3.382   2.532  17.564  0.5395  0.1181  0.2032
 2079SOL    HW117699   3.295   2.495  17.578  0.2593 -0.0179 -1.8659
 2079SOL    HW217700   3.415   2.462  17.509 -0.6537 -0.7830  0.6315
 2080SOL     OW17701   2.459   2.285  12.571 -0.9412 -0.3581  0.4895
 2080SOL    HW117702   2.446   2.210  12.630 -0.3613  0.4526  1.6533
 2080SOL    HW217703   2.510   2.336  12.634 -4.7484  1.4419  2.1378
 2081SOL     OW17704   0.681   4.501   2.286  0.0918  0.1610 -0.1211
 2081SOL    HW117705   0.745   4.486   2.355 -0.0833  0.2842  0.0664
 2081SOL    HW217706   0.721   4.445   2.219 -0.3977  0.3524 -0.5715
 2082SOL     OW17707   0.748   2.800  15.166 -0.0570 -0.3277 -0.1613
 2082SOL    HW117708   0.715   2.756  15.245 -0.6962  1.2007  0.4114
 2082SOL    HW217709   0.802   2.729  15.131  0.4541  0.7669 -1.6115
 2083SOL     OW17710   0.836   2.348  14.828 -0.6215 -0.0665 -0.2117
 2083SOL    HW117711   0.811   2.435  14.797  0.1977  0.3551  0.3131
 2083SOL    HW217712   0.831   2.370  14.921  0.8864 -1.9757  0.3266
 2084SOL     OW17713   2.818   2.605   4.902  0.0269  0.7703  0.2693
 2084SOL    HW117714   2.740   2.598   4.957 -0.8272  0.9687 -0.9191
 2084SOL    HW217715   2.788   2.555   4.826 -1.3363  2.3617 -0.2310
 2085SOL     OW17716   1.735   2.249   8.851 -0.1531  0.1871 -0.6477
 2085SOL    HW117717   1.672   2.202   8.905  0.9925  1.4216  1.7730
 2085SOL    HW217718   1.747   2.323   8.910  0.9083 -1.7285  1.5195
 2086SOL     OW17719   3.454   4.009  12.306  0.5110 -0.0587 -0.6238
 2086SOL    HW117720   3.444   3.973  12.394 -1.4787  0.3683 -0.6581
 2086SOL    HW217721   3.546   4.031  12.320  0.4167 -1.1274  1.6587
 2087SOL     OW17722   2.447   2.344  16.580  0.3527 -0.0906  0.5937
 2087SOL    HW117723   2.507   2.272  16.562 -0.1157 -0.5657  0.9285
 2087SOL    HW217724   2.517   2.406  16.604  2.0518 -1.3663 -1.1172
 2088SOL     OW17725   3.636   0.709   6.163 -0.1649  0.0142 -0.0403
 2088SOL    HW117726   3.613   0.751   6.080  0.3992 -0.4765 -0.4402
 2088SOL    HW217727   3.726   0.741   6.172  0.1428 -0.3323 -1.8492
 2089SOL     OW17728   1.989   0.290   6.545  0.4999  0.6395 -0.2210
 2089SOL    HW117729   1.933   0.223   6.507 -1.1068  1.9047 -0.0843
 2089SOL    HW217730   1.995   0.356   6.475  0.2319 -0.4369 -1.2625
 2090SOL     OW17731   1.582   3.053  16.344  0.3057  0.4563  0.4222
 2090SOL    HW117732   1.505   3.080  16.395 -0.4657 -0.8475 -0.0231
 2090SOL    HW217733   1.573   3.114  16.271  1.1322  1.6741  1.3594
 2091SOL     OW17734   1.008   3.446   5.195  0.0167 -0.2009  0.7529
 2091SOL    HW117735   1.067   3.388   5.147  1.1141 -1.1963  3.2646
 2091SOL    HW217736   1.046   3.437   5.283  2.7716 -0.5715 -0.4622
 2092SOL     OW17737   3.370   2.136  16.595 -0.1424 -0.0336 -0.0120
 2092SOL    HW117738   3.307   2.172  16.658  1.6427  0.6331  1.3856
 2092SOL    HW217739   3.373   2.046  16.628  0.5277  0.0083  0.0437
 2093SOL     OW17740   3.690   3.413   2.212  0.1404  0.3379 -0.0850
 2093SOL    HW117741   3.729   3.361   2.283 -0.3953 -0.6794 -0.5349
 2093SOL    HW217742   3.759   3.396   2.149  0.9745  0.0734  0.8986
 2094SOL     OW17743   3.047   0.801   7.480  0.1105 -0.0607 -0.0110
 2094SOL    HW117744   3.127   0.750   7.491 -0.4146 -0.7232  0.7480
 2094SOL    HW217745   3.058   0.819   7.387 -0.2353  3.2080  0.5667
 2095SOL     OW17746   3.863   2.629   0.796  0.1257 -0.0710  0.3252
 2095SOL    HW117747   3.819   2.692   0.853 -3.8788 -2.5271 -0.0842
 2095SOL    HW217748   3.956   2.649   0.807  0.4527  0.4135 -3.2515
 2096SOL     OW17749   2.409   4.516   5.209 -0.2730 -0.0989 -0.8812
 2096SOL    HW117750   2.392   4.460   5.285  0.7697  0.7061 -0.0744
 2096SOL    HW217751   2.408   4.451   5.138 -0.2173 -1.0192 -0.0473
 2097SOL     OW17752   2.976   2.351  13.584 -0.8047 -0.5228 -0.1790
 2097SOL    HW117753   3.068   2.327  13.591 -0.3546  0.7938 -1.6852
 2097SOL    HW217754   2.975   2.404  13.504 -0.1740 -0.8391 -0.3985
 2098SOL     OW17755   1.321   3.885   8.390  0.1845  0.3640 -0.4597
 2098SOL    HW117756   1.304   3.812   8.450 -0.8578  1.8440  1.0380
 2098SOL    HW217757   1.322   3.960   8.449  0.8602  0.1558 -0.2066
 2099SOL     OW17758   2.748   3.082   2.945 -0.4604 -0.5070 -0.1218
 2099SOL    HW117759   2.775   3.101   2.855  2.4799 -0.3474  0.7993
 2099SOL    HW217760   2.659   3.115   2.957  0.1461  1.0285  0.1738
 2100SOL     OW17761   2.186   2.446   8.755  0.2990  0.1256 -0.0488
 2100SOL    HW117762   2.202   2.433   8.849 -1.2249 -1.8457 -0.0592
 2100SOL    HW217763   2.143   2.365   8.730 -0.2682  0.7838 -1.2158
 2101SOL     OW17764   1.355   1.752   2.262 -0.2723  0.2046  0.0686
 2101SOL    HW117765   1.268   1.751   2.301 -0.9744 -1.0496 -1.4998
 2101SOL    HW217766   1.388   1.840   2.279  0.3636  0.1096 -0.6895
 2102SOL     OW17767   3.263   1.549   0.788  0.4286 -0.4748 -0.1349
 2102SOL    HW117768   3.219   1.485   0.732  0.4332 -0.6477  0.0625
 2102SOL    HW217769   3.209   1.622   0.756  0.2277 -0.5722 -0.0149
 2103SOL     OW17770   3.510   1.507   3.012 -0.1118  0.4854  0.4838
 2103SOL    HW117771   3.463   1.588   3.034 -1.3435  0.2707 -1.3603
 2103SOL    HW217772   3.571   1.490   3.084  1.1111 -0.3474 -0.7507
 2104SOL     OW17773   2.507   2.442  15.295 -0.7038  0.9258 -0.0311
 2104SOL    HW117774   2.587   2.419  15.342 -1.2077 -1.8215 -0.5460
 2104SOL    HW217775   2.520   2.536  15.279 -1.9071  0.1687 -5.4143
 2105SOL     OW17776   4.283   3.649   6.208  0.2404  0.4846  0.2189
 2105SOL    HW117777   4.293   3.635   6.113 -0.0344  1.9769 -0.0280
 2105SOL    HW217778   4.316   3.739   6.204 -1.2596  0.8691 -3.3850
 2106SOL     OW17779   1.154   1.625  13.852 -0.1815  0.4641 -0.7175
 2106SOL    HW117780   1.077   1.609  13.796 -1.4790 -1.4830  1.6555
 2106SOL    HW217781   1.187   1.536  13.855  2.7583  1.5389 -1.0472
 2107SOL     OW17782   1.759   2.568   5.067  0.1997 -0.9035  0.5745
 2107SOL    HW117783   1.820   2.504   5.102  1.9372  0.0232 -0.7578
 2107SOL    HW217784   1.696   2.510   5.022  1.3244 -1.9979  0.4097
 2108SOL     OW17785   3.806   2.321   9.475  0.3842 -0.1864  0.1141
 2108SOL    HW117786   3.819   2.326   9.570 -1.2823  1.6760  0.2513
 2108SOL    HW217787   3.870   2.384   9.443 -0.3647  0.3716 -0.2875
 2109SOL     OW17788   3.044   2.694   0.141 -0.4624  0.3137 -0.0159
 2109SOL    HW117789   2.959   2.658   0.165  0.4293 -2.4919 -1.0258
 2109SOL    HW217790   3.032   2.741   0.059  0.1716  1.3521  0.4798
 2110SOL     OW17791   1.134   2.653   7.801 -0.7762  0.4807 -0.4318
 2110SOL    HW117792   1.218   2.659   7.847  0.6468  0.1496 -3.0067
 2110SOL    HW217793   1.168   2.599   7.729  3.0262  0.0748  1.6824
 2111SOL     OW17794   3.102   2.466  17.578 -0.3815 -0.5907 -0.3208
 2111SOL    HW117795   3.020   2.514  17.592  1.5236  2.5478  0.1061
 2111SOL    HW217796   3.069   2.388  17.622  0.1241  0.3576  1.7385
 2112SOL     OW17797   4.133   3.823   0.352 -0.3975 -0.4281 -0.8473
 2112SOL    HW117798   4.064   3.820   0.285 -1.7044  0.7544  0.4309
 2112SOL    HW217799   4.102   3.753   0.409  1.2690 -1.5711 -1.3481
 2113SOL     OW17800   2.460   2.551   4.237  0.1838 -0.0406  0.2226
 2113SOL    HW117801   2.413   2.634   4.229 -2.8894 -1.9297 -1.3443
 2113SOL    HW217802   2.404   2.503   4.176 -0.6854 -0.2309  1.1710
 2114SOL     OW17803   4.086   1.514   2.729  0.6885 -0.4043  0.3530
 2114SOL    HW117804   4.020   1.446   2.742 -0.1234  0.6726  1.9230
 2114SOL    HW217805   4.110   1.516   2.637  0.7146 -1.3710  0.3424
 2115SOL     OW17806   4.435   3.889  16.261  0.7942  0.2346  0.6423
 2115SOL    HW117807   4.418   3.983  16.260 -1.0411 -0.0995 -2.0355
 2115SOL    HW217808   4.384   3.857  16.335  0.9965 -0.8373  0.3093
 2116SOL     OW17809   3.714   0.993   9.308 -0.3240  0.3900 -0.4656
 2116SOL    HW117810   3.781   0.940   9.352 -1.1720  1.3522  1.9852
 2116SOL    HW217811   3.764   1.040   9.241 -0.0985  0.2267 -0.4140
 2117SOL     OW17812   2.665   0.675  17.586 -0.2702  0.1781 -0.7104
 2117SOL    HW117813   2.620   0.758  17.605  0.3795  0.6300 -1.1589
 2117SOL    HW217814   2.677   0.692  17.493  1.3779 -1.7986 -0.8295
 2118SOL     OW17815   2.639   3.543   4.028 -0.4368 -0.0011  0.3782
 2118SOL    HW117816   2.649   3.584   3.943 -0.9102  0.0607  0.3525
 2118SOL    HW217817   2.676   3.608   4.088  0.6587 -1.2445  1.0600
 2119SOL     OW17818   4.477   4.423   4.844  0.1131 -0.4218  0.1637
 2119SOL    HW117819   4.459   4.471   4.924 -2.4701  0.7936 -1.1562
 2119SOL    HW217820   4.405   4.361   4.846 -1.4066  1.3448 -0.3310
 2120SOL     OW17821   2.854   1.876  17.237 -0.0719 -0.3730  0.5567
 2120SOL    HW117822   2.821   1.873  17.327 -0.0032  1.5879  0.6466
 2120SOL    HW217823   2.900   1.793  17.229  2.1798  0.9819 -0.6132
 2121SOL     OW17824   2.613   2.969   2.420  0.7106 -0.3524 -0.0404
 2121SOL    HW117825   2.526   2.934   2.436  0.6171  0.4774  1.2015
 2121SOL    HW217826   2.591   3.023   2.344  2.0695  1.3947  0.8034
 2122SOL     OW17827   3.678   3.141   3.352  0.2128  0.2205  0.3491
 2122SOL    HW117828   3.613   3.112   3.289 -1.3205  0.9152  1.6071
 2122SOL    HW217829   3.633   3.173   3.430  0.1590 -1.3261  0.9580
 2123SOL     OW17830   3.812   3.512   2.585  0.0751  0.6367  0.2001
 2123SOL    HW117831   3.722   3.535   2.563 -0.2005 -1.2816 -0.6198
 2123SOL    HW217832   3.827   3.428   2.541 -1.5761  0.7781 -0.6012
 2124SOL     OW17833   1.944   2.312   7.540  0.2049 -0.4318 -0.8464
 2124SOL    HW117834   1.999   2.253   7.488 -0.1650 -2.6415  1.2823
 2124SOL    HW217835   1.923   2.259   7.617 -1.4379 -2.5318 -2.7356
 2125SOL     OW17836   0.400   1.216   7.638 -0.0295  0.0899 -0.0003
 2125SOL    HW117837   0.341   1.287   7.666 -0.0141 -0.3613  1.1655
 2125SOL    HW217838   0.436   1.263   7.563  1.0767 -0.6215  0.0886
 2126SOL     OW17839   4.540   3.102  15.175  0.1355  0.4792  0.3612
 2126SOL    HW117840   4.615   3.121  15.119  0.5167 -1.3463  0.2358
 2126SOL    HW217841   4.585   3.070  15.254  0.6944  1.6942  0.5348
 2127SOL     OW17842   1.505   1.312   1.145  0.5831 -0.0156 -0.3061
 2127SOL    HW117843   1.474   1.295   1.234 -0.6664  2.3088 -0.3120
 2127SOL    HW217844   1.560   1.235   1.133  1.1145  0.0598  1.5767
 2128SOL     OW17845   1.374   2.043  13.007  0.2442 -0.1715 -0.3375
 2128SOL    HW117846   1.453   1.997  13.037  1.5449  1.7078 -0.8603
 2128SOL    HW217847   1.385   2.133  13.037 -0.7258  0.0815 -0.7619
 2129SOL     OW17848   1.539   1.200   4.092 -0.6256 -0.0142  0.1998
 2129SOL    HW117849   1.608   1.167   4.034 -0.7557  1.4050 -0.7789
 2129SOL    HW217850   1.463   1.182   4.036 -0.9470  1.0239  0.3036
 2130SOL     OW17851   3.937   4.529   5.830  0.0391 -0.2146  0.1591
 2130SOL    HW117852   3.951   4.477   5.910  3.6307  0.3832 -0.0431
 2130SOL    HW217853   4.020   4.553   5.789  0.8423  2.5195  3.3859
 2131SOL     OW17854   1.749   1.671   4.429 -0.3256 -0.0109  0.3073
 2131SOL    HW117855   1.835   1.684   4.469 -0.5906 -0.2875  0.9648
 2131SOL    HW217856   1.752   1.608   4.356  5.0952 -0.3874  0.8977
 2132SOL     OW17857   0.779   3.605   3.485 -0.4381  0.2491 -0.0441
 2132SOL    HW117858   0.786   3.680   3.425 -0.7380 -0.7195 -1.2938
 2132SOL    HW217859   0.840   3.539   3.453 -1.4528 -0.5271 -0.3686
 2133SOL     OW17860   3.162   0.687   6.026  0.0370  0.2793  0.0022
 2133SOL    HW117861   3.083   0.689   6.080 -0.3269  0.9132 -0.5481
 2133SOL    HW217862   3.128   0.645   5.947  0.8909 -2.4267  1.0758
 2134SOL     OW17863   2.865   1.622   6.210  0.0786  0.1044 -0.6857
 2134SOL    HW117864   2.901   1.694   6.263 -1.6094 -1.7761  2.9872
 2134SOL    HW217865   2.871   1.669   6.127  1.4774  0.7148 -0.2357
 2135SOL     OW17866   1.534   2.878  17.148 -0.6351  0.2680 -0.2627
 2135SOL    HW117867   1.567   2.791  17.126  1.1459  0.6861  0.7155
 2135SOL    HW217868   1.452   2.862  17.194 -0.1541 -3.5034 -0.7418
 2136SOL     OW17869   0.178   1.751   4.660 -0.3336 -0.5320  0.1111
 2136SOL    HW117870   0.103   1.806   4.639 -0.4943 -0.7477  0.1242
 2136SOL    HW217871   0.134   1.667   4.667 -0.5301 -0.6110 -1.9622
 2137SOL     OW17872   2.556   0.174   2.955  0.0279  0.3430  0.2707
 2137SOL    HW117873   2.640   0.129   2.956  0.1255  0.5181  0.0729
 2137SOL    HW217874   2.562   0.238   3.026  1.3896  0.9076 -0.3512
 2138SOL     OW17875   2.361   3.463   3.798  0.4076  0.1429  0.0611
 2138SOL    HW117876   2.355   3.500   3.710 -1.6333  0.2070  0.2195
 2138SOL    HW217877   2.444   3.416   3.809 -0.7532 -1.4736  1.9385
 2139SOL     OW17878   1.769   0.041   4.522 -0.1329 -0.8949 -0.2564
 2139SOL    HW117879   1.746   0.123   4.479  0.5827  0.0534  1.1801
 2139SOL    HW217880   1.781   0.075   4.611  0.4658 -0.6712 -0.4254
 2140SOL     OW17881   2.157   2.905   3.890  0.4052  0.1273 -0.4225
 2140SOL    HW117882   2.143   2.944   3.977 -1.8600 -1.8825  0.1275
 2140SOL    HW217883   2.235   2.950   3.859  0.2618  1.0947  0.5803
 2141SOL     OW17884   1.371   0.909  14.966  0.2181 -0.0252  0.5345
 2141SOL    HW117885   1.455   0.933  14.928 -0.3580  0.6507 -0.3226
 2141SOL    HW217886   1.407   0.890  15.052  2.0780 -0.9517 -0.4540
 2142SOL     OW17887   2.070   2.709   9.387  0.0646  0.2486  0.2961
 2142SOL    HW117888   2.053   2.803   9.397  2.2100  0.6636  0.1992
 2142SOL    HW217889   2.089   2.708   9.293 -1.6782  0.4462 -0.0503
 2143SOL     OW17890   1.176   1.613   7.659 -0.3590  0.0407  0.6042
 2143SOL    HW117891   1.229   1.648   7.588 -2.0756  0.9974 -0.1916
 2143SOL    HW217892   1.093   1.603   7.613 -1.0940 -0.7858  2.1202
 2144SOL     OW17893   2.533   4.600  12.768  0.1219 -0.1096  0.6843
 2144SOL    HW117894   2.523   4.534  12.835  0.1479  0.0144  0.8100
 2144SOL    HW217895   2.605   4.653  12.804  0.5851 -1.6087  1.9275
 2145SOL     OW17896   0.711   1.154   7.462  0.4364 -0.0305 -0.8474
 2145SOL    HW117897   0.729   1.206   7.540  0.0998 -0.5712 -0.4053
 2145SOL    HW217898   0.733   1.069   7.499  0.0034 -0.3338 -1.2835
 2146SOL     OW17899   3.961   2.278   4.561 -0.4988 -0.1781  0.5810
 2146SOL    HW117900   3.915   2.293   4.644  0.5801  1.1051  0.9543
 2146SOL    HW217901   4.042   2.329   4.561 -0.7325  0.1934  1.2640
 2147SOL     OW17902   3.574   2.659   8.769  0.1121 -0.2389  0.2679
 2147SOL    HW117903   3.554   2.747   8.736 -1.0407 -0.8294 -0.6436
 2147SOL    HW217904   3.541   2.612   8.692  1.5854 -2.1111  0.7713
 2148SOL     OW17905   1.909   0.347   0.628 -0.5455 -0.6332 -0.7138
 2148SOL    HW117906   1.978   0.414   0.622 -0.8574 -0.3461 -1.0751
 2148SOL    HW217907   1.966   0.271   0.639 -0.3680 -0.6053 -1.4155
 2149SOL     OW17908   2.435   3.583   7.410 -0.3964  0.1952  0.3659
 2149SOL    HW117909   2.380   3.575   7.488 -0.5513 -1.0844  0.1217
 2149SOL    HW217910   2.523   3.567   7.443 -0.6254 -0.0921  0.8248
 2150SOL     OW17911   2.863   0.587  13.753  0.6255  0.0846 -0.3971
 2150SOL    HW117912   2.944   0.632  13.779  0.4576  0.2962 -0.2409
 2150SOL    HW217913   2.800   0.645  13.794  0.0022  0.0367 -1.2796
 2151SOL     OW17914   1.248   2.705   6.024  0.0240  0.1559 -0.7487
 2151SOL    HW117915   1.293   2.759   6.090 -1.8043 -2.3906  2.6174
 2151SOL    HW217916   1.329   2.671   5.986 -2.4534 -1.8257 -4.2305
 2152SOL     OW17917   4.537   0.425  16.969  0.0964  0.3602  0.1297
 2152SOL    HW117918   4.528   0.336  17.003  1.0687  0.0309 -0.4843
 2152SOL    HW217919   4.536   0.400  16.877  0.2355 -0.3887  0.3289
 2153SOL     OW17920   1.701   3.749   7.810 -0.0574  0.4788  0.0610
 2153SOL    HW117921   1.792   3.774   7.800 -0.0535 -0.2707 -1.8557
 2153SOL    HW217922   1.696   3.708   7.897  1.0183 -0.7293 -0.4499
 2154SOL     OW17923   3.241   1.648   6.041  0.0055  0.2458 -0.1764
 2154SOL    HW117924   3.196   1.686   5.966 -0.9692 -1.7962 -0.6071
 2154SOL    HW217925   3.251   1.729   6.092 -2.6952  0.1973  0.4090
 2155SOL     OW17926   1.346   1.517   2.849  0.7138  0.2854 -0.0190
 2155SOL    HW117927   1.364   1.498   2.756 -4.3169 -0.5064 -0.8457
 2155SOL    HW217928   1.251   1.510   2.852  0.4459  2.7371 -2.5712
 2156SOL     OW17929   3.004   1.736   6.683  0.1947 -0.1234 -0.6404
 2156SOL    HW117930   3.033   1.668   6.621  1.4787 -1.1850  1.1187
 2156SOL    HW217931   3.048   1.711   6.764  0.8624  1.3719 -0.5345
 2157SOL     OW17932   2.144   1.447  17.428  0.0254  0.4639  0.0764
 2157SOL    HW117933   2.082   1.520  17.424 -1.3032 -0.5759  1.6751
 2157SOL    HW217934   2.128   1.432  17.521  0.2976  0.8878  0.1884
 2158SOL     OW17935   2.560   0.399   6.920  0.0734 -0.4720 -0.6609
 2158SOL    HW117936   2.593   0.489   6.928 -1.7158  0.0404  1.1740
 2158SOL    HW217937   2.582   0.389   6.828  0.0506  0.9928 -0.8365
 2159SOL     OW17938   3.600   3.228   1.910 -0.0955  0.1725 -0.1757
 2159SOL    HW117939   3.668   3.270   1.963 -1.2382  0.0603  1.3807
 2159SOL    HW217940   3.646   3.187   1.837  0.0270  3.2942 -1.8390
 2160SOL     OW17941   0.460   0.124   6.077  0.2221  0.2622  0.7046
 2160SOL    HW117942   0.534   0.143   6.020 -0.5429  0.2217 -0.3036
 2160SOL    HW217943   0.396   0.191   6.052  1.1539  0.9527  0.1892
 2161SOL     OW17944   1.716   0.921  13.492  0.1927  0.4524  0.1766
 2161SOL    HW117945   1.762   0.861  13.550 -0.8678 -1.2134 -0.7201
 2161SOL    HW217946   1.778   0.940  13.421  0.3056  1.2962  0.4914
 2162SOL     OW17947   0.175   0.936   6.619 -0.2267 -0.1108  0.2086
 2162SOL    HW117948   0.115   0.912   6.690 -0.9748 -2.3299 -1.1843
 2162SOL    HW217949   0.159   0.860   6.563 -1.5739  0.8669 -0.7102
 2163SOL     OW17950   4.403   0.275   0.047 -0.3881 -0.0113 -0.5817
 2163SOL    HW117951   4.416   0.368   0.062  2.0820 -0.4576  0.0172
 2163SOL    HW217952   4.422   0.271  17.657 -0.1194  1.1710 -0.5723
 2164SOL     OW17953   3.550   3.228   3.015  0.3245  0.0524 -0.2579
 2164SOL    HW117954   3.509   3.143   2.998 -0.6439  0.9665 -2.4618
 2164SOL    HW217955   3.545   3.260   2.925  0.2679 -0.1262 -0.3188
 2165SOL     OW17956   2.348   3.151  15.235  0.1512 -0.3279  0.4548
 2165SOL    HW117957   2.315   3.138  15.146 -1.5134  0.3868  0.9846
 2165SOL    HW217958   2.434   3.189  15.213  0.2630 -2.2775 -2.5728
 2166SOL     OW17959   3.793   1.424   7.377  0.9611 -0.2242  0.2002
 2166SOL    HW117960   3.843   1.378   7.310 -0.0133 -0.8730 -0.0741
 2166SOL    HW217961   3.700   1.406   7.364  1.3836 -3.4964  1.6154
 2167SOL     OW17962   0.478   0.981   5.633  0.7650 -0.6872 -0.3348
 2167SOL    HW117963   0.543   1.051   5.642  2.8304 -2.4625 -1.5064
 2167SOL    HW217964   0.428   0.984   5.714  0.0693  1.4685 -0.8311
 2168SOL     OW17965   2.096   1.503   4.211 -0.0353 -0.0183  0.4391
 2168SOL    HW117966   2.063   1.482   4.123  0.2281  1.1342  0.0686
 2168SOL    HW217967   2.060   1.591   4.224  2.2255  1.1245 -1.0051
 2169SOL     OW17968   1.315   2.186  14.562 -0.1608  0.3280  0.0294
 2169SOL    HW117969   1.334   2.238  14.484  1.2239 -0.7749 -0.3753
 2169SOL    HW217970   1.278   2.114  14.511  1.4847  0.4885 -1.4045
 2170SOL     OW17971   2.757   3.795   4.158  0.6311 -0.4856 -0.0216
 2170SOL    HW117972   2.778   3.878   4.200 -0.2503 -0.1384 -0.2577
 2170SOL    HW217973   2.823   3.788   4.088 -2.1305 -1.2653 -2.5697
 2171SOL     OW17974   4.714   4.202  17.266 -0.6677  0.1609 -0.1850
 2171SOL    HW117975   4.657   4.131  17.296 -1.6054  1.1719  0.4413
 2171SOL    HW217976   0.013   4.247  17.347  1.4650  1.5921 -1.6516
 2172SOL     OW17977   3.570   2.681   5.044 -0.7890  0.5960 -0.2746
 2172SOL    HW117978   3.483   2.688   5.006 -1.2505 -0.6176  0.5636
 2172SOL    HW217979   3.548   2.633   5.124  2.1530  0.0940  0.2424
 2173SOL     OW17980   1.889   0.788  13.664  0.0161  0.1138  0.1426
 2173SOL    HW117981   1.978   0.803  13.633  0.3344  2.2723  2.0944
 2173SOL    HW217982   1.915   0.783  13.756  0.5211  2.6424  0.1430
 2174SOL     OW17983   0.573   0.812   3.907 -0.1607  0.3533  0.0361
 2174SOL    HW117984   0.570   0.806   3.811 -1.0595 -0.2739  0.1011
 2174SOL    HW217985   0.642   0.749   3.926  0.1956  1.1048  1.1715
 2175SOL     OW17986   1.105   2.059   7.851  0.9377 -0.2606  0.5469
 2175SOL    HW117987   1.042   2.113   7.805  0.4336  1.1020  2.8348
 2175SOL    HW217988   1.058   1.976   7.852  0.9451 -0.2776 -0.3666
 2176SOL     OW17989   3.182   0.099   3.322 -0.5014 -0.0057 -0.0897
 2176SOL    HW117990   3.104   0.111   3.377 -0.6424 -2.6993  0.3109
 2176SOL    HW217991   3.209   0.011   3.348  4.1073  1.1608 -1.0484
 2177SOL     OW17992   1.244   2.390  10.180 -0.6451 -0.2169 -0.3314
 2177SOL    HW117993   1.198   2.360  10.258  0.6634 -0.7790  0.2354
 2177SOL    HW217994   1.336   2.367  10.195 -1.1524 -1.0417  1.5303
 2178SOL     OW17995   0.683   0.181  16.939 -0.1448  0.8531  0.4299
 2178SOL    HW117996   0.675   0.089  16.964 -2.4154  1.3104  1.4163
 2178SOL    HW217997   0.751   0.176  16.872 -1.3117  0.1105 -0.7006
 2179SOL     OW17998   2.827   4.082  12.020  0.3587  0.1194 -0.0726
 2179SOL    HW117999   2.811   4.084  11.925 -2.9860 -0.1694  0.4718
 2179SOL    HW218000   2.817   3.988  12.038  0.4680  0.3590  1.2235
 2180SOL     OW18001   0.776   4.359  13.834  0.1396 -0.1765 -0.3680
 2180SOL    HW118002   0.784   4.426  13.766  0.3089  0.3385  0.1606
 2180SOL    HW218003   0.868   4.344  13.855 -0.1733 -1.6198 -0.0323
 2181SOL     OW18004   4.141   3.335   4.041 -0.0791 -0.4904  0.8304
 2181SOL    HW118005   4.071   3.328   3.977  0.5205  1.7123 -0.0893
 2181SOL    HW218006   4.190   3.256   4.019 -2.7949 -2.4451  1.7525
 2182SOL     OW18007   1.395   2.334  14.319  0.2459 -0.4390 -0.5084
 2182SOL    HW118008   1.483   2.305  14.294  0.2275 -2.5287  1.8412
 2182SOL    HW218009   1.347   2.263  14.278  1.7613 -0.8968 -1.4746
 2183SOL     OW18010   0.417   0.095   5.163  0.1298 -0.0326 -0.5470
 2183SOL    HW118011   0.434   0.189   5.156 -3.7215  0.7218  0.3630
 2183SOL    HW218012   0.493   0.053   5.123  1.8456  1.6549  0.9334
 2184SOL     OW18013   4.537   1.369  17.051 -0.1371 -0.4409 -0.7159
 2184SOL    HW118014   4.496   1.399  17.132  2.3156 -2.3895  1.2536
 2184SOL    HW218015   4.610   1.314  17.079 -0.0588  0.2623  0.4471
 2185SOL     OW18016   2.108   2.461   5.639 -0.2021  0.1902  0.2690
 2185SOL    HW118017   2.016   2.437   5.653  0.5308 -2.4142  0.6501
 2185SOL    HW218018   2.098   2.556   5.630  0.0234  0.0923 -0.9893
 2186SOL     OW18019   1.095   0.977   6.461  0.0596  0.0772  0.4731
 2186SOL    HW118020   1.004   0.987   6.434  0.5754  1.1454 -0.8630
 2186SOL    HW218021   1.102   0.882   6.459 -2.1067 -0.1257  2.1550
 2187SOL     OW18022   1.121   1.468   5.376 -0.5557 -0.4029 -1.0473
 2187SOL    HW118023   1.097   1.520   5.300  0.1888  1.2522 -0.1389
 2187SOL    HW218024   1.174   1.412   5.319  0.5334  0.1952 -0.6242
 2188SOL     OW18025   4.109   2.240   7.453  0.0969  0.3632  0.1108
 2188SOL    HW118026   4.043   2.299   7.416  0.4306  2.2161  2.4798
 2188SOL    HW218027   4.055   2.201   7.521  2.5575 -1.2106  1.1705
 2189SOL     OW18028   0.855   3.412   5.524 -0.4241  0.1087  0.1125
 2189SOL    HW118029   0.822   3.404   5.434  0.0065  0.0019 -0.0391
 2189SOL    HW218030   0.848   3.506   5.543  1.9487  0.8314 -2.4866
 2190SOL     OW18031   1.881   1.030  15.267 -0.1564  0.1991 -0.2372
 2190SOL    HW118032   1.905   1.046  15.176  1.3907 -1.3113 -0.0852
 2190SOL    HW218033   1.793   1.066  15.279 -0.6738 -1.2303  0.2649
 2191SOL     OW18034   4.664   1.182   6.643  0.1606  0.2903  0.2801
 2191SOL    HW118035   4.698   1.152   6.558 -1.1797 -0.7256  0.0958
 2191SOL    HW218036   4.599   1.245   6.610  4.3929  3.4755 -1.9295
 2192SOL     OW18037   1.459   4.235   7.196 -0.6106 -0.3542 -0.4728
 2192SOL    HW118038   1.495   4.235   7.107  2.1287  1.4495  0.6337
 2192SOL    HW218039   1.380   4.194   7.161 -0.7736 -0.2456 -0.2312
 2193SOL     OW18040   2.244   1.551   2.401  0.1969  0.3224  0.1480
 2193SOL    HW118041   2.319   1.571   2.345  0.7141 -1.0005  0.3679
 2193SOL    HW218042   2.278   1.466   2.429 -1.4053  0.5885  2.8802
 2194SOL     OW18043   0.305   3.106   7.626 -0.3130 -0.2264 -0.4295
 2194SOL    HW118044   0.386   3.057   7.610  0.6382  0.0084  3.5863
 2194SOL    HW218045   0.330   3.195   7.600  0.9107  0.0665  1.7923
 2195SOL     OW18046   4.196   2.752   2.783  0.3599 -0.0981  0.3895
 2195SOL    HW118047   4.135   2.766   2.712  1.0894 -0.7379 -0.3637
 2195SOL    HW218048   4.165   2.823   2.840  1.6447  2.1218 -1.6962
 2196SOL     OW18049   4.611   3.622   4.016  0.0763  0.5313 -0.1768
 2196SOL    HW118050   4.545   3.555   4.032 -0.4877  0.5150 -2.5182
 2196SOL    HW218051   4.586   3.676   4.091  1.5280 -2.2694  2.3174
 2197SOL     OW18052   2.188   2.591  11.418  0.2118 -0.5894  0.1720
 2197SOL    HW118053   2.128   2.587  11.344  1.3386 -2.5407 -0.6431
 2197SOL    HW218054   2.200   2.684  11.437 -2.5056 -0.4460  1.1584
 2198SOL     OW18055   2.919   4.438   6.392  0.0425  0.4625 -0.0630
 2198SOL    HW118056   2.842   4.471   6.348 -0.7700  0.7116  1.5536
 2198SOL    HW218057   2.885   4.354   6.424 -0.3498  0.7768  0.3354
 2199SOL     OW18058   3.769   1.106   9.651 -0.1211  0.0885  0.9538
 2199SOL    HW118059   3.795   1.125   9.741  1.6301  1.8811  0.0668
 2199SOL    HW218060   3.831   1.145   9.589 -0.9228 -1.6363 -0.9365
 2200SOL     OW18061   4.295   3.144   7.938  0.1177 -0.1126  0.0845
 2200SOL    HW118062   4.214   3.193   7.953  0.3174 -0.4893  2.4344
 2200SOL    HW218063   4.353   3.209   7.898 -1.1887  2.1139  1.8047
 2201SOL     OW18064   1.978   0.757   9.440  0.5522 -0.2161 -0.4132
 2201SOL    HW118065   2.039   0.699   9.394 -0.0405  0.3920 -1.9823
 2201SOL    HW218066   1.991   0.837   9.389 -2.3001  0.9815  0.7287
 2202SOL     OW18067   1.312   1.403   7.781 -0.4231 -0.1109 -0.2511
 2202SOL    HW118068   1.296   1.464   7.709  1.6923 -0.4144 -0.9490
 2202SOL    HW218069   1.407   1.405   7.789 -0.7797  1.8452  3.4025
 2203SOL     OW18070   1.786   1.736  14.432  0.1431 -0.3181  0.3097
 2203SOL    HW118071   1.826   1.654  14.459 -0.4261 -0.6212  0.2147
 2203SOL    HW218072   1.777   1.777  14.518 -0.1425 -3.0338  1.5583
 2204SOL     OW18073   0.833   1.994   1.494  0.2837  0.3577 -0.2212
 2204SOL    HW118074   0.840   1.900   1.480  2.1015  0.2358  1.4483
 2204SOL    HW218075   0.926   2.016   1.491  0.8409 -2.1032 -1.0837
 2205SOL     OW18076   0.119   2.819  10.195  0.7239 -0.2670 -0.1492
 2205SOL    HW118077   0.124   2.904  10.237  0.8922 -0.0604 -0.5827
 2205SOL    HW218078   0.033   2.831  10.154  0.0438  0.4193  1.4872
 2206SOL     OW18079   4.106   1.127   4.184  0.7066  0.7404  0.6804
 2206SOL    HW118080   4.075   1.049   4.231 -0.2117  0.9859  0.4703
 2206SOL    HW218081   4.048   1.197   4.214 -0.6476 -0.0998  0.0037
 2207SOL     OW18082   4.280   0.341   9.208  0.1608 -0.2794  0.8932
 2207SOL    HW118083   4.345   0.407   9.182 -0.8334 -0.3893 -1.7928
 2207SOL    HW218084   4.200   0.391   9.194  1.1628  1.9068  2.8398
 2208SOL     OW18085   1.436   0.581   3.355  0.1562 -0.3899  0.2020
 2208SOL    HW118086   1.460   0.670   3.327  1.7012 -0.2433  2.0315
 2208SOL    HW218087   1.358   0.592   3.410  0.2348 -1.3964  0.5088
 2209SOL     OW18088   3.700   2.392   3.204  0.1826  0.3124  0.3090
 2209SOL    HW118089   3.723   2.466   3.149  0.1767 -0.4830 -0.7654
 2209SOL    HW218090   3.624   2.438   3.237 -0.9211 -1.7085  0.5955
 2210SOL     OW18091   2.974   2.485   7.199  0.4628 -0.0899 -0.0994
 2210SOL    HW118092   3.035   2.414   7.182  0.4573 -0.2854  0.6926
 2210SOL    HW218093   2.900   2.438   7.239  0.2436 -0.0246 -0.4276
 2211SOL     OW18094   2.769   1.304   4.406  0.0051 -0.1481  0.3888
 2211SOL    HW118095   2.691   1.319   4.354 -1.5158 -3.8183  1.6016
 2211SOL    HW218096   2.788   1.396   4.423  0.0245  0.2846 -1.9938
 2212SOL     OW18097   0.203   0.210  13.857 -0.3767  0.0511 -0.1952
 2212SOL    HW118098   0.293   0.220  13.887  1.5129 -1.2133 -5.5649
 2212SOL    HW218099   0.213   0.126  13.812  2.2364  0.1597  0.1958
 2213SOL     OW18100   1.360   1.581   6.664  0.0022 -0.0388 -0.1600
 2213SOL    HW118101   1.415   1.606   6.590  0.8420 -1.0747  0.1262
 2213SOL    HW218102   1.382   1.654   6.722  0.5945 -0.1908 -0.1957
 2214SOL     OW18103   3.678   1.679   4.380  0.1076  0.0608  0.6310
 2214SOL    HW118104   3.724   1.697   4.463  1.0397  2.0874 -0.3211
 2214SOL    HW218105   3.631   1.761   4.363  1.1797  0.3623 -0.7953
 2215SOL     OW18106   2.260   1.811   8.899 -0.1190 -0.5102  0.5391
 2215SOL    HW118107   2.301   1.725   8.890  1.2438  0.2902 -0.8392
 2215SOL    HW218108   2.170   1.781   8.908 -0.5338  0.9731  1.2816
 2216SOL     OW18109   2.083   2.663   3.200 -0.2392  0.3332  0.1141
 2216SOL    HW118110   2.131   2.594   3.246 -0.8869 -2.0176 -2.7023
 2216SOL    HW218111   2.047   2.614   3.126 -0.6945  1.2398 -0.2680
 2217SOL     OW18112   4.203   3.790   2.782 -0.8441  0.7192  0.8499
 2217SOL    HW118113   4.218   3.716   2.840  1.0064 -1.6168 -2.6584
 2217SOL    HW218114   4.148   3.756   2.712  3.6686  0.7322 -2.6166
 2218SOL     OW18115   1.633   2.132   7.004  0.3111 -0.1939 -0.5696
 2218SOL    HW118116   1.717   2.148   7.046  0.5962  0.5182 -1.4267
 2218SOL    HW218117   1.615   2.226   7.004  0.0166 -0.2476 -0.2646
 2219SOL     OW18118   3.529   0.380   9.022 -0.3741  0.0984  0.4045
 2219SOL    HW118119   3.510   0.338   8.938 -3.0141 -1.0563  1.5969
 2219SOL    HW218120   3.481   0.462   9.011  2.7504  1.7888 -0.8637
 2220SOL     OW18121   0.937   0.046   9.298 -0.0022  0.0513  0.0281
 2220SOL    HW118122   0.982   0.092   9.369 -0.0088  1.0702 -0.6271
 2220SOL    HW218123   0.847   0.073   9.313 -0.2471  0.2443 -1.7064
 2221SOL     OW18124   4.083   2.868   8.433  0.0471 -0.0877 -0.2937
 2221SOL    HW118125   4.062   2.823   8.351 -2.0997  0.8082 -0.2469
 2221SOL    HW218126   4.012   2.840   8.491 -1.5312  0.8828 -1.7459
 2222SOL     OW18127   4.453   0.989   7.630 -0.4845  0.0473 -0.4329
 2222SOL    HW118128   4.487   1.076   7.651  2.7131 -0.5057 -3.3487
 2222SOL    HW218129   4.360   1.011   7.622 -1.6683 -4.9922 -0.0345
 2223SOL     OW18130   3.000   4.193   3.039  0.1579  0.0458 -0.2922
 2223SOL    HW118131   2.905   4.178   3.033  0.1004  0.0055  0.7120
 2223SOL    HW218132   3.035   4.188   2.950  1.3801  0.6002  0.1625
 2224SOL     OW18133   2.312   1.546   1.355  0.3129 -0.5739 -0.6090
 2224SOL    HW118134   2.339   1.454   1.359  3.6899  0.3835 -1.5429
 2224SOL    HW218135   2.221   1.544   1.384  1.4564 -0.5975  2.9535
 2225SOL     OW18136   1.504   3.963   4.112 -0.0733  0.3248  0.1378
 2225SOL    HW118137   1.547   3.988   4.193 -0.1999  2.1402 -0.3593
 2225SOL    HW218138   1.419   4.008   4.112 -1.8879 -3.0893 -0.0747
 2226SOL     OW18139   3.417   1.003   9.344 -0.3257  0.1249 -0.5091
 2226SOL    HW118140   3.365   1.024   9.422 -0.6876  0.0693 -0.7348
 2226SOL    HW218141   3.499   1.042   9.373 -0.0103 -2.3223  1.8131
 2227SOL     OW18142   2.737   4.213   3.708  0.2572 -0.2536  0.2844
 2227SOL    HW118143   2.788   4.290   3.735  0.2560 -0.3318  0.5091
 2227SOL    HW218144   2.797   4.142   3.729  0.2290 -1.0005 -2.2151
 2228SOL     OW18145   2.602   4.654  12.405  0.1077  0.1391  0.3653
 2228SOL    HW118146   2.670   4.658  12.338  0.3370 -0.3985  0.5664
 2228SOL    HW218147   2.540   4.615  12.343 -0.2365 -1.6414  1.8240
 2229SOL     OW18148   1.307   2.457  12.186  0.3488  0.1495  0.2649
 2229SOL    HW118149   1.348   2.481  12.269 -2.1530 -1.1967  1.8927
 2229SOL    HW218150   1.271   2.544  12.165 -0.9293 -1.5151 -4.4897
 2230SOL     OW18151   2.108   3.864  14.000  0.2085  0.7130 -0.6042
 2230SOL    HW118152   2.196   3.899  14.016 -0.2152  0.7178  1.6839
 2230SOL    HW218153   2.120   3.826  13.913  0.9403 -1.1959  0.3257
 2231SOL     OW18154   3.118   3.578  11.362 -0.1418 -0.1673 -0.2890
 2231SOL    HW118155   3.150   3.662  11.329 -1.6986  0.2010 -0.8447
 2231SOL    HW218156   3.171   3.509  11.320  0.3457  1.5528 -2.5102
 2232SOL     OW18157   3.742   4.063   5.412 -0.2898 -0.0122 -0.1266
 2232SOL    HW118158   3.701   3.977   5.405  1.6322 -0.8149 -1.5289
 2232SOL    HW218159   3.671   4.124   5.392  0.6238  0.9637 -0.4474
 2233SOL     OW18160   3.907   1.110  16.162 -0.1481 -0.0339  0.0587
 2233SOL    HW118161   3.877   1.019  16.162  0.2788 -0.1916  3.2318
 2233SOL    HW218162   3.829   1.161  16.142 -0.9112 -1.3948 -0.4651
 2234SOL     OW18163   0.476   3.361   9.270 -0.1478 -0.2032 -0.3537
 2234SOL    HW118164   0.418   3.437   9.268  1.3907  1.0561  1.9327
 2234SOL    HW218165   0.553   3.403   9.232 -0.8425  1.0297 -0.3965
 2235SOL     OW18166   1.948   0.840   6.775 -0.4296 -0.2878  0.0351
 2235SOL    HW118167   1.877   0.791   6.817 -0.5541  0.4087  0.6296
 2235SOL    HW218168   1.962   0.789   6.695  0.6856 -0.7685  0.5365
 2236SOL     OW18169   3.804   2.664   6.121 -0.3575  0.7117  0.1713
 2236SOL    HW118170   3.889   2.704   6.141 -1.3383  3.5724 -1.3233
 2236SOL    HW218171   3.777   2.633   6.208 -0.4751 -1.3424 -0.6017
 2237SOL     OW18172   4.014   2.576   8.489 -0.3663  0.2654  0.3246
 2237SOL    HW118173   4.027   2.583   8.584 -2.3096  1.1165  0.5300
 2237SOL    HW218174   4.099   2.603   8.455 -0.2666 -0.9063 -0.3567
 2238SOL     OW18175   1.153   4.460   6.902  0.4948  0.2037  0.3937
 2238SOL    HW118176   1.100   4.404   6.959  0.7322  1.4273  1.8032
 2238SOL    HW218177   1.208   4.392   6.865  0.5083  0.2844  0.2646
 2239SOL     OW18178   3.499   0.817   4.196 -0.1269 -0.1937 -0.4983
 2239SOL    HW118179   3.509   0.912   4.192  1.6719 -0.3991 -0.7360
 2239SOL    HW218180   3.533   0.788   4.112 -0.0842  0.3828 -0.6801
 2240SOL     OW18181   2.537   4.454  14.640 -0.1908  0.3263 -0.2248
 2240SOL    HW118182   2.594   4.400  14.693 -1.3110  0.2479  0.9096
 2240SOL    HW218183   2.532   4.408  14.556  2.2770  0.5765 -0.4896
 2241SOL     OW18184   0.057   1.128   3.840  0.1004 -0.0958 -0.0966
 2241SOL    HW118185   4.711   1.156   3.896 -0.4521  0.3685 -1.0255
 2241SOL    HW218186   0.078   1.210   3.796 -2.8373  1.0959  0.7401
 2242SOL     OW18187   2.024   4.196  10.224 -0.7501  0.3636  0.5161
 2242SOL    HW118188   1.949   4.136  10.227 -0.3809 -0.0173  2.2770
 2242SOL    HW218189   2.095   4.142  10.259  0.1225  1.7258  0.8585
 2243SOL     OW18190   1.172   2.470  15.594  0.4596 -0.8274 -0.1414
 2243SOL    HW118191   1.120   2.484  15.515 -2.0469 -0.3195  1.5843
 2243SOL    HW218192   1.104   2.420  15.639  2.0028 -1.2158  1.7770
 2244SOL     OW18193   3.639   0.297   7.624  0.1263 -0.1594  0.1648
 2244SOL    HW118194   3.559   0.254   7.654 -0.3714  1.5274  1.2371
 2244SOL    HW218195   3.671   0.225   7.569  0.4857  0.4147 -0.3759
 2245SOL     OW18196   2.001   2.465   7.826  0.6546  0.3589  0.3890
 2245SOL    HW118197   2.022   2.548   7.867  0.5232  0.5654  0.0445
 2245SOL    HW218198   2.039   2.478   7.739 -0.7000  2.9323  0.1792
 2246SOL     OW18199   1.532   1.134   2.341  0.3047  0.2385  0.1694
 2246SOL    HW118200   1.442   1.126   2.375  0.2083 -2.3355 -0.6842
 2246SOL    HW218201   1.529   1.186   2.261  1.5808  1.4043  0.8750
 2247SOL     OW18202   2.838   2.825   9.033  0.5879  0.0509 -0.3530
 2247SOL    HW118203   2.760   2.858   8.989  0.1713  1.2982  1.3073
 2247SOL    HW218204   2.872   2.904   9.076 -0.3637 -1.0836  2.4647
 2248SOL     OW18205   1.341   3.994  13.096  0.5254 -0.4377 -0.3828
 2248SOL    HW118206   1.337   4.088  13.117 -0.8989  0.0413 -2.8486
 2248SOL    HW218207   1.278   4.000  13.024 -1.6153  0.3753  1.5424
 2249SOL     OW18208   1.804   3.321   9.212  0.2347  0.3232  0.2991
 2249SOL    HW118209   1.783   3.382   9.141  0.0572 -2.3238 -1.8940
 2249SOL    HW218210   1.898   3.337   9.220  0.3625  0.1494 -0.8043
 2250SOL     OW18211   1.860   2.341  10.206  0.0391  0.2552 -0.7377
 2250SOL    HW118212   1.945   2.371  10.237 -0.0640 -0.6288  0.4061
 2250SOL    HW218213   1.876   2.375  10.118  0.4900  3.1498  0.4773
 2251SOL     OW18214   1.798   4.327   0.936 -0.1736 -0.1275 -0.3541
 2251SOL    HW118215   1.773   4.412   0.898 -0.3958 -0.4812 -0.9948
 2251SOL    HW218216   1.893   4.337   0.930  0.2329 -1.8083  3.7872
 2252SOL     OW18217   1.764   0.219   4.130  0.0506  0.3426  0.0272
 2252SOL    HW118218   1.715   0.149   4.088 -1.3179  2.0953 -1.3183
 2252SOL    HW218219   1.733   0.293   4.078  0.6475  1.4681  1.2627
 2253SOL     OW18220   3.322   2.099   3.343  0.2516  0.0305 -0.1641
 2253SOL    HW118221   3.342   2.142   3.426  1.3201 -0.5555 -0.1140
 2253SOL    HW218222   3.352   2.009   3.357  0.1910  0.2866  1.5054
 2254SOL     OW18223   1.477   2.143  15.024  0.1775 -0.3879  0.0199
 2254SOL    HW118224   1.482   2.183  15.111 -1.6920  0.9086 -0.4566
 2254SOL    HW218225   1.469   2.220  14.967  0.3046 -1.2961 -1.2005
 2255SOL     OW18226   1.238   1.237  11.637  0.7488 -0.4544  0.4097
 2255SOL    HW118227   1.227   1.302  11.567 -0.4374 -3.0927 -1.8443
 2255SOL    HW218228   1.316   1.186  11.617  1.3196  0.7563 -0.4344
 2256SOL     OW18229   3.254   0.876  16.411 -0.4423 -0.4748 -0.7591
 2256SOL    HW118230   3.276   0.969  16.411  0.2089 -0.6392  0.7703
 2256SOL    HW218231   3.207   0.865  16.328  0.1709  0.2859 -1.2073
 2257SOL     OW18232   2.703   2.053  17.102  0.4062  0.0672  0.0136
 2257SOL    HW118233   2.692   2.091  17.190 -1.5747 -1.0091  0.2336
 2257SOL    HW218234   2.767   1.983  17.120  3.1404  2.4742 -0.4424
 2258SOL     OW18235   2.621   4.032   6.279 -0.0435  0.6158  0.0408
 2258SOL    HW118236   2.541   4.074   6.310  0.0057 -0.3779  1.4916
 2258SOL    HW218237   2.667   4.005   6.359 -0.6405 -2.2012 -0.5802
 2259SOL     OW18238   2.832   1.928   9.535 -0.1898  0.3072 -0.2194
 2259SOL    HW118239   2.897   1.858   9.541 -0.7913 -0.1832  0.5792
 2259SOL    HW218240   2.883   1.989   9.588 -0.5842  1.4805 -1.1881
 2260SOL     OW18241   2.774   1.268   3.832 -0.2024  0.0922  0.0571
 2260SOL    HW118242   2.769   1.304   3.921 -0.0649 -0.4574  0.2945
 2260SOL    HW218243   2.870   1.269   3.827 -0.1671 -1.3320  0.1928
 2261SOL     OW18244   1.843   2.284   4.600  0.1600 -0.3156 -0.4800
 2261SOL    HW118245   1.794   2.285   4.683  3.1867  0.6756  1.2963
 2261SOL    HW218246   1.929   2.304   4.636 -0.9268  1.0457  1.3699
 2262SOL     OW18247   0.399   3.736   2.735 -0.2960 -0.3557 -0.1234
 2262SOL    HW118248   0.357   3.699   2.658 -0.7607  0.5427 -0.2966
 2262SOL    HW218249   0.464   3.794   2.695  0.2298 -0.9949 -0.2022
 2263SOL     OW18250   1.643   3.063   4.017  0.7686 -0.0068 -0.2747
 2263SOL    HW118251   1.691   2.981   4.005  0.6418 -0.0482 -0.5009
 2263SOL    HW218252   1.651   3.099   3.929  1.0147  0.0310 -0.2375
 2264SOL     OW18253   4.267   1.623   3.479  0.3366  0.0495 -0.1438
 2264SOL    HW118254   4.266   1.624   3.575  2.5729 -2.1695 -0.0716
 2264SOL    HW218255   4.184   1.580   3.458  0.9081 -0.8379 -0.6134
 2265SOL     OW18256   1.954   0.314   5.671  0.0112  0.5791  0.5695
 2265SOL    HW118257   1.937   0.363   5.590  2.0543  1.0654  0.4196
 2265SOL    HW218258   1.966   0.385   5.734 -0.4977  1.0778  0.1138
 2266SOL     OW18259   3.510   3.897  15.956  0.1735 -0.7718  0.4260
 2266SOL    HW118260   3.559   3.897  15.874 -0.5368  1.9375  0.0226
 2266SOL    HW218261   3.543   3.976  15.998 -2.3005  0.2907  0.3640
 2267SOL     OW18262   1.689   4.306   8.777 -0.4814  0.2035 -0.0784
 2267SOL    HW118263   1.679   4.395   8.810  2.0661  0.4841 -0.1014
 2267SOL    HW218264   1.672   4.252   8.854 -0.8776 -0.1512 -0.4095
 2268SOL     OW18265   1.116   2.715   8.142 -0.3241 -0.0227  0.2264
 2268SOL    HW118266   1.159   2.797   8.165 -0.6349  0.2205 -0.0552
 2268SOL    HW218267   1.053   2.752   8.081  1.5800 -0.2974 -1.8783
 2269SOL     OW18268   0.378   0.567   2.902  0.0971  0.1695  0.1030
 2269SOL    HW118269   0.432   0.490   2.887  1.5084  1.4169 -1.2956
 2269SOL    HW218270   0.288   0.536   2.892 -0.6491  2.6120 -0.8956
 2270SOL     OW18271   0.350   0.196  15.405 -0.0067 -0.1755 -0.2068
 2270SOL    HW118272   0.316   0.119  15.358 -1.0465  0.5046 -0.5748
 2270SOL    HW218273   0.412   0.152  15.463  0.6400 -0.2165 -0.9285
 2271SOL     OW18274   2.138   4.620   9.859  0.0845 -0.5034 -0.9935
 2271SOL    HW118275   2.202   4.565   9.904  0.0227 -0.2144 -0.5568
 2271SOL    HW218276   2.202   4.684   9.827 -0.8477  1.7906  1.6839
 2272SOL     OW18277   2.187   3.010   8.512 -0.5331  0.3646  0.4307
 2272SOL    HW118278   2.147   2.943   8.567  1.7495 -0.7802  0.6844
 2272SOL    HW218279   2.261   3.030   8.569 -2.1494  2.7977  1.6525
 2273SOL     OW18280   2.786   3.944  12.924  0.3894  0.0765 -0.5915
 2273SOL    HW118281   2.828   3.926  12.840 -1.1026  0.4296 -1.4144
 2273SOL    HW218282   2.836   4.022  12.947 -1.1028  0.7920  0.2608
 2274SOL     OW18283   0.430   0.482   3.293 -0.1121 -0.3589  0.1394
 2274SOL    HW118284   0.406   0.419   3.224 -0.0266  1.4805 -1.5525
 2274SOL    HW218285   0.513   0.516   3.258  1.0637 -3.3117 -0.0057
 2275SOL     OW18286   0.169   1.666   3.040  0.0346 -0.1047 -0.1115
 2275SOL    HW118287   0.167   1.588   3.096  2.6303 -1.8659 -2.4870
 2275SOL    HW218288   0.243   1.652   2.981  0.0056  1.5156 -0.5123
 2276SOL     OW18289   4.330   0.831  15.645 -0.0771 -0.4481 -0.6374
 2276SOL    HW118290   4.246   0.802  15.681  2.1839 -1.9494  3.4208
 2276SOL    HW218291   4.364   0.745  15.618 -1.0666 -1.0558  0.0467
 2277SOL     OW18292   3.370   3.265   0.042  0.0035  0.9495 -0.1880
 2277SOL    HW118293   3.320   3.238  17.668  2.5985  1.2302 -2.0064
 2277SOL    HW218294   3.422   3.185   0.051 -1.5315  0.1370  1.4361
 2278SOL     OW18295   3.343   1.211   5.977  0.4185 -0.0530 -0.5028
 2278SOL    HW118296   3.434   1.225   5.951  0.3925  0.5429 -0.2659
 2278SOL    HW218297   3.309   1.162   5.902 -2.1990  2.0400 -0.6862
 2279SOL     OW18298   4.297   3.605   4.906  0.1451  0.0144 -0.2694
 2279SOL    HW118299   4.214   3.620   4.950  0.9466  1.6390  0.7137
 2279SOL    HW218300   4.357   3.648   4.967  1.0888 -1.3259 -0.2709
 2280SOL     OW18301   1.886   0.799   3.683 -0.2999 -0.2516  0.2308
 2280SOL    HW118302   1.884   0.761   3.595  0.5817  0.6301 -0.1697
 2280SOL    HW218303   1.961   0.858   3.676 -1.2536  0.7331 -1.7600
 2281SOL     OW18304   0.514   2.568   5.816 -0.2556  0.8226  0.7596
 2281SOL    HW118305   0.558   2.516   5.748  1.4085  2.6674  0.4346
 2281SOL    HW218306   0.509   2.653   5.773  2.0350  0.8791  0.6102
 2282SOL     OW18307   1.201   0.158   7.051  0.2071  0.1703 -0.1903
 2282SOL    HW118308   1.123   0.197   7.090  0.9821  2.7715 -1.2684
 2282SOL    HW218309   1.274   0.205   7.090 -1.2486  1.3378  1.1167
 2283SOL     OW18310   3.034   1.788  14.609  0.1287 -0.4615  0.5605
 2283SOL    HW118311   3.127   1.795  14.626  0.8123  0.0880 -3.3866
 2283SOL    HW218312   3.017   1.875  14.573 -1.4160 -0.9720  0.0359
 2284SOL     OW18313   0.342   3.954   9.721 -0.3860  0.4623  0.0187
 2284SOL    HW118314   0.251   3.976   9.740 -0.4505 -0.6281  0.9364
 2284SOL    HW218315   0.374   4.022   9.661  0.5896 -0.0834 -0.0817
 2285SOL     OW18316   0.380   2.597   7.019  0.3425  0.1911  0.1441
 2285SOL    HW118317   0.320   2.528   7.048  1.4090 -1.6003 -1.9142
 2285SOL    HW218318   0.322   2.617   6.946 -1.0028 -2.5055  0.4759
 2286SOL     OW18319   0.034   0.003   0.647  0.1021  0.0172 -0.3743
 2286SOL    HW118320   0.103   0.059   0.685 -0.3726  0.0433  0.4495
 2286SOL    HW218321   0.032   4.649   0.700 -0.2336 -0.7522 -1.5517
 2287SOL     OW18322   3.635   2.816   0.706  0.4228 -1.1939  0.2089
 2287SOL    HW118323   3.579   2.890   0.730  1.5213 -0.0646 -0.7466
 2287SOL    HW218324   3.622   2.761   0.783  0.7119  0.8433  1.6966
 2288SOL     OW18325   2.309   1.437  14.083 -0.2905  0.8409  0.1574
 2288SOL    HW118326   2.358   1.404  14.007  1.9484 -2.0611  2.8368
 2288SOL    HW218327   2.233   1.478  14.043 -0.7771  1.3209  1.5829
 2289SOL     OW18328   0.605   0.694   8.556  0.5819 -0.2785  0.0428
 2289SOL    HW118329   0.676   0.721   8.613  1.3712 -0.8363 -0.6752
 2289SOL    HW218330   0.568   0.621   8.606  0.1744  0.6986  1.1544
 2290SOL     OW18331   1.832   1.092   2.297  0.3242 -0.5518 -0.1849
 2290SOL    HW118332   1.837   1.062   2.388  0.4921  0.9646  0.3013
 2290SOL    HW218333   1.810   1.184   2.303  0.5187 -0.5466  0.5035
 2291SOL     OW18334   3.355   0.868   5.925  0.0463 -0.0523 -0.7851
 2291SOL    HW118335   3.287   0.809   5.958  0.2170 -0.7163 -1.6399
 2291SOL    HW218336   3.309   0.939   5.879 -1.8870 -1.7177 -1.4380
 2292SOL     OW18337   3.581   1.781   8.183 -0.3617  0.0472  0.5000
 2292SOL    HW118338   3.669   1.815   8.199 -0.0569  0.4937 -2.1309
 2292SOL    HW218339   3.610   1.691   8.169 -0.1958  0.2893 -0.6567
 2293SOL     OW18340   4.037   2.271   9.084  0.1587 -0.5583 -0.2719
 2293SOL    HW118341   3.994   2.340   9.134 -0.1650 -0.5961 -0.5037
 2293SOL    HW218342   3.971   2.245   9.020 -0.7623  0.2287  0.3550
 2294SOL     OW18343   3.322   1.378   1.100  0.0924  0.2112  0.4987
 2294SOL    HW118344   3.228   1.363   1.095  0.2885 -1.3104  1.3709
 2294SOL    HW218345   3.358   1.293   1.073 -1.0317 -0.4725  1.1788
 2295SOL     OW18346   2.910   4.358   0.912  0.6687 -0.6781  0.7913
 2295SOL    HW118347   2.941   4.376   1.001 -0.5056 -2.0866  1.4777
 2295SOL    HW218348   2.840   4.295   0.929 -0.7471  1.2471  2.0653
 2296SOL     OW18349   2.253   4.688   6.562  0.4841  0.3839  0.7261
 2296SOL    HW118350   2.252   4.620   6.493  1.0089  1.8095 -0.6797
 2296SOL    HW218351   2.349   4.690   6.568  0.6269  0.8889 -1.8150
 2297SOL     OW18352   4.074   0.636  13.466  0.6082 -0.7029 -0.1635
 2297SOL    HW118353   4.025   0.670  13.392  0.6060 -1.3248 -0.4480
 2297SOL    HW218354   4.009   0.626  13.536  0.8673  1.9916  0.4628
 2298SOL     OW18355   0.168   3.937   8.916  0.0985  0.4684  0.3616
 2298SOL    HW118356   0.211   3.971   8.838 -0.2741  0.4228  0.1340
 2298SOL    HW218357   0.235   3.942   8.984  0.7939  0.1051 -0.3066
 2299SOL     OW18358   0.882   2.810   8.702  0.2619  0.1275  0.5299
 2299SOL    HW118359   0.796   2.777   8.675  0.1518  1.9131 -1.2505
 2299SOL    HW218360   0.869   2.818   8.797 -0.1206  1.1402  0.3829
 2300SOL     OW18361   4.321   3.159   3.626 -0.3229 -0.1774  0.1419
 2300SOL    HW118362   4.291   3.250   3.631 -1.6420 -0.6503  0.9678
 2300SOL    HW218363   4.353   3.156   3.536 -1.5570 -1.3764 -0.2611
 2301SOL     OW18364   0.620   0.380   8.632 -0.2434 -0.0645  0.3517
 2301SOL    HW118365   0.588   0.353   8.546 -0.2282 -1.8098  0.8773
 2301SOL    HW218366   0.649   0.301   8.678 -0.9250 -0.5686 -0.0840
 2302SOL     OW18367   3.506   3.274   7.762 -0.3176  0.1696  0.4412
 2302SOL    HW118368   3.596   3.276   7.794 -0.4503  0.1117  0.8216
 2302SOL    HW218369   3.463   3.242   7.842  0.3551  1.0287  1.1444
 2303SOL     OW18370   3.042   4.273  10.586  0.0885 -0.3367 -0.2202
 2303SOL    HW118371   2.957   4.295  10.547 -0.1196 -0.4813  0.1493
 2303SOL    HW218372   3.100   4.315  10.522 -1.4496 -0.2901 -1.5866
 2304SOL     OW18373   0.774   0.282   7.022 -0.0168  0.1759  0.3607
 2304SOL    HW118374   0.859   0.240   7.009 -0.3321  0.4624 -2.5512
 2304SOL    HW218375   0.705   0.225   6.989  0.5503  0.1465 -0.7692
 2305SOL     OW18376   0.096   1.834   6.909 -0.4071 -0.1217  0.3623
 2305SOL    HW118377   0.121   1.745   6.933  0.7091 -0.3273 -1.6242
 2305SOL    HW218378   0.048   1.827   6.827 -0.2999  1.0066  0.2032
 2306SOL     OW18379   1.627   1.857  15.107  0.4048  0.1633 -0.0073
 2306SOL    HW118380   1.552   1.900  15.066  0.5379 -0.6299 -1.0827
 2306SOL    HW218381   1.694   1.923  15.093 -0.6208  0.6412 -2.7796
 2307SOL     OW18382   1.456   2.078   0.146  0.5016 -0.5421  0.0717
 2307SOL    HW118383   1.424   1.991   0.172 -0.5560 -0.4126 -0.7930
 2307SOL    HW218384   1.540   2.055   0.107  0.1248 -1.1148 -0.4003
 2308SOL     OW18385   4.482   4.437  15.556  0.6048  0.2374 -0.0691
 2308SOL    HW118386   4.456   4.512  15.503 -1.2715  0.1246  0.6929
 2308SOL    HW218387   4.447   4.360  15.512 -1.2317  1.7540 -1.2577
 2309SOL     OW18388   3.758   4.075   3.007 -0.8053 -0.2532  0.1456
 2309SOL    HW118389   3.839   4.027   2.992 -0.9353 -0.1357 -0.9274
 2309SOL    HW218390   3.778   4.151   2.953 -0.5984 -0.8845 -0.6766
 2310SOL     OW18391   4.725   0.835   6.812  0.3707 -0.2013  0.0475
 2310SOL    HW118392   4.634   0.812   6.796 -0.5337  2.6618  1.1939
 2310SOL    HW218393   0.043   0.757   6.847  0.1320 -0.5170 -0.3616
 2311SOL     OW18394   2.340   2.340   8.244  0.3755 -0.3966  0.0186
 2311SOL    HW118395   2.280   2.396   8.195  0.5180  0.8515  1.3173
 2311SOL    HW218396   2.283   2.325   8.319 -0.3040 -1.1496 -0.6340
 2312SOL     OW18397   2.169   2.443  10.022 -0.0050 -0.5611  0.6044
 2312SOL    HW118398   2.210   2.526  10.000 -0.1840 -0.7044 -0.3105
 2312SOL    HW218399   2.076   2.466  10.019  0.2548  0.4981  0.9507
 2313SOL     OW18400   4.517   4.575  15.779  0.6374 -0.4884  0.3823
 2313SOL    HW118401   4.479   4.521  15.848  0.8747 -0.3777  0.5990
 2313SOL    HW218402   4.499   4.522  15.701 -1.1893 -3.1195  2.5687
 2314SOL     OW18403   1.094   3.577  10.893  0.3416  0.1201 -0.1703
 2314SOL    HW118404   1.174   3.623  10.918 -0.4753  1.3480  0.1568
 2314SOL    HW218405   1.023   3.623  10.938 -0.0402  0.2583 -0.9258
 2315SOL     OW18406   1.193   4.446   7.518 -0.1346  0.0851 -0.7755
 2315SOL    HW118407   1.269   4.398   7.485 -0.8604 -0.9651 -0.8890
 2315SOL    HW218408   1.233   4.533   7.523  2.6861 -1.1724 -1.2165
 2316SOL     OW18409   0.555   0.373   2.832 -1.1542 -0.2054  0.2421
 2316SOL    HW118410   0.647   0.348   2.843 -0.2917  2.9790  0.0740
 2316SOL    HW218411   0.549   0.425   2.752  1.5064  0.7951  0.6959
 2317SOL     OW18412   2.136   1.525   0.808  0.3595 -0.5315  0.0805
 2317SOL    HW118413   2.101   1.594   0.752  1.9703 -0.1269 -0.4413
 2317SOL    HW218414   2.226   1.514   0.778  0.4837  0.1771  0.2027
 2318SOL     OW18415   1.030   1.578   9.439 -0.3634  0.7140  0.1190
 2318SOL    HW118416   1.087   1.655   9.430 -0.3191  0.5670 -0.9277
 2318SOL    HW218417   1.032   1.547   9.529  0.5499  0.3309 -0.0378
 2319SOL     OW18418   3.294   2.490   4.681 -0.1884  0.1170  0.5817
 2319SOL    HW118419   3.381   2.453   4.673  0.6975  2.6305 -1.7601
 2319SOL    HW218420   3.290   2.564   4.619  0.0195  0.5619  1.0967
 2320SOL     OW18421   2.622   4.500  13.862  0.1492 -0.0445 -0.0878
 2320SOL    HW118422   2.565   4.531  13.791 -1.4136 -0.2864  1.0493
 2320SOL    HW218423   2.705   4.526  13.822 -0.6574 -1.2474 -2.5537
 2321SOL     OW18424   3.571   1.395   4.626 -0.1090  1.1048 -0.2325
 2321SOL    HW118425   3.550   1.488   4.617  0.0171  1.0108 -1.6226
 2321SOL    HW218426   3.562   1.382   4.720 -1.1441 -0.4787 -0.5548
 2322SOL     OW18427   0.539   4.706   9.383 -0.2640 -0.4242  0.6229
 2322SOL    HW118428   0.485   4.704   9.462 -0.0731 -1.1770  0.7399
 2322SOL    HW218429   0.594   4.629   9.401 -0.2461 -0.7326 -0.7707
 2323SOL     OW18430   0.706   3.007  17.345  0.2187 -0.2702 -0.7509
 2323SOL    HW118431   0.736   3.024  17.434  0.4044  1.0998 -1.0845
 2323SOL    HW218432   0.663   3.087  17.318  1.0113  0.6016  0.5880
 2324SOL     OW18433   2.336   3.559   6.682  0.0066 -0.3320  0.0084
 2324SOL    HW118434   2.253   3.582   6.641  0.3780 -0.9064 -1.0626
 2324SOL    HW218435   2.339   3.598   6.769 -1.8311  0.2473 -0.1923
 2325SOL     OW18436   0.501   1.767   6.835  0.0420 -0.3587  0.1176
 2325SOL    HW118437   0.413   1.764   6.795 -0.3151  0.3172  0.8592
 2325SOL    HW218438   0.481   1.788   6.926 -1.3735  0.6650 -0.4074
 2326SOL     OW18439   1.678   0.461   5.809 -0.4038 -0.2488 -0.1513
 2326SOL    HW118440   1.708   0.552   5.809  1.6631 -0.9185 -2.0271
 2326SOL    HW218441   1.720   0.439   5.892  0.6351 -0.7044 -0.7982
 2327SOL     OW18442   1.082   1.384   4.113  0.5530  0.1461  0.4863
 2327SOL    HW118443   1.051   1.333   4.188 -2.4569 -0.5809 -1.2376
 2327SOL    HW218444   1.160   1.430   4.143 -0.8235  0.7621  3.1118
 2328SOL     OW18445   2.477   0.306   6.148  0.4051 -0.0192 -0.0073
 2328SOL    HW118446   2.561   0.264   6.129  0.7464  0.9800 -0.7502
 2328SOL    HW218447   2.492   0.379   6.088  1.9954  0.2137  0.6622
 2329SOL     OW18448   0.310   0.683   1.672 -0.7337 -0.3341  0.0539
 2329SOL    HW118449   0.294   0.736   1.750 -2.3775 -1.4739  0.4918
 2329SOL    HW218450   0.230   0.631   1.672 -0.2725 -1.0582 -0.2770
 2330SOL     OW18451   2.887   4.229   5.595  0.8517 -0.0185 -1.0991
 2330SOL    HW118452   2.845   4.167   5.655 -0.4635  0.7965 -1.1571
 2330SOL    HW218453   2.847   4.211   5.510 -0.5005  1.2363 -0.7360
 2331SOL     OW18454   2.572   4.122   6.581 -0.0183  0.5430  0.0475
 2331SOL    HW118455   2.577   4.187   6.511 -3.1174  1.6585  0.8916
 2331SOL    HW218456   2.659   4.132   6.620 -0.2641 -1.4499  1.1058
 2332SOL     OW18457   2.140   0.932   3.624 -0.3801  0.1413  0.0236
 2332SOL    HW118458   2.166   0.960   3.536  0.8001  0.4816  0.4729
 2332SOL    HW218459   2.197   0.855   3.627 -1.4796 -0.6493  0.5536
 2333SOL     OW18460   4.000   1.413   4.584  0.5520 -0.3717 -0.4757
 2333SOL    HW118461   3.974   1.332   4.629 -0.9763  0.5791  0.3449
 2333SOL    HW218462   3.996   1.475   4.657  2.2644 -0.3781 -0.3690
 2334SOL     OW18463   0.939   4.284   5.562 -0.0735  0.1906  0.1167
 2334SOL    HW118464   0.935   4.280   5.657  0.2331  1.1505  0.1717
 2334SOL    HW218465   0.857   4.237   5.548  0.6686 -1.3880  1.1056
 2335SOL     OW18466   0.894   3.093  17.180  0.0535 -0.0424  0.0350
 2335SOL    HW118467   0.935   3.147  17.248  2.0436  1.0875 -2.0782
 2335SOL    HW218468   0.829   3.050  17.236  1.5335 -0.0991  1.6994
 2336SOL     OW18469   1.140   3.045   3.987 -0.5620 -0.8060  0.0184
 2336SOL    HW118470   1.170   3.052   3.896  0.2145 -0.8269  0.2729
 2336SOL    HW218471   1.060   2.993   3.978 -0.0587 -1.8103  1.3761
 2337SOL     OW18472   0.701   4.126   5.508  0.0009  0.2753  0.1995
 2337SOL    HW118473   0.620   4.147   5.462  0.2204  1.2252  0.2570
 2337SOL    HW218474   0.709   4.035   5.479 -3.0951 -0.0952  0.4955
 2338SOL     OW18475   4.649   4.582   1.590  0.4596 -0.0262  0.4219
 2338SOL    HW118476   0.001   4.528   1.608  0.6108  0.2782  0.6843
 2338SOL    HW218477   4.681   4.638   1.518  0.3373  0.6004  0.8561
 2339SOL     OW18478   3.502   4.434  11.614 -0.3888 -0.1747 -0.2656
 2339SOL    HW118479   3.444   4.398  11.680  0.9408 -0.9099  0.5039
 2339SOL    HW218480   3.491   4.380  11.536  1.6381 -0.6305 -0.2346
 2340SOL     OW18481   1.530   2.709  11.790 -0.2804  0.7484  0.1938
 2340SOL    HW118482   1.581   2.630  11.808 -1.4268 -0.2655 -1.0330
 2340SOL    HW218483   1.554   2.781  11.848  1.1450 -0.1464  0.7245
 2341SOL     OW18484   3.534   2.358  13.500 -0.1640  0.0447 -0.1265
 2341SOL    HW118485   3.534   2.451  13.523 -0.2676 -0.1252  0.5772
 2341SOL    HW218486   3.543   2.309  13.582  0.1652 -1.5594 -1.1479
 2342SOL     OW18487   0.657   0.351  12.210 -0.6039 -0.4383 -0.0064
 2342SOL    HW118488   0.672   0.309  12.126  0.3584  0.3191 -0.2131
 2342SOL    HW218489   0.638   0.440  12.181 -3.3252 -0.7119  0.9439
 2343SOL     OW18490   2.115   0.460   8.105  0.2133 -0.1184  0.6028
 2343SOL    HW118491   2.098   0.528   8.170 -1.7845  0.0798 -0.1445
 2343SOL    HW218492   2.067   0.493   8.029  0.2634 -2.1746 -0.3137
 2344SOL     OW18493   2.398   1.732   6.185 -0.1445  0.9359 -0.2084
 2344SOL    HW118494   2.477   1.731   6.238  1.3146 -2.2243 -2.4166
 2344SOL    HW218495   2.415   1.809   6.130  1.6180 -0.4164 -1.5844
 2345SOL     OW18496   3.227   4.679  16.907 -0.3409  0.2720 -0.4312
 2345SOL    HW118497   3.236   4.597  16.956 -0.4025 -0.8069 -2.2294
 2345SOL    HW218498   3.194   0.006  16.980  0.7170  0.9759 -0.4556
 2346SOL     OW18499   4.369   0.991  15.432  0.6012  0.3392  0.2999
 2346SOL    HW118500   4.458   1.019  15.452  0.3155  1.6582 -0.2731
 2346SOL    HW218501   4.356   0.925  15.500  0.7109  0.7338  0.7029
 2347SOL     OW18502   4.541   0.509   6.769  0.0821  0.2194  0.0371
 2347SOL    HW118503   4.454   0.544   6.750 -2.1932 -4.8901  1.0430
 2347SOL    HW218504   4.560   0.534   6.860 -1.4962 -0.5724  0.5817
 2348SOL     OW18505   3.234   1.216  12.593  0.0605 -0.1799 -0.4721
 2348SOL    HW118506   3.294   1.143  12.599  1.0637  0.6040 -1.0046
 2348SOL    HW218507   3.290   1.286  12.628  1.0240 -0.3869 -1.5991
 2349SOL     OW18508   3.393   4.583   5.054  0.2270  0.5161 -0.1095
 2349SOL    HW118509   3.306   4.622   5.063 -0.8414 -1.2422 -2.9328
 2349SOL    HW218510   3.443   4.616   5.128 -0.0155  0.1162  0.2336
 2350SOL     OW18511   2.832   2.030   2.864  0.6998 -0.4735 -0.3578
 2350SOL    HW118512   2.829   1.955   2.923  0.7884 -0.6239 -0.5436
 2350SOL    HW218513   2.886   2.094   2.910 -2.0635  2.6568 -1.4058
 2351SOL     OW18514   0.150   0.765  10.382 -0.0837 -0.5464 -0.0619
 2351SOL    HW118515   0.219   0.730  10.326  0.7222  0.6090  0.2112
 2351SOL    HW218516   0.199   0.839  10.418 -0.4924 -1.5094  2.4308
 2352SOL     OW18517   4.358   0.109   3.938  0.2621  0.1553 -0.1215
 2352SOL    HW118518   4.431   0.054   3.968 -0.9926 -1.6291 -0.2968
 2352SOL    HW218519   4.409   0.147   3.867 -0.2730 -0.2425 -0.7259
 2353SOL     OW18520   3.938   0.408  17.495 -0.3421  0.3754 -0.5569
 2353SOL    HW118521   3.921   0.366  17.411 -0.8114  0.1054 -0.3296
 2353SOL    HW218522   4.021   0.362  17.510 -0.1886  0.3894 -1.3854
 2354SOL     OW18523   2.574   3.109   7.264  0.1940  0.2474  0.1321
 2354SOL    HW118524   2.661   3.141   7.288 -0.2253  2.1829 -0.9111
 2354SOL    HW218525   2.580   3.018   7.293 -2.9042  0.2048  0.7279
 2355SOL     OW18526   3.367   4.397  10.958 -0.0861  0.2478 -0.0760
 2355SOL    HW118527   3.390   4.319  11.010  0.0123 -1.2403 -2.3600
 2355SOL    HW218528   3.403   4.468  11.011 -0.2385  1.0239 -1.0259
 2356SOL     OW18529   3.054   0.818   5.177  0.3414 -0.0782  0.1290
 2356SOL    HW118530   3.125   0.795   5.235  0.1911 -1.0685 -0.0814
 2356SOL    HW218531   2.974   0.806   5.228 -1.5222  1.3187 -2.4425
 2357SOL     OW18532   0.974   4.489   4.857  0.0642  0.2619  0.0329
 2357SOL    HW118533   1.020   4.527   4.783 -0.0339  1.7962  0.7561
 2357SOL    HW218534   1.001   4.548   4.928  2.5857  0.4337 -1.0918
 2358SOL     OW18535   3.529   2.338   4.674 -0.0705 -0.3639 -0.2709
 2358SOL    HW118536   3.507   2.246   4.660  0.1490 -0.3929 -0.4158
 2358SOL    HW218537   3.551   2.338   4.767  0.2495 -0.1032 -0.3460
 2359SOL     OW18538   4.327   1.377   5.614 -0.2590  0.0378 -0.2644
 2359SOL    HW118539   4.384   1.407   5.685  0.0035 -0.8177 -0.1057
 2359SOL    HW218540   4.376   1.362   5.534 -0.8487 -1.0780 -0.4188
 2360SOL     OW18541   1.855   1.486   7.171 -0.3772 -0.2513  0.2295
 2360SOL    HW118542   1.844   1.391   7.161 -2.0060 -0.2158  1.6011
 2360SOL    HW218543   1.950   1.481   7.167 -0.3602  0.9687 -0.7437
 2361SOL     OW18544   3.660   3.334  13.630 -0.0106 -0.4204  0.1422
 2361SOL    HW118545   3.572   3.306  13.605  0.8217 -1.3506 -1.7992
 2361SOL    HW218546   3.657   3.366  13.720 -2.8984  1.6764 -0.7064
 2362SOL     OW18547   0.356   4.624  13.383  0.3273 -0.0864 -0.0504
 2362SOL    HW118548   0.424   4.581  13.332  0.9529 -0.6228  1.2309
 2362SOL    HW218549   0.401   4.708  13.394 -1.7190  0.6533  2.7371
 2363SOL     OW18550   2.463   2.083   4.686 -0.1792  0.3313  0.0905
 2363SOL    HW118551   2.407   2.007   4.697  1.8020 -0.7100  2.9016
 2363SOL    HW218552   2.542   2.060   4.734  1.5868  0.8131 -2.5680
 2364SOL     OW18553   1.495   4.527   5.973 -0.6687 -0.5756 -0.1824
 2364SOL    HW118554   1.518   4.513   6.065  0.2824  0.1847 -0.3077
 2364SOL    HW218555   1.575   4.572   5.947 -0.2938 -1.0249  0.1760
 2365SOL     OW18556   3.911   3.006   8.229  0.3937  0.2486  0.4061
 2365SOL    HW118557   3.955   2.971   8.152  2.7035  0.5264  1.6134
 2365SOL    HW218558   3.989   3.032   8.279  0.5528 -2.6173  1.6430
 2366SOL     OW18559   1.669   0.461  12.827  0.1287  0.3311 -0.0883
 2366SOL    HW118560   1.699   0.542  12.785  0.1939 -1.8529 -4.2194
 2366SOL    HW218561   1.753   0.416  12.841 -0.7780 -1.7642 -1.4292
 2367SOL     OW18562   2.836   3.508   6.398  0.0725  0.2129  0.7051
 2367SOL    HW118563   2.762   3.462   6.438 -1.8613  3.0351  0.3425
 2367SOL    HW218564   2.797   3.538   6.316  0.6542 -2.3300 -0.5132
 2368SOL     OW18565   2.316   2.372   7.135 -0.7550 -0.0170  0.4842
 2368SOL    HW118566   2.279   2.374   7.046 -1.8171 -1.7139  0.8861
 2368SOL    HW218567   2.372   2.449   7.129 -0.8697 -0.0038 -0.4250
 2369SOL     OW18568   2.786   2.022   2.306  0.5098  0.5193  0.3571
 2369SOL    HW118569   2.838   1.964   2.249 -0.9183  0.8366 -1.2630
 2369SOL    HW218570   2.838   2.102   2.304 -0.2788  0.9941 -1.1014
 2370SOL     OW18571   0.086   2.450   1.468  0.0673  0.0173 -0.1565
 2370SOL    HW118572   0.117   2.480   1.553  1.2721 -0.0081 -0.5896
 2370SOL    HW218573   0.001   2.412   1.492 -0.2264  1.4057  0.9856
 2371SOL     OW18574   1.528   4.464  10.247 -0.6096 -0.6711  0.5475
 2371SOL    HW118575   1.504   4.491  10.335 -0.5908 -1.1429  0.7008
 2371SOL    HW218576   1.591   4.393  10.261  0.4317  0.4271  1.3230
 2372SOL     OW18577   0.501   3.538   3.702 -0.5736  0.2227  0.0245
 2372SOL    HW118578   0.534   3.451   3.681  0.6002  0.5403  0.5548
 2372SOL    HW218579   0.459   3.551   3.617 -2.3667  0.6442  0.9535
 2373SOL     OW18580   0.674   2.670   4.938  0.4118 -0.1283  1.1727
 2373SOL    HW118581   0.682   2.579   4.968  0.4117  0.4456  2.9223
 2373SOL    HW218582   0.719   2.657   4.855  2.2758  1.0961  1.9958
 2374SOL     OW18583   3.624   0.538  15.032 -0.1875  0.3864 -0.4029
 2374SOL    HW118584   3.675   0.618  15.023 -1.5409  1.1019 -1.7057
 2374SOL    HW218585   3.534   0.570  15.028 -1.1220 -2.1847 -0.2067
 2375SOL     OW18586   3.372   0.643  11.663 -0.0597 -0.0779 -0.3834
 2375SOL    HW118587   3.453   0.597  11.643 -0.3700 -0.8236  0.0660
 2375SOL    HW218588   3.361   0.618  11.755 -2.3921 -1.2806 -0.9830
 2376SOL     OW18589   0.718   2.063   3.016 -0.3243  0.2015 -0.3987
 2376SOL    HW118590   0.767   2.141   3.043  0.0939 -0.5577  1.0104
 2376SOL    HW218591   0.631   2.088   3.045 -1.2448 -1.2038 -1.9486
 2377SOL     OW18592   3.346   3.038   8.343 -0.3681 -0.7263  0.0991
 2377SOL    HW118593   3.370   2.976   8.274  2.3146  0.9094 -0.4442
 2377SOL    HW218594   3.327   3.109   8.281 -3.5064 -0.4741  1.3870
 2378SOL     OW18595   2.644   2.671   6.476 -0.2512  0.0326  0.1616
 2378SOL    HW118596   2.615   2.643   6.389  2.0566  1.6768 -1.1597
 2378SOL    HW218597   2.593   2.621   6.539  0.8470 -0.9040  0.2969
 2379SOL     OW18598   3.004   4.556   3.532  0.0657 -0.3031 -0.7679
 2379SOL    HW118599   2.957   4.517   3.458 -3.1329  0.4852  0.8526
 2379SOL    HW218600   3.085   4.588   3.491  1.5119 -1.5830  1.1232
 2380SOL     OW18601   1.378   1.017   3.115 -0.2824  0.4234  0.0617
 2380SOL    HW118602   1.462   1.059   3.097  0.6474 -1.3705  0.2020
 2380SOL    HW218603   1.331   1.086   3.162 -2.7076  0.3590 -2.2522
 2381SOL     OW18604   0.337   3.837   4.189 -0.1475  0.0819  0.5836
 2381SOL    HW118605   0.260   3.893   4.197 -0.8542 -0.5838 -1.6167
 2381SOL    HW218606   0.347   3.810   4.098 -1.6153 -1.0396  0.7686
 2382SOL     OW18607   3.132   3.620   4.452 -0.2379 -0.5737 -0.2673
 2382SOL    HW118608   3.134   3.539   4.401 -3.2717 -0.0940 -1.1190
 2382SOL    HW218609   3.225   3.610   4.475 -0.3179 -1.1043 -0.1892
 2383SOL     OW18610   0.081   1.158  10.537  0.3063  0.5868 -0.4417
 2383SOL    HW118611   0.128   1.224  10.588 -2.9356  1.6530  1.0997
 2383SOL    HW218612   0.155   1.117  10.492 -0.4992  0.2113 -1.4172
 2384SOL     OW18613   1.621   3.374  13.291 -0.2811  0.1094 -0.3806
 2384SOL    HW118614   1.666   3.341  13.214  0.7439  0.9391 -0.1341
 2384SOL    HW218615   1.646   3.305  13.351 -1.2282 -0.1841 -0.3247
 2385SOL     OW18616   3.690   2.042   8.862  0.1519 -0.0263  0.6461
 2385SOL    HW118617   3.709   1.969   8.920 -4.2168 -2.0931 -0.5289
 2385SOL    HW218618   3.605   2.015   8.826  0.3130  1.4709 -0.8590
 2386SOL     OW18619   1.429   3.617   9.090 -0.1623 -0.1032 -0.0933
 2386SOL    HW118620   1.381   3.662   9.020  0.3507 -1.7420 -1.5144
 2386SOL    HW218621   1.357   3.576   9.137 -0.4699  0.7449  0.1727
 2387SOL     OW18622   0.845   1.707   8.752 -0.1002 -0.4899 -0.2470
 2387SOL    HW118623   0.868   1.800   8.749  1.2287 -0.8161 -0.0249
 2387SOL    HW218624   0.810   1.704   8.842  0.7024 -0.4258  0.0698
 2388SOL     OW18625   2.244   3.325  15.474  0.0994  0.8865 -0.3033
 2388SOL    HW118626   2.195   3.392  15.521 -0.7818 -0.8980  1.3136
 2388SOL    HW218627   2.205   3.315  15.387 -4.4117 -0.3540  1.8493
 2389SOL     OW18628   0.155   4.428   8.502  0.2497 -0.1844 -0.4281
 2389SOL    HW118629   0.079   4.485   8.509  1.1841  0.8526  1.1353
 2389SOL    HW218630   0.223   4.491   8.477 -0.4064  0.7905  0.2642
 2390SOL     OW18631   3.438   1.177  11.170 -0.1647 -0.4047  0.1332
 2390SOL    HW118632   3.368   1.230  11.209  0.3130 -0.5617  1.2096
 2390SOL    HW218633   3.447   1.112  11.239 -3.4101 -0.0766  0.8426
 2391SOL     OW18634   2.988   1.419  17.389  0.3952 -0.2212  0.0382
 2391SOL    HW118635   2.905   1.370  17.386  0.5459 -0.5654  1.4650
 2391SOL    HW218636   3.054   1.350  17.392  0.4462 -0.2848 -2.1687
 2392SOL     OW18637   1.399   3.978   9.615  0.3992  0.3406  0.3015
 2392SOL    HW118638   1.430   3.894   9.581  0.2510  0.4827 -0.1816
 2392SOL    HW218639   1.308   3.952   9.632  0.3166 -0.1772 -0.9073
 2393SOL     OW18640   4.720   0.533   5.033 -0.4347 -0.0751 -0.5543
 2393SOL    HW118641   4.718   0.441   5.006 -0.4515 -0.5683  1.1652
 2393SOL    HW218642   0.081   0.528   5.074 -0.6302 -0.4938 -0.1909
 2394SOL     OW18643   2.514   2.276   8.590 -0.0155 -0.4288  0.4334
 2394SOL    HW118644   2.479   2.364   8.572  1.2430  0.0173  0.1741
 2394SOL    HW218645   2.471   2.252   8.672  2.5733  0.0282  1.9377
 2395SOL     OW18646   0.503   1.795   7.464  0.5825 -0.0358 -0.4825
 2395SOL    HW118647   0.554   1.809   7.384  1.3516  2.1034  0.3680
 2395SOL    HW218648   0.428   1.740   7.439  0.5519 -0.1012 -0.2398
 2396SOL     OW18649   0.616   1.051   4.624 -0.0762  0.8913 -0.0323
 2396SOL    HW118650   0.697   1.003   4.608 -1.1775 -1.2202  0.7377
 2396SOL    HW218651   0.649   1.136   4.654 -0.5563  1.0146  0.1365
 2397SOL     OW18652   1.789   2.731   7.130  0.0182  0.1829  0.1535
 2397SOL    HW118653   1.750   2.801   7.183 -0.5502 -0.9752  1.2785
 2397SOL    HW218654   1.723   2.723   7.062 -0.6644 -2.8142  1.1387
 2398SOL     OW18655   3.745   3.898  17.204 -0.5263  0.0709 -0.7824
 2398SOL    HW118656   3.754   3.974  17.261 -1.3483 -0.2531 -0.2174
 2398SOL    HW218657   3.672   3.849  17.241 -1.4695  1.2891 -1.0362
 2399SOL     OW18658   1.307   0.724  10.810  0.1171 -0.0815  0.1056
 2399SOL    HW118659   1.270   0.812  10.825  1.7799  0.1978  2.4910
 2399SOL    HW218660   1.288   0.716  10.717 -3.0626  1.6874  0.5750
 2400SOL     OW18661   2.584   2.172   5.029 -0.3777  0.3172  0.3410
 2400SOL    HW118662   2.565   2.108   5.098  0.6366 -0.7028 -0.3325
 2400SOL    HW218663   2.588   2.118   4.950  3.5293  0.4795  0.3931
 2401SOL     OW18664   1.763   4.580   8.884 -0.0726 -0.0861  0.0591
 2401SOL    HW118665   1.751   4.629   8.802 -0.5811  0.7413  0.6266
 2401SOL    HW218666   1.705   4.628   8.943  1.4345  0.9631  0.6573
 2402SOL     OW18667   0.114   1.109   6.865  0.4170  0.0631 -0.7537
 2402SOL    HW118668   0.051   1.108   6.792  0.6495  0.2915 -0.9559
 2402SOL    HW218669   0.069   1.040   6.914  0.6267  0.5880  0.1621
 2403SOL     OW18670   4.542   2.628   8.832 -0.2552 -0.1724 -0.2595
 2403SOL    HW118671   4.504   2.592   8.752 -1.2679  2.8768 -1.1699
 2403SOL    HW218672   4.492   2.573   8.892 -0.3414  0.7990  0.5659
 2404SOL     OW18673   4.078   4.027   9.867 -0.1484 -0.2101 -0.6095
 2404SOL    HW118674   4.047   4.069   9.947 -3.5375 -1.5295 -1.2285
 2404SOL    HW218675   4.128   3.953   9.900  0.1689 -0.2500 -1.1685
 2405SOL     OW18676   3.338   3.172   3.199 -0.0217  0.1191  0.1600
 2405SOL    HW118677   3.250   3.210   3.195  0.2615  0.3154 -3.9758
 2405SOL    HW218678   3.406   3.234   3.174 -0.7627  0.6777 -0.4686
 2406SOL     OW18679   0.755   1.793  11.869  0.4102  0.0470 -0.4702
 2406SOL    HW118680   0.834   1.750  11.900 -0.3278 -1.2084 -0.3135
 2406SOL    HW218681   0.744   1.868  11.926  0.2984 -1.3769  1.3862
 2407SOL     OW18682   1.742   1.997   4.733  0.2294  0.0305  0.4352
 2407SOL    HW118683   1.692   1.944   4.671  0.8523  1.2061 -1.0707
 2407SOL    HW218684   1.671   2.057   4.754 -0.9051 -0.9750 -0.5499
 2408SOL     OW18685   4.605   4.552   6.620  0.1159  0.5816 -0.5667
 2408SOL    HW118686   4.594   4.471   6.669  0.6584  0.9903  0.2356
 2408SOL    HW218687   4.625   4.526   6.530 -0.5620 -1.5829 -0.0708
 2409SOL     OW18688   1.616   3.728   8.164  0.2599  0.1487 -0.8800
 2409SOL    HW118689   1.534   3.775   8.148  1.4590  1.8808 -1.9597
 2409SOL    HW218690   1.677   3.786   8.117  3.0331 -1.1926  1.0797
 2410SOL     OW18691   0.156   2.444   6.582 -0.5332 -0.2552 -0.0516
 2410SOL    HW118692   0.201   2.399   6.510  1.5726 -0.9862  1.7429
 2410SOL    HW218693   0.175   2.386   6.655  3.4837 -2.3344 -2.7468
 2411SOL     OW18694   3.761   3.993   9.746  0.4060 -0.2000  0.3090
 2411SOL    HW118695   3.854   3.976   9.734  0.4863  0.1147  0.4604
 2411SOL    HW218696   3.769   4.084   9.775 -2.6724 -0.3576  1.7129
 2412SOL     OW18697   1.622   3.069   2.733 -0.2531  0.7359  0.5589
 2412SOL    HW118698   1.679   3.094   2.806 -2.0272  1.2638  1.7493
 2412SOL    HW218699   1.681   3.102   2.665 -0.4039  1.3168  0.7122
 2413SOL     OW18700   0.293   2.399   0.801  0.4308 -0.5283 -0.8797
 2413SOL    HW118701   0.249   2.472   0.844 -0.5355 -1.6795  0.1254
 2413SOL    HW218702   0.385   2.426   0.801 -0.9407  4.0774 -1.4322
 2414SOL     OW18703   3.929   0.975  14.877 -0.0412 -0.1625  0.8656
 2414SOL    HW118704   3.910   0.909  14.810  1.6818 -1.1888  1.3869
 2414SOL    HW218705   3.926   1.060  14.831  0.0805 -0.8128 -0.3516
 2415SOL     OW18706   2.535   3.433  12.001 -0.1338  0.0463 -0.0205
 2415SOL    HW118707   2.473   3.503  11.980 -1.3611 -1.7297 -2.2653
 2415SOL    HW218708   2.483   3.403  12.076  1.4875  2.3921  2.0583
 2416SOL     OW18709   0.094   1.418   8.310  0.2973  0.6469 -0.4225
 2416SOL    HW118710   0.147   1.492   8.281 -0.6287  1.3584 -0.3048
 2416SOL    HW218711   0.069   1.446   8.398 -1.6384 -4.0870  0.5584
 2417SOL     OW18712   0.135   1.487   7.843  0.3589  0.2498  0.8419
 2417SOL    HW118713   0.108   1.527   7.926  1.5312 -0.0742  1.3653
 2417SOL    HW218714   0.194   1.421   7.879 -0.2692  0.1234  1.6366
 2418SOL     OW18715   3.077   0.252   8.109 -0.0476 -0.0053  0.7323
 2418SOL    HW118716   3.087   0.297   8.193  1.4322 -1.7037  1.4591
 2418SOL    HW218717   2.984   0.242   8.093 -0.4005  1.5834  1.7620
 2419SOL     OW18718   2.603   0.181  11.739 -0.5795  0.0298  0.1659
 2419SOL    HW118719   2.515   0.151  11.766  0.2644 -1.8295  0.8373
 2419SOL    HW218720   2.661   0.128  11.794 -0.6981  1.4382  1.6753
 2420SOL     OW18721   0.522   1.362   3.913  0.1376 -0.1210 -0.2809
 2420SOL    HW118722   0.561   1.281   3.879 -2.3144 -1.2988 -0.2484
 2420SOL    HW218723   0.518   1.344   4.007  1.8469  4.0787  0.5683
 2421SOL     OW18724   1.449   4.455  12.295  0.2596 -0.4490 -0.1253
 2421SOL    HW118725   1.424   4.488  12.209 -1.4296 -1.3075  0.0461
 2421SOL    HW218726   1.465   4.532  12.350 -2.0915 -1.1046  1.4804
 2422SOL     OW18727   1.191   2.499  17.052 -0.5052  0.4133  0.1124
 2422SOL    HW118728   1.254   2.429  17.071 -1.4187 -0.9656 -1.8517
 2422SOL    HW218729   1.237   2.553  16.987  1.8519 -1.4902  0.2091
 2423SOL     OW18730   3.422   1.124   1.001 -0.1388  1.0980  0.2615
 2423SOL    HW118731   3.465   1.038   1.001 -2.4013 -0.0668  2.4679
 2423SOL    HW218732   3.473   1.156   0.928 -0.4489  0.0581 -0.4071
 2424SOL     OW18733   4.423   2.127   6.754 -0.2245  0.5111  0.3790
 2424SOL    HW118734   4.450   2.215   6.780 -2.0052  0.2864  2.9612
 2424SOL    HW218735   4.445   2.078   6.834 -0.7011  1.3546  1.0261
 2425SOL     OW18736   2.577   4.096   6.977  0.0949 -0.0833  0.2254
 2425SOL    HW118737   2.590   4.168   6.916 -0.5575 -0.0332  0.1428
 2425SOL    HW218738   2.614   4.124   7.061  0.6010  0.4085 -0.1651
 2426SOL     OW18739   4.088   3.804   3.663 -0.2587 -0.2071  0.0717
 2426SOL    HW118740   4.156   3.851   3.613 -1.7244  1.0273 -0.7747
 2426SOL    HW218741   4.104   3.838   3.751 -0.0854 -0.7722  0.2600
 2427SOL     OW18742   1.124   0.186   9.538 -0.4265 -0.4567  0.1531
 2427SOL    HW118743   1.134   0.191   9.633  0.0943 -2.5225  0.2074
 2427SOL    HW218744   1.052   0.249   9.541  0.5739  0.6450  1.5337
 2428SOL     OW18745   1.523   3.007   6.266 -0.7088  0.2689  0.1477
 2428SOL    HW118746   1.507   3.031   6.175  0.2695 -1.0090 -0.3643
 2428SOL    HW218747   1.473   2.926   6.266  2.4266 -1.6543  2.9575
 2429SOL     OW18748   3.354   2.029   5.809  0.0777 -0.5575  0.6921
 2429SOL    HW118749   3.371   2.002   5.899  1.1633  0.7620  0.8921
 2429SOL    HW218750   3.268   2.062   5.835 -0.9176 -0.8764 -2.3089
 2430SOL     OW18751   1.056   2.107   2.176  0.9586 -0.5478 -0.4880
 2430SOL    HW118752   1.058   2.196   2.141  1.3114  0.5491  2.3803
 2430SOL    HW218753   0.961   2.094   2.173  0.8455 -0.1576  1.6714
 2431SOL     OW18754   0.897   4.131   7.697  0.2079 -0.1628  0.1109
 2431SOL    HW118755   0.991   4.129   7.715  0.1582 -0.1800  0.3665
 2431SOL    HW218756   0.892   4.214   7.650  0.7169 -0.4061 -0.3800
 2432SOL     OW18757   2.545   3.615   5.336  0.5384 -0.6437  0.3904
 2432SOL    HW118758   2.600   3.620   5.414  1.1007  0.4761 -0.0840
 2432SOL    HW218759   2.502   3.530   5.338 -1.1227  0.2082  2.2174
 2433SOL     OW18760   0.832   1.795   2.419 -0.4109 -0.3212  0.0967
 2433SOL    HW118761   0.774   1.772   2.492  0.0772 -0.8190  0.3289
 2433SOL    HW218762   0.833   1.716   2.365  0.2658  0.9374 -1.7139
 2434SOL     OW18763   1.159   4.622  11.964 -0.0247  0.0123  0.0084
 2434SOL    HW118764   1.065   4.609  11.980  0.0876  0.0696  0.7068
 2434SOL    HW218765   1.196   4.534  11.967 -0.8956 -0.3294  1.0466
 2435SOL     OW18766   1.055   3.786   3.745  0.0323  0.5528 -0.0113
 2435SOL    HW118767   1.079   3.694   3.733 -1.8321 -0.0608  1.0001
 2435SOL    HW218768   0.978   3.766   3.798 -1.1744 -0.9649 -2.2924
 2436SOL     OW18769   4.302   4.700  17.033  0.1268  0.1919 -0.1928
 2436SOL    HW118770   4.283   4.651  17.113  1.3313  2.4399  1.4562
 2436SOL    HW218771   4.261   4.639  16.971  0.2300 -1.8189  1.7384
 2437SOL     OW18772   0.356   1.190  16.513  0.1194 -0.1086 -0.2298
 2437SOL    HW118773   0.414   1.175  16.588  1.5331  0.9151 -1.1056
 2437SOL    HW218774   0.305   1.268  16.536 -2.0826 -1.5205 -0.3331
 2438SOL     OW18775   3.320   0.620   3.861 -0.3688  0.0099 -0.0258
 2438SOL    HW118776   3.323   0.667   3.945  2.6901 -0.2479 -0.0131
 2438SOL    HW218777   3.406   0.578   3.867  0.4250  1.5252 -0.9474
 2439SOL     OW18778   1.127   4.050   3.146 -0.2720 -0.3701 -0.4499
 2439SOL    HW118779   1.146   3.956   3.152  1.6730  0.0170 -0.3539
 2439SOL    HW218780   1.094   4.059   3.056  0.5744 -0.5968 -0.7871
 2440SOL     OW18781   4.203   3.632   6.663  0.1277  0.4308  0.3911
 2440SOL    HW118782   4.215   3.727   6.657  1.8883  0.1635 -0.1939
 2440SOL    HW218783   4.114   3.626   6.627  0.3039  1.9662 -0.3193
 2441SOL     OW18784   4.067   0.408   6.311 -0.1321  0.0979  0.1715
 2441SOL    HW118785   4.116   0.326   6.303 -2.4779 -1.2105 -0.5746
 2441SOL    HW218786   4.000   0.370   6.367 -0.4191  1.9828  1.0959
 2442SOL     OW18787   3.972   0.393   2.005  0.3031  0.1210 -0.1469
 2442SOL    HW118788   3.980   0.432   2.092 -0.8077 -1.3126  0.5933
 2442SOL    HW218789   3.878   0.382   1.994  0.3121  0.6129 -0.6979
 2443SOL     OW18790   4.156   3.417   2.517  0.4512 -0.4467 -0.0845
 2443SOL    HW118791   4.246   3.385   2.506  0.6597 -0.1501  0.7876
 2443SOL    HW218792   4.112   3.332   2.517  0.3763 -0.4081 -0.3275
 2444SOL     OW18793   0.268   0.094  13.006  0.2449  0.5666  0.6015
 2444SOL    HW118794   0.249   0.049  13.088  1.2319  2.0532  1.6384
 2444SOL    HW218795   0.277   0.021  12.945  1.2570 -0.8883  2.5105
 2445SOL     OW18796   0.314   2.295  10.049 -0.4966 -0.0335  0.1262
 2445SOL    HW118797   0.332   2.284  10.142  2.2768 -0.6281 -0.5034
 2445SOL    HW218798   0.275   2.210  10.029  2.6893 -1.0052 -1.8917
 2446SOL     OW18799   2.274   0.881   7.076  0.1083  0.5366 -0.5856
 2446SOL    HW118800   2.301   0.922   7.158 -0.2531 -0.7714  0.1879
 2446SOL    HW218801   2.254   0.793   7.106  2.5493 -0.2611 -1.3482
 2447SOL     OW18802   4.216   1.656   8.418 -0.0235  0.0494  0.1786
 2447SOL    HW118803   4.278   1.709   8.468  2.2811 -1.4700 -1.0880
 2447SOL    HW218804   4.220   1.689   8.328  1.9694  1.0551  0.6403
 2448SOL     OW18805   2.687   0.731   1.781 -0.8813  0.2297  0.3129
 2448SOL    HW118806   2.659   0.747   1.871  1.7771  1.4650  0.9069
 2448SOL    HW218807   2.777   0.706   1.804 -0.1539  0.4273 -2.3188
 2449SOL     OW18808   3.467   3.097   5.038  0.1990  0.5880 -0.2236
 2449SOL    HW118809   3.438   3.164   4.976 -0.5567 -0.6344 -1.1811
 2449SOL    HW218810   3.555   3.117   5.071  0.1615 -1.5280  1.1750
 2450SOL     OW18811   2.308   1.331   5.647 -0.3307 -0.4528 -0.0925
 2450SOL    HW118812   2.251   1.386   5.701 -1.4364 -1.9006  0.2017
 2450SOL    HW218813   2.254   1.327   5.568 -0.3864  0.0932 -0.0858
 2451SOL     OW18814   0.125   3.545   2.189  0.3251 -0.5060  0.3483
 2451SOL    HW118815   0.082   3.464   2.162  0.6667  0.5920 -3.3812
 2451SOL    HW218816   0.068   3.612   2.150  3.3994  1.2436 -1.1184
 2452SOL     OW18817   2.418   2.624   7.179 -0.2636  0.1149 -0.4413
 2452SOL    HW118818   2.404   2.690   7.111 -0.8030 -1.1822 -1.5901
 2452SOL    HW218819   2.342   2.651   7.230 -0.2233  0.5440 -0.6116
 2453SOL     OW18820   1.875   3.925   8.329  0.0839 -0.2514  0.1506
 2453SOL    HW118821   1.786   3.915   8.362 -0.9265  1.1019 -2.2052
 2453SOL    HW218822   1.924   3.920   8.411 -0.4962  0.1692  0.5257
 2454SOL     OW18823   3.793   0.968  13.635 -0.4245 -0.1462 -0.4271
 2454SOL    HW118824   3.876   0.969  13.587 -0.1392 -0.4359  0.0629
 2454SOL    HW218825   3.790   1.059  13.664  2.9073 -0.4121  0.6956
 2455SOL     OW18826   3.321   3.912   7.793 -0.1860  0.2751  0.0916
 2455SOL    HW118827   3.324   3.911   7.697  0.2088  1.3609  0.0999
 2455SOL    HW218828   3.228   3.918   7.815  0.1612 -1.1693  1.9913
 2456SOL     OW18829   2.228   2.723   5.000 -0.2648 -0.2207  0.3271
 2456SOL    HW118830   2.290   2.775   4.949  0.1490  0.4691  1.5252
 2456SOL    HW218831   2.246   2.639   4.958  0.4939  0.3114 -0.4046
 2457SOL     OW18832   1.284   0.884   0.004  0.3799  0.4489  0.3752
 2457SOL    HW118833   1.217   0.953  17.700 -1.3362 -1.2280  0.4288
 2457SOL    HW218834   1.326   0.909   0.086 -0.4367  1.8240  0.3908
 2458SOL     OW18835   1.741   3.032   6.724  0.0387  0.2508  0.6442
 2458SOL    HW118836   1.681   3.073   6.787  0.4189 -1.5778  2.1952
 2458SOL    HW218837   1.740   3.085   6.645  0.2168  0.1886  0.6013
 2459SOL     OW18838   4.412   2.280   4.526 -0.0682 -0.4563  0.3010
 2459SOL    HW118839   4.455   2.361   4.500 -0.5365  0.3167  1.9716
 2459SOL    HW218840   4.326   2.297   4.487 -0.0990 -0.4570  0.3692
 2460SOL     OW18841   1.381   4.457  10.906  0.2458  0.8434 -0.3474
 2460SOL    HW118842   1.369   4.542  10.948  0.9709  1.2397 -0.9251
 2460SOL    HW218843   1.313   4.404  10.948  0.1861  1.0233 -0.2180
 2461SOL     OW18844   1.018   2.976   1.957  0.2129 -0.0903 -0.1144
 2461SOL    HW118845   0.968   3.029   2.018  0.2310 -1.7155  1.3142
 2461SOL    HW218846   1.109   2.998   1.978  0.0475 -1.0962  1.6058
 2462SOL     OW18847   3.595   0.647   2.429 -0.1016  0.1780 -0.2616
 2462SOL    HW118848   3.624   0.606   2.511  0.5111 -1.8026 -1.4701
 2462SOL    HW218849   3.541   0.579   2.388 -0.1002  1.1823 -1.9153
 2463SOL     OW18850   3.876   2.164   7.633  0.3288 -0.0175  0.3766
 2463SOL    HW118851   3.837   2.150   7.548 -2.0055 -0.3765  1.5108
 2463SOL    HW218852   3.845   2.248   7.668 -1.0508 -1.1369  1.8524
 2464SOL     OW18853   1.450   0.003  10.980  0.1879 -0.0377 -0.1363
 2464SOL    HW118854   1.419   0.032  10.894  0.8505  0.5395 -0.1773
 2464SOL    HW218855   1.511   0.073  11.002 -1.1086  0.6724  1.1196
 2465SOL     OW18856   2.688   0.923   3.396  0.1735 -0.5372 -0.9220
 2465SOL    HW118857   2.689   0.828   3.386 -1.7854 -0.5573 -0.8360
 2465SOL    HW218858   2.634   0.945   3.321 -1.1284  0.6669  0.3694
 2466SOL     OW18859   1.379   1.429   2.584 -0.3164 -0.5372  0.3856
 2466SOL    HW118860   1.462   1.384   2.598  0.0063 -0.1612 -0.3318
 2466SOL    HW218861   1.386   1.432   2.489 -1.0312 -2.6538  0.2731
 2467SOL     OW18862   0.148   3.772   5.176 -0.0033 -0.5958  0.6274
 2467SOL    HW118863   0.065   3.783   5.130  0.3633  1.3209  0.4345
 2467SOL    HW218864   0.173   3.693   5.129  0.8426  0.9950 -1.5892
 2468SOL     OW18865   2.070   1.042   4.837 -0.6875  0.2196 -0.3259
 2468SOL    HW118866   2.002   0.977   4.821 -0.2777 -0.4576  0.7008
 2468SOL    HW218867   2.035   1.118   4.790 -0.6357 -0.9986 -2.3434
 2469SOL     OW18868   3.209   0.484   5.190  0.2136  0.1259 -0.5104
 2469SOL    HW118869   3.120   0.510   5.211 -0.4049 -2.7196  0.3616
 2469SOL    HW218870   3.249   0.481   5.277 -2.1763  4.1271  0.7358
 2470SOL     OW18871   1.905   1.216   7.132 -0.0035 -0.7703 -0.1418
 2470SOL    HW118872   1.956   1.175   7.201  0.1267  2.1836  1.5067
 2470SOL    HW218873   1.968   1.211   7.060 -0.0849  1.0094 -0.3507
 2471SOL     OW18874   3.260   4.690   8.609 -0.3696 -0.4256  0.0846
 2471SOL    HW118875   3.354   4.683   8.592 -0.5013  1.9587 -1.6964
 2471SOL    HW218876   3.232   4.724   8.524 -1.2279 -1.7442 -0.1606
 2472SOL     OW18877   1.509   3.239   1.941  0.2042 -0.6256  0.0247
 2472SOL    HW118878   1.583   3.222   2.000 -1.1152 -1.3622  1.4663
 2472SOL    HW218879   1.501   3.333   1.961 -0.1709 -0.5604 -0.4446
 2473SOL     OW18880   4.060   3.413   3.247  0.0151 -0.3308 -0.3603
 2473SOL    HW118881   4.095   3.446   3.330 -0.3000  1.0024 -0.7590
 2473SOL    HW218882   3.964   3.417   3.253  0.2361  2.4792  1.4907
 2474SOL     OW18883   4.154   2.505   3.576 -0.3691 -0.5647 -0.1056
 2474SOL    HW118884   4.068   2.506   3.534  0.1413 -1.0335 -1.1604
 2474SOL    HW218885   4.201   2.520   3.493  0.3581 -0.0008  0.4140
 2475SOL     OW18886   1.772   0.943  10.832 -0.2509 -0.1585  0.0808
 2475SOL    HW118887   1.796   0.977  10.918  0.0613  0.3383 -0.2007
 2475SOL    HW218888   1.684   0.920  10.862 -0.0949  0.9473  1.3830
 2476SOL     OW18889   2.103   3.584   3.396  0.2702 -0.1902 -0.0042
 2476SOL    HW118890   2.037   3.638   3.441 -0.0686 -0.1532 -0.5477
 2476SOL    HW218891   2.055   3.561   3.316  1.1079  1.7000 -1.0405
 2477SOL     OW18892   1.164   3.168   1.394 -0.4898  0.2812 -0.0647
 2477SOL    HW118893   1.116   3.243   1.429  0.5490  0.2219  1.4651
 2477SOL    HW218894   1.199   3.140   1.479 -0.5891 -0.2061 -0.1857
 2478SOL     OW18895   2.623   2.121  13.504 -0.1066 -0.3033 -0.3704
 2478SOL    HW118896   2.690   2.103  13.437 -0.1461 -1.4708 -0.1026
 2478SOL    HW218897   2.577   2.037  13.512  0.1851 -0.2930  1.4494
 2479SOL     OW18898   0.257   4.011   5.276  0.0983  0.2997 -0.2881
 2479SOL    HW118899   0.217   3.928   5.249 -0.3474  0.8338 -1.2654
 2479SOL    HW218900   0.188   4.078   5.279  0.4844  0.7645 -1.8480
 2480SOL     OW18901   3.907   1.481   4.150 -0.2871  0.1176 -0.2381
 2480SOL    HW118902   3.948   1.409   4.198 -2.0551 -1.0202 -0.4193
 2480SOL    HW218903   3.861   1.531   4.218 -1.5338 -1.9052  0.4372
 2481SOL     OW18904   4.186   0.644   8.443  0.2363 -0.0394 -0.2850
 2481SOL    HW118905   4.281   0.640   8.440  0.1707 -1.4961 -0.3166
 2481SOL    HW218906   4.170   0.550   8.434  2.3256 -0.7227  3.4456
 2482SOL     OW18907   1.271   4.471   4.652  0.0508  0.0187  0.4216
 2482SOL    HW118908   1.316   4.492   4.570  1.4743 -1.4164  0.8175
 2482SOL    HW218909   1.345   4.440   4.705 -2.8154 -2.2566  3.0463
 2483SOL     OW18910   1.163   1.874  14.679  0.0902  0.0748 -0.0330
 2483SOL    HW118911   1.136   1.815  14.749 -0.2736  0.8369  0.4706
 2483SOL    HW218912   1.218   1.938  14.724  0.6731  0.0044 -0.6529
 2484SOL     OW18913   0.669   3.191   5.383  0.3801 -0.2138 -0.1428
 2484SOL    HW118914   0.702   3.265   5.331  0.3013 -0.9204 -1.2089
 2484SOL    HW218915   0.597   3.172   5.323  0.8271  1.6491 -1.2964
 2485SOL     OW18916   4.512   2.036   3.051  0.0828 -0.2621  0.2211
 2485SOL    HW118917   4.582   2.084   3.006  0.0758  0.6098  1.1367
 2485SOL    HW218918   4.476   2.099   3.114 -2.0360 -2.1517  0.8631
 2486SOL     OW18919   3.044   2.782   5.042  0.1659  0.4753  0.1623
 2486SOL    HW118920   3.028   2.688   5.045  0.0225  0.5107  0.5233
 2486SOL    HW218921   3.101   2.787   5.119  0.9940  2.6596 -0.5897
 2487SOL     OW18922   1.694   0.830   3.484 -0.2899  0.4999 -1.0221
 2487SOL    HW118923   1.607   0.839   3.444 -0.1073 -0.8946 -1.7304
 2487SOL    HW218924   1.723   0.921   3.494 -1.2565  0.7995 -0.9195
 2488SOL     OW18925   1.043   2.240   1.426  0.1938  0.5174  0.2623
 2488SOL    HW118926   0.991   2.316   1.451 -1.0142 -0.4342  0.6281
 2488SOL    HW218927   1.057   2.259   1.334 -0.4363 -0.6865 -0.0762
 2489SOL     OW18928   0.525   4.515   2.662  0.5388 -0.2836 -0.3167
 2489SOL    HW118929   0.476   4.459   2.602  1.6695  2.3428 -3.7336
 2489SOL    HW218930   0.480   4.512   2.746  0.6344 -0.8237 -0.2851
 2490SOL     OW18931   1.298   1.607   0.720 -0.2804 -0.1671 -0.5352
 2490SOL    HW118932   1.327   1.654   0.798  1.6896 -1.3528 -0.5558
 2490SOL    HW218933   1.343   1.523   0.729  0.0428 -0.0562 -1.1870
 2491SOL     OW18934   4.167   1.736   6.890 -0.1161  0.3732 -0.1340
 2491SOL    HW118935   4.235   1.686   6.935 -1.3370  0.6858  2.0408
 2491SOL    HW218936   4.174   1.820   6.935  0.7320  0.8887 -1.2603
 2492SOL     OW18937   3.296   2.225   3.102 -0.1496 -0.3538 -0.0384
 2492SOL    HW118938   3.259   2.313   3.108 -1.3415 -0.8993  0.6842
 2492SOL    HW218939   3.272   2.193   3.189 -0.0176 -0.9333 -0.2198
 2493SOL     OW18940   4.594   4.324   8.569 -0.2175  0.6589 -0.5334
 2493SOL    HW118941   4.625   4.412   8.595 -1.8535  1.0464  0.0978
 2493SOL    HW218942   4.546   4.344   8.489 -0.6444  1.5333 -0.0639
 2494SOL     OW18943   2.929   1.343   7.328 -0.1723 -0.6118 -0.1152
 2494SOL    HW118944   2.883   1.418   7.366  1.8295  1.6602 -2.2199
 2494SOL    HW218945   2.995   1.323   7.395 -0.6537 -1.3511  0.1474
 2495SOL     OW18946   1.788   2.136   2.835 -0.2386  0.0335  0.1215
 2495SOL    HW118947   1.835   2.132   2.751 -0.2251  2.9191 -0.0137
 2495SOL    HW218948   1.789   2.042   2.855 -0.5281 -0.6268 -2.8640
 2496SOL     OW18949   3.467   3.644  16.890 -0.2552  0.2735 -0.0774
 2496SOL    HW118950   3.405   3.575  16.868  0.0877 -0.4304  1.1609
 2496SOL    HW218951   3.482   3.626  16.983  0.7939  1.4397 -0.0189
 2497SOL     OW18952   3.733   3.631  16.803 -0.7405  0.3349  0.9970
 2497SOL    HW118953   3.642   3.661  16.798  0.0176  2.6801  1.2964
 2497SOL    HW218954   3.768   3.672  16.724 -0.4149 -0.0004  0.9703
 2498SOL     OW18955   2.843   1.296  12.003 -0.2298  0.2988  0.2983
 2498SOL    HW118956   2.926   1.312  11.957 -0.0389  2.1990  1.3246
 2498SOL    HW218957   2.858   1.204  12.026  0.3354  0.9011  2.3253
 2499SOL     OW18958   0.255   2.252  17.324  0.4037  0.3488  0.4312
 2499SOL    HW118959   0.321   2.283  17.262 -0.9738  0.4933 -0.9553
 2499SOL    HW218960   0.175   2.251  17.272 -1.9334 -1.6179  4.0105
 2500SOL     OW18961   2.183   2.907   7.763 -0.3125  0.4840  0.5610
 2500SOL    HW118962   2.177   2.844   7.691  2.2013 -0.3031  1.0588
 2500SOL    HW218963   2.213   2.991   7.728 -0.5759  0.6222  0.6644
 2501SOL     OW18964   2.865   2.433  17.002  0.5854 -0.3554 -0.3403
 2501SOL    HW118965   2.904   2.466  17.083 -0.1685  0.9235 -0.4943
 2501SOL    HW218966   2.889   2.503  16.942  0.2306  1.0497  1.1574
 2502SOL     OW18967   0.661   0.042   2.604  0.8481  0.7293  0.3310
 2502SOL    HW118968   0.628   4.681   2.629  2.4382  0.0524  0.1167
 2502SOL    HW218969   0.731   0.005   2.550  0.1035  2.5669 -1.9060
 2503SOL     OW18970   1.230   3.357   3.439 -0.0272  0.3474  0.1164
 2503SOL    HW118971   1.243   3.448   3.412 -0.5582  0.5910  0.6798
 2503SOL    HW218972   1.249   3.299   3.365  1.9239  0.0167  0.8732
 2504SOL     OW18973   3.532   1.405   1.988 -0.6047 -0.4390 -0.0919
 2504SOL    HW118974   3.561   1.473   2.049  1.6105 -1.9731  0.5317
 2504SOL    HW218975   3.451   1.447   1.958 -0.8567 -1.1813 -0.4465
 2505SOL     OW18976   1.524   0.822  12.608 -0.1421  0.3711 -0.7880
 2505SOL    HW118977   1.482   0.837  12.693 -0.2842 -0.9803 -0.6237
 2505SOL    HW218978   1.450   0.788  12.558 -0.1731  0.2415 -0.6562
 2506SOL     OW18979   0.567   3.640   6.746  0.6092 -0.3669  0.1925
 2506SOL    HW118980   0.554   3.686   6.663  1.0423 -0.2233  0.2039
 2506SOL    HW218981   0.643   3.685   6.782  0.2630 -1.5839  2.4680
 2507SOL     OW18982   1.933   3.298   8.245 -0.2995  0.5264 -0.2671
 2507SOL    HW118983   1.892   3.305   8.331  0.6577 -3.0913  0.5040
 2507SOL    HW218984   2.021   3.274   8.272 -0.6415  1.0342  1.3129
 2508SOL     OW18985   3.696   4.156   5.970  0.1614 -0.1630 -0.6944
 2508SOL    HW118986   3.702   4.120   6.059 -0.4856 -2.0457 -1.3991
 2508SOL    HW218987   3.733   4.074   5.937  0.5824 -0.9163  1.6456
 2509SOL     OW18988   0.591   3.076   2.716  0.1591  0.0139 -0.2743
 2509SOL    HW118989   0.593   3.146   2.781 -1.6600  1.1060 -1.3822
 2509SOL    HW218990   0.619   2.999   2.767 -0.8698  1.0762  1.9157
 2510SOL     OW18991   1.703   1.558   5.676  0.1587  0.1040 -0.2544
 2510SOL    HW118992   1.619   1.513   5.671  0.4581 -0.3426 -1.3457
 2510SOL    HW218993   1.746   1.535   5.593 -2.2415 -0.8982 -1.2139
 2511SOL     OW18994   0.929   1.244   3.017  0.0203 -0.3421  0.3974
 2511SOL    HW118995   0.907   1.201   2.934  0.6179  0.3878 -0.1275
 2511SOL    HW218996   0.857   1.304   3.037 -0.3617 -0.4615 -0.6000
 2512SOL     OW18997   2.143   4.243   4.318  0.6500 -0.7307  0.2489
 2512SOL    HW118998   2.066   4.225   4.265  0.8605  1.2322 -0.7071
 2512SOL    HW218999   2.169   4.331   4.291 -3.4109 -0.3223 -2.3759
 2513SOL     OW19000   2.898   4.638   1.757  0.5700  0.3424 -0.0423
 2513SOL    HW119001   2.832   4.700   1.788  1.9880  1.9214 -0.1843
 2513SOL    HW219002   2.966   4.694   1.721 -0.7033  1.0726 -1.3513
 2514SOL     OW19003   2.042   2.153  17.315  0.1822  0.0376 -0.6761
 2514SOL    HW119004   2.068   2.191  17.231  4.1706 -0.4012  0.3228
 2514SOL    HW219005   2.041   2.227  17.376 -0.8368 -0.9553  0.5071
 2515SOL     OW19006   0.311   0.048  10.278  0.0798 -0.3959 -0.0173
 2515SOL    HW119007   0.372   4.706  10.307  0.9367 -0.2993 -1.6120
 2515SOL    HW219008   0.335   0.122  10.334 -0.9656  0.6893 -0.9755
 2516SOL     OW19009   2.309   3.284   9.136  0.3768 -0.0733  0.3722
 2516SOL    HW119010   2.398   3.291   9.171  0.3352 -0.3468  0.5274
 2516SOL    HW219011   2.319   3.237   9.053  0.2955 -0.3005  0.4915
 2517SOL     OW19012   4.654   0.056   8.192 -0.1016  0.5487  0.0205
 2517SOL    HW119013   4.702   0.044   8.273  1.0233  0.1153 -0.7133
 2517SOL    HW219014   0.001   0.030   8.135 -0.2215  0.0587  0.0955
 2518SOL     OW19015   3.465   3.163   6.277  0.5632  0.2234  0.4703
 2518SOL    HW119016   3.399   3.102   6.243  1.3860 -0.6302  0.3891
 2518SOL    HW219017   3.532   3.094   6.283  0.1911 -0.3499 -1.7340
 2519SOL     OW19018   2.475   1.066  13.679  0.2105 -0.2225 -0.5075
 2519SOL    HW119019   2.570   1.066  13.688  0.1137 -1.3485  0.4610
 2519SOL    HW219020   2.450   0.978  13.707  3.7723 -1.1034 -0.0496
 2520SOL     OW19021   1.170   4.423   8.200  0.5463  0.0983  0.0313
 2520SOL    HW119022   1.090   4.395   8.155  1.4668 -1.2915 -0.7441
 2520SOL    HW219023   1.145   4.451   8.288  0.5074  0.5617 -0.1297
 2521SOL     OW19024   2.365   0.653   1.306 -0.0888  0.0800 -0.3306
 2521SOL    HW119025   2.282   0.615   1.337  1.1136 -1.3526  1.1403
 2521SOL    HW219026   2.356   0.746   1.330 -0.1839 -0.1076  0.3714
 2522SOL     OW19027   1.035   2.468   1.731  0.2741  0.1651 -0.5587
 2522SOL    HW119028   1.020   2.545   1.785  0.9311  1.4894 -2.2526
 2522SOL    HW219029   1.116   2.494   1.686  1.0937  0.2039  0.9518
 2523SOL     OW19030   1.735   0.982   7.048 -0.6099  0.1892 -0.0021
 2523SOL    HW119031   1.707   0.959   7.136 -0.6877 -2.1811 -0.6351
 2523SOL    HW219032   1.831   0.984   7.057 -0.3598 -1.3510 -2.1336
 2524SOL     OW19033   0.588   0.811   4.967 -0.2528  0.0453 -0.0123
 2524SOL    HW119034   0.550   0.748   5.029 -1.6391  0.1864 -0.7080
 2524SOL    HW219035   0.672   0.766   4.963 -0.4959 -0.3823 -0.3223
 2525SOL     OW19036   0.992   0.438   5.638  0.0631 -0.2819  0.2938
 2525SOL    HW119037   0.935   0.514   5.651 -2.2989 -1.7398 -1.6508
 2525SOL    HW219038   0.998   0.393   5.723  0.5336  1.5797  1.2543
 2526SOL     OW19039   2.644   4.300   6.819 -0.2561  0.4461  0.6575
 2526SOL    HW119040   2.679   4.266   6.737  2.0876  2.5818  0.7388
 2526SOL    HW219041   2.563   4.341   6.787 -0.7745 -0.7565  0.4350
 2527SOL     OW19042   4.105   0.738   8.189  0.2153  0.4513 -0.0838
 2527SOL    HW119043   4.138   0.681   8.258 -0.3606  1.5863  1.1184
 2527SOL    HW219044   4.060   0.807   8.238 -0.4709 -0.4574  0.5376
 2528SOL     OW19045   0.805   3.730   5.202 -0.8931  0.5780 -0.2585
 2528SOL    HW119046   0.777   3.654   5.151 -0.8471  0.4518 -0.0946
 2528SOL    HW219047   0.893   3.757   5.176 -0.7537 -1.2822 -1.6827
 2529SOL     OW19048   0.028   2.835   6.415 -0.3613 -0.2373  0.3524
 2529SOL    HW119049   0.030   2.763   6.351 -1.2244 -0.6995  0.8398
 2529SOL    HW219050   4.683   2.881   6.369 -0.2580 -1.2647 -0.8625
 2530SOL     OW19051   1.502   0.865   8.982 -0.1142  0.0163 -0.1943
 2530SOL    HW119052   1.462   0.781   8.957 -0.8957  0.4611 -0.4438
 2530SOL    HW219053   1.552   0.892   8.906  0.6266 -0.4528  0.1312
 2531SOL     OW19054   3.233   4.689  16.624 -0.0972 -0.5214  0.0426
 2531SOL    HW119055   3.223   4.685  16.719  0.4638  0.0193  0.1211
 2531SOL    HW219056   3.159   0.024  16.616  0.2021 -0.3534 -1.4478
 2532SOL     OW19057   4.288   4.456   8.629 -0.2516  0.2367  0.7191
 2532SOL    HW119058   4.286   4.466   8.724 -1.6643  0.4981  0.6542
 2532SOL    HW219059   4.322   4.367   8.631 -2.4542 -0.5913  1.2244
 2533SOL     OW19060   0.551   3.605   7.819  0.2779 -0.4041 -0.0548
 2533SOL    HW119061   0.470   3.656   7.813  0.2128 -0.2076  2.2373
 2533SOL    HW219062   0.614   3.664   7.778  0.7845 -0.0036  1.2850
 2534SOL     OW19063   4.036   0.030   5.552 -0.1993 -0.0474  0.0085
 2534SOL    HW119064   4.033   0.089   5.477  1.1590 -0.7989 -0.6316
 2534SOL    HW219065   4.019   0.084   5.629  1.6580 -0.8915  0.9925
 2535SOL     OW19066   3.032   4.058   1.092 -0.2239  0.2840 -0.1086
 2535SOL    HW119067   3.118   4.017   1.098  0.0475  0.7867 -0.5620
 2535SOL    HW219068   3.028   4.100   1.006 -0.0818 -0.2375 -0.3677
 2536SOL     OW19069   3.294   4.060  15.051  0.4219 -0.2039 -0.4617
 2536SOL    HW119070   3.292   4.124  14.980  1.4607 -1.2523 -1.4225
 2536SOL    HW219071   3.277   4.120  15.124  0.3103  0.2541 -0.8605
 2537SOL     OW19072   2.659   2.647   7.988  0.3649  0.6955 -0.4814
 2537SOL    HW119073   2.597   2.657   8.060 -0.6235  0.6082 -1.3356
 2537SOL    HW219074   2.691   2.558   8.002 -1.2812  0.3214  0.9651
 2538SOL     OW19075   2.098   0.137   2.462 -0.1389  0.2307  0.7049
 2538SOL    HW119076   2.147   0.058   2.484  1.9640  0.7595 -2.1156
 2538SOL    HW219077   2.020   0.127   2.517 -3.1562  2.9360 -3.0359
 2539SOL     OW19078   4.424   2.787   8.553 -0.3121 -0.0580 -0.3514
 2539SOL    HW119079   4.405   2.858   8.614 -2.5014 -2.3929  1.7060
 2539SOL    HW219080   4.379   2.815   8.473  0.3550  2.2846  0.1082
 2540SOL     OW19081   0.408   0.427  15.275 -0.2852  0.3535  0.4090
 2540SOL    HW119082   0.412   0.350  15.332 -2.1996 -0.7176 -0.9198
 2540SOL    HW219083   0.315   0.437  15.255 -0.7803  0.8722  3.0089
 2541SOL     OW19084   1.767   0.873   6.179  0.2858 -0.3627  0.4481
 2541SOL    HW119085   1.704   0.946   6.181 -0.6001 -1.1487  1.0169
 2541SOL    HW219086   1.799   0.870   6.269 -0.6185 -2.1610  0.7173
 2542SOL     OW19087   1.105   2.806   2.457 -0.2161 -0.0709  0.2679
 2542SOL    HW119088   1.028   2.785   2.404  0.5029  0.5288 -1.0082
 2542SOL    HW219089   1.097   2.751   2.535 -0.6232  0.5871  0.6935
 2543SOL     OW19090   1.192   4.007   3.605  0.0778 -0.6182  0.3618
 2543SOL    HW119091   1.223   4.062   3.677  0.8127 -1.5408  0.7525
 2543SOL    HW219092   1.176   3.923   3.647 -2.5002 -0.6683 -0.7335
 2544SOL     OW19093   1.416   0.936   1.091 -0.7703  0.1898  0.1746
 2544SOL    HW119094   1.404   0.980   1.175 -0.9524 -2.1740  1.3827
 2544SOL    HW219095   1.330   0.901   1.069 -0.8179 -0.3133  1.2073
 2545SOL     OW19096   3.089   3.224   7.905 -0.0462  0.0201 -0.2172
 2545SOL    HW119097   3.121   3.289   7.842 -1.1761  1.5701  0.8145
 2545SOL    HW219098   3.041   3.273   7.971  1.0916 -1.2136  1.5078
 2546SOL     OW19099   1.902   4.212  11.698  0.2120 -0.1873 -0.2807
 2546SOL    HW119100   1.854   4.249  11.624 -0.2877  1.6971  0.9711
 2546SOL    HW219101   1.990   4.203  11.662  0.1245 -1.6881 -0.0982
 2547SOL     OW19102   1.456   0.460   1.378 -0.5571  0.0602  0.4096
 2547SOL    HW119103   1.401   0.522   1.331 -1.8536 -2.5746 -1.5366
 2547SOL    HW219104   1.530   0.465   1.317 -0.3591 -0.7113  0.5850
 2548SOL     OW19105   2.747   0.782   3.054 -0.0648  0.0255 -0.0911
 2548SOL    HW119106   2.760   0.797   2.960 -0.3979 -0.1465 -0.1634
 2548SOL    HW219107   2.812   0.841   3.091 -1.1340  1.4293 -0.4707
 2549SOL     OW19108   0.243   2.403   3.375 -0.1250 -0.5252  0.3428
 2549SOL    HW119109   0.181   2.355   3.320  1.7891 -2.1428 -0.3806
 2549SOL    HW219110   0.317   2.343   3.384 -1.7820 -2.6756 -0.2538
 2550SOL     OW19111   1.361   1.359   8.470  0.6426  0.4833  0.2773
 2550SOL    HW119112   1.283   1.410   8.447 -0.5395 -1.4202  0.0536
 2550SOL    HW219113   1.369   1.291   8.403  1.7871  0.5769  0.3139
 2551SOL     OW19114   3.781   0.690   6.998 -0.5865 -0.4723  0.1784
 2551SOL    HW119115   3.706   0.644   7.036  0.6202 -0.4427  2.5381
 2551SOL    HW219116   3.764   0.774   7.041 -1.7523 -0.2267 -0.7370
 2552SOL     OW19117   1.259   1.843   9.145 -0.4276  0.1163  0.1723
 2552SOL    HW119118   1.251   1.819   9.238 -1.4652 -1.9192 -0.4473
 2552SOL    HW219119   1.333   1.790   9.114  0.1247  3.1058 -3.5865
 2553SOL     OW19120   0.152   1.362  12.687  0.2467  0.7131 -0.1581
 2553SOL    HW119121   0.231   1.365  12.633 -0.4874  2.2097 -1.1557
 2553SOL    HW219122   0.130   1.454  12.702 -1.4608  0.4081 -0.7809
 2554SOL     OW19123   2.660   1.035   9.835 -0.1127  0.6712  0.0352
 2554SOL    HW119124   2.738   1.013   9.783  0.3363  0.2806  0.8847
 2554SOL    HW219125   2.653   0.973   9.907 -1.3910  2.9799  1.8891
 2555SOL     OW19126   3.356   1.080   8.250 -0.1719 -0.0110  0.1829
 2555SOL    HW119127   3.346   1.075   8.155  0.5243 -2.0179  0.2116
 2555SOL    HW219128   3.339   1.174   8.259  2.5292  0.5686 -0.6847
 2556SOL     OW19129   4.223   1.986  16.130  0.1162 -0.9671 -0.2363
 2556SOL    HW119130   4.133   1.963  16.108 -1.3572  0.9753  3.6692
 2556SOL    HW219131   4.236   2.068  16.082  1.9829 -2.1568 -1.7360
 2557SOL     OW19132   4.661   0.262   5.704  0.5800 -0.4328  0.0741
 2557SOL    HW119133   4.635   0.231   5.617  0.7542  2.0607 -0.8734
 2557SOL    HW219134   4.662   0.356   5.683  0.5178 -0.1744  1.2285
 2558SOL     OW19135   0.797   4.601   3.559  0.2616  0.0989  0.1390
 2558SOL    HW119136   0.778   4.584   3.652  0.7276 -1.7712 -0.1093
 2558SOL    HW219137   0.838   4.518   3.534 -1.0105 -0.3156 -0.5789
 2559SOL     OW19138   4.278   0.714   8.967 -0.0109  0.4354  0.0081
 2559SOL    HW119139   4.366   0.729   9.002  0.3873 -1.9952  0.0573
 2559SOL    HW219140   4.289   0.679   8.878 -0.4428  0.5784 -0.1030
 2560SOL     OW19141   1.327   4.700  10.604 -0.1109  1.1242  0.0815
 2560SOL    HW119142   1.375   0.039  10.656 -0.4154  0.2836  1.4033
 2560SOL    HW219143   1.313   0.021  10.521 -0.5173 -1.4988 -1.3254
 2561SOL     OW19144   2.133   0.281   3.727 -0.1411 -0.0731  0.5314
 2561SOL    HW119145   2.208   0.292   3.786  0.9016  2.8194 -1.3474
 2561SOL    HW219146   2.064   0.258   3.789 -1.8470 -0.6330 -1.5859
 2562SOL     OW19147   3.488   3.795   4.883 -0.2265  0.1065 -0.8001
 2562SOL    HW119148   3.556   3.779   4.818 -0.5843 -0.8834 -0.9354
 2562SOL    HW219149   3.417   3.825   4.826 -0.3311  1.1039 -0.1263
 2563SOL     OW19150   2.164   1.033  16.699 -0.3143 -0.4690  0.0353
 2563SOL    HW119151   2.074   1.004  16.714 -0.6639 -0.0472 -1.2352
 2563SOL    HW219152   2.193   0.979  16.625 -0.0791  1.5286 -1.3226
 2564SOL     OW19153   2.434   1.109   7.738  0.1218 -0.0644  0.0410
 2564SOL    HW119154   2.521   1.076   7.714  0.1193 -0.6161  0.7787
 2564SOL    HW219155   2.460   1.200   7.747  2.0455 -0.2679 -3.3253
 2565SOL     OW19156   4.238   3.036   6.830 -0.1134 -0.0165  0.5438
 2565SOL    HW119157   4.185   3.098   6.880 -0.5446  0.6937 -0.7820
 2565SOL    HW219158   4.285   2.994   6.902 -1.4555 -0.1506  1.3341
 2566SOL     OW19159   1.843   4.589   0.856  0.3197  0.1275  0.0853
 2566SOL    HW119160   1.753   4.621   0.847  0.2782  0.6065  2.1901
 2566SOL    HW219161   1.885   4.591   0.770  0.0563 -3.2199 -0.1322
 2567SOL     OW19162   0.602   1.763   9.197  0.0747 -0.0766  0.3659
 2567SOL    HW119163   0.655   1.764   9.277  0.2173 -1.9917  0.3027
 2567SOL    HW219164   0.645   1.689   9.154 -0.0107 -0.3739  0.7828
 2568SOL     OW19165   1.632   4.357  15.910 -0.2650  0.6599 -0.3091
 2568SOL    HW119166   1.692   4.431  15.907  0.7046 -0.2045 -2.1334
 2568SOL    HW219167   1.559   4.391  15.963 -1.4426 -1.7503 -0.3833
 2569SOL     OW19168   0.849   3.805   5.981  0.3617  0.0941 -0.1099
 2569SOL    HW119169   0.813   3.884   6.020 -1.3162 -0.6691 -0.1407
 2569SOL    HW219170   0.943   3.818   5.995  0.6254 -1.6403 -0.2695
 2570SOL     OW19171   4.055   0.293  16.180  0.0285  0.1363  0.0599
 2570SOL    HW119172   4.073   0.259  16.268 -1.6907 -2.7290 -0.6825
 2570SOL    HW219173   3.972   0.248  16.164 -0.0273  0.7483 -1.3480
 2571SOL     OW19174   2.206   3.233   3.743  0.0706 -0.1140 -0.1556
 2571SOL    HW119175   2.269   3.305   3.746 -0.6824  0.5751 -0.7829
 2571SOL    HW219176   2.159   3.245   3.825 -1.3107  0.6617 -1.0639
 2572SOL     OW19177   4.006   2.185   6.125  0.0525  0.0424  0.4767
 2572SOL    HW119178   4.060   2.243   6.179  0.8573 -0.7936  0.5596
 2572SOL    HW219179   3.962   2.134   6.193 -1.6193 -1.2794 -1.5961
 2573SOL     OW19180   2.757   3.494   3.350  0.1088 -0.3571  0.8033
 2573SOL    HW119181   2.776   3.408   3.311  0.1292 -0.9392  2.0802
 2573SOL    HW219182   2.825   3.548   3.311 -0.4361 -0.1369  0.1721
 2574SOL     OW19183   2.620   0.526  15.104  0.0364 -0.1174 -0.1257
 2574SOL    HW119184   2.672   0.600  15.135  1.6596 -0.6905 -1.4546
 2574SOL    HW219185   2.656   0.497  15.020  2.1473 -0.7497  1.0005
 2575SOL     OW19186   0.390   3.242   2.920 -0.5385  0.1163 -0.0979
 2575SOL    HW119187   0.304   3.208   2.943 -1.0458  0.2575 -1.7404
 2575SOL    HW219188   0.363   3.311   2.859 -0.1536  0.3445 -0.0098
 2576SOL     OW19189   1.677   4.174   5.904  0.4999 -0.1619 -0.1938
 2576SOL    HW119190   1.642   4.091   5.935  0.2817 -0.8245 -2.1796
 2576SOL    HW219191   1.735   4.199   5.975 -0.1092 -0.2124  0.3209
 2577SOL     OW19192   2.077   4.094  11.260  0.3511  0.3689  0.0568
 2577SOL    HW119193   2.003   4.148  11.233 -0.3818 -0.4073  0.4874
 2577SOL    HW219194   2.109   4.065  11.175  0.1706 -2.4997  0.9486
 2578SOL     OW19195   2.028   0.665   5.233  0.8263  0.0808  0.1495
 2578SOL    HW119196   2.060   0.754   5.222  0.2809 -0.1675 -3.4523
 2578SOL    HW219197   1.993   0.655   5.144  0.6738  0.6339  0.1471
 2579SOL     OW19198   0.661   2.630   3.965  0.1100  0.8283 -0.4897
 2579SOL    HW119199   0.609   2.620   3.886  2.2891  2.2971 -2.1109
 2579SOL    HW219200   0.663   2.546   4.011  1.2370  1.0541 -0.1206
 2580SOL     OW19201   0.847   0.668  11.533 -0.3880  0.3901 -0.1989
 2580SOL    HW119202   0.887   0.592  11.490  1.3311  0.0665  1.9840
 2580SOL    HW219203   0.784   0.695  11.466 -0.8727 -0.4635 -0.0948
 2581SOL     OW19204   3.081   1.734   9.910 -0.1692  0.2177 -0.5765
 2581SOL    HW119205   3.029   1.654   9.921 -1.9780  1.6667  1.2449
 2581SOL    HW219206   3.048   1.768   9.826  0.9784  0.9582 -0.7265
 2582SOL     OW19207   1.243   3.845  11.526  0.0617  0.3788 -0.3622
 2582SOL    HW119208   1.260   3.888  11.610  0.6285 -0.8353  0.1493
 2582SOL    HW219209   1.226   3.754  11.548 -0.1186  0.3720 -0.5278
 2583SOL     OW19210   1.738   1.951   0.889  0.3705  0.3148 -0.1028
 2583SOL    HW119211   1.705   1.972   0.802 -0.6777 -0.5642  0.0726
 2583SOL    HW219212   1.687   1.870   0.901  1.7224 -0.7888 -1.8525
 2584SOL     OW19213   3.021   2.866  17.548 -0.4168  0.5167 -0.2056
 2584SOL    HW119214   2.972   2.800  17.498 -2.5788  3.0267 -1.3785
 2584SOL    HW219215   3.106   2.830  17.525 -1.8553 -2.1330 -1.4337
 2585SOL     OW19216   2.692   3.537   5.560  1.3512 -0.7440  0.2160
 2585SOL    HW119217   2.657   3.584   5.636  1.1657 -0.4120 -0.0716
 2585SOL    HW219218   2.694   3.448   5.595  1.4573 -1.8956 -2.6843
 2586SOL     OW19219   4.604   2.096   7.196 -0.8247  0.0824  0.3330
 2586SOL    HW119220   4.568   2.057   7.276  0.7678  0.0913  1.0658
 2586SOL    HW219221   4.696   2.069   7.206 -0.7712  0.6413  1.3695
 2587SOL     OW19222   2.852   4.422   7.555 -0.3796 -0.0500 -0.4662
 2587SOL    HW119223   2.929   4.477   7.540  1.2981 -2.2001  0.2772
 2587SOL    HW219224   2.789   4.473   7.505 -0.1786 -0.7039 -1.3941
 2588SOL     OW19225   4.297   2.944   8.142 -0.6171 -0.4896  0.3957
 2588SOL    HW119226   4.378   2.909   8.177  0.3102  0.8580 -0.3749
 2588SOL    HW219227   4.326   2.996   8.067  1.0426 -0.7723  0.8488
 2589SOL     OW19228   1.286   0.680   6.855 -0.7730 -0.6146  0.1053
 2589SOL    HW119229   1.290   0.628   6.775 -0.8723  1.1056 -1.0175
 2589SOL    HW219230   1.273   0.606   6.915 -1.5476 -0.7970 -0.2854
 2590SOL     OW19231   3.923   0.812   0.859  0.8262  0.2904 -0.5195
 2590SOL    HW119232   3.858   0.779   0.797  1.6897  0.8264 -1.7031
 2590SOL    HW219233   3.949   0.726   0.895  2.8269  0.3923 -1.7515
 2591SOL     OW19234   1.633   3.605  10.598  0.2930 -0.4051  0.4447
 2591SOL    HW119235   1.542   3.630  10.579  1.2865  1.2676 -2.1201
 2591SOL    HW219236   1.637   3.521  10.551  0.8002  0.7674 -1.6355
 2592SOL     OW19237   4.692   4.574   4.133 -0.5703  0.5636 -0.0864
 2592SOL    HW119238   4.615   4.578   4.189 -0.0627 -1.7312  0.7681
 2592SOL    HW219239   4.661   4.631   4.062  0.2216 -2.9735 -3.2101
 2593SOL     OW19240   0.320   3.554  15.056  0.1513 -0.0973  0.4531
 2593SOL    HW119241   0.325   3.566  15.151  0.9570 -2.0588  0.6753
 2593SOL    HW219242   0.243   3.610  15.053 -0.3810 -0.8514  0.0709
 2594SOL     OW19243   2.819   3.598  11.315 -0.0308  0.1868 -0.5136
 2594SOL    HW119244   2.882   3.526  11.314 -1.6920 -1.2651 -0.4634
 2594SOL    HW219245   2.845   3.653  11.389  1.4794 -1.4726  0.2080
 2595SOL     OW19246   2.398   4.219   8.585 -0.5658  0.0267 -0.6870
 2595SOL    HW119247   2.303   4.232   8.588 -0.6967 -0.1110 -3.8851
 2595SOL    HW219248   2.437   4.306   8.579 -0.4675 -0.1218 -2.2363
 2596SOL     OW19249   4.292   0.642  15.993 -0.6947  0.2678  0.1840
 2596SOL    HW119250   4.325   0.725  16.028 -0.2604  0.4721 -0.7101
 2596SOL    HW219251   4.216   0.621  16.047  1.5116 -1.8489  2.4332
 2597SOL     OW19252   3.508   2.600   3.263 -0.2718  0.6596 -0.1905
 2597SOL    HW119253   3.522   2.678   3.317  2.4055  1.2383 -1.7129
 2597SOL    HW219254   3.441   2.557   3.317  1.0680 -0.4127  0.6064
 2598SOL     OW19255   3.325   0.292  16.020 -0.3429  1.1133  0.7190
 2598SOL    HW119256   3.245   0.251  15.990  0.1545 -0.0024  0.8962
 2598SOL    HW219257   3.375   0.294  15.939 -2.9518  1.5397 -0.8519
 2599SOL     OW19258   1.861   0.632   3.941  0.0107 -0.2275 -0.2295
 2599SOL    HW119259   1.841   0.648   3.849 -0.8842 -0.7073 -0.1155
 2599SOL    HW219260   1.953   0.655   3.924 -0.8617  1.9102 -2.0485
 2600SOL     OW19261   2.315   3.172   7.337 -0.2422 -0.2706  0.3728
 2600SOL    HW119262   2.271   3.130   7.263 -0.1626  0.6466 -0.1857
 2600SOL    HW219263   2.406   3.163   7.308 -1.0320  0.9786 -2.4394
 2601SOL     OW19264   4.368   4.398  10.577 -0.2064  0.0314 -0.0299
 2601SOL    HW119265   4.368   4.305  10.601  1.5874  0.0949  0.1686
 2601SOL    HW219266   4.297   4.420  10.637  1.9834 -0.3373  2.6756
 2602SOL     OW19267   3.918   1.716  14.852  1.2880  0.0481 -0.1325
 2602SOL    HW119268   3.862   1.767  14.911  1.2187 -0.1378 -0.0379
 2602SOL    HW219269   3.983   1.678  14.911  0.7324 -0.0938  0.3981
 2603SOL     OW19270   0.882   2.059   7.147  0.3525 -0.1258 -0.1891
 2603SOL    HW119271   0.838   2.014   7.075  0.6158  0.9549 -1.0196
 2603SOL    HW219272   0.963   2.010   7.160  0.3917 -1.4662 -5.2855
 2604SOL     OW19273   0.998   2.771   7.365 -0.0465 -0.2846 -0.0838
 2604SOL    HW119274   0.999   2.680   7.338  1.1292 -0.0430 -0.8652
 2604SOL    HW219275   0.964   2.761   7.454  1.1601  1.5701  0.5919
 2605SOL     OW19276   4.454   2.322   9.153  0.3198  0.4331  0.6470
 2605SOL    HW119277   4.487   2.234   9.173  0.8473  0.9555  2.0400
 2605SOL    HW219278   4.411   2.325   9.068 -0.3899 -1.0485  0.9581
 2606SOL     OW19279   3.016   0.152  16.776 -0.0690 -0.1858 -0.1783
 2606SOL    HW119280   2.955   0.222  16.751  1.9922  0.3577 -3.6986
 2606SOL    HW219281   3.100   0.187  16.746  0.8072 -1.5336  0.7265
 2607SOL     OW19282   0.866   1.341   7.663  0.4431 -0.3033  0.0797
 2607SOL    HW119283   0.932   1.330   7.731  0.0658 -0.4492  0.4256
 2607SOL    HW219284   0.902   1.379   7.584  2.1806  0.8307  1.4192
 2608SOL     OW19285   4.176   3.353   8.717  0.2935  0.3282 -0.3245
 2608SOL    HW119286   4.255   3.357   8.663  1.3509  0.7472  1.2542
 2608SOL    HW219287   4.162   3.442   8.749  3.0224  1.0170 -1.1015
 2609SOL     OW19288   1.734   3.295  13.056  0.4216 -0.1256 -0.1199
 2609SOL    HW119289   1.821   3.332  13.075  0.1158  0.7346 -0.3955
 2609SOL    HW219290   1.706   3.335  12.974  0.2602 -1.3573 -0.6602
 2610SOL     OW19291   0.974   3.380   8.356 -0.3396  0.1555 -0.5361
 2610SOL    HW119292   0.943   3.370   8.266  0.9628  1.4631 -1.1336
 2610SOL    HW219293   1.048   3.439   8.342  0.3597  0.0571  2.7714
 2611SOL     OW19294   1.994   1.478   1.049  0.1996  0.2339 -0.1142
 2611SOL    HW119295   1.909   1.468   1.008 -0.2712  1.0539  0.6629
 2611SOL    HW219296   2.052   1.499   0.976 -0.0908  0.7013 -0.2082
 2612SOL     OW19297   2.824   1.032   5.699  0.4709  0.6053 -0.0296
 2612SOL    HW119298   2.850   0.988   5.617 -1.5355 -2.8973  1.2144
 2612SOL    HW219299   2.728   1.034   5.689  0.8225  0.5040 -3.6582
 2613SOL     OW19300   0.510   0.662   4.738 -0.6028  0.3256 -0.4918
 2613SOL    HW119301   0.427   0.633   4.775 -0.8171  2.2308  0.4996
 2613SOL    HW219302   0.544   0.722   4.804 -2.3242 -0.1136  0.7793
 2614SOL     OW19303   2.721   0.550   1.397 -0.3929 -0.0791  0.0726
 2614SOL    HW119304   2.668   0.629   1.411  0.7488  0.6338  0.3237
 2614SOL    HW219305   2.647   0.491   1.416 -1.4799  0.6281 -1.9773
 2615SOL     OW19306   1.497   2.129   4.809 -0.7087 -0.1225 -0.0493
 2615SOL    HW119307   1.435   2.180   4.757 -1.9847 -1.2963  0.3510
 2615SOL    HW219308   1.519   2.202   4.867  0.3475  0.1887 -0.8358
 2616SOL     OW19309   3.050   0.022   3.927  0.0877  0.3096 -0.2128
 2616SOL    HW119310   2.955   0.036   3.921 -0.1832 -0.9386  1.0702
 2616SOL    HW219311   3.064   0.076   4.005  0.2281 -0.7975  0.5332
 2617SOL     OW19312   3.563   3.166   2.542 -0.1440  0.4610  0.7319
 2617SOL    HW119313   3.592   3.075   2.529  2.2280  1.4582 -0.9626
 2617SOL    HW219314   3.527   3.161   2.630 -1.0117 -0.6839  0.3201
 2618SOL     OW19315   3.407   0.656   1.622 -0.5581  0.0212 -0.4494
 2618SOL    HW119316   3.339   0.658   1.689 -0.7808 -1.1854 -0.6294
 2618SOL    HW219317   3.486   0.677   1.671 -1.4142  1.1795  0.4127
 2619SOL     OW19318   2.654   2.876   8.824 -0.3516  0.4127  0.0739
 2619SOL    HW119319   2.735   2.878   8.773 -1.1428  0.5601 -1.1853
 2619SOL    HW219320   2.631   2.784   8.810 -2.8113  1.1602 -0.7760
 2620SOL     OW19321   2.030   1.010   8.187  0.1683 -0.0877 -0.3700
 2620SOL    HW119322   2.019   1.098   8.224  2.0115 -1.4399  3.4593
 2620SOL    HW219323   1.946   1.005   8.142 -0.1048  0.0210  0.1259
 2621SOL     OW19324   1.686   2.068  12.317 -0.1378 -0.2092 -0.5111
 2621SOL    HW119325   1.625   2.133  12.282 -0.8318  0.1124  1.3380
 2621SOL    HW219326   1.635   1.987  12.313 -0.7334  0.2433 -2.2405
 2622SOL     OW19327   3.494   0.662   6.920  0.2554  0.2366 -0.1316
 2622SOL    HW119328   3.404   0.634   6.904  0.2843  0.7053 -1.1077
 2622SOL    HW219329   3.517   0.672   6.828 -1.3058 -0.0243 -0.5518
 2623SOL     OW19330   0.958   1.024   7.651  0.3735  0.0704  0.0122
 2623SOL    HW119331   0.977   1.090   7.718 -0.5502  0.6824 -0.3304
 2623SOL    HW219332   1.039   1.036   7.602 -0.3198  1.7653 -0.6991
 2624SOL     OW19333   2.010   1.776   4.219 -0.5667  0.7657  0.4565
 2624SOL    HW119334   2.062   1.793   4.141  0.3513  2.3422  1.4192
 2624SOL    HW219335   1.957   1.856   4.225 -0.2294  0.9871  0.4908
 2625SOL     OW19336   0.596   3.097  14.581 -0.0737 -0.5218 -0.4402
 2625SOL    HW119337   0.523   3.039  14.560 -0.2525 -0.8725  1.1614
 2625SOL    HW219338   0.667   3.035  14.564  0.6474  0.4621 -1.0052
 2626SOL     OW19339   1.642   4.281   9.218  0.1183  0.1854 -0.1285
 2626SOL    HW119340   1.658   4.197   9.261 -1.6753  0.1423  0.4771
 2626SOL    HW219341   1.692   4.334   9.280  0.6374  1.6265 -1.8020
 2627SOL     OW19342   3.971   1.218  12.717 -0.3860 -0.6391 -0.3837
 2627SOL    HW119343   3.987   1.169  12.636  0.4329  0.4840 -0.8912
 2627SOL    HW219344   4.025   1.297  12.716 -1.9971  0.4966  1.3214
 2628SOL     OW19345   1.492   3.502   1.988 -0.2766  0.0642 -0.1863
 2628SOL    HW119346   1.522   3.545   2.068 -0.9275 -2.5185  1.4716
 2628SOL    HW219347   1.482   3.579   1.932  0.8062  0.6254  0.3843
 2629SOL     OW19348   1.562   0.887   8.613 -0.2068  0.8154  0.1990
 2629SOL    HW119349   1.469   0.890   8.638 -0.1507 -1.4732  0.6245
 2629SOL    HW219350   1.562   0.800   8.573  2.0079 -0.7665  3.6712
 2630SOL     OW19351   4.154   0.404   7.440  0.3024  0.0396 -0.4523
 2630SOL    HW119352   4.229   0.389   7.497  2.5062 -2.1619 -3.9351
 2630SOL    HW219353   4.163   0.340   7.370 -2.5924 -0.2831 -0.5415
 2631SOL     OW19354   0.170   4.575   9.449 -0.0560 -0.1831 -0.0551
 2631SOL    HW119355   0.223   4.604   9.524 -0.8753  1.2315 -0.0304
 2631SOL    HW219356   0.161   4.656   9.400 -2.2608  0.9584  2.2289
 2632SOL     OW19357   3.701   1.685   7.365  0.8298  0.0626 -1.0232
 2632SOL    HW119358   3.728   1.595   7.383  0.4039  0.0667 -0.3678
 2632SOL    HW219359   3.666   1.672   7.277 -0.5964 -1.4006 -0.2483
 2633SOL     OW19360   1.933   2.333   2.007 -0.2592 -0.4406  0.2440
 2633SOL    HW119361   2.014   2.292   2.040 -0.8153 -3.0643 -1.6268
 2633SOL    HW219362   1.880   2.254   1.999  0.0900 -0.6565  0.0676
 2634SOL     OW19363   2.443   2.162   8.864  0.0126  0.4105 -0.4094
 2634SOL    HW119364   2.408   2.130   8.947  1.0714  0.6698  0.1220
 2634SOL    HW219365   2.500   2.232   8.894 -0.2156 -0.6969  2.5994
 2635SOL     OW19366   0.933   2.266   9.243  0.0835  0.0838  0.5938
 2635SOL    HW119367   0.918   2.194   9.182  0.5292  2.0831 -1.9030
 2635SOL    HW219368   0.844   2.301   9.247  0.3271  0.8982 -1.2070
 2636SOL     OW19369   0.494   0.077   8.707 -0.5994 -0.2190  0.0507
 2636SOL    HW119370   0.487   4.719   8.754 -0.5199  1.0323  2.2566
 2636SOL    HW219371   0.462   0.143   8.768  2.4511  1.4155 -0.1727
 2637SOL     OW19372   4.470   1.958   2.158 -0.1104  0.1260  0.0665
 2637SOL    HW119373   4.454   1.982   2.249  2.0641 -0.1968  0.5403
 2637SOL    HW219374   4.564   1.949   2.139 -0.5291  0.0255 -1.9866
 2638SOL     OW19375   4.391   1.276   2.508  0.2308 -0.3150  0.3099
 2638SOL    HW119376   4.355   1.193   2.540  2.4698 -1.1820  0.5724
 2638SOL    HW219377   4.484   1.255   2.516  0.3913  0.6838  0.9498
 2639SOL     OW19378   0.051   2.605   7.848 -0.0548  0.8847 -0.2204
 2639SOL    HW119379   0.035   2.691   7.885 -1.1033  0.4054  0.4444
 2639SOL    HW219380   0.116   2.556   7.899  1.1796  0.9587 -1.6898
 2640SOL     OW19381   2.871   4.097   5.318  0.1047 -0.0171 -0.3131
 2640SOL    HW119382   2.836   4.017   5.279 -2.0100  0.6589  0.1566
 2640SOL    HW219383   2.930   4.128   5.250  2.7792 -0.0981  1.9793
 2641SOL     OW19384   2.302   4.606   3.951 -0.1765 -0.0038  0.1101
 2641SOL    HW119385   2.281   4.519   3.917 -1.4810  1.2032 -2.1714
 2641SOL    HW219386   2.218   4.647   3.929 -0.0204 -0.3784 -1.2002
 2642SOL     OW19387   4.258   2.073   3.487  0.0755 -0.9742  0.3210
 2642SOL    HW119388   4.229   2.081   3.578 -0.3346  1.1578  0.0001
 2642SOL    HW219389   4.214   2.149   3.448  0.1661  0.0688  2.2271
 2643SOL     OW19390   2.960   1.956  13.571  0.0796  0.2656  0.8410
 2643SOL    HW119391   2.909   1.968  13.490  2.3388  1.8052 -0.3367
 2643SOL    HW219392   2.898   1.977  13.641  0.3330  0.1345  1.0985
 2644SOL     OW19393   2.717   1.000   6.144  0.1244  0.5041  0.5718
 2644SOL    HW119394   2.761   0.946   6.209 -1.3657 -0.4499  0.7974
 2644SOL    HW219395   2.794   1.010   6.089  1.2236 -1.1122  1.8393
 2645SOL     OW19396   4.349   3.684   5.928 -0.3453  0.1808 -0.7202
 2645SOL    HW119397   4.378   3.756   5.871  1.8149 -0.0482  0.1098
 2645SOL    HW219398   4.314   3.633   5.855  2.0112  0.0342 -1.7333
 2646SOL     OW19399   4.582   4.606  13.074  0.3834  0.0262 -0.4164
 2646SOL    HW119400   4.589   4.630  13.166  0.8761 -0.0398 -0.4384
 2646SOL    HW219401   4.610   4.514  13.078  0.2742 -0.1431 -3.4537
 2647SOL     OW19402   3.063   1.125   6.396  0.2583  0.2899 -0.5816
 2647SOL    HW119403   3.009   1.201   6.376  2.3885  1.2653 -2.7163
 2647SOL    HW219404   3.084   1.096   6.307  0.7452  0.0686 -0.3974
 2648SOL     OW19405   3.073   1.721   5.199  0.2853  0.2578 -0.5207
 2648SOL    HW119406   3.162   1.757   5.198  0.1154  0.7046  1.1482
 2648SOL    HW219407   3.090   1.631   5.224 -1.8588 -0.5318 -1.8458
 2649SOL     OW19408   0.787   4.049   6.092  0.1642  0.4599  1.0058
 2649SOL    HW119409   0.771   4.141   6.073  1.5890  0.6142  0.5224
 2649SOL    HW219410   0.753   4.047   6.181  2.4007 -0.0462  1.8404
 2650SOL     OW19411   3.338   4.253   8.462  0.0353  0.0123 -0.2435
 2650SOL    HW119412   3.279   4.214   8.399 -1.2921  0.8864  0.4661
 2650SOL    HW219413   3.343   4.177   8.520  0.0805  1.3078  1.4505
 2651SOL     OW19414   3.389   4.212   2.308 -0.1299  0.5125 -0.1432
 2651SOL    HW119415   3.358   4.170   2.228  0.8892 -0.1741 -0.1742
 2651SOL    HW219416   3.372   4.151   2.380 -1.8815  0.6542 -0.4473
 2652SOL     OW19417   0.368   4.146  17.243 -0.2133 -0.0762  0.0807
 2652SOL    HW119418   0.374   4.095  17.323  2.5943  0.6489  0.3610
 2652SOL    HW219419   0.375   4.235  17.279 -0.9580 -0.2894  0.7355
 2653SOL     OW19420   2.128   1.351  10.252  0.1271 -0.3554  0.2091
 2653SOL    HW119421   2.110   1.269  10.208  3.4962 -0.8996 -0.1523
 2653SOL    HW219422   2.224   1.348  10.257  0.3105  1.7399 -1.7007
 2654SOL     OW19423   1.613   3.723   5.578 -0.2906  0.1732 -0.2852
 2654SOL    HW119424   1.685   3.766   5.533  1.4487 -0.6634  1.7263
 2654SOL    HW219425   1.581   3.670   5.505 -1.0648 -0.5384  0.5624
 2655SOL     OW19426   2.783   1.760   7.666  0.1387 -0.6178  0.1481
 2655SOL    HW119427   2.788   1.842   7.716  0.0673 -0.0130 -0.8267
 2655SOL    HW219428   2.808   1.703   7.738 -1.2935 -0.5263  0.7107
 2656SOL     OW19429   3.333   1.591   8.981 -0.4584 -0.6013  0.0035
 2656SOL    HW119430   3.304   1.659   8.919  0.1892 -1.2623 -1.0375
 2656SOL    HW219431   3.263   1.582   9.045 -1.8656 -1.7550 -1.6755
 2657SOL     OW19432   1.228   2.433  15.997  0.3628 -0.1971  0.0737
 2657SOL    HW119433   1.175   2.472  15.928  1.9804 -0.0922 -1.1146
 2657SOL    HW219434   1.289   2.502  16.023  0.1914  0.3153 -0.9049
 2658SOL     OW19435   0.018   1.545   9.397  0.5500  0.2747  0.7914
 2658SOL    HW119436   4.718   1.549   9.489 -0.1981 -0.8478  0.6410
 2658SOL    HW219437   4.667   1.586   9.357  1.4463  0.3762 -0.8317
 2659SOL     OW19438   1.645   4.665   8.633 -0.1377  0.1803  0.3765
 2659SOL    HW119439   1.556   4.680   8.666 -0.3141 -0.6292  0.2647
 2659SOL    HW219440   1.634   4.578   8.596 -0.1222  0.7053 -0.8564
 2660SOL     OW19441   0.928   2.994   4.475  0.9824 -0.4296  0.3112
 2660SOL    HW119442   0.932   2.978   4.381  0.5077  0.8905  0.0660
 2660SOL    HW219443   0.970   2.919   4.518  0.6290  0.2303  1.8241
 2661SOL     OW19444   0.336   2.823   3.169  0.5764 -0.1817 -0.3781
 2661SOL    HW119445   0.384   2.824   3.252 -0.1292 -1.4166  0.0508
 2661SOL    HW219446   0.368   2.907   3.136 -1.2595  1.7232  2.6725
 2662SOL     OW19447   2.307   3.127   0.993  0.0752  0.4430 -0.1167
 2662SOL    HW119448   2.261   3.197   1.039 -1.9026 -0.6001 -0.5048
 2662SOL    HW219449   2.387   3.129   1.045  0.5941  1.1059 -0.9498
 2663SOL     OW19450   2.053   3.281  10.226 -0.2745  0.6990  0.6273
 2663SOL    HW119451   2.053   3.188  10.205 -1.7556  0.7119  0.5343
 2663SOL    HW219452   2.055   3.277  10.321 -1.8966  0.6881  0.6703
 2664SOL     OW19453   2.477   1.872   7.772 -0.2265  1.2219 -0.2615
 2664SOL    HW119454   2.524   1.833   7.846  1.0026 -0.8158 -2.1459
 2664SOL    HW219455   2.497   1.965   7.781 -0.5594  1.0614  2.1686
 2665SOL     OW19456   0.646   0.957   8.873 -0.1713 -0.5321 -0.3771
 2665SOL    HW119457   0.597   1.033   8.841 -3.0405 -2.0813  0.3964
 2665SOL    HW219458   0.661   0.985   8.963 -0.5384 -1.5509 -0.0040
 2666SOL     OW19459   3.374   1.367   4.874  0.2460  0.1591  0.3715
 2666SOL    HW119460   3.376   1.279   4.913 -0.8046  0.4224  1.0488
 2666SOL    HW219461   3.301   1.355   4.813 -0.0585 -0.4955  0.8486
 2667SOL     OW19462   0.427   1.454   9.303  0.1222  0.1718  0.0508
 2667SOL    HW119463   0.413   1.547   9.317  1.3256  0.5167 -0.9892
 2667SOL    HW219464   0.341   1.414   9.312  0.7305 -1.0766  0.4601
 2668SOL     OW19465   3.321   1.747  17.493  0.0055  0.0083 -0.0487
 2668SOL    HW119466   3.415   1.763  17.507 -0.3618  1.5890  0.5058
 2668SOL    HW219467   3.295   1.770  17.582 -0.6382  0.6110 -0.3945
 2669SOL     OW19468   2.770   0.177  16.514  0.1686 -0.2716 -0.4101
 2669SOL    HW119469   2.745   0.269  16.509 -0.8022 -0.5290 -0.1545
 2669SOL    HW219470   2.762   0.164  16.420  2.7041 -0.3550 -0.6290
 2670SOL     OW19471   0.985   1.884   7.625  0.0765  0.0765  0.1420
 2670SOL    HW119472   1.081   1.883   7.631 -0.0657 -2.5945  1.8795
 2670SOL    HW219473   0.979   1.854   7.535 -3.3303  1.0866  0.0491
 2671SOL     OW19474   3.992   1.524   4.830  0.7679  0.3693  0.0717
 2671SOL    HW119475   3.973   1.618   4.826  2.3189  0.7677  1.9053
 2671SOL    HW219476   3.919   1.493   4.884 -0.0934  1.2889 -0.5597
 2672SOL     OW19477   4.558   0.973   3.620  0.2787  0.5294  0.2756
 2672SOL    HW119478   4.614   0.898   3.638  1.2725  1.0655 -0.5377
 2672SOL    HW219479   4.474   0.938   3.649  1.1628 -1.1402  0.8154
 2673SOL     OW19480   2.088   0.796   5.674 -0.0234  0.0675  0.0377
 2673SOL    HW119481   2.139   0.874   5.650 -0.8682  1.1758  1.9065
 2673SOL    HW219482   2.113   0.748   5.595 -1.1092 -1.2935  0.5336
 2674SOL     OW19483   2.277   1.271   8.286  0.1716 -0.6467 -0.2232
 2674SOL    HW119484   2.290   1.244   8.195 -0.5837 -2.1861  0.1323
 2674SOL    HW219485   2.347   1.333   8.310 -0.1288 -0.1135 -0.7267
 2675SOL     OW19486   1.518   3.087  14.830 -0.0449  0.2172 -0.4394
 2675SOL    HW119487   1.422   3.089  14.835 -0.0409 -1.5002  0.4954
 2675SOL    HW219488   1.542   3.005  14.874  0.5216  0.6617  0.0819
 2676SOL     OW19489   3.965   4.505   9.775  0.5225 -0.1067  0.0543
 2676SOL    HW119490   4.004   4.592   9.764  0.7102 -0.3144 -0.9211
 2676SOL    HW219491   4.025   4.470   9.840 -1.6769  0.0504  2.1725
 2677SOL     OW19492   0.319   1.812   1.853  0.2902  0.1038 -0.4072
 2677SOL    HW119493   0.394   1.771   1.896 -0.1368  1.1974  1.3826
 2677SOL    HW219494   0.342   1.788   1.764  0.5323 -0.8078 -0.0994
 2678SOL     OW19495   0.401   2.548   6.418 -0.6000 -0.0557 -0.1343
 2678SOL    HW119496   0.378   2.455   6.416  0.5023 -0.2519 -2.7273
 2678SOL    HW219497   0.425   2.555   6.511 -0.8061 -2.5991  0.1099
 2679SOL     OW19498   4.679   1.046   2.934  0.2977 -0.1776  0.2590
 2679SOL    HW119499   4.621   1.116   2.905  0.5496 -0.5594 -1.1422
 2679SOL    HW219500   4.615   0.989   2.976 -1.5956  1.1320 -0.8420
 2680SOL     OW19501   2.112   1.906   2.263  0.1456  0.1160  0.4240
 2680SOL    HW119502   2.205   1.903   2.239 -0.2953 -2.7497 -0.9563
 2680SOL    HW219503   2.105   1.811   2.276  1.4263 -0.1352 -0.7078
 2681SOL     OW19504   2.397   2.771   3.023  0.9090 -0.7284  0.0216
 2681SOL    HW119505   2.470   2.832   3.033 -0.3630  1.1278 -2.0738
 2681SOL    HW219506   2.426   2.702   3.084  4.5101  0.8471  0.0694
 2682SOL     OW19507   3.682   0.316  17.600 -0.4399 -0.3016 -0.2355
 2682SOL    HW119508   3.774   0.328  17.574  0.0353 -1.6977  0.7984
 2682SOL    HW219509   3.640   0.389  17.555 -1.4168 -0.0164  1.1632
 2683SOL     OW19510   4.276   0.612   6.680 -0.2257 -0.1498 -0.0062
 2683SOL    HW119511   4.184   0.611   6.654  0.0748 -0.3575 -1.0676
 2683SOL    HW219512   4.270   0.623   6.775  1.9159 -1.0781  0.2297
 2684SOL     OW19513   3.069   1.838   2.287 -0.4291 -0.3460 -0.0550
 2684SOL    HW119514   3.154   1.810   2.253 -1.6436 -1.8534 -1.7858
 2684SOL    HW219515   3.087   1.932   2.278  1.4060 -0.8470 -1.6646
 2685SOL     OW19516   1.501   2.525   8.778  0.0672 -0.2034  0.1899
 2685SOL    HW119517   1.502   2.481   8.864 -3.2363 -0.4765  0.0658
 2685SOL    HW219518   1.576   2.584   8.784 -1.4752  1.7824  0.0139
 2686SOL     OW19519   1.240   0.809  17.459  0.1938 -0.2836  0.5480
 2686SOL    HW119520   1.158   0.845  17.491  0.1573  0.5641 -0.4994
 2686SOL    HW219521   1.291   0.816  17.540  1.1175  1.0787 -0.1406
 2687SOL     OW19522   2.748   4.342   8.347  0.2714 -0.1096  0.2345
 2687SOL    HW119523   2.653   4.336   8.344  0.1188  2.1325  0.6058
 2687SOL    HW219524   2.771   4.252   8.322  2.5071  1.2786 -2.6532
 2688SOL     OW19525   1.644   4.244   3.734  0.3254  0.0254  1.0210
 2688SOL    HW119526   1.714   4.200   3.782  1.9586  1.1500 -0.2985
 2688SOL    HW219527   1.682   4.237   3.646 -0.5858  1.2122  0.5254
 2689SOL     OW19528   0.207   4.660   1.791  0.1404  0.7508 -0.4365
 2689SOL    HW119529   0.275   4.648   1.724  1.8711  1.0194  1.2845
 2689SOL    HW219530   0.166   4.574   1.782  3.2684 -0.6974 -0.7208
 2690SOL     OW19531   1.352   2.239   5.467 -0.2614 -0.0549  0.0111
 2690SOL    HW119532   1.392   2.184   5.534 -0.9145 -1.6078 -0.8590
 2690SOL    HW219533   1.313   2.178   5.403 -1.0766  1.2585 -0.7488
 2691SOL     OW19534   4.410   1.951  12.812  0.2758  0.2421  0.3707
 2691SOL    HW119535   4.472   1.998  12.867 -0.7274  1.4789  0.4296
 2691SOL    HW219536   4.440   1.969  12.723 -1.0761 -1.4418 -0.4298
 2692SOL     OW19537   0.358   3.106   2.077  0.1603 -0.4918  0.0118
 2692SOL    HW119538   0.419   3.090   2.005 -1.8186 -0.4925 -1.6730
 2692SOL    HW219539   0.347   3.200   2.061 -3.7630 -0.9173  0.3196
 2693SOL     OW19540   3.590   0.924   0.132  0.6005  0.3142 -0.5337
 2693SOL    HW119541   3.508   0.912   0.083 -0.4525 -0.2600  1.3580
 2693SOL    HW219542   3.631   0.841   0.107  3.5424  1.5050  0.4353
 2694SOL     OW19543   1.952   3.043   3.174 -0.4218  0.3197 -0.0695
 2694SOL    HW119544   2.026   2.983   3.176 -0.0019  0.9088  1.6660
 2694SOL    HW219545   1.883   2.985   3.141  3.2505 -2.0895 -3.4514
 2695SOL     OW19546   3.117   1.630   7.602 -0.0156  0.4106 -0.3874
 2695SOL    HW119547   3.125   1.536   7.586  0.7351  0.8834 -2.9240
 2695SOL    HW219548   3.115   1.646   7.696  0.3766  3.3317 -0.8629
 2696SOL     OW19549   2.126   4.216  10.525  0.5252  0.4716  0.5232
 2696SOL    HW119550   2.203   4.197  10.473 -1.5572  1.9435 -3.1058
 2696SOL    HW219551   2.126   4.312  10.530 -0.4780  0.4671  0.6754
 2697SOL     OW19552   3.146   0.108  13.388 -0.1767  0.4559  0.0057
 2697SOL    HW119553   3.203   0.033  13.402  0.2767  0.4241 -2.1603
 2697SOL    HW219554   3.064   0.061  13.371  1.6183 -2.3019 -1.0033
 2698SOL     OW19555   0.027   0.644  11.385 -0.7762 -0.1228 -0.1622
 2698SOL    HW119556   0.090   0.661  11.455 -1.4175 -0.1940  0.4318
 2698SOL    HW219557   0.036   0.549  11.398 -0.9405 -0.1885 -0.5268
 2699SOL     OW19558   0.517   3.081   3.073  0.4047 -0.0605  0.9794
 2699SOL    HW119559   0.607   3.073   3.042  0.1895 -1.9212  0.7737
 2699SOL    HW219560   0.479   3.132   3.002 -0.2938 -0.8413  0.7842
 2700SOL     OW19561   3.333   1.179   7.397  0.4092  0.2231  0.1537
 2700SOL    HW119562   3.392   1.120   7.443  0.8393  1.0828  0.6924
 2700SOL    HW219563   3.308   1.119   7.326  0.5607  1.0260 -0.5827
 2701SOL     OW19564   3.790   1.995   5.121 -0.5971  0.2878 -0.1910
 2701SOL    HW119565   3.788   1.931   5.050  3.4946 -0.0983  0.0676
 2701SOL    HW219566   3.814   2.072   5.068 -0.2264  0.7217  0.6119
 2702SOL     OW19567   1.605   0.095   9.360  0.7451  0.2655  0.1277
 2702SOL    HW119568   1.564   0.099   9.446  1.7588  1.3563  0.5571
 2702SOL    HW219569   1.651   0.011   9.361 -2.6329 -1.5649  2.0804
 2703SOL     OW19570   2.432   4.214   3.283 -0.3584 -0.1407 -0.0066
 2703SOL    HW119571   2.524   4.234   3.299  0.0887 -0.1215 -2.5941
 2703SOL    HW219572   2.417   4.121   3.300  2.3736 -0.8932 -1.8209
 2704SOL     OW19573   1.797   2.548   6.498  0.2010 -0.6866 -0.2111
 2704SOL    HW119574   1.731   2.617   6.492  0.2579 -0.9392 -3.4242
 2704SOL    HW219575   1.843   2.566   6.580 -0.1746  0.6582 -0.2961
 2705SOL     OW19576   2.193   0.128   7.445 -0.5198  0.3233  0.0710
 2705SOL    HW119577   2.284   0.116   7.418 -0.4707 -0.4683  0.5802
 2705SOL    HW219578   2.155   0.163   7.364 -0.0514  0.2650 -0.1764
 2706SOL     OW19579   2.298   3.544   4.085 -0.1422 -0.0453 -0.3957
 2706SOL    HW119580   2.312   3.539   3.991 -0.6169 -0.5143 -0.4441
 2706SOL    HW219581   2.328   3.632   4.108  2.4956 -1.1678  0.4227
 2707SOL     OW19582   1.878   1.331   4.436 -0.2795  0.3415 -0.2593
 2707SOL    HW119583   1.839   1.255   4.480 -0.7999  0.6040 -0.2749
 2707SOL    HW219584   1.813   1.340   4.367  1.6845 -0.7627 -2.2458
 2708SOL     OW19585   2.261   4.369   1.351 -0.5194 -0.1676  0.0706
 2708SOL    HW119586   2.246   4.448   1.404  0.0811  0.2366 -0.3670
 2708SOL    HW219587   2.328   4.336   1.411 -0.5384  1.9969  1.2913
 2709SOL     OW19588   2.040   0.226  13.590 -0.1540  0.4186  0.7594
 2709SOL    HW119589   2.134   0.233  13.575 -0.4453  0.8849 -0.8735
 2709SOL    HW219590   2.024   0.321  13.590  1.8310  0.7460  0.4878
 2710SOL     OW19591   1.977   3.637   4.370 -0.3674  0.3580 -0.3058
 2710SOL    HW119592   2.030   3.576   4.421 -1.0372 -0.2312 -0.3139
 2710SOL    HW219593   2.039   3.710   4.376  0.6409 -0.5426  0.3506
 2711SOL     OW19594   2.438   3.878  14.579  0.2245  0.2943 -0.0481
 2711SOL    HW119595   2.362   3.918  14.621  1.0865  1.5419  0.3391
 2711SOL    HW219596   2.401   3.810  14.523  1.3381  0.5939 -1.1527
 2712SOL     OW19597   1.398   0.237   4.352  0.8761  0.3661  0.4910
 2712SOL    HW119598   1.376   0.236   4.259 -0.3738  0.8817  0.7847
 2712SOL    HW219599   1.316   0.225   4.399  1.4215 -1.1718  1.0572
 2713SOL     OW19600   1.925   3.693   7.527 -0.6161  0.3750 -0.0054
 2713SOL    HW119601   1.947   3.738   7.608  0.5119 -1.1507  0.5322
 2713SOL    HW219602   1.900   3.604   7.550 -1.0199  0.7209  0.9139
 2714SOL     OW19603   0.756   1.040   3.646  0.4805 -0.0779 -0.4476
 2714SOL    HW119604   0.763   0.944   3.647  1.2932 -0.0264 -1.8830
 2714SOL    HW219605   0.664   1.056   3.627 -0.0421  1.1325  3.0444
 2715SOL     OW19606   1.728   3.244   5.416  0.6693 -0.0247 -0.3027
 2715SOL    HW119607   1.794   3.177   5.433  0.9396  0.1062 -0.8507
 2715SOL    HW219608   1.680   3.216   5.337 -1.5496  0.5951  0.8144
 2716SOL     OW19609   1.092   0.240   3.948  0.1634  0.1515 -0.2110
 2716SOL    HW119610   1.104   0.314   3.888  2.8440  0.9559  1.2947
 2716SOL    HW219611   1.109   0.165   3.891  2.8176 -0.2806  1.1238
 2717SOL     OW19612   4.633   0.604  15.405 -0.4684  0.0477  0.2976
 2717SOL    HW119613   4.589   0.584  15.487 -0.3205  1.2171  0.6588
 2717SOL    HW219614   4.641   0.514  15.375 -0.7251  0.5950 -1.4393
 2718SOL     OW19615   1.437   1.101  11.531  0.1862 -0.0824 -0.4358
 2718SOL    HW119616   1.475   1.015  11.550 -0.4603  0.2062  2.1546
 2718SOL    HW219617   1.431   1.090  11.436 -0.3951  0.9821 -0.5203
 2719SOL     OW19618   1.438   0.200   2.725  0.6033  0.0232 -0.2987
 2719SOL    HW119619   1.391   0.121   2.752  1.2830 -0.5158 -0.6955
 2719SOL    HW219620   1.469   0.230   2.810  0.0586  2.3450 -0.9094
 2720SOL     OW19621   3.011   1.412   6.312 -0.3461 -0.4383 -0.0087
 2720SOL    HW119622   2.973   1.493   6.279  0.5419  0.2932  0.7671
 2720SOL    HW219623   3.077   1.392   6.245 -0.7226 -0.9311 -0.2394
 2721SOL     OW19624   3.042   3.890   7.211  0.6686  0.0838 -0.4083
 2721SOL    HW119625   3.135   3.911   7.214  0.3743  1.0306  1.5791
 2721SOL    HW219626   3.034   3.826   7.282  2.6719 -1.4785 -1.5634
 2722SOL     OW19627   2.174   0.709   2.934 -0.6522 -0.4654 -0.5677
 2722SOL    HW119628   2.183   0.795   2.893  2.4189  0.4802  2.0751
 2722SOL    HW219629   2.178   0.652   2.856 -0.0135 -2.1153  0.6681
 2723SOL     OW19630   2.951   1.948   2.014  0.3065 -0.4811  0.0936
 2723SOL    HW119631   3.000   1.994   2.082 -0.2420 -0.6718  0.6213
 2723SOL    HW219632   2.898   2.026   1.995  0.8716  0.0970  0.8604
 2724SOL     OW19633   4.274   1.574   5.190 -0.1563 -0.9260  0.0199
 2724SOL    HW119634   4.282   1.534   5.104 -0.0172 -0.4839 -0.1762
 2724SOL    HW219635   4.205   1.636   5.167  0.0181 -0.7392  0.0010
 2725SOL     OW19636   2.637   2.152  14.848 -0.5159 -0.1325 -0.3452
 2725SOL    HW119637   2.593   2.187  14.771  1.3086  1.7216 -0.5557
 2725SOL    HW219638   2.704   2.220  14.857 -0.3937 -0.5458  1.8951
 2726SOL     OW19639   0.908   2.226  12.994 -0.3452  0.2387 -0.3402
 2726SOL    HW119640   0.911   2.226  13.090 -1.3357 -1.1040 -0.3033
 2726SOL    HW219641   0.933   2.135  12.975 -4.5488 -0.8754 -0.5068
 2727SOL     OW19642   1.870   4.428  10.305 -0.5218 -0.1213 -0.4680
 2727SOL    HW119643   1.918   4.372  10.245  3.6756  3.5582 -0.5966
 2727SOL    HW219644   1.864   4.369  10.380 -0.0692  1.3799  0.7709
 2728SOL     OW19645   0.460   3.582   4.112  0.0738 -0.6542 -0.5964
 2728SOL    HW119646   0.374   3.565   4.151  0.7984 -0.3392  1.1524
 2728SOL    HW219647   0.505   3.627   4.184  0.7570 -0.1052 -1.3660
 2729SOL     OW19648   2.389   0.461   8.143 -0.1957 -0.3415  0.5306
 2729SOL    HW119649   2.296   0.446   8.125 -0.2271 -1.0912  1.3082
 2729SOL    HW219650   2.386   0.452   8.238  0.1313  0.8773  0.6584
 2730SOL     OW19651   1.188   3.155   2.192  0.3573  0.0274  0.1658
 2730SOL    HW119652   1.203   3.107   2.111  1.2790 -0.1765  0.4589
 2730SOL    HW219653   1.120   3.214   2.161 -1.6559 -1.9380  0.7622
 2731SOL     OW19654   3.177   0.876   6.488  0.1033 -0.1598 -0.2359
 2731SOL    HW119655   3.156   0.965   6.461 -0.7931 -0.4002 -0.3279
 2731SOL    HW219656   3.240   0.853   6.419 -0.8485 -0.7510 -0.8988
 2732SOL     OW19657   3.309   1.409   5.726  0.3570 -0.0128 -0.2457
 2732SOL    HW119658   3.356   1.453   5.797  1.3549  1.3842 -1.7791
 2732SOL    HW219659   3.371   1.339   5.705  0.3517  0.1912 -0.9269
 2733SOL     OW19660   4.022   0.440   2.899  0.1904 -0.5337 -0.5472
 2733SOL    HW119661   4.098   0.386   2.876 -0.3025 -1.4628 -0.0419
 2733SOL    HW219662   4.028   0.440   2.995 -0.0696  2.3079 -0.5501
 2734SOL     OW19663   3.810   0.482  12.995 -0.1119  0.5039 -0.3966
 2734SOL    HW119664   3.864   0.557  12.971  2.6538 -1.3882  0.0408
 2734SOL    HW219665   3.871   0.441  13.057 -1.6643  2.4698  2.4655
 2735SOL     OW19666   0.906   2.017  13.824 -0.7873  0.5828 -0.0218
 2735SOL    HW119667   0.810   2.021  13.818 -0.7524  3.5388  1.3991
 2735SOL    HW219668   0.933   2.107  13.840 -0.1053  0.4233 -0.2700
 2736SOL     OW19669   3.882   1.040   2.374  0.4914 -0.4446  0.3974
 2736SOL    HW119670   3.879   1.131   2.404  1.6668 -0.5548  0.8726
 2736SOL    HW219671   3.896   1.045   2.279 -0.2493 -1.7599  0.2244
 2737SOL     OW19672   4.443   3.544  16.376 -0.2072  0.0103 -0.0628
 2737SOL    HW119673   4.374   3.608  16.393  0.5032  1.0799 -1.2551
 2737SOL    HW219674   4.512   3.598  16.414 -0.0493 -0.5213  0.4086
 2738SOL     OW19675   2.799   0.452   7.955 -0.2255  0.2580 -0.3174
 2738SOL    HW119676   2.717   0.497   7.935  0.8611  2.0866 -0.6176
 2738SOL    HW219677   2.767   0.378   8.006  1.5981  0.5804  1.2812
 2739SOL     OW19678   3.417   1.640   2.384  0.4919 -0.1306 -0.1495
 2739SOL    HW119679   3.330   1.605   2.402  1.8807 -2.1710  2.6591
 2739SOL    HW219680   3.479   1.601   2.446  1.0782 -0.0389 -0.6774
 2740SOL     OW19681   2.899   0.527  15.053 -0.0515  0.4846  0.6922
 2740SOL    HW119682   2.895   0.600  14.991  2.1408  0.9650  1.1224
 2740SOL    HW219683   2.971   0.558  15.108  0.3530  0.9189 -0.0673
 2741SOL     OW19684   3.193   2.883   9.314 -0.7923  0.3135  0.2143
 2741SOL    HW119685   3.168   2.791   9.301  3.1562 -0.5119 -1.4449
 2741SOL    HW219686   3.185   2.887   9.409 -0.5055  0.5624  0.2272
 2742SOL     OW19687   4.627   3.521   1.312  0.1705  0.3969 -0.1605
 2742SOL    HW119688   4.574   3.521   1.392 -1.1337  0.1231 -1.0176
 2742SOL    HW219689   4.570   3.562   1.247 -1.5210 -1.1175  0.3566
 2743SOL     OW19690   2.982   3.622   2.690  0.5589 -0.2409  0.3708
 2743SOL    HW119691   3.022   3.541   2.723 -1.7719 -1.1654  0.8969
 2743SOL    HW219692   2.959   3.590   2.603  0.0111  3.1506 -0.6949
 2744SOL     OW19693   3.936   2.019  14.793  0.3978 -0.3593  0.0009
 2744SOL    HW119694   3.888   1.947  14.753 -0.0617  0.9019 -1.7535
 2744SOL    HW219695   3.975   1.975  14.868  0.4197  0.3216  0.3884
 2745SOL     OW19696   0.211   1.176   8.808 -0.4559 -0.7077  0.2290
 2745SOL    HW119697   0.151   1.174   8.734 -0.8775 -0.0643  0.5560
 2745SOL    HW219698   0.171   1.253   8.848 -0.7271 -1.4116  1.3199
 2746SOL     OW19699   1.313   2.264   8.668  0.4637 -0.2913 -0.1653
 2746SOL    HW119700   1.268   2.200   8.613 -1.1071  0.1605  0.6104
 2746SOL    HW219701   1.406   2.249   8.651  0.3772 -4.1014  2.5273
 2747SOL     OW19702   0.400   1.187   5.388  0.2777 -0.2734 -0.7781
 2747SOL    HW119703   0.359   1.228   5.312 -0.9698  2.0703  1.1488
 2747SOL    HW219704   0.471   1.250   5.398 -0.9506  0.6396  2.1933
 2748SOL     OW19705   3.666   0.674   9.288 -0.5503  0.1197 -0.0570
 2748SOL    HW119706   3.654   0.767   9.309 -0.9499 -0.2891  1.5239
 2748SOL    HW219707   3.579   0.636   9.294 -0.8718  0.9338  0.5480
 2749SOL     OW19708   0.782   4.568  14.520 -0.0738 -0.5016  0.5393
 2749SOL    HW119709   0.842   4.583  14.593  0.9297  0.8033 -0.5350
 2749SOL    HW219710   0.724   4.499  14.551 -0.1219  0.2667  2.1370
 2750SOL     OW19711   1.539   0.371   9.564 -0.2274  0.2817 -0.2200
 2750SOL    HW119712   1.607   0.377   9.496 -1.4198  3.0231 -1.2008
 2750SOL    HW219713   1.459   0.383   9.513  0.2884 -1.3357 -1.4119
 2751SOL     OW19714   4.525   1.963   6.955  0.2414 -0.1816 -0.5318
 2751SOL    HW119715   4.434   1.959   6.986  0.6725 -0.5389  0.7215
 2751SOL    HW219716   4.561   1.882   6.991 -0.1740 -0.7135 -1.3171
 2752SOL     OW19717   0.113   1.602  13.406 -0.0855 -0.2512 -0.0565
 2752SOL    HW119718   0.074   1.529  13.358  0.8650 -1.5832  1.2149
 2752SOL    HW219719   0.034   1.657  13.408 -0.1787 -0.3690 -0.6034
 2753SOL     OW19720   3.124   1.647   6.909  0.1150  0.0968 -0.5360
 2753SOL    HW119721   3.187   1.577   6.926 -0.2482 -0.0618  0.1451
 2753SOL    HW219722   3.073   1.645   6.990 -1.3837  0.1530 -1.4884
 2754SOL     OW19723   0.308   3.642   8.044 -0.4842 -0.2551 -0.3584
 2754SOL    HW119724   0.297   3.698   7.967 -1.7218 -0.6528 -0.4756
 2754SOL    HW219725   0.225   3.660   8.088 -0.5882 -1.1604 -0.1917
 2755SOL     OW19726   0.645   4.158  12.098  0.1375 -0.0955 -0.1435
 2755SOL    HW119727   0.581   4.188  12.162 -1.2014 -0.0617 -1.4953
 2755SOL    HW219728   0.591   4.191  12.026  0.5803  1.2509  0.1534
 2756SOL     OW19729   1.710   0.323  17.232  0.2107  0.2965  0.2161
 2756SOL    HW119730   1.748   0.264  17.297 -0.7708  0.1076  0.6211
 2756SOL    HW219731   1.618   0.298  17.245  1.1288 -2.2474  1.8251
 2757SOL     OW19732   2.046   0.627   8.286 -0.2260  0.0954  0.5310
 2757SOL    HW119733   2.093   0.702   8.322  2.2255 -2.2937  2.3044
 2757SOL    HW219734   1.981   0.607   8.354 -0.7348 -0.5841 -0.1595
 2758SOL     OW19735   2.009   2.080   6.787  0.0684  0.0856 -0.3397
 2758SOL    HW119736   1.940   2.044   6.843  0.3551 -0.1640 -0.1447
 2758SOL    HW219737   2.087   2.034   6.816 -0.5922 -1.1283 -0.4667
 2759SOL     OW19738   4.623   0.248   6.903 -0.3126 -0.0570  0.2714
 2759SOL    HW119739   4.647   0.170   6.853 -0.3008  1.3189 -1.8950
 2759SOL    HW219740   4.602   0.310   6.833 -1.5659 -0.4564  0.2865
 2760SOL     OW19741   2.364   0.557   3.037 -0.3625  0.7272  0.1376
 2760SOL    HW119742   2.288   0.609   3.012 -1.8397 -0.4576  2.1578
 2760SOL    HW219743   2.428   0.598   2.978  1.4646 -3.5750 -0.8926
 2761SOL     OW19744   3.156   3.423   5.414 -1.2666 -0.2716 -0.4246
 2761SOL    HW119745   3.220   3.438   5.484 -0.2940  0.4930 -1.4735
 2761SOL    HW219746   3.077   3.466   5.447 -0.3657  2.0355 -1.2025
 2762SOL     OW19747   3.200   4.310  16.713  0.1654  0.0322  0.7572
 2762SOL    HW119748   3.142   4.386  16.713 -1.1070 -0.9538 -0.5515
 2762SOL    HW219749   3.152   4.249  16.768  1.1307 -1.1172  0.3316
 2763SOL     OW19750   4.508   2.022  14.769  0.4068 -0.4613 -0.4921
 2763SOL    HW119751   4.443   2.041  14.703 -0.6164 -0.1594  0.6019
 2763SOL    HW219752   4.581   2.082  14.752  1.0566 -0.8290  0.9613
 2764SOL     OW19753   0.635   2.451   7.400  0.2904 -0.4437 -0.3309
 2764SOL    HW119754   0.607   2.406   7.320  0.2526 -0.1637 -0.4781
 2764SOL    HW219755   0.573   2.418   7.464  1.2143  2.1150  1.8838
 2765SOL     OW19756   2.076   1.294   1.227  0.0394 -0.2652 -0.2097
 2765SOL    HW119757   2.031   1.314   1.309  0.8671  1.3047 -0.1384
 2765SOL    HW219758   2.045   1.368   1.175 -1.7722 -0.2637  0.8995
 2766SOL     OW19759   1.536   3.696   5.948 -0.1022  0.0690 -0.5268
 2766SOL    HW119760   1.550   3.782   5.909  2.8465  0.1659  0.7856
 2766SOL    HW219761   1.546   3.703   6.043  2.5735 -1.3355 -0.6995
 2767SOL     OW19762   2.222   2.514  11.849  0.2571  0.1542 -0.0920
 2767SOL    HW119763   2.308   2.473  11.839 -0.0793 -0.1223 -1.7598
 2767SOL    HW219764   2.191   2.491  11.762  0.0648 -1.2209  0.3379
 2768SOL     OW19765   2.555   4.259   1.777  0.3439 -0.6006  0.5662
 2768SOL    HW119766   2.637   4.305   1.796 -1.2471  3.2237 -1.8599
 2768SOL    HW219767   2.598   4.173   1.780  1.9398  0.0411 -3.3582
 2769SOL     OW19768   3.528   2.831   1.334 -0.8801  0.1066 -0.4916
 2769SOL    HW119769   3.448   2.883   1.345 -0.1059  1.0653  0.6761
 2769SOL    HW219770   3.492   2.754   1.291 -0.5819 -0.7052  0.7094
 2770SOL     OW19771   3.678   3.093   7.450 -0.4938  0.1693 -0.4207
 2770SOL    HW119772   3.696   3.071   7.541 -3.3776  0.6169  0.2604
 2770SOL    HW219773   3.758   3.059   7.408 -1.0397 -1.4318 -0.1759
 2771SOL     OW19774   1.203   4.369  10.345 -0.1462 -0.1673 -0.0401
 2771SOL    HW119775   1.116   4.346  10.378  0.8311 -2.8220  0.6433
 2771SOL    HW219776   1.233   4.284  10.314 -1.8326 -1.8648  2.9732
 2772SOL     OW19777   2.702   3.683   3.741 -0.3140  0.6429  0.3854
 2772SOL    HW119778   2.650   3.639   3.673  1.3941 -0.6443 -0.0809
 2772SOL    HW219779   2.782   3.631   3.740  0.8990  2.5499  0.7270
 2773SOL     OW19780   3.321   3.518   3.854  0.3907  0.3388  0.4463
 2773SOL    HW119781   3.283   3.431   3.851  2.3888 -0.5302  0.6198
 2773SOL    HW219782   3.414   3.522   3.831  0.4338  2.3273  0.9743
 2774SOL     OW19783   4.018   2.024  14.322  0.3183 -0.3445  0.3013
 2774SOL    HW119784   4.098   1.982  14.290 -1.9303 -2.7478 -2.1047
 2774SOL    HW219785   3.990   1.957  14.385 -0.2047 -0.8315 -0.4556
 2775SOL     OW19786   2.733   4.230   2.915 -0.0039  0.2873  0.1497
 2775SOL    HW119787   2.741   4.311   2.865  2.0882  0.0915  0.1558
 2775SOL    HW219788   2.709   4.160   2.854 -0.7771 -1.3517  2.3074
 2776SOL     OW19789   3.759   1.797  15.059  0.6706  0.1740  0.1493
 2776SOL    HW119790   3.722   1.742  15.128  0.6683  0.2299  0.1930
 2776SOL    HW219791   3.685   1.844  15.022  0.0098 -2.1403 -1.4747
 2777SOL     OW19792   3.994   4.499   9.026 -0.1181  0.4982 -0.1677
 2777SOL    HW119793   3.922   4.519   9.087 -0.5815  0.6749 -0.7694
 2777SOL    HW219794   3.984   4.572   8.966 -1.2622  1.0295  0.6582
 2778SOL     OW19795   0.445   3.222   4.430 -0.3922 -0.4076  0.5618
 2778SOL    HW119796   0.366   3.227   4.376  0.6118  0.7719 -0.8240
 2778SOL    HW219797   0.491   3.142   4.406 -0.1403  0.6087 -2.3577
 2779SOL     OW19798   1.418   1.796   4.684 -0.8294 -0.0762  0.3893
 2779SOL    HW119799   1.331   1.799   4.645 -0.1843 -0.3161 -1.0973
 2779SOL    HW219800   1.461   1.852   4.618 -0.5089 -1.2474 -0.4040
 2780SOL     OW19801   3.393   2.096   5.450 -0.2876  0.7940 -0.3857
 2780SOL    HW119802   3.329   2.027   5.466 -0.3891  0.7416 -0.9919
 2780SOL    HW219803   3.353   2.172   5.492 -1.2330  0.3881 -0.5357
 2781SOL     OW19804   1.557   4.061   6.239  0.3370 -0.3002 -0.5361
 2781SOL    HW119805   1.605   3.990   6.195 -1.6460 -1.5813 -0.6563
 2781SOL    HW219806   1.480   4.024   6.282 -1.0775  0.3786 -2.4740
 2782SOL     OW19807   3.545   0.493   4.320 -0.2766 -0.0608 -0.5283
 2782SOL    HW119808   3.559   0.586   4.305  1.9626 -0.2650  0.2688
 2782SOL    HW219809   3.522   0.461   4.232  0.9175 -0.3735 -0.7252
 2783SOL     OW19810   2.847   2.878   6.394  0.6483  0.2885 -0.1693
 2783SOL    HW119811   2.904   2.895   6.468 -0.9998  0.2407  1.1217
 2783SOL    HW219812   2.796   2.804   6.428 -0.8026  0.7767 -1.2696
 2784SOL     OW19813   2.218   1.542   6.874 -0.3590  0.2752  0.1557
 2784SOL    HW119814   2.149   1.604   6.851 -1.0660 -0.4325  0.3879
 2784SOL    HW219815   2.217   1.480   6.801  0.6372 -0.3674  0.6906
 2785SOL     OW19816   1.454   2.201   1.053  0.5335  0.4188  0.5923
 2785SOL    HW119817   1.428   2.126   1.106 -0.0003  0.0422 -0.2047
 2785SOL    HW219818   1.448   2.263   1.126  0.7150  0.0495  0.9174
 2786SOL     OW19819   4.567   0.736   1.616  0.1206 -0.5397 -0.0648
 2786SOL    HW119820   4.615   0.719   1.697 -1.2044  0.8937  1.0258
 2786SOL    HW219821   4.488   0.683   1.629 -0.6061  0.5619  0.0347
 2787SOL     OW19822   0.428   2.525  15.252 -0.4400 -0.5478  0.1911
 2787SOL    HW119823   0.480   2.446  15.268  0.6787 -0.3999 -2.5387
 2787SOL    HW219824   0.481   2.574  15.188 -1.1664 -0.5521 -0.4137
 2788SOL     OW19825   0.535   1.518   5.810 -0.2087 -0.3447 -0.4560
 2788SOL    HW119826   0.451   1.552   5.839 -0.1044  0.8374 -1.5770
 2788SOL    HW219827   0.598   1.587   5.831  1.3478 -1.0913 -2.7307
 2789SOL     OW19828   1.381   2.545  14.702  0.2043 -0.4583 -0.1098
 2789SOL    HW119829   1.414   2.630  14.732  0.4519  0.0364 -1.7853
 2789SOL    HW219830   1.425   2.490  14.766  0.1497 -0.1972  0.1492
 2790SOL     OW19831   4.008   4.418   8.237 -0.3717  0.3465  0.1600
 2790SOL    HW119832   3.969   4.483   8.296  0.8882 -1.6598  3.2260
 2790SOL    HW219833   3.955   4.435   8.159  1.2496 -1.6194 -1.3650
 2791SOL     OW19834   4.673   1.086   5.472 -0.0895 -0.1848 -0.0623
 2791SOL    HW119835   4.717   1.008   5.438  2.4812  1.3133 -0.1522
 2791SOL    HW219836   0.018   1.147   5.492  2.0976 -2.6545 -0.2240
 2792SOL     OW19837   4.208   2.703  16.127  0.2474 -0.0142 -0.1282
 2792SOL    HW119838   4.296   2.666  16.134 -0.9200 -2.3677  2.1493
 2792SOL    HW219839   4.229   2.781  16.178 -2.0756  1.1707 -0.9903
 2793SOL     OW19840   1.582   4.713   2.992  0.0934  0.1700 -0.3957
 2793SOL    HW119841   1.581   4.648   3.062 -4.5186  0.8855  0.2209
 2793SOL    HW219842   1.674   0.013   2.982  0.0014  0.2536 -1.0810
 2794SOL     OW19843   4.079   3.915  13.356 -0.1730 -0.4520  0.3396
 2794SOL    HW119844   4.095   3.916  13.262 -2.0875  2.1741  0.0433
 2794SOL    HW219845   4.028   3.838  13.377  1.4728 -0.6056  3.8106
 2795SOL     OW19846   0.405   1.154   7.029 -0.2063 -0.1173 -0.9769
 2795SOL    HW119847   0.426   1.124   7.118  0.0855  0.9941 -0.6694
 2795SOL    HW219848   0.333   1.094   7.008  0.0946 -0.1335 -1.9614
 2796SOL     OW19849   2.526   4.123  16.523 -0.4798 -0.2016  0.3338
 2796SOL    HW119850   2.534   4.081  16.437 -0.6724  0.8359 -0.1917
 2796SOL    HW219851   2.509   4.050  16.582  0.7921 -0.2383  0.6531
 2797SOL     OW19852   4.132   0.579   9.131 -0.2155 -0.2157 -0.2598
 2797SOL    HW119853   4.050   0.609   9.091 -0.1682  0.5059  0.1793
 2797SOL    HW219854   4.188   0.628   9.071  0.3415  1.2979  1.4694
 2798SOL     OW19855   4.436   2.761   4.202 -0.4068  0.3215  0.3800
 2798SOL    HW119856   4.458   2.847   4.238  1.1147  0.0118  0.2172
 2798SOL    HW219857   4.376   2.774   4.129  2.3680  1.3907 -1.6824
 2799SOL     OW19858   2.480   0.566  11.955  0.1499 -0.6062  0.5504
 2799SOL    HW119859   2.402   0.569  12.010  0.6364  0.1106  1.1962
 2799SOL    HW219860   2.546   0.600  12.015  0.4937  1.0018 -0.7358
 2800SOL     OW19861   1.404   3.559   6.208  0.5879  0.2814  0.0661
 2800SOL    HW119862   1.399   3.596   6.296 -0.7158  0.1081  0.0707
 2800SOL    HW219863   1.476   3.498   6.223 -0.1691 -1.2073 -2.2723
 2801SOL     OW19864   3.573   2.707   6.006  0.1698  0.1573  0.2077
 2801SOL    HW119865   3.527   2.627   6.030 -0.5770  0.9467  1.4415
 2801SOL    HW219866   3.662   2.706   6.042 -0.5379 -1.6012  1.9508
 2802SOL     OW19867   0.463   3.643   9.722  0.1467  0.4084 -0.2636
 2802SOL    HW119868   0.415   3.562   9.739  1.1704 -0.8993 -3.5275
 2802SOL    HW219869   0.556   3.619   9.722  0.7204  2.7071 -0.2057
 2803SOL     OW19870   0.180   1.620   3.887  0.0825 -0.3163  0.2534
 2803SOL    HW119871   0.274   1.613   3.868 -0.1271  1.2937 -1.3920
 2803SOL    HW219872   0.135   1.644   3.806 -2.4898  0.3889  1.8722
 2804SOL     OW19873   0.222   4.657   5.082 -0.5890 -0.2746  0.3199
 2804SOL    HW119874   0.271   4.587   5.124 -1.1621 -0.9692 -0.1761
 2804SOL    HW219875   0.287   4.722   5.109 -0.9325 -0.4055  1.4710
 2805SOL     OW19876   4.506   0.751   7.728 -0.8853  0.2349  0.2090
 2805SOL    HW119877   4.431   0.780   7.780 -1.3367  1.3600 -1.0750
 2805SOL    HW219878   4.523   0.832   7.681 -0.1303 -1.0453 -1.7428
 2806SOL     OW19879   4.519   4.386   4.275  0.2344  0.2172 -0.0946
 2806SOL    HW119880   4.518   4.475   4.310 -1.3609 -0.1552  0.8000
 2806SOL    HW219881   4.473   4.399   4.192  0.3730  1.1936 -0.0154
 2807SOL     OW19882   3.570   0.572  12.910  0.0944 -0.0487  0.1906
 2807SOL    HW119883   3.486   0.553  12.951 -1.1350  2.4912 -1.2149
 2807SOL    HW219884   3.627   0.519  12.966  2.6599  3.2659  0.7001
 2808SOL     OW19885   0.852   0.914   5.764  0.6007 -0.8272  0.9333
 2808SOL    HW119886   0.942   0.945   5.774 -0.3669  2.3975 -0.4963
 2808SOL    HW219887   0.813   0.993   5.801  0.7420  0.0948 -0.9047
 2809SOL     OW19888   1.345   1.687  11.413  0.1104  0.2189  0.2467
 2809SOL    HW119889   1.282   1.689  11.341 -0.8730 -2.1221  1.0582
 2809SOL    HW219890   1.414   1.632  11.377  0.2932  0.7613 -0.2303
 2810SOL     OW19891   3.567   3.658   0.531  0.1063  0.3016 -0.1723
 2810SOL    HW119892   3.524   3.736   0.498  0.3327 -0.4033 -2.1019
 2810SOL    HW219893   3.504   3.589   0.509  0.1820  0.0672  0.3370
 2811SOL     OW19894   1.216   1.273  10.858 -0.3803  0.2219 -0.0030
 2811SOL    HW119895   1.135   1.271  10.908 -0.4375 -0.4557 -0.1266
 2811SOL    HW219896   1.241   1.365  10.864 -0.5679  0.2095  0.8989
 2812SOL     OW19897   3.004   0.452   3.941  0.6095 -0.3919  0.2915
 2812SOL    HW119898   3.075   0.450   4.004 -0.2162 -1.2294  1.1804
 2812SOL    HW219899   3.023   0.514   3.870 -0.3479  1.3799  1.5888
 2813SOL     OW19900   4.413   4.640   5.317 -0.1934  0.5501 -0.6852
 2813SOL    HW119901   4.447   4.554   5.290  1.5216  1.1865 -0.5297
 2813SOL    HW219902   4.373   4.618   5.401 -1.6086  0.2740 -1.4303
 2814SOL     OW19903   2.266   4.110   3.998 -0.5370  0.2054  0.1406
 2814SOL    HW119904   2.210   4.187   3.994 -1.6531 -0.6657 -1.5315
 2814SOL    HW219905   2.326   4.140   3.930  1.7848  2.3686  3.1400
 2815SOL     OW19906   4.066   1.594  10.477  0.1557 -0.1609 -0.1435
 2815SOL    HW119907   4.158   1.570  10.467  0.9415  3.6150 -1.7875
 2815SOL    HW219908   4.056   1.686  10.455  0.1285 -0.0368  0.3871
 2816SOL     OW19909   3.370   3.238  13.688 -0.6146 -0.5632 -0.1135
 2816SOL    HW119910   3.396   3.175  13.755  2.1069 -0.2580 -0.8725
 2816SOL    HW219911   3.344   3.319  13.732  1.3350  0.3219 -0.6225
 2817SOL     OW19912   2.305   1.013   2.372 -0.6121  0.5939 -0.1385
 2817SOL    HW119913   2.375   1.052   2.319 -2.1320  1.1974 -1.7033
 2817SOL    HW219914   2.314   0.920   2.351 -1.5486  0.3028  0.7962
 2818SOL     OW19915   0.310   3.753   3.001  0.1984 -0.7630 -0.0007
 2818SOL    HW119916   0.337   3.739   2.911 -0.8303  0.5090 -0.5133
 2818SOL    HW219917   0.363   3.832   3.013  1.6739 -1.5557 -1.3538
 2819SOL     OW19918   0.862   1.968   3.499 -0.5416  0.1509  0.2645
 2819SOL    HW119919   0.886   1.914   3.423 -2.0684  0.7325 -0.6248
 2819SOL    HW219920   0.896   2.053   3.469  0.4354 -0.7876 -1.2892
 2820SOL     OW19921   0.406   3.329   7.010 -0.3053 -0.0799 -0.2519
 2820SOL    HW119922   0.388   3.304   7.101  0.5087 -1.1445 -0.3868
 2820SOL    HW219923   0.477   3.392   7.021 -0.4871 -0.0606  0.7828
 2821SOL     OW19924   2.737   2.056  15.450 -0.1971 -0.0921  0.4162
 2821SOL    HW119925   2.832   2.056  15.464 -0.4717 -0.3748  2.3311
 2821SOL    HW219926   2.708   1.981  15.502 -0.4042  0.8566  1.6577
 2822SOL     OW19927   4.339   2.882   5.067  0.0603  1.1961  0.0100
 2822SOL    HW119928   4.392   2.893   4.988  0.1119  0.9986  0.0173
 2822SOL    HW219929   4.398   2.831   5.122  0.2591 -0.3384 -1.6505
 2823SOL     OW19930   0.512   1.193  12.791 -0.2714  0.2576 -0.5286
 2823SOL    HW119931   0.605   1.189  12.770 -0.4133 -1.9111 -0.7695
 2823SOL    HW219932   0.523   1.160  12.880  0.1225 -0.2178 -0.7499
 2824SOL     OW19933   4.550   0.330   4.236  0.0431  0.1850  0.3082
 2824SOL    HW119934   4.641   0.317   4.210 -0.8012 -2.5546 -1.3501
 2824SOL    HW219935   4.518   0.377   4.160  1.4551  0.8124  0.0939
 2825SOL     OW19936   1.117   4.171   3.398 -0.0080  0.1573 -0.2827
 2825SOL    HW119937   1.093   4.094   3.449  0.6494  0.3892  0.3791
 2825SOL    HW219938   1.123   4.144   3.306 -0.1357  1.0626 -0.5542
 2826SOL     OW19939   1.634   2.370   5.895 -0.6529  0.0842 -0.3272
 2826SOL    HW119940   1.592   2.338   5.815 -2.5802  1.9853 -0.0682
 2826SOL    HW219941   1.610   2.302   5.958  0.1618 -2.0621 -2.2936
 2827SOL     OW19942   0.651   2.964  10.735  0.0263 -0.3540  0.5763
 2827SOL    HW119943   0.635   3.055  10.760  1.7863  0.3408 -0.7943
 2827SOL    HW219944   0.696   2.932  10.814  1.4604 -2.7237 -1.1891
 2828SOL     OW19945   2.535   4.276  15.191  0.4660  0.7827  0.1865
 2828SOL    HW119946   2.616   4.316  15.223  0.4751  1.7046 -0.9590
 2828SOL    HW219947   2.467   4.330  15.232  0.4698  0.7289  0.2637
 2829SOL     OW19948   3.488   3.588  13.657  0.2570 -0.6539 -0.0720
 2829SOL    HW119949   3.408   3.541  13.634  0.5246 -1.3283  0.3928
 2829SOL    HW219950   3.511   3.626  13.572 -3.3336 -0.2245 -0.8535
 2830SOL     OW19951   4.642   3.181  17.142 -0.3243 -0.2181 -0.2495
 2830SOL    HW119952   4.669   3.165  17.233  0.8597 -0.4966 -0.6435
 2830SOL    HW219953   4.718   3.139  17.102 -1.2951 -2.9109  0.6899
 2831SOL     OW19954   0.662   3.810   4.129 -0.6686 -0.0904  0.0765
 2831SOL    HW119955   0.713   3.765   4.062 -3.1971 -1.8955 -0.6229
 2831SOL    HW219956   0.723   3.800   4.202  0.9221  1.4695 -1.0068
 2832SOL     OW19957   1.420   0.927   5.132 -0.2296  0.2331 -0.0052
 2832SOL    HW119958   1.404   0.890   5.045 -2.4956  1.0146  0.0823
 2832SOL    HW219959   1.339   0.978   5.132 -0.5816 -0.3338 -0.6040
 2833SOL     OW19960   0.337   1.659  11.611  0.0990  0.2393  0.2127
 2833SOL    HW119961   0.417   1.636  11.658  0.0360 -1.2140 -0.3890
 2833SOL    HW219962   0.361   1.636  11.521  0.5856  2.6051 -0.2676
 2834SOL     OW19963   2.574   4.638   4.460 -0.4740 -0.3036 -0.7400
 2834SOL    HW119964   2.660   4.603   4.439  0.8913  3.0314 -0.6211
 2834SOL    HW219965   2.600   4.694   4.533 -0.7233 -1.0167 -0.0996
 2835SOL     OW19966   1.285   4.538   5.225  0.1106  0.3438 -0.2893
 2835SOL    HW119967   1.247   4.512   5.309 -2.7255  2.6111 -0.8690
 2835SOL    HW219968   1.337   4.614   5.252 -0.2928  0.8918 -1.0516
 2836SOL     OW19969   0.592   3.376   3.978  0.1099 -0.6046  0.8264
 2836SOL    HW119970   0.540   3.297   3.988  0.0759 -0.8405 -1.0916
 2836SOL    HW219971   0.536   3.442   4.019  0.8296  0.3817  0.2334
 2837SOL     OW19972   3.653   2.129   7.902  0.2213  0.3189 -0.5637
 2837SOL    HW119973   3.694   2.045   7.878 -1.0710 -0.2437 -0.8199
 2837SOL    HW219974   3.647   2.169   7.815 -1.4699 -1.2721 -1.1760
 2838SOL     OW19975   0.844   1.121   6.378 -0.0545 -0.3303  0.4759
 2838SOL    HW119976   0.772   1.169   6.420  0.2601  1.4839 -1.0185
 2838SOL    HW219977   0.874   1.189   6.318  1.5533 -0.2940  1.3192
 2839SOL     OW19978   3.402   3.358   5.183  0.3486  0.1208  0.2296
 2839SOL    HW119979   3.413   3.315   5.097 -0.7240  1.2974 -0.5026
 2839SOL    HW219980   3.489   3.339   5.218 -0.4918 -0.2581  2.0925
 2840SOL     OW19981   4.306   0.003  14.635  0.7314  0.1920 -0.3495
 2840SOL    HW119982   4.374   0.033  14.575  0.2124  2.2336  0.0932
 2840SOL    HW219983   4.224   0.023  14.591  0.0961 -3.7258 -0.9870
 2841SOL     OW19984   0.211   4.210   7.344  0.0950  0.0629 -0.0615
 2841SOL    HW119985   0.158   4.211   7.424 -2.2636  0.4425 -1.6136
 2841SOL    HW219986   0.290   4.264   7.350  0.7421 -0.6692 -1.9989
 2842SOL     OW19987   3.366   4.272   6.827  0.4928 -0.8820  0.5498
 2842SOL    HW119988   3.322   4.328   6.891  0.6310  0.3606 -0.4411
 2842SOL    HW219989   3.427   4.211   6.870 -0.7524 -0.8697  2.3063
 2843SOL     OW19990   1.290   3.974   5.930  0.2035  0.1520 -0.4940
 2843SOL    HW119991   1.334   4.056   5.954 -1.3881  0.8851 -0.1118
 2843SOL    HW219992   1.343   3.947   5.854  3.0697 -0.7972  1.8441
 2844SOL     OW19993   0.663   0.331   8.098 -0.2674 -0.6792  0.0873
 2844SOL    HW119994   0.739   0.330   8.156  0.1578  1.4081 -0.4441
 2844SOL    HW219995   0.708   0.358   8.017 -0.4265  1.4384  0.7225
 2845SOL     OW19996   0.329   3.317   7.265  0.0197 -0.2904 -0.0068
 2845SOL    HW119997   0.241   3.286   7.288 -0.5393  3.1224  2.6113
 2845SOL    HW219998   0.324   3.405   7.303 -1.8484 -0.2693 -0.3065
 2846SOL     OW19999   0.743   3.850   5.456  0.1299 -0.6811  0.6737
 2846SOL    HW120000   0.770   3.782   5.395  1.9144  0.6127  0.0128
 2846SOL    HW220001   0.795   3.824   5.531 -0.1834  1.9223  1.8179
 2847SOL     OW20002   3.992   1.070   3.426 -0.3114 -0.3705 -0.3304
 2847SOL    HW120003   3.962   1.159   3.446  2.0868 -0.2177  2.6339
 2847SOL    HW220004   3.904   1.043   3.400 -0.1125  0.7298 -2.1903
 2848SOL     OW20005   3.841   2.660   2.454  0.6150 -0.1366  0.4964
 2848SOL    HW120006   3.753   2.628   2.431  1.5037 -0.3608 -2.6333
 2848SOL    HW220007   3.899   2.609   2.398 -0.1828 -0.2791 -0.2088
 2849SOL     OW20008   0.272   0.787   2.147 -0.9337 -0.2405  0.6344
 2849SOL    HW120009   0.216   0.805   2.223 -0.8002 -0.2931  0.7445
 2849SOL    HW220010   0.268   0.692   2.135  1.5718 -0.5319  2.1275
 2850SOL     OW20011   2.517   0.301   7.153  0.2876 -0.3186 -0.9348
 2850SOL    HW120012   2.433   0.348   7.150  0.2308 -0.2057  1.9949
 2850SOL    HW220013   2.550   0.320   7.066  0.4971  3.7762  0.0251
 2851SOL     OW20014   3.634   1.157   7.082 -0.1350  0.3751  0.1063
 2851SOL    HW120015   3.598   1.068   7.086  0.9415 -0.0480  0.5268
 2851SOL    HW220016   3.725   1.127   7.089 -0.2682 -0.4022 -1.2734
 2852SOL     OW20017   2.295   1.159   0.140  0.4164  0.1887  0.2757
 2852SOL    HW120018   2.233   1.087   0.129 -0.5355  1.1825 -0.8549
 2852SOL    HW220019   2.346   1.153   0.059 -0.4905 -0.6970 -0.2374
 2853SOL     OW20020   3.488   4.282   3.890 -0.0270  0.1505  0.0356
 2853SOL    HW120021   3.463   4.373   3.899 -0.2299 -0.0470  1.4060
 2853SOL    HW220022   3.406   4.233   3.887  0.6795 -1.0110 -0.4637
 2854SOL     OW20023   2.737   3.446   2.704 -0.1163  0.3043  0.5450
 2854SOL    HW120024   2.766   3.392   2.779 -1.4421 -0.5626  0.4271
 2854SOL    HW220025   2.812   3.506   2.700 -0.7425  1.0020 -0.6136
 2855SOL     OW20026   4.104   4.579   7.922  0.4674 -0.2875 -0.8588
 2855SOL    HW120027   4.026   4.557   7.972  1.4916  0.4063  1.0158
 2855SOL    HW220028   4.139   4.647   7.979 -0.9938 -0.6096  0.3907
 2856SOL     OW20029   4.235   0.310  11.893  0.1212  0.8956 -0.6285
 2856SOL    HW120030   4.318   0.316  11.940  0.1031 -1.4646 -0.3014
 2856SOL    HW220031   4.242   0.236  11.833 -0.5206  2.6235 -2.8342
 2857SOL     OW20032   0.345   1.047   6.209 -0.3225 -0.7389  0.3423
 2857SOL    HW120033   0.345   1.025   6.116 -0.7390  2.2193 -0.3525
 2857SOL    HW220034   0.257   1.084   6.216 -0.0419  0.0838 -0.4646
 2858SOL     OW20035   0.575   3.962   7.079 -0.4069  0.4467 -0.0086
 2858SOL    HW120036   0.492   3.995   7.113  0.1553  0.7342  1.0812
 2858SOL    HW220037   0.594   3.902   7.151  1.4587  0.3429 -0.5909
 2859SOL     OW20038   1.139   2.402  16.732  0.2313 -0.1437 -0.8349
 2859SOL    HW120039   1.219   2.375  16.776  1.7394  2.7862 -1.7706
 2859SOL    HW220040   1.154   2.493  16.709 -0.6798  0.0697 -0.5817
 2860SOL     OW20041   2.377   3.765  12.523 -0.7188  0.1118 -0.1008
 2860SOL    HW120042   2.406   3.759  12.432 -1.3401 -0.8706 -0.2262
 2860SOL    HW220043   2.284   3.788  12.529 -0.6741  0.2210  0.1822
 2861SOL     OW20044   1.236   3.495   5.629 -0.3007  0.1874  0.7837
 2861SOL    HW120045   1.242   3.575   5.577 -0.5612 -0.0685  0.3547
 2861SOL    HW220046   1.211   3.435   5.558  0.3509  0.0390  0.6852
 2862SOL     OW20047   0.418   0.091  11.237  0.3510 -0.2362 -0.1730
 2862SOL    HW120048   0.381   0.084  11.149  1.0809  1.0488 -0.5896
 2862SOL    HW220049   0.465   0.007  11.236  1.5896  0.4733 -1.6056
 2863SOL     OW20050   0.245   3.004   6.463  0.0727 -0.2568  0.2132
 2863SOL    HW120051   0.169   2.954   6.435  0.0043 -1.3390  2.3233
 2863SOL    HW220052   0.314   2.977   6.402  0.5210  0.4441  0.4104
 2864SOL     OW20053   1.363   0.612   4.507  0.0630 -0.0607  0.0705
 2864SOL    HW120054   1.442   0.635   4.458  0.0927 -0.0683  0.1154
 2864SOL    HW220055   1.379   0.529   4.552 -1.1670  0.5826  1.6841
 2865SOL     OW20056   3.330   4.668   5.519 -0.9783  0.2095 -0.1029
 2865SOL    HW120057   3.272   4.654   5.594  0.2207 -1.1306  0.5668
 2865SOL    HW220058   3.349   4.582   5.481 -1.8710 -0.0073 -0.0707
 2866SOL     OW20059   0.316   3.856   8.421 -0.0444  0.3426 -0.1629
 2866SOL    HW120060   0.331   3.947   8.444 -0.4187  0.0450  1.2715
 2866SOL    HW220061   0.375   3.838   8.348  1.7729  0.7565  1.2063
 2867SOL     OW20062   3.892   2.464   7.654 -0.2079 -0.1186 -0.0776
 2867SOL    HW120063   3.818   2.524   7.651  0.2887  0.4729 -1.0257
 2867SOL    HW220064   3.915   2.470   7.561  0.4464  0.5421  0.1222
 2868SOL     OW20065   0.137   1.271   1.003 -0.5727  0.3965  0.6187
 2868SOL    HW120066   0.057   1.323   0.998 -0.9153 -0.1097  0.8391
 2868SOL    HW220067   0.101   1.186   1.029  4.1083 -2.5125 -2.5623
 2869SOL     OW20068   2.379   1.542  12.052  0.0733  0.4146 -0.1855
 2869SOL    HW120069   2.320   1.478  12.013  1.0691  0.1626 -1.2518
 2869SOL    HW220070   2.456   1.488  12.071  0.8613  0.5269 -3.1429
 2870SOL     OW20071   1.684   0.501  12.468 -0.2142  0.0537  0.8328
 2870SOL    HW120072   1.683   0.539  12.380 -0.1957 -1.6422  0.0943
 2870SOL    HW220073   1.753   0.437  12.453  0.2554  0.0213  3.1366
 2871SOL     OW20074   0.607   1.270   8.574 -0.1474 -0.2919 -0.1619
 2871SOL    HW120075   0.701   1.255   8.585 -0.2820 -1.9849 -1.4225
 2871SOL    HW220076   0.571   1.225   8.651 -1.5598 -1.3478 -1.4377
 2872SOL     OW20077   2.888   2.141  11.774 -0.0292 -0.2650 -0.2439
 2872SOL    HW120078   2.875   2.058  11.727  1.0121  0.8476 -2.5152
 2872SOL    HW220079   2.984   2.141  11.777 -0.0094 -2.2090 -0.6055
 2873SOL     OW20080   3.865   3.787   1.597 -0.1269  0.6562  0.1148
 2873SOL    HW120081   3.917   3.790   1.517  1.0519  1.9294  0.9302
 2873SOL    HW220082   3.787   3.842   1.585 -0.6781 -0.1973 -0.1889
 2874SOL     OW20083   2.331   0.642   3.573 -0.4184  0.1093 -0.2704
 2874SOL    HW120084   2.336   0.663   3.480  1.1249 -1.2538 -0.4947
 2874SOL    HW220085   2.423   0.649   3.598 -0.3865  0.9479 -0.6299
 2875SOL     OW20086   4.417   3.897  13.684 -0.1172 -0.5428 -0.5040
 2875SOL    HW120087   4.496   3.943  13.656  0.1201 -0.5738  0.1303
 2875SOL    HW220088   4.448   3.807  13.697  0.7222 -0.7535 -3.7611
 2876SOL     OW20089   2.045   1.080   7.308 -0.7820  0.6031 -0.1021
 2876SOL    HW120090   1.987   1.007   7.332  0.0071  0.1307  0.3469
 2876SOL    HW220091   2.128   1.050   7.344  1.4429  1.3801 -4.5876
 2877SOL     OW20092   0.567   1.715   4.824  0.5450 -0.3564 -0.4033
 2877SOL    HW120093   0.538   1.735   4.735 -0.2793 -0.2860 -0.1252
 2877SOL    HW220094   0.535   1.626   4.838  1.3295 -0.5173  0.3559
 2878SOL     OW20095   2.173   2.158   2.521  0.7531 -0.3966 -0.5646
 2878SOL    HW120096   2.208   2.142   2.434  0.7754  1.4122 -0.8831
 2878SOL    HW220097   2.253   2.175   2.571 -0.7072 -0.2696  1.7211
 2879SOL     OW20098   1.506   1.989  14.377  1.0804 -0.2092 -0.1073
 2879SOL    HW120099   1.413   2.000  14.396  1.5115 -1.2464  2.6456
 2879SOL    HW220100   1.506   1.981  14.282 -0.5960 -3.3852  0.1484
 2880SOL     OW20101   4.540   2.087   7.731 -0.4663 -0.2932  0.1805
 2880SOL    HW120102   4.581   2.168   7.760  1.1475 -1.8207  2.1478
 2880SOL    HW220103   4.552   2.031   7.807 -0.1108 -0.4539  0.0068
 2881SOL     OW20104   3.397   0.553   8.203  0.1966 -0.4033  0.0224
 2881SOL    HW120105   3.361   0.641   8.216  0.7383 -0.0473 -0.9206
 2881SOL    HW220106   3.353   0.505   8.273 -0.8530  1.0841  0.3833
 2882SOL     OW20107   1.556   0.607   8.561 -0.0006  0.1976 -0.4769
 2882SOL    HW120108   1.469   0.575   8.537 -0.2414 -1.0956  2.0526
 2882SOL    HW220109   1.563   0.576   8.652  0.0025  1.8083  0.0630
 2883SOL     OW20110   0.516   2.634  14.993  0.1057  0.1338  0.6639
 2883SOL    HW120111   0.485   2.719  15.023 -1.8612 -0.5749  0.6425
 2883SOL    HW220112   0.490   2.640  14.901  1.8763  1.7575  0.2650
 2884SOL     OW20113   2.865   4.528   6.751  0.0518  0.5088 -0.1346
 2884SOL    HW120114   2.839   4.524   6.843 -0.9282 -2.8559 -0.5401
 2884SOL    HW220115   2.920   4.450   6.747  0.1148  0.5494 -0.0439
 2885SOL     OW20116   0.418   3.636   1.632  0.2675 -0.0999  0.8562
 2885SOL    HW120117   0.355   3.628   1.561  1.0056  1.3306  0.0189
 2885SOL    HW220118   0.384   3.565   1.686 -2.0049  1.2598  1.2441
 2886SOL     OW20119   0.555   4.435   8.507  0.2109 -0.2561 -0.0688
 2886SOL    HW120120   0.527   4.498   8.573  0.7705 -1.4296  1.2790
 2886SOL    HW220121   0.609   4.485   8.445 -1.8831  0.2767 -1.4492
 2887SOL     OW20122   3.727   1.391  15.109  0.2119 -0.3178  0.6349
 2887SOL    HW120123   3.790   1.319  15.107  0.7604  0.1882 -0.6284
 2887SOL    HW220124   3.647   1.355  15.072  1.1754 -2.1290  0.3405
 2888SOL     OW20125   2.908   1.600   5.891  0.1951  0.0896 -0.5852
 2888SOL    HW120126   2.852   1.655   5.945 -0.2603 -0.2521 -0.7071
 2888SOL    HW220127   2.993   1.642   5.900  0.2387 -0.2821  0.7364
 2889SOL     OW20128   3.430   3.247   9.792 -0.3130  0.4321 -0.2041
 2889SOL    HW120129   3.346   3.203   9.781 -0.4693  0.2815  1.5697
 2889SOL    HW220130   3.450   3.227   9.884 -2.6372 -2.1440 -0.2505
 2890SOL     OW20131   2.611   4.378   9.573 -0.2807 -0.6216 -0.4605
 2890SOL    HW120132   2.635   4.432   9.648  1.1079 -0.5689 -0.9231
 2890SOL    HW220133   2.687   4.321   9.559 -0.5523 -0.8466 -1.0321
 2891SOL     OW20134   3.969   2.076  12.717  0.6578  0.2545  0.1014
 2891SOL    HW120135   4.019   1.999  12.688 -0.3977 -0.6353  0.6567
 2891SOL    HW220136   3.907   2.032  12.775 -0.9496  0.6598 -1.3132
 2892SOL     OW20137   1.490   3.699   4.620  0.3700  0.1620 -0.1643
 2892SOL    HW120138   1.455   3.624   4.668  1.2334 -1.3206 -1.8391
 2892SOL    HW220139   1.410   3.730   4.576  1.1069  0.0653 -1.5748
 2893SOL     OW20140   2.904   3.950   8.413 -0.2270  0.2210  0.5612
 2893SOL    HW120141   2.884   3.861   8.441  2.0849 -0.5960 -0.3324
 2893SOL    HW220142   2.977   3.967   8.473 -0.5887  0.1822  1.0110
 2894SOL     OW20143   3.386   4.140   6.580  0.1158  0.3943 -0.0650
 2894SOL    HW120144   3.414   4.052   6.607  0.3797  0.4313 -0.2145
 2894SOL    HW220145   3.394   4.185   6.664 -4.7747 -2.1929  1.7937
 2895SOL     OW20146   4.422   0.746  10.154  0.4133  0.4575 -0.6787
 2895SOL    HW120147   4.497   0.713  10.203 -1.6615  0.1771  2.2867
 2895SOL    HW220148   4.341   0.710  10.190  0.6801  1.1547  0.6392
 2896SOL     OW20149   1.249   4.672   9.549 -0.5540  0.2860 -0.4314
 2896SOL    HW120150   1.177   0.002   9.520 -2.2174 -1.7237 -0.1582
 2896SOL    HW220151   1.215   4.658   9.637 -1.0975  0.2165 -0.6509
 2897SOL     OW20152   1.284   4.432   1.740 -0.0706 -0.0410 -0.3338
 2897SOL    HW120153   1.219   4.454   1.674  1.4408  1.5336 -1.2964
 2897SOL    HW220154   1.251   4.344   1.759  1.5546 -0.5088  0.3525
 2898SOL     OW20155   1.591   3.099   3.083 -0.3309  0.5279  0.4388
 2898SOL    HW120156   1.516   3.091   3.024 -2.7331 -0.1892  3.5405
 2898SOL    HW220157   1.655   3.140   3.025  1.4492 -2.6649  0.1735
 2899SOL     OW20158   0.680   0.334   6.732 -0.2558 -0.2485 -0.2085
 2899SOL    HW120159   0.645   0.271   6.795 -0.1659 -0.5799 -0.4858
 2899SOL    HW220160   0.727   0.277   6.670  1.3272 -1.5492  2.1766
 2900SOL     OW20161   3.768   3.274   6.191  0.1408  0.1388  0.0823
 2900SOL    HW120162   3.764   3.279   6.286  0.1913 -2.7005  0.2390
 2900SOL    HW220163   3.752   3.362   6.156 -0.1161  0.1719  0.2810
 2901SOL     OW20164   0.132   0.967   5.713  0.2165  0.5918  0.0544
 2901SOL    HW120165   0.152   1.045   5.662 -0.4273  0.3856 -0.5121
 2901SOL    HW220166   0.100   0.906   5.646  1.4516  0.7362 -0.6649
 2902SOL     OW20167   2.203   0.449  11.791 -0.2574 -0.3473  0.2418
 2902SOL    HW120168   2.209   0.513  11.862  0.3587  0.8123 -0.8620
 2902SOL    HW220169   2.128   0.395  11.817  0.9361 -2.8143 -1.4292
 2903SOL     OW20170   2.546   0.340   1.501  0.0539  0.3928 -0.3037
 2903SOL    HW120171   2.608   0.316   1.569 -0.6386 -1.2573 -0.2524
 2903SOL    HW220172   2.470   0.287   1.523  0.2190 -0.0431 -0.7752
 2904SOL     OW20173   2.400   3.314  12.257  0.3992 -0.3549 -0.2147
 2904SOL    HW120174   2.403   3.410  12.255 -3.2416 -0.2018  1.6392
 2904SOL    HW220175   2.366   3.278  12.339 -1.0401  0.7241 -0.3339
 2905SOL     OW20176   1.302   1.325   6.595  0.0977 -0.1852  0.2714
 2905SOL    HW120177   1.322   1.416   6.615  2.5761 -0.1468 -2.2535
 2905SOL    HW220178   1.208   1.337   6.610  0.1181 -0.4376  0.5885
 2906SOL     OW20179   0.711   1.780   7.685  0.2824  0.3652  0.0057
 2906SOL    HW120180   0.660   1.807   7.608  2.7181 -0.3209 -1.8433
 2906SOL    HW220181   0.802   1.803   7.666  0.1558 -0.3305 -1.4999
 2907SOL     OW20182   3.188   4.595  13.603 -0.1314 -0.2288 -0.5755
 2907SOL    HW120183   3.239   4.615  13.682 -0.4011  1.1991 -0.7660
 2907SOL    HW220184   3.190   4.500  13.594  2.8364 -0.4020  1.7402
 2908SOL     OW20185   1.690   0.676  13.930 -0.5015  0.0163  0.0486
 2908SOL    HW120186   1.760   0.674  13.995 -0.2621 -0.7649 -0.2289
 2908SOL    HW220187   1.620   0.698  13.991 -0.4009  1.3345 -0.3146
 2909SOL     OW20188   1.554   4.462   9.570  0.1100  0.3609  0.4697
 2909SOL    HW120189   1.572   4.494   9.482 -2.8296  0.8809  0.0612
 2909SOL    HW220190   1.506   4.380   9.562  1.6119 -0.3481 -1.2770
 2910SOL     OW20191   0.771   2.135   2.153  0.4642 -0.1900  0.2748
 2910SOL    HW120192   0.695   2.190   2.170 -0.5975 -1.9687  1.2049
 2910SOL    HW220193   0.736   2.099   2.072  2.2800 -1.4373  0.0511
 2911SOL     OW20194   1.122   2.709   8.622 -0.0283  0.1381 -0.1885
 2911SOL    HW120195   1.075   2.685   8.543  0.9540  1.0365 -1.0443
 2911SOL    HW220196   1.047   2.745   8.669 -0.4933 -0.3126 -0.5963
 2912SOL     OW20197   2.628   1.500  15.117 -0.2105 -0.1947  0.2264
 2912SOL    HW120198   2.544   1.472  15.153 -0.0608 -0.3299  0.4701
 2912SOL    HW220199   2.617   1.495  15.022 -2.9742  2.4967  0.4189
 2913SOL     OW20200   3.198   2.565  16.795 -0.1599 -0.3208  0.1109
 2913SOL    HW120201   3.266   2.596  16.735 -0.5793 -0.3480 -0.3827
 2913SOL    HW220202   3.191   2.472  16.775 -2.9602 -0.4115  1.5203
 2914SOL     OW20203   3.784   2.706   3.606 -0.1917  0.3011 -0.4221
 2914SOL    HW120204   3.816   2.733   3.692 -1.0476 -0.0529  0.0065
 2914SOL    HW220205   3.689   2.698   3.612 -0.2596  0.5964 -1.1228
 2915SOL     OW20206   2.417   3.380   5.574 -0.0966 -0.9931 -0.1747
 2915SOL    HW120207   2.500   3.359   5.618  0.4944 -1.9194 -1.7419
 2915SOL    HW220208   2.429   3.360   5.481 -0.0605  1.7059 -0.7551
 2916SOL     OW20209   0.758   4.683   1.595  0.2587  0.3480  0.0067
 2916SOL    HW120210   0.822   0.020   1.560  0.0818  1.5201  1.7518
 2916SOL    HW220211   0.791   4.671   1.684  0.7688  1.3119 -0.0493
 2917SOL     OW20212   0.605   3.229  15.192 -0.2590  0.1364 -1.0955
 2917SOL    HW120213   0.540   3.296  15.214  1.0723  1.3390 -0.8366
 2917SOL    HW220214   0.622   3.261  15.104  1.3197 -1.3565 -1.3427
 2918SOL     OW20215   3.727   3.722   7.765  0.2836  0.4429  0.5604
 2918SOL    HW120216   3.686   3.644   7.800  1.2032 -0.6927 -0.8670
 2918SOL    HW220217   3.683   3.792   7.813 -2.3074 -1.0348  0.3057
 2919SOL     OW20218   1.327   0.321   3.002 -1.0826  0.4240 -0.4660
 2919SOL    HW120219   1.267   0.353   2.934 -1.1663  0.5106 -0.3522
 2919SOL    HW220220   1.276   0.271   3.066  0.5845 -1.5649 -0.6788
 2920SOL     OW20221   4.019   1.330   0.083  0.0181  0.3441 -0.0786
 2920SOL    HW120222   4.038   1.238   0.066 -0.1859  0.8435 -3.0922
 2920SOL    HW220223   3.926   1.332   0.105 -0.5118  0.8176 -2.2984
 2921SOL     OW20224   0.046   2.114   6.931  0.3916  0.0318  0.0908
 2921SOL    HW120225   4.687   2.102   6.974  0.1662 -2.2844 -1.0162
 2921SOL    HW220226   0.084   2.026   6.926  0.4677  0.2031 -2.2850
 2922SOL     OW20227   1.207   0.531  12.695 -0.1025 -0.2521 -0.2930
 2922SOL    HW120228   1.156   0.501  12.620 -0.1563 -0.4756 -0.1687
 2922SOL    HW220229   1.265   0.589  12.646 -1.1445 -0.3962 -1.6981
 2923SOL     OW20230   2.633   1.722   7.972 -0.1733  0.5540 -0.3168
 2923SOL    HW120231   2.637   1.736   8.066 -1.7627  0.9197 -0.3131
 2923SOL    HW220232   2.634   1.627   7.963  0.6706  0.3803  1.5755
 2924SOL     OW20233   1.378   3.308   7.969 -0.2526 -0.3629  0.0774
 2924SOL    HW120234   1.364   3.315   7.875 -0.2026 -0.7845  0.0404
 2924SOL    HW220235   1.463   3.351   7.972  0.5933 -1.8471 -2.9877
 2925SOL     OW20236   4.228   1.436   4.950  0.1759  0.8028  0.0115
 2925SOL    HW120237   4.160   1.472   4.892 -0.8387 -4.0264 -1.7618
 2925SOL    HW220238   4.186   1.352   4.967  0.7092  0.6834  0.7637
 2926SOL     OW20239   2.623   2.084  14.507  0.7575 -0.2444  0.4530
 2926SOL    HW120240   2.692   2.124  14.455  0.7721  0.0862  0.7311
 2926SOL    HW220241   2.556   2.058  14.444 -0.0376  0.3126  1.0648
 2927SOL     OW20242   3.658   4.453   5.965 -0.0805  0.3295  0.3400
 2927SOL    HW120243   3.643   4.365   5.929 -2.8048  1.6693 -1.8185
 2927SOL    HW220244   3.741   4.438   6.009 -0.3190  1.4655  1.1874
 2928SOL     OW20245   4.448   1.623   9.264 -0.3965  0.3052  0.1580
 2928SOL    HW120246   4.409   1.671   9.338 -0.4589  0.6562 -0.1039
 2928SOL    HW220247   4.484   1.701   9.222  0.9265 -0.2970  0.1704
 2929SOL     OW20248   0.629   0.436   1.387  0.1863  0.2082  0.4312
 2929SOL    HW120249   0.548   0.487   1.389 -0.0011 -0.0540 -0.5851
 2929SOL    HW220250   0.676   0.477   1.314 -0.5327  0.7381  0.2659
 2930SOL     OW20251   2.298   4.451   8.132  0.2477  0.7214  0.1745
 2930SOL    HW120252   2.235   4.519   8.107  2.0922  2.2062 -0.4704
 2930SOL    HW220253   2.377   4.478   8.085  0.3742 -1.5784 -0.9585
 2931SOL     OW20254   2.007   2.325   4.964 -0.1136  0.3567 -0.1607
 2931SOL    HW120255   2.034   2.252   5.019  0.2427 -0.5836 -1.5959
 2931SOL    HW220256   2.039   2.392   5.025 -0.3127 -0.4759  0.8589
 2932SOL     OW20257   2.094   3.559  11.444  0.3696 -0.4081 -0.7630
 2932SOL    HW120258   2.160   3.592  11.382 -0.9247  0.4395 -1.6700
 2932SOL    HW220259   2.065   3.636  11.492  0.3116 -0.7426 -0.2548
 2933SOL     OW20260   3.825   0.167   9.935  0.1661  0.0738  0.0026
 2933SOL    HW120261   3.911   0.139   9.965 -0.8022 -1.5363  1.2812
 2933SOL    HW220262   3.844   0.258   9.957 -1.4011  0.1821  0.9644
 2934SOL     OW20263   0.155   0.989  13.490 -0.0561  0.1123  0.4387
 2934SOL    HW120264   0.061   1.004  13.487  0.2122  1.7525  0.1602
 2934SOL    HW220265   0.180   1.047  13.563  1.1959  1.3429 -0.9682
 2935SOL     OW20266   3.654   2.056   1.520  0.2886 -0.1175 -0.4183
 2935SOL    HW120267   3.598   2.015   1.585 -0.8458  1.1339 -0.5949
 2935SOL    HW220268   3.647   2.000   1.442  1.8369 -0.3211 -0.4157
 2936SOL     OW20269   3.459   4.027   3.741  0.7634  0.4244 -0.0548
 2936SOL    HW120270   3.498   3.962   3.799 -2.6350 -2.2478 -0.7508
 2936SOL    HW220271   3.383   4.060   3.789 -0.5667 -2.1631 -0.4103
 2937SOL     OW20272   2.657   0.453  15.357  0.1329 -0.0063 -0.5305
 2937SOL    HW120273   2.712   0.520  15.398  0.5580 -0.9863  0.4936
 2937SOL    HW220274   2.639   0.483  15.268 -1.8048 -4.1026 -1.5219
 2938SOL     OW20275   2.294   2.399   4.047  0.1968  0.6591  0.7487
 2938SOL    HW120276   2.305   2.482   4.000  1.3125  0.6007  0.9127
 2938SOL    HW220277   2.198   2.396   4.054  0.2272 -1.0609  0.1953
 2939SOL     OW20278   1.785   2.475   9.230 -0.0919  0.0145  0.0494
 2939SOL    HW120279   1.779   2.390   9.274  0.1483 -0.6657 -1.2166
 2939SOL    HW220280   1.745   2.535   9.292 -0.8035  0.1144 -0.5034
 2940SOL     OW20281   0.077   1.114   3.516  0.0686  0.4482  0.3551
 2940SOL    HW120282   0.027   1.186   3.478 -0.6065 -1.4510 -2.3446
 2940SOL    HW220283   0.016   1.077   3.580 -0.2179 -0.4969 -0.4736
 2941SOL     OW20284   0.896   3.205   1.726  0.3301  0.0841  0.2152
 2941SOL    HW120285   0.809   3.164   1.720 -0.2173  0.6034  4.3234
 2941SOL    HW220286   0.906   3.225   1.819 -0.4922 -0.7537  0.4883
 2942SOL     OW20287   4.256   4.246   4.512 -0.5455  0.0177 -0.3536
 2942SOL    HW120288   4.196   4.274   4.442 -0.7059  1.7506  0.4863
 2942SOL    HW220289   4.216   4.160   4.524  0.3325  0.1730  3.4722
 2943SOL     OW20290   3.328   3.683   2.068  0.2527 -0.0759 -0.2436
 2943SOL    HW120291   3.402   3.648   2.118  0.5687  1.3183  0.2637
 2943SOL    HW220292   3.313   3.619   1.998 -1.1907  0.7514 -0.6832
 2944SOL     OW20293   4.275   0.670   0.042  0.0597  0.3363  0.2843
 2944SOL    HW120294   4.363   0.642   0.018 -1.3230 -3.6680 -0.0975
 2944SOL    HW220295   4.283   0.756   0.001 -1.4371  1.2859  1.9861
 2945SOL     OW20296   0.322   3.566   5.095  0.8419  0.3256 -0.1432
 2945SOL    HW120297   0.397   3.620   5.116  1.0015 -1.1429  3.1690
 2945SOL    HW220298   0.370   3.512   5.032  2.8574  2.9021 -0.7661
 2946SOL     OW20299   4.037   0.426   1.227  0.5917 -0.0332  0.0742
 2946SOL    HW120300   4.089   0.419   1.307  1.3236 -0.6784 -0.4501
 2946SOL    HW220301   3.954   0.461   1.262  0.3626  0.4472 -0.9632
 2947SOL     OW20302   1.326   1.680  14.301 -0.1905 -0.2707  0.0251
 2947SOL    HW120303   1.413   1.683  14.262  0.5006 -0.9973  1.5133
 2947SOL    HW220304   1.273   1.665  14.223  0.4421 -2.0503 -0.0700
 2948SOL     OW20305   3.551   1.587   7.133 -0.1312 -0.0647 -0.1910
 2948SOL    HW120306   3.567   1.506   7.182  2.2393  0.2101 -0.4940
 2948SOL    HW220307   3.545   1.557   7.043  0.9294 -0.1334 -0.2371
 2949SOL     OW20308   0.208   2.821   7.404  0.2773  0.2130 -0.2319
 2949SOL    HW120309   0.271   2.851   7.339 -0.4163 -1.6364 -1.7492
 2949SOL    HW220310   0.201   2.733   7.369  0.0593  0.3194 -0.4604
 2950SOL     OW20311   3.385   0.846   2.322 -0.1195 -0.3068  0.4644
 2950SOL    HW120312   3.385   0.882   2.233 -2.5745  1.1789  1.0861
 2950SOL    HW220313   3.470   0.881   2.349  0.0206 -1.3398  1.3617
 2951SOL     OW20314   0.911   0.342   9.501  0.0935 -0.2405  0.0117
 2951SOL    HW120315   0.944   0.425   9.535  1.4760 -0.3179 -1.1454
 2951SOL    HW220316   0.821   0.365   9.522  0.4791  1.7177 -0.5236
 2952SOL     OW20317   1.812   4.076  10.347  0.7529  0.3131 -0.3149
 2952SOL    HW120318   1.771   3.989  10.349  1.3749  0.0064 -0.6032
 2952SOL    HW220319   1.739   4.132  10.371  1.7189  1.4905 -0.1476
 2953SOL     OW20320   2.347   2.242  15.337  0.0657 -0.0623  0.3713
 2953SOL    HW120321   2.364   2.196  15.254  0.9002  0.4117  0.2852
 2953SOL    HW220322   2.395   2.322  15.319 -2.7441  1.5275 -0.0662
 2954SOL     OW20323   2.539   2.637   2.256  0.5737  0.0435  0.0695
 2954SOL    HW120324   2.612   2.577   2.271 -0.4043 -1.1032  0.2467
 2954SOL    HW220325   2.593   2.701   2.210 -0.0226 -0.7624 -1.7653
 2955SOL     OW20326   0.152   1.366   4.826 -0.0108  0.1169 -0.5481
 2955SOL    HW120327   0.185   1.284   4.788  0.4421 -0.2098  0.5367
 2955SOL    HW220328   0.079   1.380   4.765  1.2792  0.5583 -1.9813
 2956SOL     OW20329   2.079   0.104   0.637 -0.4192 -0.3870  0.3002
 2956SOL    HW120330   2.095   0.135   0.547 -1.6303 -2.3483 -0.5919
 2956SOL    HW220331   2.033   0.021   0.622  0.4074 -0.7613 -0.1755
 2957SOL     OW20332   1.462   3.527   5.372 -0.1716 -0.2323 -0.0062
 2957SOL    HW120333   1.459   3.433   5.388 -0.0032 -0.2879 -0.2976
 2957SOL    HW220334   1.394   3.541   5.306 -0.2422  0.9352  0.3161
 2958SOL     OW20335   2.444   4.339   3.570 -0.2376  0.1769  0.3127
 2958SOL    HW120336   2.521   4.382   3.531 -0.0891  0.2343  0.6709
 2958SOL    HW220337   2.385   4.415   3.570 -1.4345 -0.7589  0.8263
 2959SOL     OW20338   2.036   3.892   4.696  0.0189 -0.6984 -0.8370
 2959SOL    HW120339   2.056   3.870   4.605  1.6884  1.4801 -0.9750
 2959SOL    HW220340   1.978   3.963   4.667  0.8599  0.6964  0.9456
 2960SOL     OW20341   1.193   1.274  15.347  0.0498  0.0652 -0.5236
 2960SOL    HW120342   1.229   1.349  15.300 -2.5300  1.6166 -0.0546
 2960SOL    HW220343   1.104   1.307  15.360 -0.4913 -0.4288 -2.9422
 2961SOL     OW20344   2.287   0.113   6.220 -0.9284  0.3701  0.2172
 2961SOL    HW120345   2.357   0.177   6.206 -2.0690  1.0599 -2.2186
 2961SOL    HW220346   2.311   0.076   6.305 -0.9905 -2.2347 -0.9138
 2962SOL     OW20347   2.014   4.176   0.507 -0.2017 -0.4137  0.0850
 2962SOL    HW120348   2.047   4.115   0.442 -0.1571  0.6832 -0.9313
 2962SOL    HW220349   1.928   4.139   0.521  0.0698  0.0573  2.9440
 2963SOL     OW20350   3.988   3.932   7.195  0.1857 -0.2618  0.8410
 2963SOL    HW120351   4.008   3.939   7.102 -1.2599  0.1097  0.5497
 2963SOL    HW220352   3.898   3.964   7.201  0.7878  1.8537 -1.3185
 2964SOL     OW20353   3.356   3.171   7.544  0.0089 -0.1499 -0.1358
 2964SOL    HW120354   3.389   3.082   7.530  2.3230  0.9828 -1.9008
 2964SOL    HW220355   3.423   3.193   7.609 -1.3071 -0.8583  1.4725
 2965SOL     OW20356   2.613   0.233  10.483  0.4955  0.7441  0.2853
 2965SOL    HW120357   2.694   0.272  10.515  1.6174 -0.7983 -0.6559
 2965SOL    HW220358   2.644   0.173  10.415 -0.8201  0.5656 -0.1619
 2966SOL     OW20359   3.733   1.762   4.961  0.2027 -0.6364  0.1668
 2966SOL    HW120360   3.734   1.667   4.965  2.0554 -0.6251  0.0196
 2966SOL    HW220361   3.813   1.772   4.909 -0.2053  0.2002 -0.3072
 2967SOL     OW20362   3.592   4.199  14.825  0.3189  0.0395  0.2048
 2967SOL    HW120363   3.549   4.130  14.775 -0.6513  0.9680 -0.2308
 2967SOL    HW220364   3.675   4.150  14.831  0.9962  1.2912  1.0554
 2968SOL     OW20365   4.214   2.882   3.699  0.2560 -0.7645 -0.0332
 2968SOL    HW120366   4.270   2.875   3.621 -2.4918  3.4343 -2.3816
 2968SOL    HW220367   4.183   2.973   3.696  2.3283 -0.0617 -0.3799
 2969SOL     OW20368   0.402   3.575   6.357 -0.3869 -0.0907 -0.5874
 2969SOL    HW120369   0.348   3.576   6.435 -1.3244 -2.0995 -1.2192
 2969SOL    HW220370   0.460   3.645   6.388  0.7815 -2.2739  2.1636
 2970SOL     OW20371   3.389   4.298   5.123 -0.6300  0.0138 -1.0224
 2970SOL    HW120372   3.370   4.392   5.128 -2.6500 -0.4094 -1.1000
 2970SOL    HW220373   3.335   4.284   5.046 -0.6100  0.9880 -1.2132
 2971SOL     OW20374   1.809   1.180   6.870  0.1151 -0.4318 -0.6297
 2971SOL    HW120375   1.893   1.210   6.904 -0.2016  0.5732 -0.7249
 2971SOL    HW220376   1.774   1.123   6.938  2.2678 -2.5920 -1.3266
 2972SOL     OW20377   1.791   4.514   5.530 -0.5965 -0.3434 -0.1778
 2972SOL    HW120378   1.855   4.473   5.472  1.9659  1.1211  1.6376
 2972SOL    HW220379   1.826   4.601   5.544  1.2552 -0.8836 -1.5194
 2973SOL     OW20380   3.546   0.103   2.525 -0.4421 -0.0549  0.1735
 2973SOL    HW120381   3.512   0.020   2.559 -1.1443  0.2419  0.2025
 2973SOL    HW220382   3.593   0.074   2.447 -0.8139 -0.3603  0.0604
 2974SOL     OW20383   1.604   0.205  11.057 -0.4340 -0.2570  0.3604
 2974SOL    HW120384   1.688   0.249  11.051  0.7171 -2.7330 -1.3503
 2974SOL    HW220385   1.551   0.282  11.078 -1.5442 -0.0836 -3.1855
 2975SOL     OW20386   0.947   2.031  10.409  0.6204 -0.3225 -0.0493
 2975SOL    HW120387   0.875   2.079  10.369  0.4567 -1.0702 -0.6535
 2975SOL    HW220388   0.954   1.953  10.354 -1.2481 -0.5950  0.1263
 2976SOL     OW20389   0.152   4.677  13.202  0.1276  0.0614  0.0647
 2976SOL    HW120390   0.066   4.669  13.243 -0.1923 -0.0047 -0.6249
 2976SOL    HW220391   0.203   4.624  13.263  1.4268  2.2747  0.9278
 2977SOL     OW20392   3.020   3.002  14.580  0.0435  0.4203  0.7955
 2977SOL    HW120393   3.039   2.910  14.597  1.0719  0.8088  1.7496
 2977SOL    HW220394   3.062   3.053  14.650  2.8532 -0.6859 -0.1105
 2978SOL     OW20395   2.957   1.864  15.240  0.1308 -0.1039 -0.8123
 2978SOL    HW120396   2.872   1.821  15.252 -1.0924  3.0315  1.6955
 2978SOL    HW220397   3.005   1.838  15.319 -0.3016  0.0851 -0.4834
 2979SOL     OW20398   2.521   3.571   6.343  1.2027  0.4299 -0.0707
 2979SOL    HW120399   2.483   3.636   6.284  1.5706  0.4229 -0.3219
 2979SOL    HW220400   2.480   3.490   6.312  1.1869 -0.1086  1.3770
 2980SOL     OW20401   3.912   3.087  15.713  0.1908  0.4272  0.3526
 2980SOL    HW120402   4.003   3.059  15.705  0.0515  0.1914 -0.4000
 2980SOL    HW220403   3.909   3.129  15.799  0.2271 -2.3868  1.7112
 2981SOL     OW20404   3.711   1.478  12.117  0.3623 -0.1664 -0.7235
 2981SOL    HW120405   3.750   1.513  12.037 -0.0504  0.7034 -0.5420
 2981SOL    HW220406   3.641   1.541  12.133  0.1449  0.0598 -2.5673
 2982SOL     OW20407   2.824   3.786   8.710  0.5596  0.2592  0.3471
 2982SOL    HW120408   2.816   3.881   8.701 -1.1233  0.0775 -0.1420
 2982SOL    HW220409   2.919   3.778   8.715  0.6128 -0.1077 -1.2148
 2983SOL     OW20410   1.808   1.264   1.490  0.4840 -0.1414 -0.2480
 2983SOL    HW120411   1.818   1.352   1.528 -1.6663 -0.0628  0.1198
 2983SOL    HW220412   1.890   1.223   1.519  0.9037  1.7571  1.2707
 2984SOL     OW20413   3.994   3.365   2.841 -0.3782  0.0117  0.5592
 2984SOL    HW120414   4.015   3.296   2.904 -1.6585  0.4647  1.4774
 2984SOL    HW220415   4.020   3.445   2.887  0.6076  0.7014 -1.1920
 2985SOL     OW20416   4.101   1.694   7.836 -0.3528  0.7912  0.1557
 2985SOL    HW120417   4.062   1.767   7.788 -0.3905 -0.7173 -2.1086
 2985SOL    HW220418   4.126   1.633   7.766 -1.4091 -0.0208  0.4827
 2986SOL     OW20419   3.098   0.844  10.728 -0.0377  0.6196 -0.2165
 2986SOL    HW120420   3.134   0.808  10.809 -0.0061  1.4156  0.1243
 2986SOL    HW220421   3.062   0.925  10.764  0.8566  0.5303  0.8625
 2987SOL     OW20422   0.020   1.466   8.571  0.2556 -0.5797  0.1758
 2987SOL    HW120423   0.032   1.373   8.590 -1.6978 -1.3470 -2.3928
 2987SOL    HW220424   4.654   1.485   8.595 -0.0920  0.1551 -1.7433
 2988SOL     OW20425   1.435   4.411   3.107 -0.1796  0.0174 -0.1242
 2988SOL    HW120426   1.341   4.432   3.106  0.0198  0.9418  0.2586
 2988SOL    HW220427   1.432   4.326   3.150  1.4502 -0.5202 -1.0745
 2989SOL     OW20428   1.942   1.844   4.856  0.0833  0.2285  0.1649
 2989SOL    HW120429   1.870   1.897   4.822 -1.1184 -0.0284  2.3110
 2989SOL    HW220430   1.904   1.826   4.942 -0.4741 -0.5422 -0.2467
 2990SOL     OW20431   0.648   3.065   3.555  0.3637 -0.3670 -0.4427
 2990SOL    HW120432   0.669   3.158   3.545 -0.3975 -0.2632 -1.0595
 2990SOL    HW220433   0.733   3.021   3.553  0.9870  0.6438  2.5365
 2991SOL     OW20434   2.473   2.150   4.234 -0.1512 -0.0134  0.2020
 2991SOL    HW120435   2.440   2.075   4.282 -1.7973 -1.3194 -2.9602
 2991SOL    HW220436   2.415   2.225   4.252  0.6481  0.3133  1.4423
 2992SOL     OW20437   2.991   4.535  11.653  0.0170  0.2263  0.6472
 2992SOL    HW120438   3.060   4.562  11.713  1.3244 -0.7889 -0.4064
 2992SOL    HW220439   2.931   4.508  11.724  1.8476 -0.9534  1.7444
 2993SOL     OW20440   1.733   4.163   3.446 -0.8412  0.4615  0.2780
 2993SOL    HW120441   1.649   4.121   3.461 -0.8037  0.4177  0.3629
 2993SOL    HW220442   1.743   4.124   3.359 -3.2769  2.4576 -0.9047
 2994SOL     OW20443   1.459   2.490   8.502  0.6515  0.1662 -0.1656
 2994SOL    HW120444   1.429   2.575   8.471  2.2333  1.3647  1.6294
 2994SOL    HW220445   1.424   2.488   8.591  0.3616 -0.1123 -0.2837
 2995SOL     OW20446   0.756   3.273   6.852 -0.0712 -0.1558 -0.3228
 2995SOL    HW120447   0.665   3.260   6.823 -0.7122  1.2988  1.0402
 2995SOL    HW220448   0.735   3.348   6.908  0.9161  0.4496 -0.7797
 2996SOL     OW20449   4.517   2.962   0.450  0.6016 -0.1680 -0.6692
 2996SOL    HW120450   4.554   3.020   0.383 -0.8524 -0.0311 -1.3507
 2996SOL    HW220451   4.453   3.020   0.491 -0.0097 -1.6662  0.5003
 2997SOL     OW20452   0.511   1.418   1.502  0.4802 -0.0342  0.1712
 2997SOL    HW120453   0.527   1.324   1.499 -2.0454 -0.4605  0.1018
 2997SOL    HW220454   0.456   1.429   1.425  0.9286 -0.1149 -0.1603
 2998SOL     OW20455   1.335   3.506  16.045 -0.5525  0.0515  0.1777
 2998SOL    HW120456   1.321   3.530  15.954 -0.1564 -0.6814 -0.0836
 2998SOL    HW220457   1.343   3.593  16.084  1.9389 -0.2467  0.3623
 2999SOL     OW20458   3.797   0.392  16.579 -0.1647 -0.2787 -0.1195
 2999SOL    HW120459   3.834   0.447  16.510 -3.0678  0.0552 -1.4039
 2999SOL    HW220460   3.800   0.305  16.539  1.3722 -0.5473  0.5991
 3000SOL     OW20461   0.435   2.384   7.571 -0.0495 -0.1369 -0.0484
 3000SOL    HW120462   0.417   2.291   7.564 -1.1130  0.1274 -0.9099
 3000SOL    HW220463   0.434   2.392   7.666 -0.4652 -2.4676  0.1252
 3001SOL     OW20464   2.565   1.553   4.698  0.0792  0.2027 -0.3681
 3001SOL    HW120465   2.605   1.537   4.612  0.4915  0.2429 -0.1819
 3001SOL    HW220466   2.473   1.565   4.675  0.0076 -0.2925 -0.3454
 3002SOL     OW20467   2.367   3.738  15.312 -0.2166 -0.1205  0.0407
 3002SOL    HW120468   2.387   3.824  15.275  0.8924 -0.5830 -0.4421
 3002SOL    HW220469   2.447   3.702  15.275  0.0009 -0.7838  1.1829
 3003SOL     OW20470   2.691   3.252  11.339 -0.3149  0.4904 -0.7371
 3003SOL    HW120471   2.676   3.201  11.419  0.8387 -1.0973 -1.5571
 3003SOL    HW220472   2.600   3.276  11.319 -0.8891 -0.5299  0.6099
 3004SOL     OW20473   2.889   0.672   9.955 -0.1170 -0.1665  0.2880
 3004SOL    HW120474   2.943   0.647  10.030  0.4908  1.0057  0.2332
 3004SOL    HW220475   2.824   0.719  10.008  1.0822  0.8146  0.8797
 3005SOL     OW20476   3.717   3.663   7.473 -0.1878 -0.3570  0.5641
 3005SOL    HW120477   3.641   3.605   7.464  0.5641 -1.1824 -0.5676
 3005SOL    HW220478   3.690   3.721   7.544  2.1342  2.2754 -0.7243
 3006SOL     OW20479   4.629   0.682   1.349 -0.2624 -0.6541  0.0330
 3006SOL    HW120480   4.567   0.618   1.314 -1.1914  0.2883 -0.0469
 3006SOL    HW220481   4.602   0.690   1.441  0.3178  1.8818 -0.0199
 3007SOL     OW20482   0.472   3.128   5.209  0.5571  0.0126  0.2194
 3007SOL    HW120483   0.487   3.124   5.114  2.0680  0.4059  0.4400
 3007SOL    HW220484   0.407   3.198   5.212 -1.6891 -2.1958  3.1002
 3008SOL     OW20485   2.961   1.250  14.788 -0.0779 -0.2460  0.2633
 3008SOL    HW120486   2.898   1.251  14.716 -0.5100  1.2441  0.6625
 3008SOL    HW220487   2.914   1.192  14.848 -0.7522  0.0041 -0.0139
 3009SOL     OW20488   4.303   1.704  16.283 -0.1975 -0.4834  0.1834
 3009SOL    HW120489   4.293   1.643  16.356 -1.5062  0.2957  0.6533
 3009SOL    HW220490   4.300   1.637  16.215 -0.7763 -0.0472 -0.2165
 3010SOL     OW20491   1.859   4.249  10.581 -0.3620  0.6463  0.2012
 3010SOL    HW120492   1.949   4.238  10.552 -1.3065 -0.4931 -2.2932
 3010SOL    HW220493   1.820   4.170  10.543  0.8977  0.9911 -1.8445
 3011SOL     OW20494   4.049   1.134  16.932  0.1337  0.0177  0.1485
 3011SOL    HW120495   4.127   1.103  16.978 -0.2559  0.5551  1.1578
 3011SOL    HW220496   3.998   1.159  17.009 -2.4382 -0.3335 -1.4409
 3012SOL     OW20497   0.330   1.917   4.377  0.0990  0.2388  0.2574
 3012SOL    HW120498   0.290   1.987   4.324 -0.7452 -0.5188 -0.0989
 3012SOL    HW220499   0.259   1.921   4.441 -0.6245 -1.3917 -0.4403
 3013SOL     OW20500   1.860   2.019  12.056  0.3772  0.4591 -0.4330
 3013SOL    HW120501   1.812   2.050  12.133 -0.3799  1.3320 -1.2656
 3013SOL    HW220502   1.935   1.974  12.096 -0.7318  2.0093  3.4199
 3014SOL     OW20503   3.387   3.292   4.858 -0.0992  0.1563  0.1208
 3014SOL    HW120504   3.292   3.304   4.852 -0.1832  0.9368  2.8931
 3014SOL    HW220505   3.408   3.372   4.809  1.9411 -1.2612 -1.2771
 3015SOL     OW20506   1.602   2.294   6.507 -0.0265 -0.6853 -0.2973
 3015SOL    HW120507   1.666   2.365   6.499 -0.0819 -0.6512 -0.4470
 3015SOL    HW220508   1.624   2.247   6.587 -1.3256  0.3232  0.6415
 3016SOL     OW20509   2.969   4.039   2.800 -0.3207 -0.1942 -0.1868
 3016SOL    HW120510   2.877   4.029   2.776 -0.8420  0.1613  1.6377
 3016SOL    HW220511   3.008   3.951   2.803 -1.2433 -0.6217 -0.6336
 3017SOL     OW20512   4.369   4.144  16.221  0.0373 -0.0818  0.0401
 3017SOL    HW120513   4.397   4.170  16.133  0.9176 -2.9668 -0.5209
 3017SOL    HW220514   4.378   4.228  16.267 -0.8200  0.9129 -1.5789
 3018SOL     OW20515   4.014   1.061  12.285  0.3352 -0.1607 -0.4148
 3018SOL    HW120516   4.026   0.975  12.244 -1.1236 -0.6701  0.2198
 3018SOL    HW220517   4.105   1.086  12.300  0.3602 -0.3332 -0.2799
 3019SOL     OW20518   4.325   4.483   5.095 -0.0729 -0.1817  0.2370
 3019SOL    HW120519   4.356   4.565   5.133 -1.1778  0.2895  0.1410
 3019SOL    HW220520   4.242   4.472   5.143 -1.1159  1.9420 -1.0964
 3020SOL     OW20521   2.750   1.392   4.098 -0.2394 -0.0356 -0.2523
 3020SOL    HW120522   2.713   1.475   4.128 -0.1423  0.4034 -1.3768
 3020SOL    HW220523   2.842   1.413   4.114 -0.7823  1.4272  1.0208
 3021SOL     OW20524   4.285   4.703   2.239 -0.4524 -0.3575  0.0234
 3021SOL    HW120525   4.208   0.022   2.204 -0.5318 -1.1704 -0.8291
 3021SOL    HW220526   4.272   4.708   2.334 -0.9951  0.2541 -0.0867
 3022SOL     OW20527   4.252   2.554  15.769  0.3849  0.4141  0.1783
 3022SOL    HW120528   4.328   2.602  15.802  0.3924 -0.6418  1.7048
 3022SOL    HW220529   4.296   2.509  15.697 -2.3142  0.3452 -1.4572
 3023SOL     OW20530   2.684   1.693  16.163  0.7079 -0.1773 -0.2664
 3023SOL    HW120531   2.663   1.714  16.072 -1.2137 -0.3232  0.1357
 3023SOL    HW220532   2.684   1.598  16.155  1.2655 -0.2985  1.3132
 3024SOL     OW20533   2.918   3.101   9.039 -0.0241 -0.2150 -0.0168
 3024SOL    HW120534   2.961   3.129   8.957  2.0902 -0.3477  1.0401
 3024SOL    HW220535   3.001   3.096   9.086  1.2043  0.7956 -2.0487
 3025SOL     OW20536   3.940   1.186   7.889  0.0549  0.0216  0.4186
 3025SOL    HW120537   3.876   1.256   7.871  1.5806  1.4810  0.6622
 3025SOL    HW220538   3.924   1.118   7.824  0.5859  1.3832 -1.1311
 3026SOL     OW20539   1.626   0.628   3.640 -0.2792 -0.4618  0.2386
 3026SOL    HW120540   1.697   0.564   3.638  1.4457  1.5650 -2.6840
 3026SOL    HW220541   1.670   0.684   3.576  0.4046 -0.0825  1.0485
 3027SOL     OW20542   4.251   3.834   8.635  0.2486  0.4633  0.4203
 3027SOL    HW120543   4.222   3.833   8.544 -0.8210  0.6505  0.7563
 3027SOL    HW220544   4.344   3.817   8.616  0.0634  2.0864 -1.8729
 3028SOL     OW20545   2.862   1.740   4.366 -0.5784 -0.1355 -0.2646
 3028SOL    HW120546   2.907   1.701   4.442 -0.5289 -0.7635 -0.6153
 3028SOL    HW220547   2.933   1.748   4.303 -0.3571  1.9396  0.2562
 3029SOL     OW20548   4.505   2.791   1.745 -0.1825  0.1981  0.6924
 3029SOL    HW120549   4.416   2.820   1.726  0.1397 -0.2296 -1.3933
 3029SOL    HW220550   4.488   2.713   1.798 -1.6161 -0.6605 -1.0466
 3030SOL     OW20551   1.190   3.208  10.397 -0.2911 -0.0258 -0.1496
 3030SOL    HW120552   1.202   3.113  10.400  1.9049  0.2906  0.6506
 3030SOL    HW220553   1.237   3.224  10.316 -0.1874 -3.0756 -0.6939
 3031SOL     OW20554   0.809   2.016   9.477 -0.1744  0.1834 -0.0534
 3031SOL    HW120555   0.892   1.993   9.519 -0.3649  0.5055  0.4983
 3031SOL    HW220556   0.784   1.926   9.454 -0.6436 -0.2748  2.2497
 3032SOL     OW20557   3.548   2.639   7.105 -0.1236 -0.0862 -0.2302
 3032SOL    HW120558   3.540   2.566   7.166 -1.0373  0.1363 -0.0852
 3032SOL    HW220559   3.461   2.675   7.086  0.8730  2.0040 -0.8247
 3033SOL     OW20560   0.755   3.768   2.817  0.0439  0.2196 -0.0312
 3033SOL    HW120561   0.722   3.829   2.883  1.7683 -0.8375  1.8267
 3033SOL    HW220562   0.697   3.693   2.830 -0.2281  0.3191 -0.6940
 3034SOL     OW20563   4.065   0.039   2.076  0.0761  0.2711  0.2669
 3034SOL    HW120564   4.013   0.083   2.143 -0.2306  1.2279 -0.6095
 3034SOL    HW220565   4.058   0.095   1.999  0.8295 -2.0130 -1.4743
 3035SOL     OW20566   3.119   3.503  13.485  0.6406  0.1150 -0.5894
 3035SOL    HW120567   3.111   3.407  13.482 -1.3590  0.2266  1.1980
 3035SOL    HW220568   3.046   3.528  13.428  2.9920  1.2548 -3.0969
 3036SOL     OW20569   2.246   1.024   7.568 -0.3168  0.0905 -0.4060
 3036SOL    HW120570   2.319   1.069   7.611 -0.3630  0.0127 -0.2470
 3036SOL    HW220571   2.174   1.058   7.622  0.2414 -0.3970  0.6261
 3037SOL     OW20572   1.647   2.008   1.134 -0.2429 -0.1270  0.0076
 3037SOL    HW120573   1.701   1.980   1.060  0.1608 -0.8744  0.5858
 3037SOL    HW220574   1.608   2.083   1.089  2.4237  0.9959 -0.4675
 3038SOL     OW20575   3.834   0.131  11.209  0.1378 -0.1977  0.0029
 3038SOL    HW120576   3.844   0.137  11.114  2.8345 -1.5038  0.2038
 3038SOL    HW220577   3.926   0.127  11.238  0.5127  0.9553 -1.0496
 3039SOL     OW20578   0.609   3.894   8.585  0.0372  0.2571  0.1429
 3039SOL    HW120579   0.634   3.815   8.633  0.1868  0.2901  0.1181
 3039SOL    HW220580   0.603   3.853   8.498  0.8178 -2.1029  1.1940
 3040SOL     OW20581   0.401   4.020   4.817 -0.0978 -0.1210  0.0180
 3040SOL    HW120582   0.468   3.972   4.864 -0.6103  0.4930  1.3759
 3040SOL    HW220583   0.338   3.957   4.781 -1.0522  0.0887  1.3191
 3041SOL     OW20584   3.628   0.580   7.579  0.2236 -0.0695  0.3811
 3041SOL    HW120585   3.572   0.621   7.645  0.6864 -0.1336  0.8202
 3041SOL    HW220586   3.606   0.487   7.585  1.9580 -0.4567  1.0030
 3042SOL     OW20587   1.821   0.580   9.265  1.0022  0.0944 -0.7032
 3042SOL    HW120588   1.850   0.585   9.356 -0.3501 -0.0538 -0.2702
 3042SOL    HW220589   1.772   0.498   9.268  0.7231  0.2574 -0.8538
 3043SOL     OW20590   3.932   1.044   3.698 -0.2918 -0.6814 -0.1874
 3043SOL    HW120591   4.021   1.027   3.729  0.0510  1.2445 -0.0798
 3043SOL    HW220592   3.946   1.054   3.604  2.9579 -1.8405  0.1608
 3044SOL     OW20593   1.062   1.722  11.089  0.3193  0.2436  0.4455
 3044SOL    HW120594   0.978   1.689  11.122  0.0252  0.1007 -0.4481
 3044SOL    HW220595   1.128   1.709  11.156  1.0987  0.5018 -0.2773
 3045SOL     OW20596   2.043   0.357   1.633 -0.2520  0.0548  0.2078
 3045SOL    HW120597   1.949   0.368   1.647  0.2422  1.0078  2.7865
 3045SOL    HW220598   2.041   0.311   1.549  1.4788  0.4408 -0.0391
 3046SOL     OW20599   1.942   2.693   5.882 -0.3070 -0.2110  0.7390
 3046SOL    HW120600   1.910   2.603   5.871 -1.2133  0.4377 -1.7703
 3046SOL    HW220601   1.863   2.743   5.902  0.0506 -0.2408  2.2135
 3047SOL     OW20602   0.720   0.381   2.289  0.0551  0.1172 -0.0932
 3047SOL    HW120603   0.767   0.439   2.229  0.1838  0.5861  0.4582
 3047SOL    HW220604   0.647   0.440   2.307 -1.2246 -1.2879 -0.6532
 3048SOL     OW20605   3.744   1.809  10.249  0.5966  0.1090 -0.6628
 3048SOL    HW120606   3.766   1.852  10.166 -2.0137  0.1655 -1.3369
 3048SOL    HW220607   3.807   1.737  10.245 -0.8119 -1.2015  0.8266
 3049SOL     OW20608   4.388   0.903  14.565 -0.4313  0.3033 -0.1623
 3049SOL    HW120609   4.363   0.908  14.473 -1.8399 -2.9387  0.0454
 3049SOL    HW220610   4.386   0.996  14.588  1.5992 -0.1136  1.7115
 3050SOL     OW20611   3.610   1.052  14.878  0.6441  0.1034 -0.0623
 3050SOL    HW120612   3.602   1.070  14.972 -0.0853  0.9988 -0.3055
 3050SOL    HW220613   3.523   1.033  14.844 -0.5160 -0.9239  3.3850
 3051SOL     OW20614   3.720   3.656   3.724  0.3529  0.0614 -0.7302
 3051SOL    HW120615   3.756   3.686   3.641  2.7532 -0.0771  0.2548
 3051SOL    HW220616   3.683   3.739   3.755  0.8990 -0.0231  0.1467
 3052SOL     OW20617   3.592   2.533  12.282  0.4105  0.6259 -0.2367
 3052SOL    HW120618   3.539   2.560  12.358 -1.2166 -0.8160 -0.8652
 3052SOL    HW220619   3.661   2.479  12.320  1.3694  0.5323 -2.1250
 3053SOL     OW20620   2.838   2.456  17.665  0.0401  0.2312  0.2698
 3053SOL    HW120621   2.774   2.523  17.642  0.9731  0.9085 -0.3377
 3053SOL    HW220622   2.807   2.412   0.041 -0.1681 -0.0093  0.0526
 3054SOL     OW20623   1.828   4.056   2.783 -1.0868 -0.2653  0.2846
 3054SOL    HW120624   1.768   4.001   2.733 -0.4395 -1.8354  1.2653
 3054SOL    HW220625   1.819   4.019   2.871  5.6350 -2.0589  0.2093
 3055SOL     OW20626   1.936   4.548   0.599  0.5721  0.2864  0.1430
 3055SOL    HW120627   1.855   4.517   0.559  0.8846  1.0028 -1.0491
 3055SOL    HW220628   2.004   4.524   0.536  1.5452  0.0515  1.2816
 3056SOL     OW20629   4.619   0.871   4.709 -0.2692  0.4060 -0.5602
 3056SOL    HW120630   4.631   0.848   4.802 -0.2581 -0.0315 -0.6724
 3056SOL    HW220631   4.705   0.861   4.669  0.9567 -1.8311  2.6122
 3057SOL     OW20632   3.729   0.210   5.617 -0.3606  0.0341  0.2870
 3057SOL    HW120633   3.787   0.182   5.688  0.2707  2.2529  0.6226
 3057SOL    HW220634   3.646   0.168   5.642 -0.2596 -0.2889  0.0843
 3058SOL     OW20635   0.413   4.664   2.418  0.3645  0.7337 -0.0536
 3058SOL    HW120636   0.447   0.014   2.466  0.7299  0.0547  0.7506
 3058SOL    HW220637   0.319   4.682   2.425  0.8448  3.3070 -0.5194
 3059SOL     OW20638   2.809   1.294   3.402 -0.1778 -0.2535  0.3452
 3059SOL    HW120639   2.715   1.286   3.415 -0.8191  3.5829 -1.9419
 3059SOL    HW220640   2.839   1.221   3.457  1.9772 -1.2561 -2.1663
 3060SOL     OW20641   3.594   0.465   0.714 -0.1419  0.4022 -0.1667
 3060SOL    HW120642   3.586   0.373   0.689 -0.6561  0.5806 -0.6472
 3060SOL    HW220643   3.513   0.467   0.765 -1.9669 -0.6505 -3.0276
 3061SOL     OW20644   2.919   0.236   2.489  0.3175  0.5265  0.3415
 3061SOL    HW120645   2.900   0.145   2.463  0.0285  0.2894  1.3669
 3061SOL    HW220646   2.989   0.221   2.553  0.7411 -1.8693 -0.6924
 3062SOL     OW20647   3.924   0.388   0.778 -0.3834  0.0351  0.0009
 3062SOL    HW120648   3.953   0.384   0.686  1.7573 -0.6013  0.7024
 3062SOL    HW220649   3.832   0.400   0.757 -0.7256 -0.8524  1.0309
 3063SOL     OW20650   3.347   0.541  11.906  0.5034  0.2615 -0.1758
 3063SOL    HW120651   3.377   0.589  11.983 -1.0681 -2.1294  1.9331
 3063SOL    HW220652   3.392   0.457  11.907  0.6596  0.3164 -1.8649
 3064SOL     OW20653   1.207   1.388  13.963 -0.1154 -0.1083 -0.0972
 3064SOL    HW120654   1.271   1.322  13.988 -0.8790 -0.6538  0.3990
 3064SOL    HW220655   1.131   1.330  13.967 -0.9311  1.1681  2.7385
 3065SOL     OW20656   4.554   3.910   7.016 -0.2633 -0.1735  0.3564
 3065SOL    HW120657   4.616   3.933   7.084  0.1619  0.7766 -0.3596
 3065SOL    HW220658   4.523   3.993   6.981  1.3590 -0.3730 -1.5527
 3066SOL     OW20659   3.988   4.318   4.207 -0.2590  0.1582  0.0205
 3066SOL    HW120660   3.994   4.399   4.258 -2.0895  0.4885 -0.2945
 3066SOL    HW220661   3.895   4.320   4.184 -0.1325 -0.0865 -0.5099
 3067SOL     OW20662   0.714   0.043  10.962  0.2276  0.1555  0.6335
 3067SOL    HW120663   0.710   4.714  11.041 -2.4880  2.3437  2.0249
 3067SOL    HW220664   0.705   0.131  10.998 -0.8595 -0.0468  0.8579
 3068SOL     OW20665   1.610   2.590   7.527  0.0462 -0.0251  0.1086
 3068SOL    HW120666   1.585   2.642   7.603 -0.8613 -0.0815 -0.1456
 3068SOL    HW220667   1.697   2.566   7.557 -0.3852  0.1563  1.5172
 3069SOL     OW20668   2.006   2.471  13.809 -0.0704  0.2124  0.4139
 3069SOL    HW120669   1.981   2.393  13.760  0.7529  0.3520 -0.2281
 3069SOL    HW220670   1.997   2.543  13.745  0.4492 -1.4578 -1.5449
 3070SOL     OW20671   0.390   4.006  10.029  0.0201  0.2448  0.1576
 3070SOL    HW120672   0.299   4.027  10.052 -0.3101 -1.1283  0.0663
 3070SOL    HW220673   0.446   4.048  10.094 -0.5303  0.2414  0.6319
 3071SOL     OW20674   4.129   4.666   6.875  0.0990  0.0161 -0.0237
 3071SOL    HW120675   4.132   0.018   6.930 -1.6883  0.6280 -0.7687
 3071SOL    HW220676   4.039   4.667   6.842  0.9861  2.6450 -2.3574
 3072SOL     OW20677   2.774   3.504  14.627  0.0542 -0.3583 -0.1189
 3072SOL    HW120678   2.736   3.420  14.601 -0.0159 -0.1376 -0.7410
 3072SOL    HW220679   2.866   3.476  14.625  0.2811  0.2315  2.7998
 3073SOL     OW20680   2.279   0.845   7.378 -0.4271  0.3151 -0.0599
 3073SOL    HW120681   2.256   0.910   7.444 -1.5513  0.0889 -0.2378
 3073SOL    HW220682   2.282   0.769   7.437 -0.8832 -3.2537 -4.5841
 3074SOL     OW20683   2.315   1.765   4.141 -0.2615 -0.5733  0.8124
 3074SOL    HW120684   2.362   1.708   4.080 -1.8351 -0.7046 -0.2835
 3074SOL    HW220685   2.232   1.786   4.097  0.7186 -0.3679 -0.9600
 3075SOL     OW20686   2.770   2.137   8.496  0.0133 -0.0205  0.7369
 3075SOL    HW120687   2.721   2.076   8.551 -0.9129  1.5044  1.6081
 3075SOL    HW220688   2.699   2.192   8.463 -0.9990 -0.9590  1.3398
 3076SOL     OW20689   4.652   4.514   6.343 -0.0696 -0.4253 -0.1369
 3076SOL    HW120690   4.695   4.461   6.276 -1.9157  1.8620 -3.1591
 3076SOL    HW220691   4.558   4.508   6.327 -0.1251  1.3698 -0.5075
 3077SOL     OW20692   1.118   2.382  10.620  0.3289 -0.5810  0.0698
 3077SOL    HW120693   1.167   2.343  10.547 -0.9507  0.5050 -1.3473
 3077SOL    HW220694   1.032   2.342  10.610  0.6264 -1.1519 -0.2164
 3078SOL     OW20695   3.800   2.444   5.098  0.4124  0.0855 -0.1532
 3078SOL    HW120696   3.815   2.511   5.164 -2.1960 -0.5812  1.0805
 3078SOL    HW220697   3.874   2.386   5.118 -1.8923 -3.4557 -1.9771
 3079SOL     OW20698   1.518   3.034  12.266 -0.2062  0.1902  0.1477
 3079SOL    HW120699   1.579   2.989  12.324  0.2509  0.4094 -0.1521
 3079SOL    HW220700   1.496   2.961  12.208  2.6167 -1.8385  1.6489
 3080SOL     OW20701   3.066   2.529  13.312 -0.5367 -0.1648 -0.1669
 3080SOL    HW120702   2.987   2.509  13.262  0.1006 -0.6868 -0.9592
 3080SOL    HW220703   3.105   2.601  13.263 -1.9194  1.3663  1.0111
 3081SOL     OW20704   3.949   3.433   5.056  0.0944  0.3405 -0.0735
 3081SOL    HW120705   3.957   3.388   5.141  1.2442 -0.6557 -0.7009
 3081SOL    HW220706   3.894   3.368   5.013  1.9916  0.2120 -2.3232
 3082SOL     OW20707   3.780   0.025   5.882  0.1038  0.0081  0.4064
 3082SOL    HW120708   3.809   0.031   5.973  0.1693 -0.1440  0.3945
 3082SOL    HW220709   3.829   4.672   5.857  2.2084  1.7337 -0.9176
 3083SOL     OW20710   2.928   1.244   0.841  0.1799  0.6512  0.5971
 3083SOL    HW120711   2.942   1.156   0.807 -1.3038  0.9813 -0.8487
 3083SOL    HW220712   2.992   1.289   0.786 -2.4877  1.6674 -1.7022
 3084SOL     OW20713   1.076   3.195   0.278 -0.2597  0.0537  0.1738
 3084SOL    HW120714   1.060   3.101   0.277 -2.0650  0.3685 -1.0060
 3084SOL    HW220715   1.162   3.216   0.243 -0.7284  1.2168 -0.2744
 3085SOL     OW20716   4.125   2.263  17.674  0.1417  0.4471  0.6303
 3085SOL    HW120717   4.192   2.199  17.697  1.2373  1.3654 -0.0233
 3085SOL    HW220718   4.168   2.324  17.614  0.5093 -0.8416 -0.4189
 3086SOL     OW20719   0.689   2.646  14.035  0.1487  0.1073  0.2571
 3086SOL    HW120720   0.623   2.605  14.092  1.6731  0.7231  2.4463
 3086SOL    HW220721   0.721   2.577  13.977  1.8291  1.3259 -0.2362
 3087SOL     OW20722   4.694   0.988   2.573 -0.2904  0.3617  0.1895
 3087SOL    HW120723   4.725   0.974   2.484  0.5836  1.7185  0.2786
 3087SOL    HW220724   0.049   1.023   2.612 -0.8625  3.2007 -1.2330
 3088SOL     OW20725   3.490   2.869   5.808 -0.5710  0.1659 -0.2991
 3088SOL    HW120726   3.520   2.942   5.862 -1.2645  0.9897 -1.0233
 3088SOL    HW220727   3.485   2.806   5.880  0.5519 -0.6496 -0.9417
 3089SOL     OW20728   4.016   4.100   0.991 -0.1376  0.1407 -0.1926
 3089SOL    HW120729   4.079   4.040   0.951 -0.0073 -1.0769  1.7984
 3089SOL    HW220730   4.060   4.182   0.970  0.2598  0.1233  0.5428
 3090SOL     OW20731   1.034   3.351   1.530 -0.0157  0.3557  0.0317
 3090SOL    HW120732   0.949   3.370   1.492  0.1842 -1.1962 -1.2002
 3090SOL    HW220733   1.001   3.289   1.595  0.6098 -0.4388 -0.4006
 3091SOL     OW20734   1.350   1.773  11.147 -0.3658 -0.3745 -0.4188
 3091SOL    HW120735   1.358   1.852  11.200  0.9749 -1.8946  1.6289
 3091SOL    HW220736   1.410   1.797  11.076 -0.7087  1.2145 -0.1765
 3092SOL     OW20737   1.213   1.188   4.812 -0.0785 -1.0377  0.0324
 3092SOL    HW120738   1.272   1.125   4.769 -0.5692 -2.7633  1.8480
 3092SOL    HW220739   1.278   1.239   4.859 -0.5019  0.0023 -0.5281
 3093SOL     OW20740   2.120   0.312  11.087 -0.0112  0.7169 -0.2540
 3093SOL    HW120741   2.196   0.301  11.145  0.5132  0.5809 -0.9606
 3093SOL    HW220742   2.134   0.398  11.049  0.4103  0.3007 -1.0409
 3094SOL     OW20743   0.104   4.075   2.639 -0.0225  0.4180  0.6948
 3094SOL    HW120744   0.045   4.082   2.563  0.2870  0.2546  0.4356
 3094SOL    HW220745   0.041   4.085   2.710 -0.2101  1.7007  0.3570
 3095SOL     OW20746   4.124   3.364  13.396  0.3444 -0.2740  0.3429
 3095SOL    HW120747   4.043   3.408  13.424 -0.0486 -1.2486  0.7615
 3095SOL    HW220748   4.175   3.432  13.353 -0.4311  0.2339  0.2309
 3096SOL     OW20749   3.078   3.641   4.726 -0.2348  0.5766 -0.6558
 3096SOL    HW120750   3.017   3.584   4.771  0.4509 -0.1243 -0.6131
 3096SOL    HW220751   3.066   3.624   4.633  0.3660 -2.1402 -0.2430
 3097SOL     OW20752   0.815   3.437   6.631  0.0745  0.2601  0.2667
 3097SOL    HW120753   0.780   3.403   6.714 -0.6641  0.8359  0.1927
 3097SOL    HW220754   0.779   3.381   6.563  3.2477 -0.5206 -0.7370
 3098SOL     OW20755   2.927   2.069  14.626  0.1288 -0.2624 -0.0931
 3098SOL    HW120756   2.888   2.118  14.554  2.7673  1.6249 -0.2580
 3098SOL    HW220757   2.992   2.126  14.666  0.5233 -1.1086  0.4805
 3099SOL     OW20758   1.222   0.919   3.804  0.4231 -0.8931  0.1259
 3099SOL    HW120759   1.214   0.849   3.869 -0.0035 -1.5495 -0.6365
 3099SOL    HW220760   1.161   0.896   3.734  1.8198 -1.4335 -0.9222
 3100SOL     OW20761   3.783   1.890   7.885 -0.2592  0.1355 -0.2804
 3100SOL    HW120762   3.862   1.889   7.832  0.3984  3.5791  0.6282
 3100SOL    HW220763   3.748   1.802   7.870  0.3416 -0.3239  1.0822
 3101SOL     OW20764   0.224   2.576   0.360  0.0583 -0.2792 -0.4932
 3101SOL    HW120765   0.192   2.666   0.348 -2.2759 -0.9192  0.7523
 3101SOL    HW220766   0.307   2.586   0.406 -0.7686  2.2962  0.4596
 3102SOL     OW20767   2.086   2.733   5.651 -0.2048  0.5125 -0.2833
 3102SOL    HW120768   2.033   2.720   5.729  0.0464 -1.2694 -0.4272
 3102SOL    HW220769   2.105   2.827   5.661  1.5399  0.0996  0.2335
 3103SOL     OW20770   3.789   4.555   9.188  0.0949  0.6653  0.5854
 3103SOL    HW120771   3.747   4.640   9.196  1.0855  1.2391 -0.3270
 3103SOL    HW220772   3.721   4.501   9.147 -1.2586  3.4076 -0.7815
 3104SOL     OW20773   0.303   4.699   3.926  0.5699 -0.3978  0.1144
 3104SOL    HW120774   0.389   4.667   3.898  1.1634  0.0328  1.4430
 3104SOL    HW220775   0.325   4.709   4.018  0.0538  0.8973  0.1009
 3105SOL     OW20776   2.598   3.664  15.157 -0.5939  0.0769 -0.0995
 3105SOL    HW120777   2.653   3.586  15.158  1.0211  1.2096 -0.5413
 3105SOL    HW220778   2.632   3.709  15.079  1.2399 -0.1018  0.5980
 3106SOL     OW20779   3.430   3.414   9.565  0.7589  0.2743 -0.1357
 3106SOL    HW120780   3.514   3.458   9.551  0.9497 -0.3274 -0.9580
 3106SOL    HW220781   3.436   3.390   9.657 -0.6947  1.8969  0.3695
 3107SOL     OW20782   0.727   4.647   6.923 -0.0527  0.0155  0.3549
 3107SOL    HW120783   0.810   4.682   6.953  0.2216 -0.6856  0.4073
 3107SOL    HW220784   0.734   4.620   6.831 -0.6939  0.9493  0.0269
 3108SOL     OW20785   1.159   3.826  14.436  0.1066 -0.2465 -0.5549
 3108SOL    HW120786   1.118   3.759  14.381  2.5301 -0.5936 -1.9016
 3108SOL    HW220787   1.239   3.834  14.384  0.3953 -0.3667 -0.1340
 3109SOL     OW20788   3.310   0.325   9.551  0.5309  0.1543 -1.0509
 3109SOL    HW120789   3.307   0.304   9.458 -1.0215 -0.4309 -0.8714
 3109SOL    HW220790   3.230   0.288   9.589  2.3570 -1.1758  1.4773
 3110SOL     OW20791   4.466   3.164  16.689 -0.1773  0.1312 -0.1396
 3110SOL    HW120792   4.540   3.225  16.693 -0.9015  0.9926 -0.0613
 3110SOL    HW220793   4.404   3.211  16.634 -0.4339  0.1539  0.1713
 3111SOL     OW20794   4.462   4.324   5.925  0.5809  0.4837  0.1511
 3111SOL    HW120795   4.451   4.419   5.922  0.3430  0.4381 -0.5030
 3111SOL    HW220796   4.557   4.317   5.920  0.3525 -3.3381  0.8297
 3112SOL     OW20797   1.235   0.474   5.441  0.1694 -0.2706 -0.5439
 3112SOL    HW120798   1.140   0.489   5.437  0.3943  1.4614  0.7054
 3112SOL    HW220799   1.273   0.561   5.434 -2.2641  1.0442  2.4151
 3113SOL     OW20800   4.297   3.728  13.469  0.3964  0.3338 -0.2215
 3113SOL    HW120801   4.377   3.689  13.433 -1.3943 -1.7425 -1.9967
 3113SOL    HW220802   4.234   3.679  13.416 -0.1598  1.0113 -0.1929
 3114SOL     OW20803   1.197   1.103  15.140  0.2324  0.2331 -0.6128
 3114SOL    HW120804   1.214   1.018  15.181 -1.0542  0.0146 -0.5598
 3114SOL    HW220805   1.197   1.147  15.225 -0.0410  2.7720 -1.9185
 3115SOL     OW20806   0.468   0.841  16.803  0.0168  0.6676  0.1360
 3115SOL    HW120807   0.478   0.777  16.874  1.3010 -0.3844 -0.9944
 3115SOL    HW220808   0.442   0.915  16.858  0.0138 -0.0248  1.0672
 3116SOL     OW20809   3.409   4.542   3.933 -0.1245  0.4194  0.2291
 3116SOL    HW120810   3.403   4.628   3.974 -0.0594 -0.3109  1.7835
 3116SOL    HW220811   3.387   4.563   3.843 -0.2318  0.5145  0.2766
 3117SOL     OW20812   4.686   2.527  12.951  0.2644 -0.5401 -0.2947
 3117SOL    HW120813   4.665   2.466  13.021  0.6775  0.6277  0.8637
 3117SOL    HW220814   4.614   2.591  12.954  0.8119 -0.0319  1.9408
 3118SOL     OW20815   4.543   1.509   9.596  0.1926 -0.2513 -0.4173
 3118SOL    HW120816   4.534   1.472   9.684 -2.2541 -1.1655 -1.0777
 3118SOL    HW220817   4.459   1.555   9.600 -0.6919 -1.9157  0.0004
 3119SOL     OW20818   3.861   0.299   8.344 -0.4122 -0.1497 -0.3404
 3119SOL    HW120819   3.889   0.263   8.260 -0.3197 -0.4547 -0.1782
 3119SOL    HW220820   3.860   0.393   8.325 -0.0232 -0.3314 -1.2844
 3120SOL     OW20821   1.536   1.713   8.825 -0.3128  0.3405  0.3422
 3120SOL    HW120822   1.478   1.663   8.767  0.6680  1.1833 -1.3800
 3120SOL    HW220823   1.556   1.785   8.765 -0.1813  0.5156  0.5949
 3121SOL     OW20824   2.701   4.697   8.186 -0.0426 -0.2526 -0.0541
 3121SOL    HW120825   2.646   4.633   8.231  0.2154 -1.2717 -1.2102
 3121SOL    HW220826   2.675   4.680   8.096  0.8394  1.4973 -0.6373
 3122SOL     OW20827   3.113   3.300   8.895 -0.3218 -0.1432 -0.3268
 3122SOL    HW120828   3.188   3.288   8.953  0.8614  0.3939 -1.7420
 3122SOL    HW220829   3.087   3.392   8.906 -1.2969 -0.2668 -1.6852
 3123SOL     OW20830   4.279   3.182   1.320  0.6155 -0.3910 -0.3116
 3123SOL    HW120831   4.204   3.165   1.376  0.6953  0.0954 -0.0527
 3123SOL    HW220832   4.330   3.103   1.338 -1.5689 -1.8011 -0.3707
 3124SOL     OW20833   3.027   0.730  13.889  0.5363  0.1550 -0.1907
 3124SOL    HW120834   3.027   0.806  13.947 -2.8218  0.4751 -0.6017
 3124SOL    HW220835   3.115   0.698  13.908  1.3043  1.4737 -1.4951
 3125SOL     OW20836   3.275   1.045   5.740 -0.7411  0.3679 -0.2650
 3125SOL    HW120837   3.219   1.088   5.675  0.2349  0.8915 -0.7646
 3125SOL    HW220838   3.311   0.982   5.677 -0.8921 -0.8995  0.9157
 3126SOL     OW20839   0.602   2.837  14.681  0.4645 -0.4310 -0.5805
 3126SOL    HW120840   0.614   2.825  14.586 -0.6229  0.6798 -0.8631
 3126SOL    HW220841   0.531   2.776  14.701 -1.1713  1.4779 -0.5358
 3127SOL     OW20842   1.745   0.402   6.079  0.2682 -0.4357 -0.3708
 3127SOL    HW120843   1.835   0.432   6.093  0.2864 -0.5010 -0.3474
 3127SOL    HW220844   1.698   0.457   6.142  1.3005  1.7558 -1.5123
 3128SOL     OW20845   3.494   3.557  17.184  0.4969 -0.6955  0.6027
 3128SOL    HW120846   3.573   3.552  17.239  2.2138 -0.6952 -1.8709
 3128SOL    HW220847   3.517   3.485  17.125  1.2142  0.9519 -1.1233
 3129SOL     OW20848   2.808   4.509  15.775 -0.0332 -0.1991 -0.0194
 3129SOL    HW120849   2.764   4.425  15.762  2.1302 -1.4439  0.7365
 3129SOL    HW220850   2.733   4.568  15.765 -0.5442 -0.7665  0.4477
 3130SOL     OW20851   1.905   0.997   3.001 -0.1136 -0.0967  0.1343
 3130SOL    HW120852   1.928   1.039   3.083  0.6016 -1.3443  0.5805
 3130SOL    HW220853   1.877   1.072   2.949  0.4649 -0.3926 -0.6014
 3131SOL     OW20854   2.158   3.023  15.361 -0.0287 -0.3121  0.4685
 3131SOL    HW120855   2.210   2.997  15.437  0.1774  1.0689  0.8159
 3131SOL    HW220856   2.228   3.078  15.325 -0.1235 -0.0768  0.6386
 3132SOL     OW20857   2.833   3.361   2.957  0.0534 -0.3975  0.5224
 3132SOL    HW120858   2.829   3.280   3.007 -1.6254 -0.2875  0.5659
 3132SOL    HW220859   2.917   3.352   2.911  0.6643  0.0198  1.5547
 3133SOL     OW20860   4.496   0.804   2.611  0.6402  0.0110  0.6168
 3133SOL    HW120861   4.537   0.770   2.532  0.7548  2.3031 -0.3141
 3133SOL    HW220862   4.560   0.875   2.618  0.2824  0.4238 -0.3058
 3134SOL     OW20863   2.594   3.996  11.041  0.1677  0.4534  0.1483
 3134SOL    HW120864   2.671   3.955  11.079  0.6286 -0.7878 -2.1612
 3134SOL    HW220865   2.581   3.938  10.966  0.3341  3.4227 -2.2110
 3135SOL     OW20866   4.311   2.593   6.293  0.1677  0.4523  0.1936
 3135SOL    HW120867   4.395   2.569   6.332 -0.1369 -0.9072  0.0046
 3135SOL    HW220868   4.286   2.661   6.356  0.6956  0.1172  0.7733
 3136SOL     OW20869   2.226   4.325  11.051 -0.2400  0.2370  0.3668
 3136SOL    HW120870   2.218   4.377  11.131 -0.2522  2.4923 -1.0869
 3136SOL    HW220871   2.233   4.394  10.985 -1.4646 -0.0026 -0.0168
 3137SOL     OW20872   2.067   4.351  15.080 -0.6483 -0.1737 -0.1741
 3137SOL    HW120873   2.030   4.304  15.156 -0.3529  0.0510  0.1034
 3137SOL    HW220874   2.145   4.392  15.117  0.9462 -0.7784 -2.8878
 3138SOL     OW20875   0.088   2.765   2.283 -0.3335  0.4087 -0.1217
 3138SOL    HW120876   0.007   2.720   2.262  0.9719 -1.8552 -0.2765
 3138SOL    HW220877   0.077   2.850   2.240  1.9985  0.4914 -0.5637
 3139SOL     OW20878   1.957   3.164   4.205  0.3279  0.0416 -0.3271
 3139SOL    HW120879   2.005   3.173   4.288 -0.7492 -1.5814  0.4530
 3139SOL    HW220880   1.873   3.180   4.246  0.5424  2.3561 -0.7957
 3140SOL     OW20881   4.430   2.775   5.573 -0.0088 -0.3268 -0.0053
 3140SOL    HW120882   4.420   2.801   5.664 -0.2253  1.4086 -0.5309
 3140SOL    HW220883   4.461   2.685   5.584 -1.2374 -0.4598  2.3903
 3141SOL     OW20884   2.327   3.462   3.286 -0.0289  0.3865 -0.1036
 3141SOL    HW120885   2.246   3.504   3.317  0.2689  1.4459 -0.7564
 3141SOL    HW220886   2.300   3.374   3.263  0.3058  0.0016  0.9489
 3142SOL     OW20887   0.008   2.395   9.814 -0.0376  0.0455  0.2423
 3142SOL    HW120888   4.657   2.343   9.791  1.2196 -2.2011  1.1482
 3142SOL    HW220889   0.069   2.376   9.742 -1.1205  0.9429 -0.9108
 3143SOL     OW20890   2.794   1.310   9.063 -0.1125  0.0806  0.0274
 3143SOL    HW120891   2.772   1.228   9.106  0.5346  0.5622  1.2694
 3143SOL    HW220892   2.828   1.276   8.980 -1.5268  0.2386 -0.6169
 3144SOL     OW20893   4.718   3.348   2.097  0.1070  0.9280  0.3774
 3144SOL    HW120894   0.017   3.289   2.025 -1.6948  1.3617 -0.5735
 3144SOL    HW220895   4.628   3.374   2.079 -1.5794 -4.7066  0.6434
 3145SOL     OW20896   2.827   4.270   2.501 -0.7169 -0.1563  0.0537
 3145SOL    HW120897   2.884   4.239   2.432 -1.2960 -0.6889 -0.1894
 3145SOL    HW220898   2.743   4.234   2.471 -0.5875 -1.5916  1.3645
 3146SOL     OW20899   4.342   0.127   6.104 -0.4048 -0.0190  0.1212
 3146SOL    HW120900   4.362   0.185   6.031  0.2324 -0.9392 -0.4420
 3146SOL    HW220901   4.431   0.117   6.138 -0.8099  0.4468  1.3326
 3147SOL     OW20902   1.420   0.247  11.863  0.0476 -0.2477 -0.0191
 3147SOL    HW120903   1.358   0.174  11.867  0.6906 -0.6186  2.7539
 3147SOL    HW220904   1.393   0.301  11.789  0.7399  0.4677  0.2482
 3148SOL     OW20905   2.993   0.580  12.975 -0.2672  0.0482 -0.0644
 3148SOL    HW120906   2.902   0.556  12.994  0.1744 -3.2183 -2.1219
 3148SOL    HW220907   2.994   0.661  13.025  0.2573 -0.4072  0.6598
 3149SOL     OW20908   3.289   1.297   1.698 -0.0032  0.2983 -0.5587
 3149SOL    HW120909   3.202   1.259   1.689  0.2793 -0.2997 -0.7535
 3149SOL    HW220910   3.307   1.327   1.609 -0.4175 -0.1830 -0.8037
 3150SOL     OW20911   1.541   3.090   7.787 -1.0545 -0.0934 -0.0493
 3150SOL    HW120912   1.593   3.140   7.724  1.0420 -2.1210  0.0831
 3150SOL    HW220913   1.455   3.091   7.745 -1.4169  0.7076  0.7093
 3151SOL     OW20914   0.754   4.205   4.864 -0.0566 -0.2938  0.6224
 3151SOL    HW120915   0.845   4.230   4.844 -0.5555 -0.5265 -2.0281
 3151SOL    HW220916   0.765   4.132   4.926 -1.8584 -1.4778 -0.4584
 3152SOL     OW20917   0.896   0.661   4.508  0.2346 -0.2916  0.2928
 3152SOL    HW120918   0.801   0.676   4.508 -0.1485 -2.6536 -1.1782
 3152SOL    HW220919   0.915   0.580   4.556  3.0840 -0.9231 -1.8674
 3153SOL     OW20920   3.468   1.894   3.688  0.3408 -0.3918 -0.3238
 3153SOL    HW120921   3.434   1.816   3.644 -1.1570  0.5762 -0.8758
 3153SOL    HW220922   3.511   1.930   3.611  0.3092  1.1193  0.3570
 3154SOL     OW20923   0.967   2.235  15.431 -0.0412  0.3317  0.2788
 3154SOL    HW120924   1.046   2.182  15.426  0.1611  0.3568  2.8313
 3154SOL    HW220925   0.968   2.278  15.346  0.7045 -1.0226 -0.4004
 3155SOL     OW20926   1.048   1.208   4.329 -0.4137 -0.0490  0.4583
 3155SOL    HW120927   0.960   1.173   4.325  0.2508 -1.5734 -0.4218
 3155SOL    HW220928   1.046   1.280   4.393 -1.5778 -1.1836  1.6813
 3156SOL     OW20929   2.539   3.742   6.014  0.3686 -0.0424  0.5134
 3156SOL    HW120930   2.458   3.691   6.015  1.2539 -1.4560 -0.7327
 3156SOL    HW220931   2.562   3.727   5.923  1.2225  0.7384  0.5922
 3157SOL     OW20932   0.022   0.131  10.302  0.0085  0.0572 -0.1628
 3157SOL    HW120933   0.077   0.057  10.274 -0.2676  0.3735 -1.5464
 3157SOL    HW220934   4.667   0.083  10.281 -0.9065  1.7484 -0.4447
 3158SOL     OW20935   0.918   2.777   7.947  0.3102 -0.0590 -0.1401
 3158SOL    HW120936   0.837   2.726   7.944  0.7030 -0.6878 -0.0437
 3158SOL    HW220937   0.981   2.734   7.889  1.2022  0.6971  0.2672
 3159SOL     OW20938   0.614   2.129   8.839  0.2816 -0.1328  0.2360
 3159SOL    HW120939   0.564   2.210   8.852 -0.8133 -0.8335  0.3644
 3159SOL    HW220940   0.613   2.124   8.743 -0.0797 -1.9692  0.3430
 3160SOL     OW20941   3.486   4.418  16.650  1.0492  0.1549 -0.2107
 3160SOL    HW120942   3.390   4.413  16.653  1.0890 -1.5326 -1.5964
 3160SOL    HW220943   3.489   4.478  16.575 -1.7868 -2.1848 -2.2005
 3161SOL     OW20944   1.154   1.942   6.090 -0.1773 -0.7232 -0.0306
 3161SOL    HW120945   1.119   2.019   6.135 -0.9561 -0.5340 -0.9649
 3161SOL    HW220946   1.124   1.871   6.146 -0.2133 -0.1128  0.7158
 3162SOL     OW20947   0.978   4.514  15.259 -0.3330  0.0252 -0.0671
 3162SOL    HW120948   1.055   4.545  15.306  1.2368 -0.2948 -2.4307
 3162SOL    HW220949   0.955   4.429  15.297 -0.9008 -0.1012 -0.6847
 3163SOL     OW20950   0.399   0.308   3.100 -0.3067  0.0890  0.0431
 3163SOL    HW120951   0.345   0.233   3.073  0.2624 -0.1062 -0.5434
 3163SOL    HW220952   0.475   0.307   3.042 -0.4428  3.7969 -0.2269
 3164SOL     OW20953   4.134   2.439   6.174 -0.7536 -0.1819  0.7738
 3164SOL    HW120954   4.117   2.453   6.081  0.2777  0.8746  0.7459
 3164SOL    HW220955   4.200   2.504   6.196 -0.3677 -0.2897 -0.0675
 3165SOL     OW20956   1.277   3.697  16.438  0.1081 -0.8213 -0.0334
 3165SOL    HW120957   1.229   3.731  16.513 -0.1996  0.4150 -0.8003
 3165SOL    HW220958   1.216   3.629  16.408 -2.7551  1.1277  1.3864
 3166SOL     OW20959   3.446   3.457  11.154  0.3315  0.7463  0.1265
 3166SOL    HW120960   3.353   3.435  11.159  0.8054 -1.6101 -2.1343
 3166SOL    HW220961   3.453   3.483  11.246  0.7463 -0.5352  0.4542
 3167SOL     OW20962   3.092   3.679   8.728  0.4601  0.4637 -0.1240
 3167SOL    HW120963   3.094   3.612   8.797 -1.0360  0.0908 -0.4547
 3167SOL    HW220964   3.171   3.729   8.748  0.9339 -0.0658 -0.6851
 3168SOL     OW20965   0.766   3.492  13.786 -0.3851  0.2670 -0.0120
 3168SOL    HW120966   0.703   3.425  13.761  0.5965 -1.2519  1.5655
 3168SOL    HW220967   0.813   3.461  13.864 -0.0757  1.2608  0.1967
 3169SOL     OW20968   2.123   1.754   7.088 -0.0147 -0.1826  0.0262
 3169SOL    HW120969   2.132   1.672   7.138  0.1620 -0.1402  0.0672
 3169SOL    HW220970   2.081   1.717   7.011 -1.8494 -0.3706  1.1330
 3170SOL     OW20971   3.390   3.904   0.473 -0.2887  0.0284 -0.4658
 3170SOL    HW120972   3.373   3.997   0.458 -0.4514  0.1452  0.4725
 3170SOL    HW220973   3.372   3.859   0.391 -0.5368 -4.1486  1.9000
 3171SOL     OW20974   3.480   1.938   1.741  0.0354  0.1358  0.4133
 3171SOL    HW120975   3.512   1.921   1.829 -0.1702  0.9099  0.6417
 3171SOL    HW220976   3.397   1.893   1.749 -0.5394  0.6692 -2.3861
 3172SOL     OW20977   0.859   0.609   8.364  0.2134  1.0145  0.8565
 3172SOL    HW120978   0.832   0.548   8.295 -0.0719  2.2786 -0.1621
 3172SOL    HW220979   0.845   0.555   8.441 -1.7870  0.4617  0.1220
 3173SOL     OW20980   1.904   2.922   8.142  0.3251 -0.2849 -0.2903
 3173SOL    HW120981   1.894   3.011   8.107  1.3993  0.6775  1.8580
 3173SOL    HW220982   1.839   2.920   8.213 -0.8413  0.4869 -1.3275
 3174SOL     OW20983   4.346   4.141   8.988 -0.4309 -0.0290 -0.0866
 3174SOL    HW120984   4.318   4.230   9.010 -0.9569 -0.1495 -0.2659
 3174SOL    HW220985   4.425   4.155   8.936 -0.1408 -0.1501  0.3200
 3175SOL     OW20986   1.887   1.024   5.821 -0.3816 -0.2933 -0.5223
 3175SOL    HW120987   1.953   0.998   5.757 -1.3178  1.1439 -2.0872
 3175SOL    HW220988   1.876   1.110   5.782  0.0099  0.1810  0.4103
 3176SOL     OW20989   1.583   1.761   0.951  0.1975  0.1940  0.0650
 3176SOL    HW120990   1.583   1.713   0.869 -0.4262  0.3443 -0.0188
 3176SOL    HW220991   1.495   1.764   0.987 -0.0412 -0.1959 -0.4926
 3177SOL     OW20992   3.780   0.397  11.823  0.1825 -0.7736 -0.0274
 3177SOL    HW120993   3.708   0.434  11.773  0.1406 -0.2806  0.3961
 3177SOL    HW220994   3.836   0.352  11.759 -0.1515 -0.1391 -0.7584
 3178SOL     OW20995   0.755   3.592   8.026  0.0659 -0.3982 -0.3612
 3178SOL    HW120996   0.739   3.630   7.940 -0.2177 -0.1921 -0.2197
 3178SOL    HW220997   0.816   3.523   8.001  2.1149  2.0968 -2.3149
 3179SOL     OW20998   0.012   4.505  12.789 -0.1122 -0.0644  0.3727
 3179SOL    HW120999   0.105   4.521  12.774 -0.5442  1.3637 -0.7625
 3179SOL    HW221000   4.711   4.577  12.847  0.4864  1.4971 -1.2910
 3180SOL     OW21001   4.455   0.547   5.116 -0.1080 -0.7209 -0.3387
 3180SOL    HW121002   4.550   0.551   5.115 -0.1352  0.0381 -0.5182
 3180SOL    HW221003   4.429   0.634   5.084  0.4949  0.0085  1.1279
 3181SOL     OW21004   4.536   2.026   7.452 -0.3775 -0.7979  0.7042
 3181SOL    HW121005   4.494   1.952   7.497  0.7646 -1.7379  0.2389
 3181SOL    HW221006   4.571   2.067   7.531  0.7160  1.2973 -0.8671
 3182SOL     OW21007   4.250   0.650  16.355  0.2487  0.1734 -0.3117
 3182SOL    HW121008   4.274   0.557  16.353  2.7929  0.7989  0.9810
 3182SOL    HW221009   4.192   0.659  16.431 -1.6488  0.9863 -1.8677
 3183SOL     OW21010   3.867   4.455   6.116  0.3803  0.4045 -0.0367
 3183SOL    HW121011   3.851   4.549   6.119 -1.7967 -0.0099  0.8217
 3183SOL    HW221012   3.949   4.447   6.166 -0.4796  0.0693  1.3065
 3184SOL     OW21013   3.212   0.395   4.121  0.2015 -0.8766  1.1424
 3184SOL    HW121014   3.306   0.412   4.115  0.0614 -0.5420 -0.1263
 3184SOL    HW221015   3.184   0.461   4.184 -1.5100  0.7597 -1.3066
 3185SOL     OW21016   0.280   3.416   3.893  0.2963  0.2686 -0.6226
 3185SOL    HW121017   0.328   3.353   3.946  1.2055  1.4417 -0.0466
 3185SOL    HW221018   0.328   3.423   3.810  0.0968  3.4439 -0.4791
 3186SOL     OW21019   2.785   3.252   1.920  0.3476 -0.2077  0.3117
 3186SOL    HW121020   2.747   3.336   1.897  0.1214 -0.2512  0.5276
 3186SOL    HW221021   2.822   3.266   2.007 -1.9531 -1.1545  1.4253
 3187SOL     OW21022   2.044   1.441  11.922 -0.0499  0.0180 -0.5045
 3187SOL    HW121023   2.014   1.388  11.996  3.1272  1.9630  2.1577
 3187SOL    HW221024   2.134   1.413  11.905 -0.4818 -0.6697 -1.6780
 3188SOL     OW21025   4.560   2.385   2.965  0.2398 -0.4757 -0.0419
 3188SOL    HW121026   4.609   2.308   2.938  1.3384  0.8667 -1.8534
 3188SOL    HW221027   4.471   2.359   2.989 -0.5259  0.2073 -2.0753
 3189SOL     OW21028   0.529   4.294  13.914  0.1511  0.2140 -0.0203
 3189SOL    HW121029   0.564   4.233  13.979 -1.4459 -0.2766  0.3654
 3189SOL    HW221030   0.604   4.334  13.869 -0.5382  0.1402 -1.2133
 3190SOL     OW21031   3.758   4.423   3.867 -0.3513 -0.3942 -0.2319
 3190SOL    HW121032   3.681   4.367   3.857 -0.1259 -0.8190  0.3907
 3190SOL    HW221033   3.731   4.471   3.946  0.8992  2.6438 -1.6652
 3191SOL     OW21034   2.193   2.439   7.593 -0.4671  0.4835  0.2329
 3191SOL    HW121035   2.270   2.415   7.541 -0.0829  0.2945  0.8879
 3191SOL    HW221036   2.143   2.365   7.559 -2.2574  0.5552  2.7367
 3192SOL     OW21037   2.264   2.440   9.033 -0.6738 -0.2133  0.5186
 3192SOL    HW121038   2.342   2.495   9.035 -2.1143  1.8859 -0.8611
 3192SOL    HW221039   2.246   2.427   9.127  2.3144 -0.0992  1.0933
 3193SOL     OW21040   4.097   0.246  16.443 -0.1387  0.2468  0.3291
 3193SOL    HW121041   4.098   0.300  16.522  1.1376  1.9489 -0.8381
 3193SOL    HW221042   4.078   0.160  16.480  0.5260 -0.1058 -0.1486
 3194SOL     OW21043   1.079   2.955  17.035  0.1187 -0.3266  0.0740
 3194SOL    HW121044   1.012   3.007  17.079 -1.0451 -0.9580 -0.9496
 3194SOL    HW221045   1.076   2.870  17.078  1.0013 -0.9170 -1.0312
 3195SOL     OW21046   3.198   4.270  16.397 -0.4466  0.4777  0.2993
 3195SOL    HW121047   3.235   4.213  16.464  1.1382  0.9449 -0.1770
 3195SOL    HW221048   3.172   4.350  16.443 -2.4415 -0.5704  0.9699
 3196SOL     OW21049   0.851   3.700   3.947  0.4079 -0.6830 -0.0930
 3196SOL    HW121050   0.806   3.723   3.866  2.1982  0.4233 -0.7734
 3196SOL    HW221051   0.837   3.605   3.952 -1.9569 -0.3117  0.1032
 3197SOL     OW21052   0.647   0.549   9.052  0.3754 -0.7584  0.2850
 3197SOL    HW121053   0.718   0.590   9.101  1.3111 -1.4108 -0.5098
 3197SOL    HW221054   0.594   0.627   9.036  0.2077 -1.2006 -1.3575
 3198SOL     OW21055   1.576   4.626   6.246  0.4794  0.1429  0.5135
 3198SOL    HW121056   1.633   4.580   6.307  0.7866 -0.2058 -0.0420
 3198SOL    HW221057   1.644   4.676   6.202  0.4228  1.7872  2.2675
 3199SOL     OW21058   3.645   0.226  11.567 -0.3784 -0.6575  0.0778
 3199SOL    HW121059   3.620   0.134  11.566 -1.2884 -0.4500  2.8139
 3199SOL    HW221060   3.740   0.216  11.566 -0.0010  2.6547  0.9062
 3200SOL     OW21061   4.522   0.674   9.236 -0.1431 -0.0683 -0.6273
 3200SOL    HW121062   4.572   0.741   9.282 -0.4513 -0.6269  0.5237
 3200SOL    HW221063   4.589   0.635   9.179  0.3451  0.1321 -0.1922
 3201SOL     OW21064   2.568   0.038  10.728  0.3804  0.0865  0.5608
 3201SOL    HW121065   2.640   0.097  10.750  0.3088  0.3086  0.1981
 3201SOL    HW221066   2.601   0.001  10.646  1.4717  2.3964 -0.0236
 3202SOL     OW21067   0.363   3.748   7.477  1.0363 -0.1130  0.3733
 3202SOL    HW121068   0.285   3.769   7.527  1.3478  0.6854  0.5236
 3202SOL    HW221069   0.361   3.652   7.477 -1.9508 -0.0441 -0.2621
 3203SOL     OW21070   1.143   1.020   0.631  0.0835 -0.2948  0.7517
 3203SOL    HW121071   1.164   0.964   0.556  0.9246  1.6358 -0.4450
 3203SOL    HW221072   1.088   1.081   0.582  0.5291 -0.4398  0.0882
 3204SOL     OW21073   1.986   4.079   7.029 -0.1950 -0.3244  0.2931
 3204SOL    HW121074   1.971   4.133   7.106 -1.7110 -0.3638  0.0321
 3204SOL    HW221075   2.079   4.082   7.048  0.2908  0.9462 -2.3300
 3205SOL     OW21076   1.146   1.727  14.949  0.6555 -0.2603 -0.3706
 3205SOL    HW121077   1.139   1.632  14.945 -0.4022 -0.1964 -0.0575
 3205SOL    HW221078   1.227   1.752  14.993  1.3517 -2.4401 -0.4392
 3206SOL     OW21079   1.779   3.681   2.513 -0.2818 -0.3331  0.2647
 3206SOL    HW121080   1.702   3.632   2.540 -1.0999  0.3433 -0.8555
 3206SOL    HW221081   1.815   3.622   2.446  0.2913  1.2034 -0.7915
 3207SOL     OW21082   1.105   2.947  10.561 -0.0352 -0.1677  0.2800
 3207SOL    HW121083   1.093   2.871  10.504  0.5884 -1.3865  1.7892
 3207SOL    HW221084   1.199   2.964  10.556 -0.1130  0.2821  0.3150
 3208SOL     OW21085   1.105   0.647   8.364 -0.2326 -0.0848  0.5295
 3208SOL    HW121086   1.010   0.650   8.365 -0.2645 -0.7787 -1.3921
 3208SOL    HW221087   1.122   0.627   8.272 -0.5911  1.5397  0.1121
 3209SOL     OW21088   4.095   2.361  15.966 -0.1273 -0.1897  0.2688
 3209SOL    HW121089   4.024   2.303  15.938 -1.5453  1.4660  0.3714
 3209SOL    HW221090   4.165   2.302  15.940  0.1953  0.9293 -1.3836
 3210SOL     OW21091   2.951   0.641   8.102  0.1384  0.0302  0.1554
 3210SOL    HW121092   2.863   0.671   8.080  1.0074  4.0176  2.1297
 3210SOL    HW221093   2.929   0.549   8.088 -0.4269 -0.2874  3.2005
 3211SOL     OW21094   0.075   3.956   9.778  0.2926  0.1963 -0.4941
 3211SOL    HW121095   0.081   3.862   9.760 -0.1976 -0.4111  2.4616
 3211SOL    HW221096   0.004   3.974   9.716 -0.4994  2.5642  1.1052
 3212SOL     OW21097   2.419   2.272   7.784 -0.1166  0.0977  0.8617
 3212SOL    HW121098   2.339   2.221   7.774 -1.0564  1.6266  0.5523
 3212SOL    HW221099   2.445   2.251   7.873 -0.7994 -4.3790  0.0091
 3213SOL     OW21100   0.560   0.464   6.181  0.2034 -0.0148  0.0771
 3213SOL    HW121101   0.609   0.526   6.128  0.1201  0.4720  0.5636
 3213SOL    HW221102   0.620   0.454   6.255  0.6129  0.1615 -0.2335
 3214SOL     OW21103   3.150   3.520  16.508  0.0919 -0.4139 -0.3447
 3214SOL    HW121104   3.180   3.503  16.419  2.5945 -1.1862  0.6510
 3214SOL    HW221105   3.112   3.608  16.504 -0.1093 -0.4124  1.2793
 3215SOL     OW21106   0.809   2.168  13.484 -0.9715 -0.0239 -0.5976
 3215SOL    HW121107   0.726   2.147  13.441 -0.9542 -0.3146 -0.4863
 3215SOL    HW221108   0.777   2.185  13.573  2.0700  3.4207 -0.1488
 3216SOL     OW21109   1.361   2.389   5.207  0.3840  0.0580  0.6053
 3216SOL    HW121110   1.371   2.297   5.231  1.5952 -0.1649 -0.7819
 3216SOL    HW221111   1.265   2.398   5.211  0.1623 -2.8503  1.8638
 3217SOL     OW21112   1.316   1.861   8.555 -0.2111 -0.1011 -0.8859
 3217SOL    HW121113   1.248   1.905   8.505 -1.4871 -0.5436  0.4654
 3217SOL    HW221114   1.272   1.859   8.640  0.8236  2.2193 -0.2782
 3218SOL     OW21115   1.761   0.288   2.810 -0.1230 -0.1357 -0.9138
 3218SOL    HW121116   1.800   0.360   2.761 -0.1812  1.4386  1.3920
 3218SOL    HW221117   1.674   0.316   2.837  1.7304  3.5632  1.2265
 3219SOL     OW21118   1.127   0.222   3.486 -0.5892 -0.3329 -0.0988
 3219SOL    HW121119   1.138   0.127   3.481  2.7926  0.1020 -1.0990
 3219SOL    HW221120   1.217   0.255   3.486 -0.6204 -0.2493 -0.1046
 3220SOL     OW21121   3.931   0.832   6.243 -0.6306  0.0541 -0.0786
 3220SOL    HW121122   3.890   0.864   6.324 -0.7196  1.1875 -0.5667
 3220SOL    HW221123   3.925   0.911   6.190  1.0032  1.6640  2.1127
 3221SOL     OW21124   4.286   3.271   5.142 -0.4870  0.2219  0.3174
 3221SOL    HW121125   4.336   3.246   5.220 -1.5143  0.2562  0.9758
 3221SOL    HW221126   4.250   3.356   5.164 -0.5557  0.1269  0.5728
 3222SOL     OW21127   2.426   3.728  15.908 -0.1479 -0.1243 -0.0754
 3222SOL    HW121128   2.403   3.635  15.903  1.7571 -0.4918 -1.7947
 3222SOL    HW221129   2.433   3.746  15.815 -0.7288 -0.7280 -0.2385
 3223SOL     OW21130   4.259   3.687   2.340  0.1061  0.5423  0.1807
 3223SOL    HW121131   4.329   3.692   2.405  1.3651 -1.0507 -1.0772
 3223SOL    HW221132   4.186   3.713   2.397 -1.6698  0.2333 -1.9513
 3224SOL     OW21133   4.305   1.128   4.007  0.3440  0.0329  0.1816
 3224SOL    HW121134   4.264   1.096   3.927 -0.5525  1.2251  0.1588
 3224SOL    HW221135   4.230   1.116   4.066 -0.6777 -1.0422 -1.3209
 3225SOL     OW21136   4.401   4.257   3.459 -0.6213 -0.3682  0.0990
 3225SOL    HW121137   4.347   4.325   3.499  1.7093 -0.4332  3.3997
 3225SOL    HW221138   4.485   4.302   3.458 -1.3726  1.0143 -0.6266
 3226SOL     OW21139   1.644   2.765   6.650 -0.1042  0.5954 -0.2181
 3226SOL    HW121140   1.691   2.848   6.652 -0.1463  0.6076  0.4226
 3226SOL    HW221141   1.557   2.803   6.659 -0.6783 -0.7020 -0.1523
 3227SOL     OW21142   1.915   2.791  10.058  0.3047  0.1930  0.0780
 3227SOL    HW121143   1.822   2.786  10.038  0.2456 -1.0339  0.6508
 3227SOL    HW221144   1.932   2.697  10.055 -2.8780 -0.3751 -0.5715
 3228SOL     OW21145   4.489   1.577  15.930 -0.7695 -0.5170 -0.5754
 3228SOL    HW121146   4.507   1.484  15.914 -0.3588 -0.6283  0.5405
 3228SOL    HW221147   4.394   1.580  15.921 -0.8196  0.8951  0.4317
 3229SOL     OW21148   3.896   3.201  15.964 -0.4535 -0.0841  0.1216
 3229SOL    HW121149   3.961   3.240  16.023  0.7245 -2.2919  0.2975
 3229SOL    HW221150   3.839   3.160  16.028 -0.7580 -0.3035 -0.2964
 3230SOL     OW21151   3.932   0.552   6.057 -0.8183 -0.2703 -0.3589
 3230SOL    HW121152   3.983   0.633   6.059  1.4847 -1.7364  0.0532
 3230SOL    HW221153   3.973   0.511   6.133 -1.1775 -1.4519 -0.8028
 3231SOL     OW21154   3.200   3.176  17.547 -0.1041  0.2831  0.0872
 3231SOL    HW121155   3.177   3.206  17.459 -0.0650  0.5793  0.1787
 3231SOL    HW221156   3.113   3.158  17.583 -0.4044  0.6473 -0.4563
 3232SOL     OW21157   4.125   1.291  12.440 -0.3818 -0.5727 -0.0199
 3232SOL    HW121158   4.118   1.347  12.517  0.8869 -3.2416  2.0033
 3232SOL    HW221159   4.194   1.231  12.468  0.9351  1.6268  1.3942
 3233SOL     OW21160   0.990   2.968   2.764 -0.4347 -0.3458  0.9770
 3233SOL    HW121161   1.049   3.036   2.797  1.4706 -1.9802  0.9027
 3233SOL    HW221162   1.055   2.899   2.754  0.3218  0.5238 -0.0347
 3234SOL     OW21163   2.978   0.534   0.529 -0.1971  0.4729 -0.2660
 3234SOL    HW121164   2.895   0.493   0.554  0.4326 -1.6488 -1.7051
 3234SOL    HW221165   2.960   0.626   0.551  1.3495  0.8157 -0.4263
 3235SOL     OW21166   3.615   0.404   8.128  0.2705 -0.5650  0.0448
 3235SOL    HW121167   3.587   0.322   8.087  2.3913 -0.5817 -1.4020
 3235SOL    HW221168   3.537   0.458   8.140  0.6721  0.2365 -0.9077
 3236SOL     OW21169   3.022   1.414   2.997 -0.2680 -0.4048 -0.5159
 3236SOL    HW121170   2.973   1.334   3.015  1.0133 -1.1603 -0.4166
 3236SOL    HW221171   3.109   1.394   2.963  1.1841 -0.1550  3.1247
 3237SOL     OW21172   1.743   4.058   6.915 -0.1171  0.4009 -0.0337
 3237SOL    HW121173   1.775   4.050   6.826 -3.1344  1.4530 -1.2144
 3237SOL    HW221174   1.822   4.062   6.969  1.6723  1.1875 -2.7347
 3238SOL     OW21175   0.054   0.963   4.353  0.6864  0.9514  0.1988
 3238SOL    HW121176   0.062   1.054   4.324  1.1665  0.3146 -1.6650
 3238SOL    HW221177   4.684   0.955   4.362  0.6030  0.6489 -0.9235
 3239SOL     OW21178   2.529   0.894  11.450 -0.0926  0.3152 -0.1240
 3239SOL    HW121179   2.504   0.802  11.460 -0.7794  0.6256  1.0741
 3239SOL    HW221180   2.471   0.931  11.516 -1.0116  1.6234 -1.6374
 3240SOL     OW21181   1.520   2.917  15.268  0.3597 -0.2239  0.4374
 3240SOL    HW121182   1.586   2.873  15.214  1.1565 -0.4303  1.5617
 3240SOL    HW221183   1.577   2.958  15.333  1.0849 -1.1461  0.3896
 3241SOL     OW21184   3.546   3.229  13.281 -0.3677  0.8628 -0.0514
 3241SOL    HW121185   3.462   3.218  13.236 -0.0571  3.5607 -1.2999
 3241SOL    HW221186   3.549   3.322  13.301  1.2182  0.1880  2.8583
 3242SOL     OW21187   3.346   0.549   8.684 -0.2246 -0.5048 -0.3413
 3242SOL    HW121188   3.325   0.556   8.777 -0.2998  1.0648 -0.4791
 3242SOL    HW221189   3.397   0.629   8.676 -0.2321 -0.5390 -0.7292
 3243SOL     OW21190   0.018   2.806  10.520  0.1344  0.3480 -0.4301
 3243SOL    HW121191   0.060   2.884  10.486  0.5846  0.2007 -0.2187
 3243SOL    HW221192   4.652   2.828  10.502 -1.2272 -4.0049  0.9031
 3244SOL     OW21193   2.663   0.223   4.110  0.1068  0.0511  0.4529
 3244SOL    HW121194   2.605   0.299   4.112 -0.8752 -0.6107 -2.2020
 3244SOL    HW221195   2.598   0.154   4.126 -0.9499  0.8778 -0.2255
 3245SOL     OW21196   3.028   3.098  13.271  0.0709 -0.1425 -0.1845
 3245SOL    HW121197   3.094   3.131  13.210 -0.3362  1.4038  0.1996
 3245SOL    HW221198   3.047   3.138  13.356  0.7253  1.6613 -1.1864
 3246SOL     OW21199   3.354   0.272   6.736  0.0404 -0.1359  0.5149
 3246SOL    HW121200   3.296   0.239   6.668 -0.0623  2.2660 -0.5611
 3246SOL    HW221201   3.402   0.345   6.696 -0.2336  1.4663  3.0731
 3247SOL     OW21202   0.094   2.928   7.612  0.6414 -0.1552 -0.0744
 3247SOL    HW121203   0.167   2.989   7.611 -0.4536  1.2091  1.4123
 3247SOL    HW221204   0.108   2.867   7.540 -0.5173 -1.4609  0.7908
 3248SOL     OW21205   3.142   0.889   8.690  0.1711 -0.1502  0.0824
 3248SOL    HW121206   3.101   0.852   8.768  0.7481  2.2054  1.4771
 3248SOL    HW221207   3.231   0.854   8.694  0.3068  0.1755 -0.0632
 3249SOL     OW21208   0.171   1.998   6.623 -0.5391 -0.1546 -0.9277
 3249SOL    HW121209   0.249   1.994   6.568 -0.0177  3.3357 -0.4818
 3249SOL    HW221210   0.171   2.086   6.661  1.7298 -0.6108  0.1698
 3250SOL     OW21211   3.078   4.214   7.074 -0.1596  0.0438  0.3006
 3250SOL    HW121212   3.082   4.134   7.021  1.5221  1.2454 -1.3974
 3250SOL    HW221213   3.171   4.233   7.090  0.1145 -1.2587  0.2599
 3251SOL     OW21214   4.466   1.760   8.501  0.6933  0.1668  0.1611
 3251SOL    HW121215   4.509   1.676   8.520  1.7810  0.2651 -1.7864
 3251SOL    HW221216   4.481   1.823   8.571 -0.8063  0.8077 -0.1128
 3252SOL     OW21217   0.131   1.551   6.944  0.4052  0.2724 -0.3679
 3252SOL    HW121218   0.190   1.521   6.875 -0.6570  0.0190 -1.1751
 3252SOL    HW221219   0.088   1.475   6.983 -0.2665  1.1221  0.5375
 3253SOL     OW21220   3.484   2.861  11.605  0.1132 -0.2663  0.0092
 3253SOL    HW121221   3.487   2.953  11.633 -0.8370 -0.3680  0.4449
 3253SOL    HW221222   3.505   2.814  11.686  0.1607 -1.1709 -0.5310
 3254SOL     OW21223   0.334   4.517  10.704  0.4811  0.0448 -0.1996
 3254SOL    HW121224   0.398   4.563  10.649 -0.4583  1.8471  0.1855
 3254SOL    HW221225   0.368   4.549  10.787 -1.4942  0.9797  0.2652
 3255SOL     OW21226   3.446   0.531  14.759 -0.1116  0.0173 -0.5163
 3255SOL    HW121227   3.405   0.598  14.705 -0.4028  0.7068  0.5669
 3255SOL    HW221228   3.532   0.568  14.781  0.0325 -1.7825  1.9548
 3256SOL     OW21229   1.182   1.794  11.690  0.1503 -0.3539  0.5141
 3256SOL    HW121230   1.247   1.863  11.679  0.5070 -1.0095 -1.3471
 3256SOL    HW221231   1.099   1.842  11.702  0.2950  0.7203 -2.8449
 3257SOL     OW21232   2.448   0.202   4.353  0.0865  0.6117 -0.0005
 3257SOL    HW121233   2.363   0.215   4.313  0.3820  0.7636 -0.5833
 3257SOL    HW221234   2.487   0.159   4.277 -0.8950 -1.5210  0.6846
 3258SOL     OW21235   3.696   4.146   8.355 -0.3703  0.2824  0.1827
 3258SOL    HW121236   3.723   4.210   8.421  0.3546 -0.6013  0.7246
 3258SOL    HW221237   3.709   4.068   8.409  1.8835 -0.4394 -1.4183
 3259SOL     OW21238   0.672   2.873  11.892 -0.0229  0.6309 -0.5596
 3259SOL    HW121239   0.657   2.946  11.832 -4.7590  0.7744  0.8448
 3259SOL    HW221240   0.590   2.881  11.940  0.7370 -2.4001  1.2593
 3260SOL     OW21241   3.499   2.612  13.584 -0.2643  0.4388 -0.2976
 3260SOL    HW121242   3.425   2.644  13.635  1.6968  2.2494  1.3750
 3260SOL    HW221243   3.537   2.686  13.538  0.2175 -0.2472 -1.0085
 3261SOL     OW21244   3.085   2.177   4.616  0.2087 -1.0539  0.3077
 3261SOL    HW121245   3.146   2.127   4.562  0.9713 -0.6587  0.8193
 3261SOL    HW221246   3.011   2.119   4.598 -0.7798 -0.0084  1.0242
 3262SOL     OW21247   1.698   4.157   9.001  0.4662  0.5791  0.9147
 3262SOL    HW121248   1.675   4.194   9.086 -1.4240  1.8432 -0.1671
 3262SOL    HW221249   1.790   4.184   8.994  1.3086 -1.9318  2.0986
 3263SOL     OW21250   2.804   0.557   0.085 -0.1949 -0.1865 -0.5177
 3263SOL    HW121251   2.737   0.591   0.025  1.2495  4.0472  0.2747
 3263SOL    HW221252   2.876   0.580   0.025  1.7577 -2.0597  1.1071
 3264SOL     OW21253   0.999   0.578   0.816  0.1137  0.0327  0.1957
 3264SOL    HW121254   0.932   0.541   0.873  2.7601  1.1775  4.1010
 3264SOL    HW221255   0.976   0.671   0.818  3.4445  0.8759 -0.0753
 3265SOL     OW21256   4.530   1.574   3.732 -0.3790 -0.2696 -0.1236
 3265SOL    HW121257   4.542   1.540   3.821  0.0782  4.3628  1.6001
 3265SOL    HW221258   4.447   1.621   3.743  0.4022  1.0634  0.0336
 3266SOL     OW21259   3.819   2.084   7.376 -0.4723  0.2557  0.7018
 3266SOL    HW121260   3.799   2.133   7.297  2.0989 -0.5363 -0.4420
 3266SOL    HW221261   3.891   2.030   7.343  0.4566  0.9012  1.6366
 3267SOL     OW21262   2.716   1.563   1.121  0.7733 -0.6113 -0.3231
 3267SOL    HW121263   2.747   1.590   1.034 -0.2067  1.2483 -0.1004
 3267SOL    HW221264   2.644   1.504   1.099  1.2747 -0.9007 -1.1613
 3268SOL     OW21265   0.596   0.554   5.577  0.2590  0.2288 -0.8114
 3268SOL    HW121266   0.601   0.459   5.564  2.2372 -0.0298  1.7474
 3268SOL    HW221267   0.530   0.548   5.647  1.0869  1.4055  0.0654
 3269SOL     OW21268   4.028   3.897   4.839 -0.3439  0.0105  0.0453
 3269SOL    HW121269   4.077   3.905   4.757 -1.1083 -0.0918 -0.4191
 3269SOL    HW221270   3.986   3.811   4.828 -1.5168  0.5136  0.5676
 3270SOL     OW21271   2.741   3.391  10.249 -0.5290 -0.1183  0.3461
 3270SOL    HW121272   2.719   3.483  10.265  1.8978  0.3687  0.9251
 3270SOL    HW221273   2.836   3.403  10.258 -0.4374 -0.1236 -0.6709
 3271SOL     OW21274   0.897   3.899   2.272 -0.3596 -1.0027  0.3155
 3271SOL    HW121275   0.925   3.822   2.222 -1.2272 -3.1645  3.1785
 3271SOL    HW221276   0.968   3.953   2.237  0.0720 -2.5627 -1.2617
 3272SOL     OW21277   0.784   0.160   2.848  0.5775  0.1038  0.1496
 3272SOL    HW121278   0.733   0.135   2.771  2.2785 -0.9455 -0.6388
 3272SOL    HW221279   0.823   0.074   2.863 -0.7970 -0.7810 -1.3824
 3273SOL     OW21280   4.438   0.611   8.335  0.1767 -0.5803  0.4932
 3273SOL    HW121281   4.447   0.681   8.270 -1.2563 -1.6056 -0.8027
 3273SOL    HW221282   4.524   0.571   8.324  1.8080  4.1030 -3.6503
 3274SOL     OW21283   3.593   1.235   9.440  0.2192 -0.0994 -0.5569
 3274SOL    HW121284   3.676   1.195   9.412  0.6149 -0.2473  0.8261
 3274SOL    HW221285   3.637   1.308   9.484 -1.3741  0.4854  0.0463
 3275SOL     OW21286   1.250   1.141   1.571  0.1138 -0.3216 -0.1735
 3275SOL    HW121287   1.169   1.172   1.612  1.3287  2.1969  0.3272
 3275SOL    HW221288   1.262   1.050   1.600 -0.0249 -0.8513 -1.7728
 3276SOL     OW21289   1.813   3.446   0.536  0.2974 -0.2037  0.1059
 3276SOL    HW121290   1.740   3.495   0.498 -0.8997 -2.0041  0.0803
 3276SOL    HW221291   1.869   3.524   0.544  0.2165 -0.0912 -0.4116
 3277SOL     OW21292   2.471   1.349   3.151 -0.1594  0.0978  0.4900
 3277SOL    HW121293   2.456   1.273   3.207  1.2128 -0.0107  0.7096
 3277SOL    HW221294   2.540   1.314   3.095 -0.8840 -0.5206 -0.0056
 3278SOL     OW21295   0.324   0.371   6.490  0.5828 -0.3873 -0.4334
 3278SOL    HW121296   0.252   0.347   6.549  0.9184  1.5576  0.7671
 3278SOL    HW221297   0.336   0.285   6.449  0.7557 -0.0217 -1.1504
 3279SOL     OW21298   3.806   4.307   2.879 -0.3148  0.3794 -0.1250
 3279SOL    HW121299   3.890   4.339   2.846 -0.9973  2.4113  0.0921
 3279SOL    HW221300   3.810   4.337   2.970 -1.0253  1.9575 -0.6157
 3280SOL     OW21301   1.398   3.066  15.565 -0.6555 -0.0066  0.4744
 3280SOL    HW121302   1.379   3.140  15.624 -1.0649 -0.9674  1.5515
 3280SOL    HW221303   1.486   3.040  15.592 -1.9010 -1.1517  3.4564
 3281SOL     OW21304   3.206   2.256  13.694  0.1872  0.0949 -0.4818
 3281SOL    HW121305   3.302   2.249  13.697  0.3472  1.4904 -2.6576
 3281SOL    HW221306   3.175   2.178  13.647  0.5122 -2.0180  2.7766
 3282SOL     OW21307   0.082   3.459   8.046  0.1365 -0.2690 -0.3647
 3282SOL    HW121308   0.172   3.487   8.034  0.3636 -1.0911 -0.5719
 3282SOL    HW221309   0.078   3.369   8.013 -3.8696 -0.2960  0.2224
 3283SOL     OW21310   0.551   3.318   1.703 -0.0246 -0.1442  0.2060
 3283SOL    HW121311   0.554   3.367   1.621 -0.6770 -0.1766  0.1633
 3283SOL    HW221312   0.576   3.232   1.669  2.0257  0.8428 -0.8175
 3284SOL     OW21313   1.993   2.174  13.767 -0.2284  0.5240 -0.4932
 3284SOL    HW121314   1.968   2.087  13.736 -0.1978 -0.3748  1.9330
 3284SOL    HW221315   2.088   2.163  13.755 -0.3560 -0.3769 -0.6741
 3285SOL     OW21316   3.636   4.275   4.476  0.1649 -0.4314  0.4255
 3285SOL    HW121317   3.675   4.306   4.557  2.5795  0.6826 -1.1577
 3285SOL    HW221318   3.646   4.180   4.472 -1.6049 -0.5874 -0.6580
 3286SOL     OW21319   1.498   0.018   9.613 -0.2862 -0.1479  0.3533
 3286SOL    HW121320   1.405   0.003   9.594 -0.0370  0.2774 -1.1925
 3286SOL    HW221321   1.526   4.655   9.635 -1.3202 -0.4257  0.5634
 3287SOL     OW21322   1.846   2.685   3.366 -0.4877 -0.2999 -0.0467
 3287SOL    HW121323   1.932   2.687   3.325 -1.1780  2.2270 -1.3540
 3287SOL    HW221324   1.844   2.775   3.397  2.9024  0.5102 -2.2564
 3288SOL     OW21325   0.270   3.328   5.203 -0.2764 -0.1734 -0.3067
 3288SOL    HW121326   0.175   3.325   5.188  0.0301 -0.9724 -2.0508
 3288SOL    HW221327   0.300   3.397   5.144  1.0849  1.0968  1.8965
 3289SOL     OW21328   2.817   2.878  16.304 -0.0752 -0.5007 -0.3532
 3289SOL    HW121329   2.756   2.950  16.292 -0.8267 -1.1139 -0.2239
 3289SOL    HW221330   2.863   2.888  16.221  0.0181 -1.8593 -0.4655
 3290SOL     OW21331   0.339   1.309   4.469 -0.3931  0.3759 -0.0593
 3290SOL    HW121332   0.425   1.336   4.500  0.2250 -0.5158 -0.9926
 3290SOL    HW221333   0.288   1.270   4.540 -0.8378 -1.8215 -1.5736
 3291SOL     OW21334   1.009   1.818   4.295 -0.3293  0.5507  0.1451
 3291SOL    HW121335   0.953   1.740   4.288 -0.1935  0.6603 -2.1410
 3291SOL    HW221336   1.049   1.812   4.208  0.1278  1.7547  0.2755
 3292SOL     OW21337   2.707   2.416   4.254 -0.8953 -0.5407 -0.1531
 3292SOL    HW121338   2.721   2.380   4.342 -3.4598 -1.1544  0.0069
 3292SOL    HW221339   2.618   2.451   4.263 -1.4079 -1.6784 -0.7637
 3293SOL     OW21340   1.449   1.889  11.602 -0.5690  0.2017  0.0939
 3293SOL    HW121341   1.438   1.839  11.521 -2.0719  0.5623  0.0863
 3293SOL    HW221342   1.501   1.826  11.652  0.8275  2.3771  1.3442
 3294SOL     OW21343   2.953   3.574   5.537 -0.0401 -0.1091  0.0654
 3294SOL    HW121344   2.952   3.669   5.540  0.1706  0.0268 -4.8228
 3294SOL    HW221345   2.858   3.564   5.528 -0.0924 -0.3215  0.8372
 3295SOL     OW21346   2.484   1.864   6.934 -0.5806 -0.3411 -0.4324
 3295SOL    HW121347   2.541   1.837   7.006  1.6901  0.8338 -1.7971
 3295SOL    HW221348   2.481   1.778   6.891  1.6866 -0.7678  0.2512
 3296SOL     OW21349   2.239   4.587   8.780  1.1338 -0.0904  0.3626
 3296SOL    HW121350   2.299   4.525   8.822  1.2743 -0.5787 -0.5654
 3296SOL    HW221351   2.238   4.556   8.689 -0.7663  1.3089 -0.0940
 3297SOL     OW21352   4.158   0.594  11.995  0.0711 -0.8123  0.3670
 3297SOL    HW121353   4.126   0.542  11.921  1.3333 -0.1236 -0.6512
 3297SOL    HW221354   4.179   0.521  12.053  0.2630 -2.5845 -1.9116
 3298SOL     OW21355   3.657   4.491   4.128 -0.6316 -0.0708  0.1079
 3298SOL    HW121356   3.584   4.494   4.189  0.0755 -2.2010  1.0600
 3298SOL    HW221357   3.645   4.581   4.099  1.4328  0.5723  1.2573
 3299SOL     OW21358   1.709   3.875   2.992  0.1215 -0.1820  0.0872
 3299SOL    HW121359   1.671   3.816   2.927 -0.0143  0.1493 -0.1305
 3299SOL    HW221360   1.708   3.814   3.066  2.1773 -0.3332 -0.0305
 3300SOL     OW21361   3.770   0.388   7.211  0.2974 -0.3232  0.1487
 3300SOL    HW121362   3.735   0.324   7.273  2.5559 -0.5486  1.1594
 3300SOL    HW221363   3.736   0.469   7.248 -2.8935 -0.8500 -1.6092
 3301SOL     OW21364   1.139   4.619  15.628  0.2376 -0.1882 -0.3965
 3301SOL    HW121365   1.199   4.632  15.554 -0.0015  0.7104 -0.4380
 3301SOL    HW221366   1.059   4.665  15.603 -0.3362 -1.7170 -1.4030
 3302SOL     OW21367   3.035   3.935   4.910  0.5879  0.2925  0.0641
 3302SOL    HW121368   3.051   3.983   4.991  0.8359  1.2236 -0.5393
 3302SOL    HW221369   2.989   3.860   4.947  1.8813 -0.8958 -0.7093
 3303SOL     OW21370   4.250   2.497   7.417 -0.2075 -0.1341  0.2814
 3303SOL    HW121371   4.216   2.408   7.431 -2.2770  0.2763 -2.2052
 3303SOL    HW221372   4.273   2.509   7.509 -0.9220  1.3667  0.2648
 3304SOL     OW21373   4.181   2.871   0.537 -0.4387 -0.5017  0.1269
 3304SOL    HW121374   4.141   2.853   0.452 -2.1499  1.7568  0.4680
 3304SOL    HW221375   4.256   2.924   0.510 -0.8942  0.2901  0.4160
 3305SOL     OW21376   0.354   0.042   2.032  0.3422  0.1989  0.5808
 3305SOL    HW121377   0.291   0.098   2.079  0.6798  1.3747 -0.3861
 3305SOL    HW221378   0.298   0.029   1.956  1.9475  2.0878 -0.8958
 3306SOL     OW21379   3.768   2.972   1.286 -0.3874  0.2688  0.4004
 3306SOL    HW121380   3.682   2.936   1.262 -0.4044  1.1501 -0.8544
 3306SOL    HW221381   3.810   2.886   1.279 -0.4099  0.2327  0.7076
 3307SOL     OW21382   0.028   1.740   8.235  0.5132  0.4876  0.0020
 3307SOL    HW121383   0.053   1.749   8.327 -0.3564  0.1934  0.2634
 3307SOL    HW221384   0.071   1.813   8.191  2.2247 -0.3886  0.1997
 3308SOL     OW21385   2.738   3.689  15.511 -0.0695 -0.2394 -0.0885
 3308SOL    HW121386   2.813   3.712  15.565  0.0007 -0.3336 -0.1472
 3308SOL    HW221387   2.731   3.760  15.447 -1.0454  0.1425  0.4256
 3309SOL     OW21388   3.852   0.861  17.361  0.0475 -0.2700  0.0605
 3309SOL    HW121389   3.850   0.807  17.439  1.0780 -0.0182  0.2644
 3309SOL    HW221390   3.828   0.948  17.395 -2.1524 -0.6580 -0.5325
 3310SOL     OW21391   3.979   3.959   7.817  0.3175 -0.1068 -0.6537
 3310SOL    HW121392   3.898   3.959   7.767  0.8624 -3.4162 -1.4977
 3310SOL    HW221393   3.948   3.924   7.901  0.7990  1.5618  0.2340
 3311SOL     OW21394   0.370   2.298  10.319 -0.1309  0.7809 -0.3785
 3311SOL    HW121395   0.385   2.392  10.328  2.1553  0.3295  0.4720
 3311SOL    HW221396   0.452   2.262  10.353  0.2288  3.5197  1.6218
 3312SOL     OW21397   2.408   2.789  14.452 -0.0827 -0.2021  0.1217
 3312SOL    HW121398   2.344   2.771  14.382  0.9703 -0.9917 -0.6476
 3312SOL    HW221399   2.461   2.858  14.413  0.0569 -1.4740 -1.9516
 3313SOL     OW21400   2.524   3.840  15.673 -0.1879 -0.5894  0.3649
 3313SOL    HW121401   2.590   3.854  15.740 -1.8170  1.6963  1.4918
 3313SOL    HW221402   2.576   3.780  15.620 -1.7480  0.7094 -2.6455
 3314SOL     OW21403   0.962   2.661   4.798  0.1557 -0.6701  0.7534
 3314SOL    HW121404   0.914   2.580   4.780  0.7045 -0.8016 -0.0695
 3314SOL    HW221405   0.962   2.667   4.894 -2.4244 -1.8849  0.8338
 3315SOL     OW21406   4.632   0.469   4.576  0.2733  0.4608 -0.0433
 3315SOL    HW121407   4.679   0.392   4.546  0.9340  0.8147  0.0878
 3315SOL    HW221408   4.553   0.426   4.609 -0.9367  1.4745 -1.5673
 3316SOL     OW21409   3.332   2.997   9.943  0.3913 -0.2900 -0.3070
 3316SOL    HW121410   3.275   3.019   9.869  0.4529  1.4931  0.1802
 3316SOL    HW221411   3.369   2.913   9.914  0.9182  1.0183 -3.3515
 3317SOL     OW21412   4.490   3.539   3.034 -0.4807 -0.0537  0.3138
 3317SOL    HW121413   4.414   3.482   3.028  0.3268 -0.9096 -1.7424
 3317SOL    HW221414   4.444   3.618   3.062  0.1677  1.1523 -2.0575
 3318SOL     OW21415   1.892   3.215   5.093 -0.4961 -0.4693 -0.0046
 3318SOL    HW121416   1.899   3.216   4.997  0.3782 -0.1840  0.0658
 3318SOL    HW221417   1.952   3.146   5.121 -0.4700  0.1014  1.3542
 3319SOL     OW21418   0.006   0.274   3.072 -0.0051  0.0534  0.2237
 3319SOL    HW121419   0.015   0.346   3.135 -1.6411  0.6388 -0.2057
 3319SOL    HW221420   0.010   0.197   3.128 -1.7474 -0.4178 -0.2921
 3320SOL     OW21421   1.122   1.477   1.720  0.2526 -0.0136 -0.4008
 3320SOL    HW121422   1.191   1.513   1.664  0.1547 -1.1241 -1.2535
 3320SOL    HW221423   1.149   1.510   1.806 -1.0002  2.1023 -0.8377
 3321SOL     OW21424   3.059   1.654   5.563  0.3540 -0.3917  0.3690
 3321SOL    HW121425   3.098   1.579   5.518  3.2567  0.9004  0.7595
 3321SOL    HW221426   2.973   1.645   5.521  0.5654 -3.8944  0.6962
 3322SOL     OW21427   2.363   2.678  17.235  0.3239 -0.2108  0.1844
 3322SOL    HW121428   2.365   2.748  17.170 -3.4752 -0.8415 -0.6144
 3322SOL    HW221429   2.441   2.702  17.286 -0.8096  1.9415  0.9151
 3323SOL     OW21430   1.598   2.270   3.551  0.2148 -0.0434  0.0022
 3323SOL    HW121431   1.625   2.343   3.495 -1.5467  0.8122  0.2890
 3323SOL    HW221432   1.631   2.199   3.496 -2.3805 -0.7940 -0.5678
 3324SOL     OW21433   1.035   0.713   2.781 -0.0880 -0.5482 -0.0847
 3324SOL    HW121434   1.021   0.734   2.688  0.0209 -0.6408 -0.1212
 3324SOL    HW221435   1.092   0.785   2.809 -1.8720  0.5769  0.6732
 3325SOL     OW21436   3.078   4.078   6.528  0.0139  0.0362  0.0438
 3325SOL    HW121437   3.093   3.985   6.511 -0.3382 -0.3911  2.1032
 3325SOL    HW221438   3.169   4.107   6.533  0.0808 -0.7995  3.7227
 3326SOL     OW21439   0.061   2.469   2.430  0.3196  0.2080  0.1787
 3326SOL    HW121440   4.725   2.473   2.357  1.4007  2.2614 -0.6028
 3326SOL    HW221441   0.012   2.477   2.512  2.1220  1.2024  1.1384
 3327SOL     OW21442   0.113   0.731   8.711 -0.2278  0.5906  0.1859
 3327SOL    HW121443   0.136   0.801   8.650  1.4902 -0.3135 -0.2039
 3327SOL    HW221444   0.169   0.740   8.788  0.9826 -0.1992 -0.6098
 3328SOL     OW21445   4.321   1.092   4.403  0.0456 -0.4228 -0.2826
 3328SOL    HW121446   4.381   1.162   4.376  0.6834 -1.2828 -1.0816
 3328SOL    HW221447   4.236   1.135   4.391  0.5143  0.1508 -1.5251
 3329SOL     OW21448   4.288   1.039   8.766  0.0472  0.0172 -0.3644
 3329SOL    HW121449   4.315   0.995   8.685  2.3297  0.7219  0.0291
 3329SOL    HW221450   4.373   1.050   8.807  0.1602  1.2685 -0.9300
 3330SOL     OW21451   1.586   2.903  12.507 -0.7707  0.4624  0.2214
 3330SOL    HW121452   1.650   2.905  12.579  0.8048  0.5706 -1.1702
 3330SOL    HW221453   1.601   2.810  12.487  0.5905  0.4431  1.2948
 3331SOL     OW21454   1.653   4.023   9.339 -0.2307  0.5021  0.1856
 3331SOL    HW121455   1.729   3.972   9.367 -0.6559 -0.4836 -0.4654
 3331SOL    HW221456   1.598   3.958   9.296 -1.1057  0.4552  1.3587
 3332SOL     OW21457   2.180   0.621   9.305  0.4440  0.4231 -0.0622
 3332SOL    HW121458   2.185   0.531   9.335 -1.0009  0.1844 -0.5088
 3332SOL    HW221459   2.117   0.606   9.234 -1.6446  2.4341  1.3443
 3333SOL     OW21460   2.518   1.581   6.548 -0.0630  0.0877 -0.2269
 3333SOL    HW121461   2.546   1.547   6.462 -0.2123  1.1453 -0.6844
 3333SOL    HW221462   2.535   1.675   6.548  2.7792 -0.4276  0.2697
 3334SOL     OW21463   2.861   3.571  13.222 -0.5151 -0.0193 -0.3370
 3334SOL    HW121464   2.799   3.634  13.186  0.5924  0.1186 -2.0184
 3334SOL    HW221465   2.804   3.493  13.225 -2.1456  1.1471 -0.6728
 3335SOL     OW21466   1.584   1.459   5.023  0.2475 -0.4446  0.0668
 3335SOL    HW121467   1.671   1.420   5.015  0.9039  0.9280  0.6518
 3335SOL    HW221468   1.578   1.533   4.963  0.6214 -0.3668  0.1273
 3336SOL     OW21469   4.009   2.859   4.591  1.0538  0.4941  0.0396
 3336SOL    HW121470   4.061   2.824   4.663  0.9173 -1.2487 -0.7033
 3336SOL    HW221471   4.027   2.798   4.519 -1.8621  0.7388 -0.8988
 3337SOL     OW21472   2.785   3.204   3.222  0.7899  0.3272  0.2678
 3337SOL    HW121473   2.703   3.159   3.241  1.7020 -1.1048  0.8403
 3337SOL    HW221474   2.846   3.130   3.232  2.2580  1.3643 -1.0151
 3338SOL     OW21475   3.534   1.518   6.860  0.2547 -0.2046 -0.4081
 3338SOL    HW121476   3.461   1.477   6.815 -1.3580 -0.2884  2.2835
 3338SOL    HW221477   3.609   1.460   6.847  2.1123  2.0940  0.1135
 3339SOL     OW21478   1.280   1.753   9.399 -0.2775  0.1938 -0.1341
 3339SOL    HW121479   1.290   1.795   9.484 -1.1664 -0.0559  0.0887
 3339SOL    HW221480   1.335   1.675   9.402  1.0226  1.0316 -2.0654
 3340SOL     OW21481   1.927   0.598   4.769  0.4595  0.1484  0.2973
 3340SOL    HW121482   1.923   0.677   4.715 -1.6956  1.2326  2.0120
 3340SOL    HW221483   1.898   0.526   4.714  0.1072  0.4808  0.0483
 3341SOL     OW21484   2.409   2.604   6.661 -0.9132  0.1483  0.0719
 3341SOL    HW121485   2.403   2.508   6.664 -0.3696  0.0779 -0.9301
 3341SOL    HW221486   2.319   2.611   6.629 -0.1305 -1.5609 -2.4811
 3342SOL     OW21487   0.547   4.133   2.071  0.8059  0.0777  0.1381
 3342SOL    HW121488   0.588   4.069   2.014 -1.6400 -0.8766 -0.5602
 3342SOL    HW221489   0.452   4.124   2.058  0.6516 -1.5563  2.3605
 3343SOL     OW21490   3.891   0.497  16.941 -0.2424 -0.4808  0.0961
 3343SOL    HW121491   3.981   0.527  16.929 -0.8125  0.9952 -0.5079
 3343SOL    HW221492   3.902   0.402  16.946 -0.0876 -0.3993  1.2236
 3344SOL     OW21493   0.427   0.231  16.942  0.2826  0.1984  0.1016
 3344SOL    HW121494   0.439   0.318  16.980 -0.4871  0.3900 -0.0954
 3344SOL    HW221495   0.514   0.218  16.906  0.0864 -2.6080  0.6539
 3345SOL     OW21496   1.392   1.000   0.238  0.3050 -0.4547 -0.5286
 3345SOL    HW121497   1.444   1.037   0.310 -1.1724 -0.5424  0.5730
 3345SOL    HW221498   1.367   1.080   0.192  3.4963  0.7168 -0.2384
 3346SOL     OW21499   3.827   0.997   6.425 -0.2723  0.1979 -0.2318
 3346SOL    HW121500   3.859   1.082   6.393 -1.3998  0.3327 -0.9768
 3346SOL    HW221501   3.901   0.972   6.481 -0.4042  0.9889  0.3046
 3347SOL     OW21502   1.703   1.666   0.701 -0.1753  0.2868 -0.4218
 3347SOL    HW121503   1.667   1.750   0.672  0.8265  1.1520  0.8050
 3347SOL    HW221504   1.655   1.610   0.640  0.8121 -0.7449 -0.2366
 3348SOL     OW21505   4.292   2.358   1.168  0.3762  1.1190  0.7288
 3348SOL    HW121506   4.288   2.453   1.180 -0.3848  1.4270 -1.8322
 3348SOL    HW221507   4.201   2.329   1.179  0.2734  0.2802 -2.2940
 3349SOL     OW21508   2.010   1.829   3.707  0.2700 -0.5180  0.2986
 3349SOL    HW121509   1.992   1.821   3.614 -1.8531 -2.2389  0.8287
 3349SOL    HW221510   1.992   1.923   3.708  2.2816 -0.1437  0.9657
 3350SOL     OW21511   4.066   3.822   1.374  0.4101  0.2368 -0.3685
 3350SOL    HW121512   4.059   3.899   1.318 -2.5390 -0.6583 -1.2148
 3350SOL    HW221513   4.098   3.868   1.452  1.9433  1.4507 -1.7270
 3351SOL     OW21514   0.622   2.361   2.069  0.0273 -0.3101  0.2856
 3351SOL    HW121515   0.693   2.381   2.008  1.4572  1.3937  2.5120
 3351SOL    HW221516   0.542   2.365   2.017 -1.3209 -0.8971  2.3143
 3352SOL     OW21517   3.856   2.551   2.964  0.1778 -0.4032 -0.2188
 3352SOL    HW121518   3.946   2.540   2.935  0.6293 -0.0398  1.0467
 3352SOL    HW221519   3.803   2.541   2.885 -0.9652  1.4051  0.3084
 3353SOL     OW21520   2.328   4.027   6.503 -0.5190  0.2667 -0.0054
 3353SOL    HW121521   2.253   4.024   6.563 -0.8981 -0.5285 -0.5294
 3353SOL    HW221522   2.404   4.050   6.557 -0.9522  1.6144  0.0540
 3354SOL     OW21523   0.178   0.469   8.954 -0.1891 -0.5323  0.1133
 3354SOL    HW121524   0.228   0.388   8.964 -0.2831 -0.3840  1.7413
 3354SOL    HW221525   0.196   0.491   8.863 -0.4020 -1.4066 -0.1424
 3355SOL     OW21526   1.994   0.637  13.343 -0.1607  0.0415  0.2015
 3355SOL    HW121527   1.973   0.731  13.346  1.0809  0.3039  0.4249
 3355SOL    HW221528   1.907   0.602  13.322  0.8509 -3.2505  1.4844
 3356SOL     OW21529   4.155   2.628   8.735 -0.0190  0.1294  0.1052
 3356SOL    HW121530   4.128   2.718   8.719 -0.4950 -0.3479 -1.7294
 3356SOL    HW221531   4.105   2.624   8.817 -2.4741 -0.9703 -1.4133
 3357SOL     OW21532   3.974   2.274   7.012 -0.3331 -0.2373  0.0771
 3357SOL    HW121533   3.924   2.347   7.048  2.5551  1.9338 -0.2950
 3357SOL    HW221534   3.922   2.222   6.951  1.0866 -2.4077  0.6838
 3358SOL     OW21535   3.423   1.062   8.529 -0.2442 -0.1638  0.2247
 3358SOL    HW121536   3.491   1.117   8.568 -1.9422  0.9117  1.6370
 3358SOL    HW221537   3.436   1.072   8.434 -4.7694  5.2212  0.1180
 3359SOL     OW21538   3.026   2.980   2.107 -0.1036 -0.3097 -0.2110
 3359SOL    HW121539   3.093   3.028   2.058  1.3656 -3.5562 -1.3763
 3359SOL    HW221540   2.955   2.973   2.043  0.3114 -1.3759 -0.5469
 3360SOL     OW21541   1.668   0.974   2.529  0.0557 -0.2382 -0.1073
 3360SOL    HW121542   1.697   0.918   2.458  1.5930 -0.2232  0.5124
 3360SOL    HW221543   1.602   1.031   2.489 -0.4427  0.4999  1.7828
 3361SOL     OW21544   3.384   2.640   7.900  0.0290  0.1799 -0.3937
 3361SOL    HW121545   3.310   2.631   7.840 -0.4024  2.4132 -0.1979
 3361SOL    HW221546   3.347   2.593   7.975  0.5656 -1.2835 -1.0339
 3362SOL     OW21547   1.390   3.708  13.176  0.2283 -0.4122 -0.3008
 3362SOL    HW121548   1.485   3.717  13.178  0.1372  0.5111  0.0440
 3362SOL    HW221549   1.364   3.800  13.166 -0.4788 -0.4133  1.5642
 3363SOL     OW21550   0.662   3.337   3.509 -0.4244  0.1799  0.2616
 3363SOL    HW121551   0.667   3.314   3.416 -0.8684 -0.6269  0.4303
 3363SOL    HW221552   0.720   3.412   3.520 -0.2125  0.1985 -1.0726
 3364SOL     OW21553   2.694   0.153   6.083 -0.1547 -0.3393  0.3512
 3364SOL    HW121554   2.726   0.127   6.169  1.2560  1.8345  0.4977
 3364SOL    HW221555   2.773   0.171   6.031 -2.1738  2.5089 -1.7342
 3365SOL     OW21556   2.417   0.752  12.519 -0.8663 -0.1110 -0.3389
 3365SOL    HW121557   2.481   0.823  12.518  0.0580 -0.9716 -2.4039
 3365SOL    HW221558   2.468   0.678  12.487 -0.3789  0.2702 -0.4393
 3366SOL     OW21559   1.393   2.028   1.802  0.1404 -0.1217  0.4243
 3366SOL    HW121560   1.465   2.006   1.861 -1.5218 -1.4632  1.9277
 3366SOL    HW221561   1.439   2.041   1.719  0.2221  2.2623  0.8273
 3367SOL     OW21562   4.309   1.206   6.714 -0.0342  0.0294  0.4813
 3367SOL    HW121563   4.316   1.111   6.721  1.3198 -0.1658 -3.2620
 3367SOL    HW221564   4.376   1.240   6.774 -0.5313  2.5820 -0.4140
 3368SOL     OW21565   1.636   2.460   8.212 -0.2141  0.1470 -1.0637
 3368SOL    HW121566   1.558   2.459   8.269  0.0696  0.5536 -0.6673
 3368SOL    HW221567   1.603   2.419   8.133 -0.5129 -2.9095  0.6592
 3369SOL     OW21568   0.093   1.963  13.437 -0.2867  0.3257  0.1080
 3369SOL    HW121569   0.039   1.892  13.400 -0.4344 -0.4347  1.7941
 3369SOL    HW221570   0.185   1.951  13.415 -0.3802 -0.7115  0.2645
 3370SOL     OW21571   0.617   4.655   9.059 -0.8207  0.3187  0.3332
 3370SOL    HW121572   0.538   4.651   9.114 -0.6782  2.1424  0.6648
 3370SOL    HW221573   0.636   4.561   9.051  0.2461  0.5773 -0.0712
 3371SOL     OW21574   2.255   4.025   6.182  0.0481  0.4618  0.1595
 3371SOL    HW121575   2.267   4.037   6.276  0.9514 -0.8372  0.2208
 3371SOL    HW221576   2.228   3.933   6.180  0.5427  0.3164  0.0866
 3372SOL     OW21577   1.610   1.860  11.991 -0.0945  1.0298 -0.4998
 3372SOL    HW121578   1.657   1.919  11.932  1.5501 -1.2732 -1.5040
 3372SOL    HW221579   1.529   1.909  12.007  0.1516  0.1407  3.4833
 3373SOL     OW21580   4.104   3.483   7.713 -0.2996  0.0306  0.1845
 3373SOL    HW121581   4.183   3.522   7.751  0.4996 -1.3760 -0.0546
 3373SOL    HW221582   4.056   3.566   7.714  0.6519  0.5508  2.3457
 3374SOL     OW21583   1.206   4.499  15.859  0.6982 -0.4252 -0.0238
 3374SOL    HW121584   1.182   4.412  15.828 -0.6283  0.2395 -0.8587
 3374SOL    HW221585   1.168   4.551  15.788  2.4986  0.0379 -0.6633
 3375SOL     OW21586   4.723   2.382  10.364  0.2330  0.3926 -0.2549
 3375SOL    HW121587   0.053   2.460  10.369 -0.3135  0.8073 -0.6847
 3375SOL    HW221588   4.721   2.360  10.271  2.1376  0.5197 -0.3360
 3376SOL     OW21589   1.227   0.018  17.439  0.0817 -0.0640  0.4879
 3376SOL    HW121590   1.256   4.694  17.515 -0.6625 -0.4181  0.5469
 3376SOL    HW221591   1.260   0.102  17.470  0.5249  0.1338 -0.5151
 3377SOL     OW21592   1.517   4.406   0.854  0.3781  0.2675 -0.1005
 3377SOL    HW121593   1.512   4.497   0.824 -3.7219 -0.1977 -0.8605
 3377SOL    HW221594   1.496   4.419   0.946  0.7205 -0.8019  0.1238
 3378SOL     OW21595   2.226   0.491  10.588  0.6417 -0.0163 -0.4221
 3378SOL    HW121596   2.190   0.530  10.508 -0.5337  2.0046  1.0727
 3378SOL    HW221597   2.182   0.549  10.649 -1.2820 -2.5064  0.5193
 3379SOL     OW21598   3.190   1.787  17.220  0.0311  0.0065  0.6474
 3379SOL    HW121599   3.122   1.726  17.192 -1.0845  1.0888  1.0160
 3379SOL    HW221600   3.229   1.727  17.283  2.1857 -0.3972 -1.0694
 3380SOL     OW21601   2.687   3.858  11.911  0.1233 -0.0396  0.2553
 3380SOL    HW121602   2.597   3.875  11.883  0.4712  0.4309 -0.5911
 3380SOL    HW221603   2.689   3.763  11.896  1.6043  0.0825 -0.3085
 3381SOL     OW21604   3.276   3.295   6.820 -0.3213  0.4248  0.3616
 3381SOL    HW121605   3.240   3.266   6.736 -0.0947  2.1070 -0.3051
 3381SOL    HW221606   3.281   3.203   6.844 -0.7922 -0.2930 -2.2136
 3382SOL     OW21607   2.745   3.866   5.217 -0.2639  0.6031 -0.0516
 3382SOL    HW121608   2.658   3.855   5.177 -1.1695  2.5827  1.4000
 3382SOL    HW221609   2.780   3.778   5.204 -0.1218  0.8632 -1.4030
 3383SOL     OW21610   1.817   4.467  10.775  0.3377 -0.2696 -0.3448
 3383SOL    HW121611   1.806   4.550  10.822  1.3866 -0.6239  0.5329
 3383SOL    HW221612   1.801   4.491  10.684  0.2947  0.1101 -0.2386
 3384SOL     OW21613   2.139   3.365  15.219 -0.0142  0.3446  0.3108
 3384SOL    HW121614   2.089   3.387  15.141  2.0066 -0.4362 -1.2146
 3384SOL    HW221615   2.225   3.382  15.181  0.9364 -1.5652  1.6082
 3385SOL     OW21616   4.500   1.203   4.945  0.2226  0.2125  0.1908
 3385SOL    HW121617   4.539   1.142   5.008  1.6441 -1.5477 -2.4106
 3385SOL    HW221618   4.514   1.161   4.860  1.8295  0.6121  0.2613
 3386SOL     OW21619   4.321   1.787  12.102 -0.4322  0.3926  0.1804
 3386SOL    HW121620   4.329   1.722  12.173  0.2080  1.0944  0.7503
 3386SOL    HW221621   4.239   1.834  12.120 -0.4885  0.1103  0.6720
 3387SOL     OW21622   3.309   0.606  17.659 -1.0894 -0.7594  0.3629
 3387SOL    HW121623   3.288   0.527   0.006  0.5673 -1.8942 -0.7188
 3387SOL    HW221624   3.382   0.564  17.613 -1.3441 -0.7856 -0.0209
 3388SOL     OW21625   0.859   2.880   3.618 -0.2509 -0.2798  0.3084
 3388SOL    HW121626   0.812   2.798   3.605  1.0563 -0.9177 -0.3603
 3388SOL    HW221627   0.948   2.846   3.618 -0.7422 -1.5581 -1.9445
 3389SOL     OW21628   3.346   0.917   6.276  0.1074 -0.5877  0.0455
 3389SOL    HW121629   3.416   0.917   6.210 -1.5272 -0.3246 -1.6894
 3389SOL    HW221630   3.267   0.940   6.227  0.6935  0.3001 -0.4862
 3390SOL     OW21631   2.071   1.719   9.510  0.5216  0.1748 -0.3437
 3390SOL    HW121632   2.158   1.759   9.504  1.2532 -1.4181 -0.4037
 3390SOL    HW221633   2.096   1.645   9.565  1.4008  1.2210  0.6704
 3391SOL     OW21634   1.220   2.111   4.464  0.2274 -0.5296  0.1312
 3391SOL    HW121635   1.266   2.050   4.406 -0.4211  1.2268 -2.2216
 3391SOL    HW221636   1.181   2.162   4.394 -0.1496 -1.4918 -0.3693
 3392SOL     OW21637   4.061   1.754   5.199  0.4987 -0.7436  0.0535
 3392SOL    HW121638   3.998   1.822   5.175 -0.5602 -1.4788  0.7759
 3392SOL    HW221639   4.047   1.753   5.293 -1.0157 -3.0651 -0.1948
 3393SOL     OW21640   1.494   0.144   7.733 -0.1453 -0.3329 -0.2499
 3393SOL    HW121641   1.548   0.219   7.760  1.8236 -2.6083  2.0911
 3393SOL    HW221642   1.425   0.194   7.689 -1.0275 -0.9498  0.4346
 3394SOL     OW21643   0.505   0.703   5.352  0.0415  0.3424  0.2605
 3394SOL    HW121644   0.544   0.664   5.430 -0.1884 -1.9767 -0.7702
 3394SOL    HW221645   0.545   0.789   5.360  1.1826  0.0176 -1.8176
 3395SOL     OW21646   2.016   1.570   8.281 -0.3290 -0.2874  0.2213
 3395SOL    HW121647   2.004   1.634   8.351 -0.0960  0.9471 -0.8552
 3395SOL    HW221648   2.004   1.624   8.203  0.4700  0.1119  0.3732
 3396SOL     OW21649   0.199   1.951   8.159  0.2823 -0.3695 -0.2698
 3396SOL    HW121650   0.230   1.967   8.248 -2.8924 -1.1305  0.9801
 3396SOL    HW221651   0.194   2.038   8.120  0.1260 -0.2295  0.0571
 3397SOL     OW21652   2.360   3.581  12.204  0.1690 -0.6086  0.5795
 3397SOL    HW121653   2.452   3.605  12.213 -0.0157  0.2903  0.1026
 3397SOL    HW221654   2.316   3.644  12.261 -1.4002 -0.3398 -0.9352
 3398SOL     OW21655   0.940   0.567   5.295 -0.1642 -0.1828 -0.0697
 3398SOL    HW121656   0.973   0.553   5.207  2.0113 -2.0649  1.0351
 3398SOL    HW221657   0.867   0.505   5.304  0.3819 -0.8276 -0.0782
 3399SOL     OW21658   0.847   3.677   5.641  0.2110 -0.0155 -0.3773
 3399SOL    HW121659   0.899   3.737   5.695  0.2957  0.0004 -0.4775
 3399SOL    HW221660   0.802   3.618   5.701 -0.0166  3.0596  2.4524
 3400SOL     OW21661   1.478   1.630   2.033 -0.1687  0.0106 -0.1097
 3400SOL    HW121662   1.465   1.670   2.119 -1.3183 -0.3348 -0.1084
 3400SOL    HW221663   1.562   1.665   2.005 -0.5432  0.8250 -0.1899
 3401SOL     OW21664   1.793   2.419   3.205  0.3029 -0.0902 -0.0922
 3401SOL    HW121665   1.861   2.369   3.160  0.6724  0.4822 -0.1660
 3401SOL    HW221666   1.754   2.467   3.132  2.8960 -0.8687 -1.9763
 3402SOL     OW21667   0.003   1.462   4.626 -0.5927 -0.1019 -0.0873
 3402SOL    HW121668   4.679   1.424   4.553 -0.1585  0.7264 -0.8048
 3402SOL    HW221669   4.666   1.521   4.667  0.4133 -0.6918  2.2571
 3403SOL     OW21670   0.428   0.375   5.070 -0.1609  0.2560 -0.1785
 3403SOL    HW121671   0.371   0.392   4.995  0.2812  0.9482 -0.3613
 3403SOL    HW221672   0.482   0.454   5.063 -0.9754  0.8287  0.0028
 3404SOL     OW21673   2.776   0.764   7.466 -0.2597 -0.4731  0.4200
 3404SOL    HW121674   2.867   0.758   7.495 -0.1675  0.5326  0.3512
 3404SOL    HW221675   2.777   0.739   7.374 -0.3299  1.9899 -0.2503
 3405SOL     OW21676   3.600   0.085  14.871  0.2109 -0.0152  0.5359
 3405SOL    HW121677   3.640   0.169  14.893 -0.3065  0.7641 -1.5304
 3405SOL    HW221678   3.588   0.043  14.956  1.1105 -0.2097  0.5648
 3406SOL     OW21679   4.598   0.965  13.476  0.1383 -0.2186 -0.7858
 3406SOL    HW121680   4.536   1.038  13.475  2.5749  1.8762  1.2222
 3406SOL    HW221681   4.541   0.906  13.526 -1.4962  3.6754  1.9140
 3407SOL     OW21682   3.426   3.838   5.795 -0.2888 -0.2879 -0.3969
 3407SOL    HW121683   3.453   3.759   5.842 -2.4112  0.3837  1.9087
 3407SOL    HW221684   3.331   3.828   5.803 -0.3420  2.2711  2.1452
 3408SOL     OW21685   0.600   3.652  14.013  0.2526 -0.4691  0.0778
 3408SOL    HW121686   0.590   3.648  13.918  0.4558  1.1160 -0.0119
 3408SOL    HW221687   0.623   3.560  14.025  0.5985 -0.1398  2.0978
 3409SOL     OW21688   1.492   1.701   9.084  0.0484  0.5233 -0.5739
 3409SOL    HW121689   1.550   1.767   9.121 -0.6724 -1.0323  3.3650
 3409SOL    HW221690   1.503   1.719   8.991  4.8252  0.4536  0.0068
 3410SOL     OW21691   0.074   1.528   6.382  0.3957  0.2155  0.5184
 3410SOL    HW121692   0.043   1.508   6.294 -0.8571  0.0874  0.9791
 3410SOL    HW221693   0.156   1.481   6.396 -0.5625 -1.6356 -0.0373
 3411SOL     OW21694   3.544   1.612  13.938  0.1183 -0.2881 -0.1705
 3411SOL    HW121695   3.597   1.692  13.933 -0.0883 -0.1046  0.5998
 3411SOL    HW221696   3.542   1.591  14.031  2.5197 -1.2111 -0.3356
 3412SOL     OW21697   3.037   2.874   6.605  0.5341 -0.0881  0.1405
 3412SOL    HW121698   3.111   2.931   6.627  2.3957 -1.8328 -1.5694
 3412SOL    HW221699   3.079   2.804   6.555  1.4770  0.2341  0.4765
 3413SOL     OW21700   1.378   1.543  16.152  0.6092 -0.1344  0.1219
 3413SOL    HW121701   1.326   1.617  16.184 -0.5432 -0.0193 -2.0859
 3413SOL    HW221702   1.427   1.568  16.074 -1.1050  0.8854 -0.6214
 3414SOL     OW21703   3.532   3.160   1.325 -0.2639 -0.6082  0.0255
 3414SOL    HW121704   3.489   3.233   1.280 -0.9894 -1.0446  0.0079
 3414SOL    HW221705   3.541   3.094   1.256  3.0768 -1.3211  1.1690
 3415SOL     OW21706   2.528   1.387   0.959 -0.4093 -0.3847 -0.0970
 3415SOL    HW121707   2.462   1.448   0.994 -0.3342  0.1606 -0.9201
 3415SOL    HW221708   2.500   1.305   1.000 -4.3039  1.5440  1.2019
 3416SOL     OW21709   1.377   0.469   1.640  0.4203  0.1258  0.3181
 3416SOL    HW121710   1.311   0.535   1.619  0.5934  0.5709  1.1969
 3416SOL    HW221711   1.413   0.443   1.555  0.4743  3.4692 -0.6677
 3417SOL     OW21712   1.485   0.405  12.633  0.1434 -0.0223 -0.6268
 3417SOL    HW121713   1.556   0.428  12.574  1.9283  0.8638  1.8398
 3417SOL    HW221714   1.528   0.419  12.718  1.5751  0.0004 -1.3499
 3418SOL     OW21715   1.752   1.506  17.310 -0.2474  0.1834 -0.2635
 3418SOL    HW121716   1.705   1.505  17.227 -0.2463 -0.7909 -0.2504
 3418SOL    HW221717   1.763   1.601  17.323  1.1344 -0.2702  1.9285
 3419SOL     OW21718   4.622   2.493   2.643 -0.2076 -0.0555  0.5367
 3419SOL    HW121719   4.555   2.561   2.651  0.6807  0.8421  0.4252
 3419SOL    HW221720   4.638   2.482   2.736 -0.4896  0.3060  0.6279
 3420SOL     OW21721   1.415   2.139  13.318  0.3452  0.1503  0.2217
 3420SOL    HW121722   1.393   2.046  13.318 -0.3685  0.3161  0.6044
 3420SOL    HW221723   1.335   2.182  13.291  0.0428  0.0236  0.9092
 3421SOL     OW21724   1.829   4.068   4.635 -0.0763  0.3383 -0.2169
 3421SOL    HW121725   1.784   3.996   4.590  2.4339 -1.0711 -0.4364
 3421SOL    HW221726   1.791   4.046   4.720  0.3045 -0.4255 -0.2446
 3422SOL     OW21727   4.349   3.796  16.008 -0.3361  0.0838  0.0929
 3422SOL    HW121728   4.406   3.802  16.084  1.3767  2.7052 -1.4039
 3422SOL    HW221729   4.370   3.709  15.973 -0.7795 -0.2850  0.7416
 3423SOL     OW21730   3.235   4.696   7.184  0.0163 -0.0501 -0.1693
 3423SOL    HW121731   3.273   4.634   7.247 -0.1089  0.6026  0.5587
 3423SOL    HW221732   3.149   4.656   7.168  1.3176 -2.5522 -0.8498
 3424SOL     OW21733   1.053   3.979   6.284 -0.2413 -0.7897 -0.1476
 3424SOL    HW121734   1.046   3.915   6.213  0.9643  0.1702 -1.1436
 3424SOL    HW221735   1.069   4.052   6.224  1.0224 -0.5193  0.5107
 3425SOL     OW21736   0.386   4.503   2.887  0.2507  0.4150 -0.2408
 3425SOL    HW121737   0.294   4.498   2.861  0.6715  1.4767 -1.9596
 3425SOL    HW221738   0.395   4.592   2.922 -2.1141  0.1339  1.1197
 3426SOL     OW21739   3.110   0.656  17.368  0.3714 -0.1287  0.1964
 3426SOL    HW121740   3.114   0.646  17.464  1.2697  1.1656  0.3034
 3426SOL    HW221741   3.186   0.710  17.344 -0.0753  0.1635 -0.5503
 3427SOL     OW21742   2.649   2.277  16.904  0.6767 -0.4319  0.0132
 3427SOL    HW121743   2.728   2.329  16.917 -0.1375  0.7248  0.3205
 3427SOL    HW221744   2.666   2.215  16.975  2.2839  0.2375  0.2024
 3428SOL     OW21745   0.007   3.365   5.124  0.0354 -0.1523 -0.0468
 3428SOL    HW121746   4.675   3.382   5.199 -0.6457 -0.8640 -0.4034
 3428SOL    HW221747   4.675   3.311   5.070 -2.8360  0.4476  2.4130
 3429SOL     OW21748   3.088   0.778   3.319  0.4615 -0.1826  0.4416
 3429SOL    HW121749   3.076   0.789   3.413  1.5311 -0.8893  0.6570
 3429SOL    HW221750   3.170   0.824   3.304 -0.2525  1.4293  1.5244
 3430SOL     OW21751   3.512   4.563   4.798 -0.2936 -0.3462  0.1850
 3430SOL    HW121752   3.529   4.470   4.812 -2.2337 -0.7794 -0.1957
 3430SOL    HW221753   3.463   4.582   4.878  0.4383  1.3983  0.2290
 3431SOL     OW21754   3.958   4.188   5.322 -0.7332  0.1916  0.1474
 3431SOL    HW121755   4.007   4.157   5.399 -0.6613 -2.6914 -1.0548
 3431SOL    HW221756   3.883   4.132   5.342 -0.5375  0.3064  1.2398
 3432SOL     OW21757   0.893   3.207   3.777 -0.2851 -0.0764 -0.3899
 3432SOL    HW121758   0.838   3.129   3.780  0.2095 -0.4431 -0.8326
 3432SOL    HW221759   0.921   3.219   3.687 -1.3436 -0.5586 -0.7794
 3433SOL     OW21760   0.046   0.766   3.287 -0.2549  0.0903 -0.3487
 3433SOL    HW121761   4.698   0.706   3.293  0.9243 -1.1473  1.8206
 3433SOL    HW221762   0.106   0.714   3.234 -0.4860 -1.2204  0.6840
 3434SOL     OW21763   4.100   1.163   4.893 -0.6731 -0.0323  0.0165
 3434SOL    HW121764   4.094   1.198   4.982 -0.0492  1.2675 -0.4430
 3434SOL    HW221765   4.118   1.071   4.908 -0.3611 -0.3079 -2.0269
 3435SOL     OW21766   2.181   1.835   0.904 -0.1959  0.5197  0.1037
 3435SOL    HW121767   2.122   1.810   0.976 -0.2292  0.3189  0.0063
 3435SOL    HW221768   2.153   1.927   0.899 -0.7936  0.2255 -1.7098
 3436SOL     OW21769   0.277   3.003  15.170  0.2806  0.3305 -0.2882
 3436SOL    HW121770   0.371   2.996  15.149  0.4167  2.1386 -0.3510
 3436SOL    HW221771   0.243   2.920  15.137  1.1001 -0.1476  0.0674
 3437SOL     OW21772   2.331   1.066   8.579  0.5624  0.1528 -0.0249
 3437SOL    HW121773   2.405   1.102   8.531  0.4121  0.8729  0.2810
 3437SOL    HW221774   2.292   1.143   8.619  0.1055  0.0247 -0.2237
 3438SOL     OW21775   0.411   3.065   5.544 -0.7372 -0.3997  0.0393
 3438SOL    HW121776   0.477   3.129   5.570 -0.4214 -0.1323 -1.4155
 3438SOL    HW221777   0.332   3.115   5.564  0.4643  0.4469  2.6893
 3439SOL     OW21778   1.782   3.769   2.165 -0.1769  0.7038  0.2531
 3439SOL    HW121779   1.848   3.709   2.129  1.2656  2.2784  0.2811
 3439SOL    HW221780   1.719   3.703   2.195  0.7024 -0.0134  0.5303
 3440SOL     OW21781   4.617   0.372   1.767 -0.0502 -0.2216 -0.4404
 3440SOL    HW121782   4.540   0.422   1.741 -0.0665 -0.5700 -1.0656
 3440SOL    HW221783   4.587   0.281   1.762 -4.3013  1.2176 -0.9475
 3441SOL     OW21784   3.493   2.614   9.040  0.1088  0.1794  0.0357
 3441SOL    HW121785   3.515   2.653   8.955  0.4365 -0.3042 -0.1061
 3441SOL    HW221786   3.489   2.521   9.019  0.4191  0.8155 -2.8853
 3442SOL     OW21787   4.724   4.162   7.137 -0.1481 -0.0403  0.1750
 3442SOL    HW121788   0.065   4.168   7.206  0.7798 -0.2255 -0.6979
 3442SOL    HW221789   4.646   4.175   7.190 -1.6389 -0.6938 -1.8744
 3443SOL     OW21790   2.193   0.743  13.588  0.0879 -0.5148  0.1483
 3443SOL    HW121791   2.194   0.756  13.494 -0.2526  1.4404  0.3927
 3443SOL    HW221792   2.213   0.831  13.621 -3.6906  0.3996  0.1190
 3444SOL     OW21793   1.841   3.508   4.019  0.7934  0.1380  0.0167
 3444SOL    HW121794   1.762   3.561   4.033  1.3526  0.8897  0.3898
 3444SOL    HW221795   1.905   3.568   4.057 -0.5223  1.2073  0.5536
 3445SOL     OW21796   4.176   2.295   3.325 -0.1604  0.2270  0.6210
 3445SOL    HW121797   4.177   2.387   3.299 -0.7746 -0.4017 -1.6877
 3445SOL    HW221798   4.100   2.267   3.274  0.0378 -1.3590  1.1945
 3446SOL     OW21799   0.739   4.506   4.525  0.6257 -0.1540  0.0879
 3446SOL    HW121800   0.675   4.474   4.462 -0.0707  1.3049  0.0589
 3446SOL    HW221801   0.813   4.528   4.468 -0.7114  1.2657 -1.1138
 3447SOL     OW21802   0.581   1.739  11.202  0.7633 -0.1994 -0.1193
 3447SOL    HW121803   0.516   1.714  11.267  0.3939 -1.3489 -0.9222
 3447SOL    HW221804   0.555   1.687  11.125 -1.1096  1.4484 -0.6111
 3448SOL     OW21805   1.119   1.525  15.654  0.1344 -0.3787 -0.1123
 3448SOL    HW121806   1.115   1.587  15.581 -0.4283  3.9367  3.5844
 3448SOL    HW221807   1.109   1.447  15.600  0.4322 -0.3649 -0.1858
 3449SOL     OW21808   2.659   2.870   3.247  0.2887 -0.0942  0.1795
 3449SOL    HW121809   2.609   2.951   3.253  0.9045  0.5411 -3.3831
 3449SOL    HW221810   2.617   2.812   3.311 -1.0886  0.6034 -0.0830
 3450SOL     OW21811   1.340   2.368   6.422 -0.5162  0.5427  0.5259
 3450SOL    HW121812   1.339   2.395   6.330  2.8949 -4.4425 -0.9877
 3450SOL    HW221813   1.435   2.367   6.437 -0.3601 -1.4011 -0.6613
 3451SOL     OW21814   2.725   0.018   3.174  0.4993 -0.0817 -0.0213
 3451SOL    HW121815   2.787   4.671   3.177 -0.2831 -0.7635 -0.2510
 3451SOL    HW221816   2.775   0.093   3.206  2.1897 -0.8943 -0.7804
 3452SOL     OW21817   4.340   0.859   5.803  0.3283  0.0158 -0.2662
 3452SOL    HW121818   4.375   0.926   5.745 -3.1657  2.0736 -0.0329
 3452SOL    HW221819   4.416   0.810   5.834  0.3466  0.5196  0.4600
 3453SOL     OW21820   3.753   2.481   8.403 -0.2116 -0.0672 -0.0587
 3453SOL    HW121821   3.778   2.449   8.316 -3.7400  0.4333 -1.2309
 3453SOL    HW221822   3.837   2.523   8.424 -0.4288  0.6394 -0.5993
 3454SOL     OW21823   1.366   0.586   3.710  0.5190  0.0797  0.1411
 3454SOL    HW121824   1.303   0.632   3.655 -0.1745  0.3826  1.2011
 3454SOL    HW221825   1.446   0.618   3.668  0.5248  2.2371  1.7600
 3455SOL     OW21826   4.243   3.799   9.509 -0.4708  0.2468  0.4305
 3455SOL    HW121827   4.160   3.800   9.557 -1.3616  0.0039 -1.0736
 3455SOL    HW221828   4.272   3.889   9.522  0.7470 -0.5189  2.9524
 3456SOL     OW21829   2.460   2.024   1.093  0.3839  0.4327 -0.1731
 3456SOL    HW121830   2.487   2.087   1.160 -0.4685  0.4173  0.1960
 3456SOL    HW221831   2.515   1.947   1.109 -1.7175 -1.4302 -1.7535
 3457SOL     OW21832   3.491   3.981   2.899  0.2836  0.0237  0.6198
 3457SOL    HW121833   3.516   4.021   2.982  4.8481  2.0242 -1.7075
 3457SOL    HW221834   3.498   3.886   2.910  2.1945  0.2121  1.1660
 3458SOL     OW21835   3.694   3.469   9.213 -0.2303 -0.0481 -0.4787
 3458SOL    HW121836   3.734   3.476   9.300  1.0456 -2.4096 -0.8759
 3458SOL    HW221837   3.739   3.392   9.177 -1.8119 -1.0655 -0.2640
 3459SOL     OW21838   1.949   2.383  11.163 -0.8087  0.4029 -0.7910
 3459SOL    HW121839   1.970   2.465  11.208 -0.7495  0.6647 -1.2949
 3459SOL    HW221840   2.033   2.356  11.126 -0.8740 -2.8172  1.4594
 3460SOL     OW21841   2.586   0.528   8.898 -0.2653  0.7507 -0.1479
 3460SOL    HW121842   2.521   0.532   8.968 -0.4493 -0.1161 -0.2674
 3460SOL    HW221843   2.530   0.492   8.829 -1.0172  2.4307 -0.3929
 3461SOL     OW21844   2.493   1.248  14.534  0.2944  0.8147  0.1099
 3461SOL    HW121845   2.440   1.203  14.469 -2.0081  1.1191  1.7884
 3461SOL    HW221846   2.502   1.331  14.487 -1.5958  0.6720 -0.4866
 3462SOL     OW21847   0.810   3.397  14.720  0.3080 -0.0672  0.3435
 3462SOL    HW121848   0.833   3.476  14.769 -0.4441 -0.7956  1.8490
 3462SOL    HW221849   0.840   3.416  14.631 -0.8615  1.4601  0.2729
 3463SOL     OW21850   3.448   1.579  16.552 -0.1676  0.1591 -0.2887
 3463SOL    HW121851   3.387   1.523  16.600 -0.5458  0.6268 -0.2271
 3463SOL    HW221852   3.469   1.522  16.477  2.2715  0.6840 -0.0177
 3464SOL     OW21853   1.990   1.264   4.712  0.3077  1.1348 -0.5473
 3464SOL    HW121854   1.949   1.242   4.628  0.5303  2.2497 -0.9475
 3464SOL    HW221855   2.044   1.340   4.690 -1.2787  1.8744 -1.9777
 3465SOL     OW21856   1.427   1.891   4.938 -0.0585 -0.9591 -0.0049
 3465SOL    HW121857   1.446   1.979   4.906 -1.9655 -1.0311 -1.3164
 3465SOL    HW221858   1.396   1.847   4.859 -0.2148 -0.1890 -0.3673
 3466SOL     OW21859   0.755   2.608  10.291  0.4897  0.7488 -0.2624
 3466SOL    HW121860   0.806   2.582  10.368 -2.2689 -2.2900  0.4974
 3466SOL    HW221861   0.790   2.697  10.288  1.3319  0.4078 -0.6331
 3467SOL     OW21862   3.656   3.591  12.953  0.8049 -0.0622 -0.3280
 3467SOL    HW121863   3.642   3.666  12.895 -0.7813 -0.6583 -0.6898
 3467SOL    HW221864   3.599   3.620  13.024  0.4762 -1.0636 -0.1823
 3468SOL     OW21865   3.930   0.605   2.714 -0.2321 -0.3791  0.4448
 3468SOL    HW121866   3.938   0.693   2.751  0.3455  0.2002 -1.0614
 3468SOL    HW221867   3.957   0.554   2.790  1.7099 -2.0531 -1.3784
 3469SOL     OW21868   2.400   3.971  16.039 -0.6844 -0.4315 -0.0723
 3469SOL    HW121869   2.306   3.966  16.055 -0.6429  1.4173  0.7440
 3469SOL    HW221870   2.417   3.886  15.999  2.2175 -0.0394  0.2707
 3470SOL     OW21871   2.867   0.598  10.714  0.2715  0.0823  0.6785
 3470SOL    HW121872   2.777   0.582  10.741 -0.2646 -0.2715 -1.3257
 3470SOL    HW221873   2.868   0.692  10.700 -1.5544  0.4654  3.1015
 3471SOL     OW21874   0.996   1.449   8.139 -0.8020  0.9019  0.1488
 3471SOL    HW121875   1.074   1.457   8.084 -1.9176 -2.2302 -1.8991
 3471SOL    HW221876   0.928   1.496   8.092 -0.4402  1.0317 -0.2405
 3472SOL     OW21877   2.703   2.500  10.481  0.4392  0.2035 -0.2201
 3472SOL    HW121878   2.677   2.577  10.531  1.9053  1.5661 -1.5482
 3472SOL    HW221879   2.621   2.453  10.471 -0.0748  0.8194  1.0749
 3473SOL     OW21880   0.468   1.668   8.767 -0.6534 -0.2463 -0.1773
 3473SOL    HW121881   0.493   1.735   8.831 -0.0717  0.5208 -1.2152
 3473SOL    HW221882   0.418   1.611   8.826  1.4400 -0.0336  1.7965
 3474SOL     OW21883   1.996   0.721   2.434  0.2681 -0.4200  0.2733
 3474SOL    HW121884   2.012   0.807   2.473 -1.2895 -0.3047  0.6629
 3474SOL    HW221885   2.087   0.692   2.434  0.7562  1.1085 -2.5875
 3475SOL     OW21886   0.743   3.347   8.866  0.5130  0.1654 -0.2308
 3475SOL    HW121887   0.785   3.284   8.925 -0.9976  1.9946  2.7772
 3475SOL    HW221888   0.739   3.293   8.787  2.4641 -1.1307  0.5487
 3476SOL     OW21889   3.357   0.891   3.285  0.3480 -0.6761 -0.3476
 3476SOL    HW121890   3.400   0.872   3.202  2.2945 -0.9356  0.7333
 3476SOL    HW221891   3.384   0.817   3.338  1.0934  0.5379  0.9503
 3477SOL     OW21892   3.986   1.623  12.345  0.1151  0.1544 -0.2484
 3477SOL    HW121893   4.052   1.606  12.412 -1.8174  0.5250  1.7618
 3477SOL    HW221894   4.047   1.640  12.274  0.2726 -1.7290 -0.5735
 3478SOL     OW21895   1.117   1.539  15.923 -0.0531 -0.6608 -0.6706
 3478SOL    HW121896   1.088   1.630  15.932  1.5152 -0.3824  1.5164
 3478SOL    HW221897   1.139   1.538  15.830  0.6106 -0.4086 -0.5166
 3479SOL     OW21898   3.110   3.945  12.215 -0.1121  0.1436  0.3477
 3479SOL    HW121899   3.165   3.867  12.221  0.5548  0.4886 -1.3873
 3479SOL    HW221900   3.043   3.910  12.156  0.9059 -0.8471 -0.2140
 3480SOL     OW21901   2.073   2.532  13.520  0.2867 -0.3336  0.4433
 3480SOL    HW121902   2.009   2.600  13.543  0.3244  0.2716 -1.2737
 3480SOL    HW221903   2.036   2.490  13.442  0.3570  0.8886 -0.2442
 3481SOL     OW21904   2.304   3.702   8.443 -0.1972 -0.2254 -0.6743
 3481SOL    HW121905   2.292   3.794   8.466  0.5005  0.4020 -2.8111
 3481SOL    HW221906   2.214   3.671   8.440  0.1527 -1.4685  1.9328
 3482SOL     OW21907   4.213   1.516  12.187  0.3220 -0.7196 -0.2700
 3482SOL    HW121908   4.244   1.467  12.111  1.3406  0.3264 -0.5322
 3482SOL    HW221909   4.206   1.442  12.247  1.8717 -1.4932 -1.0403
 3483SOL     OW21910   3.425   4.635   7.882 -0.0071 -0.4836  1.2623
 3483SOL    HW121911   3.485   4.649   7.956  1.1509 -1.7369  0.5782
 3483SOL    HW221912   3.346   4.682   7.909  0.1750  0.9349 -0.6913
 3484SOL     OW21913   1.248   1.062   6.953  0.1361 -0.3034 -0.2209
 3484SOL    HW121914   1.314   1.002   6.989 -0.2075 -0.3011  0.4131
 3484SOL    HW221915   1.214   1.004   6.884 -2.1236  0.2127  0.4598
 3485SOL     OW21916   2.972   2.691   2.082  0.2049 -0.4978 -0.1548
 3485SOL    HW121917   2.889   2.737   2.068  0.7312  0.2731 -0.6888
 3485SOL    HW221918   3.019   2.752   2.139  0.0219  0.4245 -0.9991
 3486SOL     OW21919   0.180   2.458   8.057  0.1092  0.8046 -0.3808
 3486SOL    HW121920   0.246   2.448   8.125 -2.6965  1.4770  2.4382
 3486SOL    HW221921   0.123   2.516   8.107 -1.8848 -0.6620 -0.9344
 3487SOL     OW21922   3.119   2.569   9.929 -0.5061  0.1625 -0.0123
 3487SOL    HW121923   3.211   2.593   9.920 -1.0491  1.0854 -3.3561
 3487SOL    HW221924   3.099   2.588  10.020  1.5604  2.8987 -0.1145
 3488SOL     OW21925   0.801   3.983  11.015 -0.0438  0.3659 -0.0484
 3488SOL    HW121926   0.877   4.021  10.972 -1.6777  2.3866 -1.1429
 3488SOL    HW221927   0.738   4.054  11.022 -0.3846 -0.1773  2.5167
 3489SOL     OW21928   1.639   2.479   7.273  0.1366 -0.4644  0.0539
 3489SOL    HW121929   1.587   2.524   7.339  0.4370 -1.0673  0.6960
 3489SOL    HW221930   1.710   2.542   7.267  1.8948 -2.5349 -0.7799
 3490SOL     OW21931   0.969   1.771   0.176  0.0897 -0.0129 -0.1634
 3490SOL    HW121932   1.005   1.780   0.088 -0.7084 -3.0584 -0.7923
 3490SOL    HW221933   0.959   1.676   0.181  0.4270 -0.0416 -0.0700
 3491SOL     OW21934   2.757   4.073   8.678 -0.0900  0.2039  0.0720
 3491SOL    HW121935   2.813   4.098   8.751  1.2067 -0.6057 -0.6439
 3491SOL    HW221936   2.792   4.120   8.603  2.7199  2.8806  3.1108
 3492SOL     OW21937   0.970   1.915   4.881  0.6268  0.0329 -0.4661
 3492SOL    HW121938   0.975   1.971   4.804  0.5237 -2.4346 -2.2953
 3492SOL    HW221939   0.901   1.967   4.921 -0.7485 -3.5856  1.8300
 3493SOL     OW21940   1.969   0.952   8.700 -0.5271 -0.0203  0.5875
 3493SOL    HW121941   1.911   1.027   8.694 -0.1505  0.2040 -0.3205
 3493SOL    HW221942   1.916   0.884   8.743 -0.3444  0.0231  0.8811
 3494SOL     OW21943   3.393   1.854  15.217 -0.0833 -0.0843 -0.5565
 3494SOL    HW121944   3.469   1.896  15.257 -0.3286  0.7964 -1.0223
 3494SOL    HW221945   3.324   1.913  15.247  3.3095  2.9378  1.3100
 3495SOL     OW21946   1.381   0.072   8.729 -0.4530  0.5207  0.6566
 3495SOL    HW121947   1.323   0.109   8.795 -0.2572 -0.7816  1.5525
 3495SOL    HW221948   1.350   0.122   8.654 -1.3787  1.2474  1.5217
 3496SOL     OW21949   2.404   3.870  12.760  0.4383  0.0441 -0.1093
 3496SOL    HW121950   2.370   3.792  12.803 -1.0430  0.3987 -0.6402
 3496SOL    HW221951   2.435   3.830  12.678  0.7105  0.4648 -0.2109
 3497SOL     OW21952   2.169   4.496  14.621 -0.2131  0.1851  0.5823
 3497SOL    HW121953   2.164   4.573  14.678  0.5640  0.9087 -0.3251
 3497SOL    HW221954   2.219   4.430  14.671  0.1570  1.1671  1.5169
 3498SOL     OW21955   1.614   1.115   3.795  0.0404  0.7007 -0.0288
 3498SOL    HW121956   1.522   1.140   3.802 -0.2391 -0.3641  0.0719
 3498SOL    HW221957   1.606   1.021   3.810  1.4530  0.6488  0.3853
 3499SOL     OW21958   2.225   2.321   5.438  0.2361  0.5147  0.0151
 3499SOL    HW121959   2.131   2.304   5.431  0.2383  0.2222  0.7389
 3499SOL    HW221960   2.230   2.378   5.514 -1.7360  0.4817  0.1697
 3500SOL     OW21961   1.723   3.485   4.949  0.3036  0.1093  0.0236
 3500SOL    HW121962   1.758   3.463   4.862 -2.3707 -2.8266 -0.3058
 3500SOL    HW221963   1.645   3.430   4.955  0.9843 -1.0802 -2.1294
 3501SOL     OW21964   0.479   1.240   4.997  0.0272 -0.4936 -0.0392
 3501SOL    HW121965   0.549   1.204   5.051 -0.5396 -0.5571  0.6638
 3501SOL    HW221966   0.485   1.178   4.925 -0.3897  0.5576 -0.9701
 3502SOL     OW21967   4.521   1.433   5.865  0.2874 -0.0831 -0.3595
 3502SOL    HW121968   4.508   1.516   5.911  0.5292 -0.4685  0.3936
 3502SOL    HW221969   4.609   1.451   5.831  0.5356 -0.2581  0.1907
 3503SOL     OW21970   0.328   4.089   6.022  0.8860 -0.1505 -0.1154
 3503SOL    HW121971   0.246   4.039   6.025  0.8348 -0.0829 -0.3289
 3503SOL    HW221972   0.345   4.104   6.115  0.5009 -1.2706  0.1268
 3504SOL     OW21973   0.527   2.984   6.009  0.4423 -0.1761  0.0613
 3504SOL    HW121974   0.594   2.917   6.021 -0.8799 -1.3939  0.6215
 3504SOL    HW221975   0.565   3.059   5.964  0.0345  0.2128  0.3664
 3505SOL     OW21976   3.515   0.120   6.932 -0.1378  1.0312 -0.1635
 3505SOL    HW121977   3.431   0.120   6.887  0.1921  1.5162 -0.7822
 3505SOL    HW221978   3.542   0.210   6.913  0.9401  0.8026  0.2829
 3506SOL     OW21979   3.295   3.003   6.704  0.8800 -0.1068 -0.3994
 3506SOL    HW121980   3.219   2.996   6.762  1.1396  1.1902  0.1005
 3506SOL    HW221981   3.373   2.970   6.750  1.6789  1.1229 -0.8674
 3507SOL     OW21982   4.123   4.716   4.984  0.4126  0.2476  0.5388
 3507SOL    HW121983   4.108   4.680   5.071 -2.5251 -0.0361 -0.0752
 3507SOL    HW221984   4.055   0.059   4.981  0.4227  0.1922 -0.8197
 3508SOL     OW21985   1.992   1.604  16.513 -0.3333  0.3349  0.2685
 3508SOL    HW121986   2.037   1.528  16.549 -0.7417 -0.1911 -0.3257
 3508SOL    HW221987   2.017   1.597  16.421  0.3223  0.0129  0.4716
 3509SOL     OW21988   1.990   0.551   5.817 -0.1688  0.5194 -0.6129
 3509SOL    HW121989   2.042   0.609   5.763 -1.2000  1.1820 -0.8989
 3509SOL    HW221990   1.955   0.615   5.879  0.2017 -1.1461  1.3195
 3510SOL     OW21991   0.713   0.669   2.961  0.2585  0.3684 -0.3958
 3510SOL    HW121992   0.704   0.737   3.028 -1.1867 -0.2201  0.0033
 3510SOL    HW221993   0.620   0.651   2.944  0.3295  0.0051 -0.3976
 3511SOL     OW21994   3.586   3.309  10.077  0.2532 -0.7026 -0.4115
 3511SOL    HW121995   3.612   3.373  10.011  0.0077 -1.6711 -1.4362
 3511SOL    HW221996   3.630   3.337  10.157 -0.0077  0.5895 -0.7246
 3512SOL     OW21997   1.268   3.281   4.206  0.0600  0.2703 -0.6859
 3512SOL    HW121998   1.222   3.358   4.175 -1.4554 -0.4869 -0.3189
 3512SOL    HW221999   1.204   3.210   4.199  0.7449 -0.7113  2.8842
 3513SOL     OW22000   2.745   1.986   0.066 -0.2199 -0.1573 -0.2945
 3513SOL    HW122001   2.799   2.009   0.142 -2.1123  2.9799  0.0678
 3513SOL    HW222002   2.786   1.902   0.045 -2.0441 -1.3472  0.9239
 3514SOL     OW22003   0.837   4.122  12.934  0.0680  0.2123  0.1200
 3514SOL    HW122004   0.852   4.199  12.989  0.8195  1.5192 -1.9275
 3514SOL    HW222005   0.742   4.116  12.945  0.0875 -0.8331 -0.2827
 3515SOL     OW22006   3.549   2.213  10.834  0.0314 -0.3557  0.6317
 3515SOL    HW122007   3.532   2.179  10.922 -2.1428 -0.5542  0.1319
 3515SOL    HW222008   3.460   2.217  10.800  0.1921 -0.6948  0.1571
 3516SOL     OW22009   3.684   0.472   2.677  0.1819 -0.0527 -0.7032
 3516SOL    HW122010   3.726   0.401   2.726 -3.5524 -0.7611  1.5165
 3516SOL    HW222011   3.761   0.529   2.682  0.3639 -0.4206  1.0110
 3517SOL     OW22012   0.908   3.182   9.020 -0.1355 -0.1633  1.0870
 3517SOL    HW122013   0.983   3.230   9.056  0.5615  0.2730 -0.9726
 3517SOL    HW222014   0.960   3.152   8.946 -0.1465 -1.9629  1.8091
 3518SOL     OW22015   1.547   0.618   2.356 -0.0799  0.6885 -0.5359
 3518SOL    HW122016   1.625   0.660   2.318  0.2786 -1.0295 -1.7015
 3518SOL    HW222017   1.542   0.659   2.442 -0.2812 -0.8206  0.1643
 3519SOL     OW22018   2.938   3.397   8.056  0.0427  0.0205 -0.4246
 3519SOL    HW122019   2.944   3.488   8.025  1.3368  0.1520  0.2148
 3519SOL    HW222020   2.995   3.402   8.132 -0.3759  1.9620 -0.2180
 3520SOL     OW22021   0.204   2.115   7.277 -0.2117 -0.1416  0.0926
 3520SOL    HW122022   0.177   2.207   7.273  2.2715  0.5522 -0.4069
 3520SOL    HW222023   0.284   2.113   7.224 -0.3408  1.4473 -0.1699
 3521SOL     OW22024   3.574   3.678   2.874 -0.4751  0.0184 -0.3523
 3521SOL    HW122025   3.608   3.591   2.854 -1.0103 -0.3386  0.3103
 3521SOL    HW222026   3.621   3.728   2.808  0.7312  0.0206  0.5013
 3522SOL     OW22027   0.501   2.846   5.710 -0.0825 -0.9243 -0.5294
 3522SOL    HW122028   0.473   2.908   5.643  0.5153 -0.4733 -0.3628
 3522SOL    HW222029   0.456   2.875   5.789 -0.2664  2.0778 -1.7051
 3523SOL     OW22030   3.100   3.841   6.421  0.3996 -0.4246 -0.3398
 3523SOL    HW122031   3.004   3.847   6.423  0.4256 -0.1301  0.2450
 3523SOL    HW222032   3.120   3.748   6.417 -2.5117 -1.1396  1.7093
 3524SOL     OW22033   3.165   2.900   0.663 -0.6701 -0.0014 -0.4951
 3524SOL    HW122034   3.075   2.907   0.633 -0.5338 -0.9894 -1.1326
 3524SOL    HW222035   3.145   2.859   0.747 -0.1447 -1.2210 -0.9661
 3525SOL     OW22036   1.372   0.892   1.978  0.2242 -0.0178 -0.0030
 3525SOL    HW122037   1.408   0.967   1.931  1.7005  0.1790  1.4430
 3525SOL    HW222038   1.419   0.904   2.060 -1.8788 -1.6394  1.4357
 3526SOL     OW22039   0.413   2.157  14.043 -0.4791  0.2949 -0.0123
 3526SOL    HW122040   0.503   2.188  14.047 -1.5650  3.6548 -1.9111
 3526SOL    HW222041   0.376   2.169  13.955 -2.3809 -0.3724  0.6849
 3527SOL     OW22042   0.514   0.795   9.052 -0.0534 -0.5703 -0.4737
 3527SOL    HW122043   0.509   0.832   9.140  0.1064 -0.4767 -0.5053
 3527SOL    HW222044   0.566   0.858   9.002 -0.9511  0.8595  0.4130
 3528SOL     OW22045   0.529   3.672   5.218 -0.3880  0.5172  0.2905
 3528SOL    HW122046   0.516   3.675   5.313  0.0440 -1.6757  0.4057
 3528SOL    HW222047   0.619   3.703   5.228  0.0915 -1.2540  1.3402
 3529SOL     OW22048   3.931   3.266   8.597  0.5074  0.5494 -0.6453
 3529SOL    HW122049   3.973   3.204   8.538  0.8776  0.0981  0.1004
 3529SOL    HW222050   4.003   3.301   8.649 -0.1124 -0.4603  0.8796
 3530SOL     OW22051   3.927   2.428   7.395  0.2751 -0.1637 -0.2375
 3530SOL    HW122052   3.973   2.486   7.335 -0.3494 -2.3349 -2.7955
 3530SOL    HW222053   3.866   2.388   7.334 -1.4810  1.3765  0.4867
 3531SOL     OW22054   0.496   3.370  16.165 -0.2182  0.4977 -0.0395
 3531SOL    HW122055   0.432   3.382  16.235  2.0803  2.1681  1.7452
 3531SOL    HW222056   0.511   3.459  16.134 -0.1900  0.3619 -0.4128
 3532SOL     OW22057   2.719   1.736  15.229 -0.3295  0.1460  0.4948
 3532SOL    HW122058   2.699   1.649  15.196 -0.2285  0.4005 -0.2384
 3532SOL    HW222059   2.695   1.708  15.318  0.3210  1.0852  0.9644
 3533SOL     OW22060   0.889   1.513   2.582  0.7859  0.6168 -0.1309
 3533SOL    HW122061   0.959   1.449   2.572  0.0716 -0.0791 -0.6420
 3533SOL    HW222062   0.939   1.586   2.619  0.2830  1.1206 -0.4299
 3534SOL     OW22063   4.476   1.215   3.610 -0.1145  0.1325 -0.5327
 3534SOL    HW122064   4.511   1.129   3.590  1.5856  0.2859  1.8920
 3534SOL    HW222065   4.490   1.213   3.705 -0.4594  1.3155 -0.4501
 3535SOL     OW22066   2.546   2.577   6.229  0.0337 -0.1392 -0.2953
 3535SOL    HW122067   2.465   2.565   6.181 -0.4121 -0.3819  0.5068
 3535SOL    HW222068   2.596   2.633   6.170  1.0390  2.4849  3.0477
 3536SOL     OW22069   2.347   3.423   2.964  0.2186  0.3910  0.1547
 3536SOL    HW122070   2.439   3.446   2.953 -0.2030  2.7317  1.3980
 3536SOL    HW222071   2.311   3.505   2.998  1.1980  1.3475 -1.1189
 3537SOL     OW22072   1.260   2.726   5.026  0.8025  0.7788  0.0104
 3537SOL    HW122073   1.188   2.789   5.027  0.8300  0.8306 -0.8893
 3537SOL    HW222074   1.304   2.752   4.945  2.8167 -0.4015  0.7216
 3538SOL     OW22075   2.120   1.586   0.489  0.2999 -0.1472  0.4850
 3538SOL    HW122076   2.160   1.661   0.445  2.2356 -0.0239  2.4676
 3538SOL    HW222077   2.060   1.634   0.545 -0.8406 -1.2682  0.2427
 3539SOL     OW22078   0.912   4.561   9.648  0.3533 -0.0929 -0.2118
 3539SOL    HW122079   0.977   4.604   9.704 -0.5199 -0.7736  1.3091
 3539SOL    HW222080   0.964   4.484   9.626  0.3578  0.0871 -0.8236
 3540SOL     OW22081   4.011   2.952   7.541  0.1230 -0.1436  0.2048
 3540SOL    HW122082   3.976   2.956   7.452 -0.2723  1.2981  0.4217
 3540SOL    HW222083   4.095   2.907   7.532 -0.1142 -0.8640  1.6157
 3541SOL     OW22084   1.251   1.286   5.219 -0.0201 -0.0564 -0.0556
 3541SOL    HW122085   1.190   1.212   5.212 -0.1733  0.0240  0.3811
 3541SOL    HW222086   1.280   1.276   5.129 -0.7373 -3.4298  0.0680
 3542SOL     OW22087   0.820   4.686   6.021 -0.0300  0.0891 -0.2403
 3542SOL    HW122088   0.766   0.031   5.986 -1.4732 -0.5537  0.7010
 3542SOL    HW222089   0.885   4.677   5.952  0.6549  0.0335  0.4071
 3543SOL     OW22090   2.878   3.656   5.892  0.1370 -0.0197  0.4231
 3543SOL    HW122091   2.867   3.629   5.983 -1.5622  0.4720  0.3741
 3543SOL    HW222092   2.922   3.574   5.869 -0.2051 -0.3629  0.9904
 3544SOL     OW22093   3.441   2.467   9.267 -0.1616  0.0651 -0.7940
 3544SOL    HW122094   3.469   2.501   9.352 -3.2248  1.7877 -0.4528
 3544SOL    HW222095   3.456   2.547   9.216  1.2858 -0.0721 -0.5791
 3545SOL     OW22096   0.670   2.101   7.489 -0.6481 -0.4483 -0.2220
 3545SOL    HW122097   0.575   2.089   7.494 -0.7867  0.5001 -0.6726
 3545SOL    HW222098   0.684   2.145   7.406 -4.2106  2.6009  0.8018
 3546SOL     OW22099   3.453   2.040  13.983 -0.3298 -0.0457 -0.1296
 3546SOL    HW122100   3.424   1.960  13.939  0.8091 -1.8812  2.4616
 3546SOL    HW222101   3.526   2.005  14.033 -0.6794  1.1680  1.2099
 3547SOL     OW22102   2.508   0.914  17.212  0.1546  0.3136 -0.0675
 3547SOL    HW122103   2.440   0.866  17.259  0.1162 -1.6123 -2.0787
 3547SOL    HW222104   2.450   0.971  17.161 -0.9375 -1.4070 -0.7726
 3548SOL     OW22105   1.660   3.050   5.777  0.4388  0.5828  0.1441
 3548SOL    HW122106   1.623   3.050   5.865 -0.4888  1.3600 -0.2379
 3548SOL    HW222107   1.607   3.121   5.740 -0.7715 -0.7594 -0.6497
 3549SOL     OW22108   3.786   1.843   4.566  0.0182 -0.5773 -0.3112
 3549SOL    HW122109   3.866   1.791   4.572 -0.1671 -0.6619  1.5313
 3549SOL    HW222110   3.806   1.918   4.510 -0.8945  0.9980  1.4798
 3550SOL     OW22111   3.757   3.257   7.837 -0.5270 -0.0557  0.1425
 3550SOL    HW122112   3.827   3.199   7.807  1.0453  0.0629  3.5214
 3550SOL    HW222113   3.782   3.266   7.929  0.4274  2.0559 -0.3136
 3551SOL     OW22114   1.574   1.640  17.122 -0.5082 -0.7073  0.7120
 3551SOL    HW122115   1.597   1.689  17.044  1.5759 -2.9265 -0.0707
 3551SOL    HW222116   1.533   1.715  17.165 -2.7078 -0.4754 -1.7862
 3552SOL     OW22117   2.805   2.316   2.554  0.5006 -0.7496 -0.0865
 3552SOL    HW122118   2.754   2.388   2.518  1.2360 -0.0468  0.2836
 3552SOL    HW222119   2.868   2.295   2.485 -1.5858  1.5434 -2.6178
 3553SOL     OW22120   2.916   4.513   8.184  0.1432  0.3491 -0.5861
 3553SOL    HW122121   2.867   4.434   8.209  0.9269 -0.0401 -0.2974
 3553SOL    HW222122   2.844   4.576   8.175  1.6513  2.4870  2.3224
 3554SOL     OW22123   2.748   1.868  16.379  0.0457 -0.0772  0.1752
 3554SOL    HW122124   2.826   1.922  16.372  0.1299 -0.3656 -1.0778
 3554SOL    HW222125   2.740   1.848  16.285  0.3077 -1.2088  0.3944
 3555SOL     OW22126   2.876   1.885   5.168 -0.2721  0.1755 -0.1647
 3555SOL    HW122127   2.911   1.971   5.148 -2.9822  1.0048 -1.3222
 3555SOL    HW222128   2.953   1.828   5.169  0.2610  0.9067 -0.1997
 3556SOL     OW22129   2.647   1.885  13.937 -0.0108 -0.4812 -0.0271
 3556SOL    HW122130   2.656   1.888  14.033 -0.2879 -0.9400  0.0172
 3556SOL    HW222131   2.682   1.798  13.917  0.2559 -0.7072  1.4032
 3557SOL     OW22132   1.983   1.867   0.248  0.1226  0.2946 -0.4195
 3557SOL    HW122133   2.046   1.852   0.178 -1.3743  0.2092 -1.7435
 3557SOL    HW222134   2.025   1.817   0.318 -0.8683 -0.9628 -0.7372
 3558SOL     OW22135   0.843   3.233  16.941 -0.3643 -0.8010  0.0553
 3558SOL    HW122136   0.856   3.177  17.018  2.1610  0.0132  0.2300
 3558SOL    HW222137   0.754   3.261  16.963  0.6874  2.6491  0.0045
 3559SOL     OW22138   0.397   4.699   7.105 -0.0606 -0.8145 -0.2417
 3559SOL    HW122139   0.313   4.716   7.148  0.6311 -0.2016  0.8593
 3559SOL    HW222140   0.361   4.637   7.041  1.5844 -0.5022 -1.4657
 3560SOL     OW22141   0.217   2.125   6.112 -0.1125  0.4739  0.2896
 3560SOL    HW122142   0.145   2.155   6.168  0.6903 -1.2828  2.2863
 3560SOL    HW222143   0.291   2.184   6.131  0.5756 -0.4083  0.3545
 3561SOL     OW22144   0.071   4.490  16.313  0.2877 -0.0969  0.0061
 3561SOL    HW122145   0.107   4.403  16.330  1.4778  0.2761 -0.5900
 3561SOL    HW222146   0.018   4.475  16.235 -0.5935 -1.7531  0.9381
 3562SOL     OW22147   1.129   0.976  14.110  0.2258  0.5007  0.5339
 3562SOL    HW122148   1.155   0.884  14.118 -0.6513  0.3350  1.3716
 3562SOL    HW222149   1.217   1.015  14.112  0.9962 -1.1555 -1.2262
 3563SOL     OW22150   1.523   4.037   3.553 -0.4329 -0.0858 -0.1173
 3563SOL    HW122151   1.446   3.998   3.512 -0.3310 -0.0747 -0.3171
 3563SOL    HW222152   1.470   4.081   3.619 -0.9229 -2.3795  1.0105
 3564SOL     OW22153   2.390   1.244   4.896  0.1087 -0.1903  0.1320
 3564SOL    HW122154   2.359   1.264   4.808 -0.3759 -1.0131  0.1176
 3564SOL    HW222155   2.370   1.151   4.899 -0.1083 -0.1531 -0.2090
 3565SOL     OW22156   1.609   1.379  16.995  0.3407  0.4185 -0.3102
 3565SOL    HW122157   1.599   1.462  17.041  1.1168  1.4921 -2.0808
 3565SOL    HW222158   1.593   1.412  16.906  1.3189 -0.5399 -0.8466
 3566SOL     OW22159   0.286   3.219   6.182  0.2771 -0.1644 -0.4108
 3566SOL    HW122160   0.210   3.188   6.132  0.0316  0.5039 -0.4532
 3566SOL    HW222161   0.244   3.269   6.252  1.5100 -2.1225  1.7484
 3567SOL     OW22162   4.161   3.720   4.574  0.7774  0.1936  0.1065
 3567SOL    HW122163   4.192   3.636   4.608 -0.9212 -0.7110 -0.6463
 3567SOL    HW222164   4.100   3.689   4.508  1.0573 -1.5859  0.7031
 3568SOL     OW22165   0.559   2.526  11.298  0.0652  0.1200 -0.9348
 3568SOL    HW122166   0.476   2.574  11.299 -1.0818 -1.8534 -1.2659
 3568SOL    HW222167   0.610   2.601  11.266  1.4221 -0.6549 -0.5731
 3569SOL     OW22168   1.142   0.511  17.608 -0.0065 -0.0433 -0.4087
 3569SOL    HW122169   1.059   0.501  17.562 -0.2476  1.2455 -0.2496
 3569SOL    HW222170   1.140   0.604  17.633 -2.2901  0.0087 -0.8513
 3570SOL     OW22171   0.793   0.763   8.744  0.7532 -0.1931 -0.5177
 3570SOL    HW122172   0.739   0.840   8.763  1.5353  0.8996 -2.7389
 3570SOL    HW222173   0.852   0.759   8.819  0.5702  2.4794 -0.2255
 3571SOL     OW22174   0.714   2.850   2.143 -0.0982 -0.1405  0.1667
 3571SOL    HW122175   0.664   2.773   2.169 -1.6720  1.9890  3.4397
 3571SOL    HW222176   0.711   2.846   2.047  0.2865 -2.0485  0.2308
 3572SOL     OW22177   3.337   4.563   6.634  0.5804 -0.5171 -0.2036
 3572SOL    HW122178   3.252   4.607   6.635  1.6569  1.5860 -0.6138
 3572SOL    HW222179   3.325   4.502   6.706  0.5409 -0.0697  0.1619
 3573SOL     OW22180   4.667   3.423   4.294  0.4421  0.4363 -0.0076
 3573SOL    HW122181   4.572   3.406   4.294  0.0189  2.8308  0.4877
 3573SOL    HW222182   4.676   3.478   4.372 -0.6908  0.1281  0.3414
 3574SOL     OW22183   0.209   3.739  10.199  0.4330  0.1445  0.2357
 3574SOL    HW122184   0.254   3.728  10.116  1.3030 -2.5820  1.0691
 3574SOL    HW222185   0.270   3.802  10.236  1.3920 -1.7018  1.7671
 3575SOL     OW22186   0.358   3.945  13.186 -0.4409 -0.5918 -0.2422
 3575SOL    HW122187   0.352   3.990  13.102 -0.7384  0.4277  0.3304
 3575SOL    HW222188   0.394   4.016  13.239 -0.3262 -0.6037 -0.3030
 3576SOL     OW22189   4.723   2.809   3.247 -0.3999 -0.1497  0.1895
 3576SOL    HW122190   4.691   2.856   3.324 -0.5943 -3.2833  2.0030
 3576SOL    HW222191   4.653   2.821   3.182 -0.7564 -2.3685  0.1650
 3577SOL     OW22192   3.223   3.438   4.225  0.4408 -0.0041  0.3437
 3577SOL    HW122193   3.265   3.357   4.194 -0.5759 -0.6243  0.5790
 3577SOL    HW222194   3.183   3.467   4.143  2.3614 -1.2916 -1.0477
 3578SOL     OW22195   3.037   1.414  15.969 -1.3818  0.0219  0.1182
 3578SOL    HW122196   3.012   1.346  15.906  2.5841  1.6543 -3.2072
 3578SOL    HW222197   3.130   1.395  15.981 -1.2306  0.9852  0.4699
 3579SOL     OW22198   0.352   4.038   5.764  0.5680 -0.0077  0.1095
 3579SOL    HW122199   0.363   4.035   5.859  0.3558 -1.0558  0.1052
 3579SOL    HW222200   0.271   3.990   5.750  1.6040 -2.3368  2.1890
 3580SOL     OW22201   1.493   3.555   6.487 -0.4908  0.2326  0.7194
 3580SOL    HW122202   1.434   3.490   6.524  0.1225 -0.0094  1.2798
 3580SOL    HW222203   1.579   3.522   6.515 -1.3687 -2.2093  0.4778
 3581SOL     OW22204   1.827   2.387   4.236  0.1190  0.2732 -0.0329
 3581SOL    HW122205   1.907   2.432   4.262  0.2778 -0.6660  1.1223
 3581SOL    HW222206   1.850   2.318   4.174  0.0855  0.8442 -0.6772
 3582SOL     OW22207   3.473   3.219  15.719 -0.0319  0.1600 -0.2770
 3582SOL    HW122208   3.522   3.238  15.798  1.0299 -1.4414 -0.5547
 3582SOL    HW222209   3.448   3.305  15.685  1.5269  0.1164 -1.4986
 3583SOL     OW22210   3.936   4.541   7.636 -0.7513  0.4787  0.2376
 3583SOL    HW122211   4.001   4.507   7.696 -1.0274 -0.9413 -0.2805
 3583SOL    HW222212   3.972   4.627   7.614  0.6895 -0.6537 -1.8581
 3584SOL     OW22213   0.907   0.466   8.654  0.2640 -0.2437 -0.1230
 3584SOL    HW122214   0.821   0.506   8.667  0.3844 -0.3760  1.0929
 3584SOL    HW222215   0.947   0.463   8.741 -2.2418  1.4958  1.1143
 3585SOL     OW22216   1.392   2.313   1.754  0.2043  0.5194 -0.5090
 3585SOL    HW122217   1.343   2.234   1.779  0.5873  0.7342  0.9579
 3585SOL    HW222218   1.377   2.314   1.660 -0.6980 -0.1518 -0.3738
 3586SOL     OW22219   4.556   3.574   7.322  0.0308 -0.2520  0.1350
 3586SOL    HW122220   4.496   3.579   7.248  0.5703 -3.9358 -0.5669
 3586SOL    HW222221   4.505   3.626   7.383 -0.0627  2.9944 -2.6913
 3587SOL     OW22222   2.153   1.478   5.332 -0.2542  0.5133  0.2150
 3587SOL    HW122223   2.213   1.426   5.279  0.5641  1.2328  0.4353
 3587SOL    HW222224   2.154   1.559   5.280  3.2963 -0.2158 -0.8804
 3588SOL     OW22225   0.557   2.137   6.005  0.6388 -0.1802 -0.6745
 3588SOL    HW122226   0.532   2.157   5.915  2.2473 -2.0639 -1.5517
 3588SOL    HW222227   0.651   2.120   5.996  0.6280  0.5072 -1.9722
 3589SOL     OW22228   3.741   1.470  10.305  0.5841 -0.6801 -0.0769
 3589SOL    HW122229   3.677   1.439  10.241  1.8083 -0.9783 -1.1654
 3589SOL    HW222230   3.683   1.475  10.380  0.1124  1.0093 -0.5389
 3590SOL     OW22231   2.637   3.561   8.372  0.0854  0.1601  0.8030
 3590SOL    HW122232   2.565   3.576   8.311  0.3736 -0.6552  0.2583
 3590SOL    HW222233   2.586   3.575   8.451 -0.7709  0.3443  0.2154
 3591SOL     OW22234   2.112   3.221   3.485  0.3873 -0.3604 -0.2485
 3591SOL    HW122235   2.045   3.289   3.480  0.0141 -0.6755  0.3945
 3591SOL    HW222236   2.120   3.215   3.580 -1.0889 -0.2655 -0.1041
 3592SOL     OW22237   1.548   2.932  15.819  0.7107 -0.3964 -0.1197
 3592SOL    HW122238   1.603   2.941  15.741  0.0286  0.4324 -0.4990
 3592SOL    HW222239   1.575   2.854  15.867 -1.1281 -0.0386  1.5051
 3593SOL     OW22240   3.978   0.673   4.739  0.2688  0.3232  0.6504
 3593SOL    HW122241   4.023   0.611   4.682 -0.8591 -0.0451  0.1644
 3593SOL    HW222242   4.033   0.664   4.816 -0.0725  0.1113  0.8709
 3594SOL     OW22243   2.749   3.100  13.398  0.1217  0.1399 -0.4288
 3594SOL    HW122244   2.737   3.192  13.376 -1.8132  0.3113  1.3002
 3594SOL    HW222245   2.826   3.069  13.349 -1.2183 -1.9864 -1.1850
 3595SOL     OW22246   4.043   3.216   6.410  0.5789  0.2169 -0.2958
 3595SOL    HW122247   4.106   3.180   6.473 -0.3661 -1.9551 -0.5703
 3595SOL    HW222248   3.961   3.225   6.458  0.4597  3.0370 -1.0678
 3596SOL     OW22249   3.446   2.623  12.066  0.4648  0.1215 -0.3489
 3596SOL    HW122250   3.410   2.686  12.128  0.2933 -0.9362  0.6247
 3596SOL    HW222251   3.510   2.583  12.124 -1.4770 -1.4302  0.7094
 3597SOL     OW22252   4.587   2.584   0.103  0.4395  0.2037 -0.1224
 3597SOL    HW122253   4.524   2.519   0.073 -0.1396  1.1119 -0.8791
 3597SOL    HW222254   4.670   2.540   0.086 -0.4526 -1.0703 -1.2038
 3598SOL     OW22255   1.962   4.100   6.261  0.1504 -0.0343  0.0061
 3598SOL    HW122256   1.927   4.156   6.192 -1.8352  0.1995  1.2281
 3598SOL    HW222257   2.046   4.077   6.219  1.0916 -0.9938  2.4096
 3599SOL     OW22258   1.497   2.162   7.700  0.1184  0.0956  0.0892
 3599SOL    HW122259   1.438   2.235   7.716  0.8366  0.9606 -1.2190
 3599SOL    HW222260   1.547   2.197   7.625  1.2772 -0.2856  0.6782
 3600SOL     OW22261   3.617   2.172  15.987 -0.4726 -0.4271  0.0739
 3600SOL    HW122262   3.613   2.237  16.058 -0.6978  0.6582 -0.9346
 3600SOL    HW222263   3.558   2.213  15.924  2.2062  0.9297 -1.5394
 3601SOL     OW22264   4.521   1.934   4.939 -0.0900  0.0070  0.1849
 3601SOL    HW122265   4.594   1.975   4.986 -0.6147  1.1942 -0.0412
 3601SOL    HW222266   4.463   2.009   4.923 -0.6109 -0.2063  1.1027
 3602SOL     OW22267   0.550   2.019   8.555 -0.0853 -0.4548  0.4519
 3602SOL    HW122268   0.512   1.949   8.502  2.9275  0.1711 -2.4561
 3602SOL    HW222269   0.489   2.094   8.554  2.3528  1.5025 -1.0056
 3603SOL     OW22270   1.602   4.281  10.881 -0.0995 -0.2041 -0.8136
 3603SOL    HW122271   1.536   4.350  10.874 -2.4507 -2.2543  1.2927
 3603SOL    HW222272   1.601   4.242  10.968 -0.0465  0.6939 -0.4190
 3604SOL     OW22273   4.390   3.932  13.965 -0.1700 -0.3286  1.1465
 3604SOL    HW122274   4.334   4.007  13.987 -0.9997 -0.1038 -1.7576
 3604SOL    HW222275   4.399   3.945  13.871 -0.4217 -3.1460  0.7460
 3605SOL     OW22276   2.750   3.276   5.005 -0.2343  0.3303 -0.1440
 3605SOL    HW122277   2.713   3.274   4.917 -1.1581  0.3949  0.2494
 3605SOL    HW222278   2.830   3.228   4.980  0.1375  0.1655  1.3957
 3606SOL     OW22279   4.170   0.885  13.340  0.2453 -0.4427  0.7234
 3606SOL    HW122280   4.153   0.930  13.423 -1.6713 -1.3447  0.8150
 3606SOL    HW222281   4.084   0.862  13.307  0.8908  1.2890 -2.1987
 3607SOL     OW22282   3.190   2.129   6.298  0.1894 -0.4535 -0.1989
 3607SOL    HW122283   3.198   2.084   6.382 -0.5520 -0.0463  0.0892
 3607SOL    HW222284   3.100   2.161   6.298  0.4782  0.3744  0.9642
 3608SOL     OW22285   0.380   1.452   6.201 -0.0422  0.1208 -0.6165
 3608SOL    HW122286   0.453   1.396   6.174  1.5207  1.1870  1.3717
 3608SOL    HW222287   0.337   1.391   6.262  4.9086 -1.2652  1.5076
 3609SOL     OW22288   2.753   3.905   6.476  0.1274  0.3793 -0.1600
 3609SOL    HW122289   2.768   3.913   6.570 -1.3601 -2.2527  0.3231
 3609SOL    HW222290   2.682   3.840   6.472  0.4729  0.0200 -0.5523
 3610SOL     OW22291   1.307   1.180   8.097 -0.9202 -0.2335 -0.5434
 3610SOL    HW122292   1.282   1.272   8.090  0.4849  0.2115  0.4038
 3610SOL    HW222293   1.402   1.183   8.092 -0.8957  1.7198  1.2725
 3611SOL     OW22294   2.835   0.244   4.318  0.1894  0.6927  0.2844
 3611SOL    HW122295   2.804   0.318   4.370 -1.9630  2.0186 -2.8472
 3611SOL    HW222296   2.776   0.245   4.242  1.1025  0.5467 -0.4220
 3612SOL     OW22297   0.971   1.031   1.140  0.0146  0.1555  0.4914
 3612SOL    HW122298   1.023   1.110   1.155  1.6096 -0.7527 -0.2738
 3612SOL    HW222299   0.892   1.081   1.160 -1.4616 -2.1149  0.3123
 3613SOL     OW22300   3.300   3.411   3.491 -0.2772 -0.5311 -0.1004
 3613SOL    HW122301   3.259   3.471   3.553 -2.4716 -0.2866 -1.7482
 3613SOL    HW222302   3.272   3.324   3.520 -0.8571  0.6743  2.9658
 3614SOL     OW22303   2.118   4.657   8.084 -0.6749 -0.0750 -0.4502
 3614SOL    HW122304   2.051   4.664   8.016 -4.0384 -0.2985  2.8407
 3614SOL    HW222305   2.086   4.706   8.160 -0.0030 -2.7337  1.5734
 3615SOL     OW22306   4.112   3.153  15.071 -0.1787  0.2588  0.8331
 3615SOL    HW122307   4.071   3.104  15.000 -2.3239  1.0567  1.5262
 3615SOL    HW222308   4.051   3.225  15.082 -0.0220  0.4998  0.0605
 3616SOL     OW22309   0.039   3.229   7.632 -0.4542 -0.2177  0.9015
 3616SOL    HW122310   0.013   3.280   7.555 -3.8623 -2.5078  0.5735
 3616SOL    HW222311   0.112   3.179   7.597 -0.8515  1.0944 -1.7700
 3617SOL     OW22312   2.573   1.898  17.343  0.1675 -0.4860 -0.4190
 3617SOL    HW122313   2.543   1.934  17.260 -1.0285  0.2266  0.3188
 3617SOL    HW222314   2.537   1.968  17.398 -0.9520 -0.4643 -1.1865
 3618SOL     OW22315   2.615   0.809   4.339 -0.5216  0.7624  0.3015
 3618SOL    HW122316   2.616   0.891   4.389  2.1325 -0.0010  1.4831
 3618SOL    HW222317   2.583   0.745   4.403  0.7338 -0.3453 -0.1813
 3619SOL     OW22318   1.908   3.632   9.132  0.3805 -0.1743 -0.0664
 3619SOL    HW122319   1.844   3.605   9.066  0.0514 -0.9248  0.5546
 3619SOL    HW222320   1.888   3.725   9.122 -1.6359 -0.7653 -1.6062
 3620SOL     OW22321   4.011   2.460   7.907 -0.2997  0.1582  0.6301
 3620SOL    HW122322   3.961   2.449   7.826 -1.1648 -0.3610  1.2305
 3620SOL    HW222323   4.029   2.553   7.894 -0.0925 -0.2459 -2.0292
 3621SOL     OW22324   2.846   3.342   2.165  0.3527  0.3109 -0.1830
 3621SOL    HW122325   2.802   3.423   2.190 -0.6088 -0.0195 -0.7968
 3621SOL    HW222326   2.819   3.287   2.239 -1.9567  1.9052  0.1832
 3622SOL     OW22327   4.633   3.863   3.229  0.3991 -0.3392 -0.2512
 3622SOL    HW122328   4.568   3.903   3.287 -1.7565 -0.0297 -2.8996
 3622SOL    HW222329   4.715   3.881   3.276  0.2842  1.1701 -0.6251
 3623SOL     OW22330   1.684   2.433   7.807 -0.3789 -0.2574 -0.3733
 3623SOL    HW122331   1.675   2.365   7.874  2.5812  1.4655  1.7313
 3623SOL    HW222332   1.773   2.467   7.811  0.1787 -2.0464  2.6377
 3624SOL     OW22333   3.913   3.976   4.407 -0.0383  0.2970 -0.2406
 3624SOL    HW122334   3.818   3.992   4.414  0.5661  4.2541 -1.1990
 3624SOL    HW222335   3.910   3.885   4.378 -1.3205 -0.2212  1.4690
 3625SOL     OW22336   1.427   2.423   7.751  0.1517 -0.2868 -0.0672
 3625SOL    HW122337   1.398   2.471   7.828  2.0339  0.8395 -0.0615
 3625SOL    HW222338   1.520   2.441   7.763 -0.1456  1.1327  0.1645
 3626SOL     OW22339   3.215   2.198   8.838  0.0918  0.0747 -0.4157
 3626SOL    HW122340   3.235   2.290   8.820  0.5605  0.2100  0.8249
 3626SOL    HW222341   3.129   2.182   8.800 -0.7216  2.8211  0.2494
 3627SOL     OW22342   2.582   2.720   6.879 -0.1130 -0.1903 -0.0838
 3627SOL    HW122343   2.556   2.675   6.798  1.3050 -0.8008 -0.2010
 3627SOL    HW222344   2.671   2.748   6.855 -0.4578 -0.2594 -1.4360
 3628SOL     OW22345   1.658   4.266   1.918  0.4071  0.3710  0.2281
 3628SOL    HW122346   1.663   4.258   2.014  2.6346 -0.0368  0.0913
 3628SOL    HW222347   1.750   4.287   1.898  1.2612 -2.6692  0.9836
 3629SOL     OW22348   2.261   3.985   8.451  0.5575  0.3222  0.7978
 3629SOL    HW122349   2.351   3.994   8.482  0.9613  1.5755 -0.7348
 3629SOL    HW222350   2.221   4.071   8.459  1.7903  1.0123 -0.4222
 3630SOL     OW22351   0.929   1.979  11.060 -0.0024 -0.0172  0.2071
 3630SOL    HW122352   1.003   1.922  11.039 -0.1530 -0.7044  1.5404
 3630SOL    HW222353   0.977   2.053  11.096  0.5263 -1.2900  2.0983
 3631SOL     OW22354   2.508   0.895   3.180 -0.0670 -0.0322  0.7290
 3631SOL    HW122355   2.576   0.832   3.154 -1.1169 -0.8753  0.0550
 3631SOL    HW222356   2.487   0.932   3.094  0.3947 -1.4887 -0.0081
 3632SOL     OW22357   0.927   2.401   4.265 -0.2724 -0.6408 -0.1732
 3632SOL    HW122358   0.874   2.472   4.300 -0.1468 -0.9336  0.6251
 3632SOL    HW222359   0.877   2.388   4.185 -0.6986  2.3800 -0.3973
 3633SOL     OW22360   2.013   0.925   7.028 -0.2909 -0.2687  0.3240
 3633SOL    HW122361   2.108   0.931   7.034 -0.2858  1.5530 -1.5771
 3633SOL    HW222362   2.011   0.902   6.935  0.6690 -1.3769  0.5791
 3634SOL     OW22363   2.054   4.541   3.727  0.4668 -0.2527 -0.1347
 3634SOL    HW122364   1.962   4.521   3.710 -0.6271  2.2127  2.8330
 3634SOL    HW222365   2.045   4.620   3.781 -0.4177 -1.6099  1.6662
 3635SOL     OW22366   1.263   2.952   3.494 -0.1430  0.6850 -0.1163
 3635SOL    HW122367   1.183   3.000   3.472  0.5688  2.3986  1.1099
 3635SOL    HW222368   1.227   2.864   3.477 -0.6325  0.7434  0.6304
 3636SOL     OW22369   2.264   2.237   6.046 -0.2826  0.1839  0.1765
 3636SOL    HW122370   2.254   2.251   6.140  0.6552  0.0471  0.2966
 3636SOL    HW222371   2.326   2.163   6.046  0.4269  0.7730  0.5455
 3637SOL     OW22372   3.596   2.666   9.381  0.4210  0.0460  0.0880
 3637SOL    HW122373   3.608   2.681   9.475  0.5106  1.1924 -0.1068
 3637SOL    HW222374   3.680   2.688   9.342 -0.5696 -0.5086 -2.3138
 3638SOL     OW22375   3.616   2.062   4.704 -0.4968  0.0160  0.5359
 3638SOL    HW122376   3.681   2.104   4.760 -0.9219  0.4570  0.7018
 3638SOL    HW222377   3.669   1.988   4.675 -0.2237  0.5424 -0.2995
 3639SOL     OW22378   3.119   3.974   4.026 -0.2789  0.3833  0.2262
 3639SOL    HW122379   3.122   3.882   4.000  0.8122  0.4992 -0.0606
 3639SOL    HW222380   3.141   3.961   4.118 -0.1768  0.1566  0.1704
 3640SOL     OW22381   4.653   0.694  12.440 -0.0581 -0.0755  0.0177
 3640SOL    HW122382   4.723   0.755  12.419  0.4596  0.1478  2.3249
 3640SOL    HW222383   4.645   0.719  12.532 -1.7462 -0.4834 -0.0288
 3641SOL     OW22384   0.434   3.756   3.869  0.5482  0.1729  0.1687
 3641SOL    HW122385   0.448   3.678   3.816 -0.4620  0.7326 -0.9526
 3641SOL    HW222386   0.411   3.709   3.948  0.1105  0.7259  0.3745
 3642SOL     OW22387   1.714   1.198   2.946  0.0378 -0.3494 -0.3530
 3642SOL    HW122388   1.707   1.293   2.954  0.0075 -0.4836  1.1574
 3642SOL    HW222389   1.659   1.166   3.018  0.8538  0.4584  0.6142
 3643SOL     OW22390   2.266   3.201   7.613 -0.2250 -0.2279  0.1248
 3643SOL    HW122391   2.248   3.168   7.525 -0.0118 -0.6737  0.2488
 3643SOL    HW222392   2.352   3.160   7.623  0.1139  1.1339  2.6757
 3644SOL     OW22393   2.785   4.032   4.314 -0.3087  0.1253 -0.4801
 3644SOL    HW122394   2.705   4.069   4.352  1.2963  1.5631  1.4957
 3644SOL    HW222395   2.821   3.974   4.380  0.7648  0.6602 -0.6075
 3645SOL     OW22396   1.638   0.549   9.064  0.7453 -0.3848 -0.6673
 3645SOL    HW122397   1.708   0.585   9.119 -0.0146  2.1157 -1.3361
 3645SOL    HW222398   1.578   0.515   9.130  0.5599  3.1124  0.9817
 3646SOL     OW22399   3.928   2.188  13.312 -0.5016 -0.0231  0.1059
 3646SOL    HW122400   3.957   2.100  13.337 -2.2085 -0.4792  0.4853
 3646SOL    HW222401   3.911   2.224  13.399  3.1524 -0.4116  0.9505
 3647SOL     OW22402   2.154   1.124  17.437 -0.1022 -0.7544 -0.1353
 3647SOL    HW122403   2.192   1.105  17.351  0.8867  0.9097 -0.0618
 3647SOL    HW222404   2.108   1.207  17.427  1.1202  0.0639  1.1036
 3648SOL     OW22405   1.804   4.583   2.493  0.3986  0.1802 -0.2712
 3648SOL    HW122406   1.783   4.525   2.566 -1.1504  2.2848  0.9593
 3648SOL    HW222407   1.899   4.576   2.493  0.5678  2.5177  0.3456
 3649SOL     OW22408   1.133   3.146   6.576 -0.0256  0.4648 -0.5401
 3649SOL    HW122409   1.111   3.149   6.669  0.1446  3.8742 -0.5951
 3649SOL    HW222410   1.063   3.201   6.542  0.1637  0.7014 -0.5491
 3650SOL     OW22411   3.825   1.849   5.362  0.3654 -0.2595  0.7054
 3650SOL    HW122412   3.778   1.913   5.416  1.4370  0.0682  1.2645
 3650SOL    HW222413   3.815   1.890   5.276 -0.9261 -0.1254  0.9233
 3651SOL     OW22414   0.306   2.671   3.462  0.2427 -0.5210 -0.3889
 3651SOL    HW122415   0.236   2.737   3.461  1.1312  0.4083 -0.6025
 3651SOL    HW222416   0.278   2.597   3.407  1.4287 -1.6103  0.4793
 3652SOL     OW22417   1.860   3.275   7.479 -0.7425  0.0991  0.2199
 3652SOL    HW122418   1.876   3.245   7.389 -2.7418 -1.1001  0.2596
 3652SOL    HW222419   1.942   3.250   7.522  0.9590 -1.4233 -3.9120
 3653SOL     OW22420   3.705   0.904   9.000 -0.1490  0.1695  0.4747
 3653SOL    HW122421   3.676   0.945   9.081  1.0494 -0.4678  1.2353
 3653SOL    HW222422   3.688   0.968   8.931 -1.6495  0.2694  0.9477
 3654SOL     OW22423   1.691   1.115   1.106  0.0868  0.1929 -0.2206
 3654SOL    HW122424   1.677   1.079   1.018  0.6549 -1.3013  0.2928
 3654SOL    HW222425   1.705   1.036   1.159  0.9774 -0.0940 -0.8841
 3655SOL     OW22426   2.019   2.749  17.132 -0.5707 -0.6299  0.6734
 3655SOL    HW122427   2.040   2.792  17.216 -0.6731 -0.4593  0.6124
 3655SOL    HW222428   2.071   2.669  17.138  0.1435 -0.0734  2.0302
 3656SOL     OW22429   2.188   3.723   5.137  0.4046 -0.1675 -0.0856
 3656SOL    HW122430   2.099   3.729   5.171 -0.2827 -1.1284 -1.6811
 3656SOL    HW222431   2.205   3.629   5.136 -1.3239 -0.4757 -1.8984
 3657SOL     OW22432   2.110   1.446   5.842 -0.1456  0.0063  0.1691
 3657SOL    HW122433   2.018   1.425   5.858 -0.0986 -0.7654 -0.5599
 3657SOL    HW222434   2.155   1.405   5.915 -0.7312  1.5115  1.3708
 3658SOL     OW22435   3.327   0.597   2.170 -0.1202 -0.4964 -0.3282
 3658SOL    HW122436   3.237   0.623   2.188 -0.4812 -1.4882 -0.7357
 3658SOL    HW222437   3.383   0.665   2.209 -0.3558  0.3184 -1.3875
 3659SOL     OW22438   2.143   0.540   1.409 -0.5071  0.1784 -0.5080
 3659SOL    HW122439   2.142   0.461   1.355 -1.8291  0.7488 -1.3211
 3659SOL    HW222440   2.091   0.518   1.486  1.1631  1.6389  1.0588
 3660SOL     OW22441   1.556   2.847  16.894  0.3802 -0.5870 -0.3957
 3660SOL    HW122442   1.576   2.925  16.843 -2.3181  0.4958  0.1742
 3660SOL    HW222443   1.523   2.887  16.975  0.0183 -0.6960 -0.4886
 3661SOL     OW22444   1.332   0.236   8.064 -0.2356  0.1280 -0.9295
 3661SOL    HW122445   1.400   0.255   8.000  0.6935 -0.4458 -0.1114
 3661SOL    HW222446   1.370   0.275   8.143 -1.5364 -0.7236  0.1279
 3662SOL     OW22447   3.085   0.702   4.754  0.0230  0.3852 -0.0666
 3662SOL    HW122448   3.136   0.691   4.835  1.1498  2.4265 -0.4711
 3662SOL    HW222449   3.136   0.643   4.699  1.2678  0.5582  0.8793
 3663SOL     OW22450   0.465   0.491   4.079  0.2909 -0.4169  0.0742
 3663SOL    HW122451   0.529   0.498   4.150 -0.6715 -0.2596  0.9365
 3663SOL    HW222452   0.415   0.415   4.109 -1.8298  0.6047 -0.8948
 3664SOL     OW22453   1.900   1.977  17.498  0.3105 -0.0043  0.2831
 3664SOL    HW122454   1.944   1.920  17.561  0.8720  0.0744 -0.0337
 3664SOL    HW222455   1.966   2.021  17.444  1.1078 -1.4898  0.0432
 3665SOL     OW22456   3.430   1.006  12.588  0.3081 -0.2839 -0.2723
 3665SOL    HW122457   3.515   0.999  12.632  0.7338  0.3924 -0.9916
 3665SOL    HW222458   3.448   0.944  12.518  0.8942 -0.3580 -0.0585
 3666SOL     OW22459   4.715   0.748   3.661 -0.1952  0.0270  0.2593
 3666SOL    HW122460   0.067   0.770   3.610  0.5728 -4.1917 -0.3983
 3666SOL    HW222461   4.672   0.682   3.606 -3.3964  2.3178  0.0187
 3667SOL     OW22462   1.398   4.548   4.417 -0.3418  0.1739  0.1699
 3667SOL    HW122463   1.339   4.574   4.345 -1.1259 -1.7399  0.1128
 3667SOL    HW222464   1.473   4.512   4.371  0.4852  0.5642  1.2159
 3668SOL     OW22465   3.924   3.328   2.074  0.4836 -0.7210  0.4989
 3668SOL    HW122466   3.933   3.233   2.081  1.0691 -0.7789 -0.9424
 3668SOL    HW222467   3.984   3.375   2.132 -0.3871  0.8616  0.1445
 3669SOL     OW22468   0.633   1.302   9.228  0.1304 -0.2859 -0.3436
 3669SOL    HW122469   0.707   1.360   9.245  0.1053  0.4932 -2.9462
 3669SOL    HW222470   0.551   1.338   9.261  0.8582 -0.1786  1.3804
 3670SOL     OW22471   3.523   3.017   0.092 -0.0833 -0.7927  0.3826
 3670SOL    HW122472   3.512   2.997  17.702  0.7569  0.5107  0.0145
 3670SOL    HW222473   3.525   2.926   0.122  0.5373 -0.3653  1.6135
 3671SOL     OW22474   2.454   4.273   2.147 -0.2972 -0.8406  0.4985
 3671SOL    HW122475   2.416   4.188   2.122  2.0594 -2.0177  0.9120
 3671SOL    HW222476   2.491   4.304   2.064  0.5027 -0.9849  0.8000
 3672SOL     OW22477   1.695   2.762  12.277 -0.1352 -0.2770  0.2668
 3672SOL    HW122478   1.762   2.790  12.215 -1.0387  2.4035  0.4913
 3672SOL    HW222479   1.734   2.679  12.304 -0.6785 -0.6280 -0.0230
 3673SOL     OW22480   2.768   1.984   3.258 -0.2898 -0.1414  0.2047
 3673SOL    HW122481   2.784   1.910   3.199  1.0907 -0.7367  1.3147
 3673SOL    HW222482   2.861   2.001   3.276  0.1670 -1.4975 -0.8475
 3674SOL     OW22483   2.918   3.507  15.376 -0.3727  0.5077  0.5883
 3674SOL    HW122484   2.851   3.557  15.423 -1.9596  0.0122 -1.1035
 3674SOL    HW222485   2.885   3.512  15.286 -1.0601  3.0155  0.9951
 3675SOL     OW22486   2.314   3.585   3.574  0.0368  0.5157 -0.3791
 3675SOL    HW122487   2.286   3.677   3.575 -1.8328 -0.0749  0.6679
 3675SOL    HW222488   2.255   3.549   3.508  1.8003 -1.9675 -0.6068
 3676SOL     OW22489   0.855   0.722   5.057  0.1872  0.8237 -0.8756
 3676SOL    HW122490   0.928   0.785   5.064  1.1670 -0.8986  4.4297
 3676SOL    HW222491   0.912   0.653   5.025  1.4902  1.1023  0.8268
 3677SOL     OW22492   2.443   3.290   6.272 -0.4871 -0.2178 -0.3740
 3677SOL    HW122493   2.496   3.228   6.323  0.9971  2.9602  1.9550
 3677SOL    HW222494   2.353   3.270   6.296 -0.5638  0.0129 -0.4669
 3678SOL     OW22495   1.599   4.332   5.208 -0.6830  0.3529 -0.3655
 3678SOL    HW122496   1.574   4.384   5.132 -1.3723  0.2676 -0.1992
 3678SOL    HW222497   1.567   4.378   5.285  2.4153 -1.4874  2.0334
 3679SOL     OW22498   1.860   0.857   0.922 -0.2698  0.2335  0.0687
 3679SOL    HW122499   1.801   0.918   0.878  1.3379  2.3938  0.9363
 3679SOL    HW222500   1.902   0.913   0.988  0.0006  0.7536 -0.5489
 3680SOL     OW22501   1.108   1.415   8.391 -0.4385  0.2066  0.6971
 3680SOL    HW122502   1.052   1.415   8.313  1.4573 -3.0200 -0.6810
 3680SOL    HW222503   1.050   1.456   8.455 -1.4084  1.9071 -1.3141
 3681SOL     OW22504   4.080   3.977   5.091 -0.2408 -0.2253  0.3553
 3681SOL    HW122505   3.985   3.971   5.103 -0.4237 -0.9736 -1.4609
 3681SOL    HW222506   4.073   3.949   5.000  1.8906  1.4389 -0.2955
 3682SOL     OW22507   1.607   0.974   0.882  0.1080 -0.4039  0.2112
 3682SOL    HW122508   1.563   0.938   0.806 -2.6671  2.7898  0.2922
 3682SOL    HW222509   1.539   0.961   0.949  0.0517 -0.0359  0.2251
 3683SOL     OW22510   0.817   2.458  15.324  0.7873 -0.3041 -0.7849
 3683SOL    HW122511   0.906   2.489  15.344  0.1881 -0.0967  1.5609
 3683SOL    HW222512   0.764   2.507  15.386 -0.1778 -0.8900 -1.1575
 3684SOL     OW22513   0.628   1.326   4.427 -0.6668 -0.3313  0.2661
 3684SOL    HW122514   0.690   1.398   4.419 -0.0234 -0.7194  1.6340
 3684SOL    HW222515   0.613   1.334   4.522 -0.3410  0.9297  0.2123
 3685SOL     OW22516   2.860   0.359   3.007 -0.4852  0.3265  0.6743
 3685SOL    HW122517   2.909   0.428   2.962  1.3428 -0.8509  0.8774
 3685SOL    HW222518   2.776   0.404   3.018 -0.1096  1.3182 -0.4424
 3686SOL     OW22519   3.853   3.569   4.119  0.3768 -0.0055 -0.1046
 3686SOL    HW122520   3.779   3.564   4.180  0.0136 -2.9816 -0.7911
 3686SOL    HW222521   3.823   3.508   4.052 -0.9421  2.1515 -1.4714
 3687SOL     OW22522   4.538   3.063   7.733 -0.1013  0.4777  0.1592
 3687SOL    HW122523   4.463   3.103   7.689  0.0690 -0.6526 -1.1728
 3687SOL    HW222524   4.616   3.110   7.703 -0.1321 -0.9236 -2.1092
 3688SOL     OW22525   2.343   3.554   6.053 -0.1004 -0.3003 -0.0737
 3688SOL    HW122526   2.275   3.602   6.007  0.9327  0.4007 -0.8595
 3688SOL    HW222527   2.339   3.470   6.008 -1.2370 -1.0047  1.3317
 3689SOL     OW22528   0.536   4.208  16.858 -0.5366 -0.2281 -0.4882
 3689SOL    HW122529   0.525   4.300  16.881 -0.5027 -0.4729  0.5333
 3689SOL    HW222530   0.595   4.222  16.784 -2.0001 -0.6405 -1.7233
 3690SOL     OW22531   0.815   3.709  14.177 -0.4557  0.2136 -0.3697
 3690SOL    HW122532   0.745   3.704  14.113 -0.2861 -0.6584 -0.4861
 3690SOL    HW222533   0.773   3.681  14.259  3.4450 -1.2618  1.1479
 3691SOL     OW22534   1.542   2.532   1.755 -0.1266 -0.4554 -0.1525
 3691SOL    HW122535   1.564   2.550   1.847 -2.2260  2.2952 -0.2027
 3691SOL    HW222536   1.480   2.459   1.760 -0.2570 -0.3881 -0.8982
 3692SOL     OW22537   3.558   4.564  10.189  0.1571 -0.1459 -0.0442
 3692SOL    HW122538   3.601   4.543  10.273  0.0756 -0.4816 -0.0861
 3692SOL    HW222539   3.592   4.651  10.167 -0.1836 -0.0194 -0.0640
 3693SOL     OW22540   0.414   1.753   6.227 -0.0082  0.1632  0.5734
 3693SOL    HW122541   0.449   1.664   6.234 -0.4176 -0.1594 -1.3203
 3693SOL    HW222542   0.328   1.717   6.250  0.2843  0.0671  1.5001
 3694SOL     OW22543   4.592   0.711   8.920  0.1168 -0.3764  0.0329
 3694SOL    HW122544   4.677   0.705   8.876 -0.9918  0.8851 -2.2845
 3694SOL    HW222545   4.535   0.674   8.854  1.0458  0.2635 -1.1338
 3695SOL     OW22546   1.148   0.902   0.988  0.3968 -0.0293 -0.1029
 3695SOL    HW122547   1.085   0.949   1.042  0.3035  2.0472 -2.0098
 3695SOL    HW222548   1.100   0.901   0.905 -0.2109 -2.3767  0.2620
 3696SOL     OW22549   4.069   1.946  15.068  0.2432  0.6161  0.5839
 3696SOL    HW122550   3.986   1.908  15.094 -0.5321  1.5824 -0.4874
 3696SOL    HW222551   4.067   2.038  15.093  1.1100  0.6845  0.4376
 3697SOL     OW22552   0.882   4.308   6.337 -0.6536 -0.2390  0.1296
 3697SOL    HW122553   0.791   4.279   6.330 -0.3725 -0.5637 -2.4290
 3697SOL    HW222554   0.919   4.257   6.409 -0.3434 -0.3649 -0.1151
 3698SOL     OW22555   0.104   0.872   6.207  0.4339 -0.9227 -0.3165
 3698SOL    HW122556   0.151   0.810   6.152  1.2411  0.7022 -1.4630
 3698SOL    HW222557   0.080   0.940   6.143 -2.2472  1.0499  2.7568
 3699SOL     OW22558   2.317   3.581  15.617 -0.6292  0.4801 -0.1814
 3699SOL    HW122559   2.262   3.608  15.691 -1.3239 -0.0566 -0.4963
 3699SOL    HW222560   2.252   3.598  15.549  1.6318  0.0961 -2.4454
 3700SOL     OW22561   4.599   4.395  16.126  0.6712  0.0154 -0.4976
 3700SOL    HW122562   4.560   4.382  16.039  1.8040  2.7258 -1.4250
 3700SOL    HW222563   4.523   4.430  16.173  1.4668  0.3336  0.5306
 3701SOL     OW22564   2.122   3.818  12.979  0.2572  0.0615 -0.0555
 3701SOL    HW122565   2.202   3.777  13.010 -0.0792 -0.6037 -0.0701
 3701SOL    HW222566   2.126   3.912  12.999 -0.4175  0.1945 -0.5256
 3702SOL     OW22567   0.304   4.278   4.222  0.2251  0.0824  0.5484
 3702SOL    HW122568   0.253   4.315   4.150 -0.2924 -1.2235  0.2434
 3702SOL    HW222569   0.229   4.253   4.277 -0.2588  0.2291 -0.0460
 3703SOL     OW22570   2.181   1.116   1.970  0.1582 -0.0156  0.9694
 3703SOL    HW122571   2.131   1.040   1.939 -0.5929  0.4229  1.1097
 3703SOL    HW222572   2.251   1.062   2.007  0.7971 -1.1114 -1.8050
 3704SOL     OW22573   1.816   1.829   5.106  0.1167 -0.0384  0.0398
 3704SOL    HW122574   1.750   1.870   5.162  0.1590  1.1451 -0.7776
 3704SOL    HW222575   1.831   1.747   5.152  0.7054 -0.8657 -1.5986
 3705SOL     OW22576   2.023   0.799   3.173 -0.2896 -0.1321  0.3884
 3705SOL    HW122577   1.958   0.833   3.112 -0.3663  1.6529  1.4569
 3705SOL    HW222578   2.088   0.771   3.109 -0.9197  0.2884 -0.4290
 3706SOL     OW22579   4.000   1.992  12.398 -0.0516  0.0038  0.0669
 3706SOL    HW122580   3.921   1.973  12.449 -0.0129  2.1705  0.9044
 3706SOL    HW222581   4.020   2.075  12.440  2.6921  0.7781 -2.7963
 3707SOL     OW22582   4.073   0.312   8.965 -0.2916 -0.2362  0.1224
 3707SOL    HW122583   4.043   0.282   8.880 -0.1383 -1.6940  0.5789
 3707SOL    HW222584   3.993   0.327   9.016  0.0496  2.0971 -0.0215
 3708SOL     OW22585   3.639   1.575   9.588 -0.4512 -0.3197  0.3314
 3708SOL    HW122586   3.707   1.566   9.656 -0.3424 -0.6150  0.1871
 3708SOL    HW222587   3.624   1.669   9.589 -1.0993 -0.4304  0.4803
 3709SOL     OW22588   4.020   3.635   0.521 -0.5477  0.5069  0.2663
 3709SOL    HW122589   3.989   3.650   0.610 -1.2347  2.7873 -0.3590
 3709SOL    HW222590   3.988   3.545   0.511  1.0427 -0.1224  0.8234
 3710SOL     OW22591   4.413   1.138   7.910  0.1406 -0.1229 -0.3935
 3710SOL    HW122592   4.466   1.112   7.985  0.0355  0.4088 -0.1383
 3710SOL    HW222593   4.452   1.223   7.889 -0.6150  0.6888  1.5692
 3711SOL     OW22594   3.551   4.107   2.645  0.5505  0.3430 -0.3293
 3711SOL    HW122595   3.549   4.199   2.672 -2.9103  0.2744 -0.2750
 3711SOL    HW222596   3.550   4.069   2.732 -0.1336  0.6432 -0.2001
 3712SOL     OW22597   0.578   2.013   3.486  0.2467 -0.4733 -0.0433
 3712SOL    HW122598   0.670   1.999   3.507 -0.0255 -0.3976  1.2525
 3712SOL    HW222599   0.561   1.932   3.437 -1.5936 -0.3671  0.3903
 3713SOL     OW22600   3.754   3.217   1.096 -0.1147 -0.5786 -0.1798
 3713SOL    HW122601   3.711   3.136   1.068 -0.7441 -0.8805  1.6255
 3713SOL    HW222602   3.689   3.277   1.061  3.2604  1.7151 -2.5445
 3714SOL     OW22603   4.164   0.298  15.939  0.1690  0.3055  0.0315
 3714SOL    HW122604   4.151   0.314  16.033  2.4561 -1.9031  0.7175
 3714SOL    HW222605   4.078   0.260  15.921  0.2935  0.4712 -0.8884
 3715SOL     OW22606   0.069   1.115   6.393 -0.2557 -0.3156 -0.2341
 3715SOL    HW122607   0.112   1.030   6.391  0.6726  0.1641 -0.7105
 3715SOL    HW222608   0.022   1.116   6.309 -0.6626 -2.9895 -0.0309
 3716SOL     OW22609   2.112   0.593   3.802  0.0479  0.1188  0.4139
 3716SOL    HW122610   2.071   0.565   3.720  0.2891 -1.6239  0.8985
 3716SOL    HW222611   2.190   0.639   3.770  0.0031 -0.5871 -0.7082
 3717SOL     OW22612   0.797   1.598   2.894 -0.2729  0.1832  0.5194
 3717SOL    HW122613   0.877   1.565   2.854  0.2193  1.6506  0.2850
 3717SOL    HW222614   0.795   1.540   2.970 -2.0445  2.3598  2.1471
 3718SOL     OW22615   0.101   0.526   1.705 -0.1190  0.0547 -0.2900
 3718SOL    HW122616   0.091   0.474   1.625  2.5415  0.1278 -0.6757
 3718SOL    HW222617   0.022   0.490   1.744  0.0768 -0.1316 -0.0677
 3719SOL     OW22618   0.004   4.206   4.226  0.4777  0.1569 -0.7919
 3719SOL    HW122619   4.681   4.155   4.160 -3.3284  1.2531  1.1589
 3719SOL    HW222620   4.665   4.276   4.238 -0.7564 -1.1486  0.2431
 3720SOL     OW22621   1.149   0.818   3.266 -0.1990  0.5369  0.7611
 3720SOL    HW122622   1.233   0.862   3.252 -0.0053 -0.6153 -1.7469
 3720SOL    HW222623   1.083   0.879   3.234  0.7273  0.2360 -1.7468
 3721SOL     OW22624   2.179   4.311   7.000 -0.1661 -0.5747  0.0033
 3721SOL    HW122625   2.196   4.337   6.910 -0.9567  0.7076  0.2207
 3721SOL    HW222626   2.233   4.233   7.015  0.7217 -0.0036 -0.2098
 3722SOL     OW22627   2.999   0.361  17.394  0.0637 -0.5410  0.2176
 3722SOL    HW122628   3.046   0.317  17.323  0.3627 -0.3162  0.2769
 3722SOL    HW222629   2.909   0.341  17.368 -0.0610 -0.7347  0.8018
 3723SOL     OW22630   1.261   3.042   3.751  0.3355 -0.0853  0.0386
 3723SOL    HW122631   1.276   3.011   3.662 -0.2571 -0.0792 -0.0641
 3723SOL    HW222632   1.338   3.098   3.764 -0.1310  0.7931 -1.0237
 3724SOL     OW22633   2.770   2.604   5.696 -0.1649  0.2346 -0.1405
 3724SOL    HW122634   2.769   2.682   5.752  0.8790 -0.9784  1.5730
 3724SOL    HW222635   2.680   2.569   5.698  0.5887 -1.7093 -0.5787
 3725SOL     OW22636   4.205   1.763   4.230  0.8191 -0.4333 -0.4059
 3725SOL    HW122637   4.241   1.695   4.173 -0.5725 -1.6037  0.1122
 3725SOL    HW222638   4.133   1.794   4.175 -0.7399 -0.5709  1.5567
 3726SOL     OW22639   1.493   0.424  17.584 -0.2968  0.9058 -0.1111
 3726SOL    HW122640   1.577   0.379  17.583 -0.7037  0.1968 -3.0384
 3726SOL    HW222641   1.505   0.501  17.639 -1.2781  1.7399 -1.0487
 3727SOL     OW22642   0.752   3.764   6.295 -0.1010 -0.7252 -0.1626
 3727SOL    HW122643   0.804   3.683   6.292 -1.1956 -1.3464 -1.9461
 3727SOL    HW222644   0.785   3.812   6.219 -1.3039  1.3347  0.6278
 3728SOL     OW22645   2.086   4.574   5.730  0.1882  0.2163 -0.5735
 3728SOL    HW122646   2.110   4.586   5.638 -1.6038 -0.9603 -1.1903
 3728SOL    HW222647   2.053   4.661   5.754 -0.4946 -0.5442  1.2798
 3729SOL     OW22648   3.862   0.387   5.832 -0.0048 -0.6087 -0.0776
 3729SOL    HW122649   3.888   0.448   5.901 -4.0412  0.2271  0.6987
 3729SOL    HW222650   3.806   0.443   5.778  1.3401 -0.1550 -1.0230
 3730SOL     OW22651   1.580   1.363   8.940 -0.3827 -0.5081  0.3959
 3730SOL    HW122652   1.511   1.426   8.961  1.6625  2.0941 -0.7602
 3730SOL    HW222653   1.541   1.316   8.867 -0.4783  1.7145 -0.9684
 3731SOL     OW22654   0.722   0.105   4.257  0.0063 -0.1626  0.2388
 3731SOL    HW122655   0.794   0.057   4.297 -1.2759 -0.0853  2.6391
 3731SOL    HW222656   0.778   0.163   4.205  0.8889 -0.6987  0.5810
 3732SOL     OW22657   4.390   4.156   7.022 -0.0434  0.4168 -0.2738
 3732SOL    HW122658   4.352   4.139   6.936 -2.2217 -1.3693  1.0647
 3732SOL    HW222659   4.343   4.099   7.081  0.9373 -0.4971 -0.3676
 3733SOL     OW22660   1.001   1.297  11.038  0.3086 -0.2142 -0.4083
 3733SOL    HW122661   0.945   1.366  11.003  0.3294  1.0542  2.0434
 3733SOL    HW222662   0.941   1.254  11.099  1.7122  0.5238  1.4848
 3734SOL     OW22663   4.507   2.937   7.280 -0.2972 -0.2354  0.6261
 3734SOL    HW122664   4.594   2.965   7.254 -1.3975  1.5966 -1.0605
 3734SOL    HW222665   4.526   2.940   7.374  1.8463  1.1852  0.1407
 3735SOL     OW22666   2.516   1.830  13.400  0.0822  0.3051  0.1222
 3735SOL    HW122667   2.479   1.853  13.485  1.0805  0.6260  0.4818
 3735SOL    HW222668   2.464   1.875  13.334 -0.4125  1.2156  1.1443
 3736SOL     OW22669   1.094   0.453   2.214  0.0080 -0.2920  0.0504
 3736SOL    HW122670   1.002   0.477   2.206 -0.0927 -0.5065  0.6300
 3736SOL    HW222671   1.086   0.358   2.204  0.8318 -0.2926 -0.6560
 3737SOL     OW22672   4.492   1.339   1.634 -0.3759  0.1635 -0.4755
 3737SOL    HW122673   4.543   1.283   1.693  1.0442  1.0383 -0.8655
 3737SOL    HW222674   4.412   1.286   1.626  1.1446 -2.2321  0.0768
 3738SOL     OW22675   1.403   1.989  14.016  0.8211  0.0679  0.0068
 3738SOL    HW122676   1.319   1.943  14.007  0.2148  0.9984  0.9773
 3738SOL    HW222677   1.374   2.021  14.101 -2.5779 -2.2612 -0.2450
 3739SOL     OW22678   0.674   1.088   5.095  0.1477  0.3617  0.1772
 3739SOL    HW122679   0.708   1.064   5.182 -0.2054 -0.9570 -0.0455
 3739SOL    HW222680   0.658   1.001   5.058 -1.3928 -0.1175  1.9503
 3740SOL     OW22681   2.901   0.466   1.571  0.1560 -0.1855 -0.0805
 3740SOL    HW122682   2.856   0.528   1.513  1.1289 -0.4001 -1.0713
 3740SOL    HW222683   2.832   0.415   1.614  0.0220  1.0762  1.2254
 3741SOL     OW22684   3.063   0.067   6.925 -1.2985  0.2931  0.6335
 3741SOL    HW122685   2.982   0.084   6.971 -1.5478 -2.3157  1.1758
 3741SOL    HW222686   3.127   0.121   6.972 -0.3205 -0.2793 -0.0218
 3742SOL     OW22687   0.283   1.321   6.849  0.3312 -0.0480  1.0114
 3742SOL    HW122688   0.218   1.252   6.852  1.4247 -1.1408 -0.3938
 3742SOL    HW222689   0.334   1.291   6.924  1.1208 -1.5260 -0.1145
 3743SOL     OW22690   0.850   1.380   6.219 -0.3222 -0.1292 -0.3023
 3743SOL    HW122691   0.907   1.407   6.146  0.7328  0.1686  0.6316
 3743SOL    HW222692   0.842   1.453   6.280  2.6512  1.2833 -1.5870
 3744SOL     OW22693   1.714   2.088   1.399  0.4592 -0.0066  0.0270
 3744SOL    HW122694   1.690   2.094   1.306 -1.0805 -1.7815  0.3195
 3744SOL    HW222695   1.769   2.165   1.416 -1.7472  1.4964  0.3892
 3745SOL     OW22696   1.680   2.737   4.233 -0.5703 -0.2693  0.4829
 3745SOL    HW122697   1.755   2.728   4.175 -0.9623 -0.8745  0.0793
 3745SOL    HW222698   1.659   2.645   4.249 -0.1770 -0.2424  1.1702
 3746SOL     OW22699   2.837   3.172   7.331  0.0164  0.2312  0.3834
 3746SOL    HW122700   2.868   3.260   7.308 -0.2247 -0.0743 -1.1044
 3746SOL    HW222701   2.923   3.144   7.362  0.3746  0.6174 -0.2532
 3747SOL     OW22702   1.826   0.254   7.409 -0.1077 -0.4109  0.3181
 3747SOL    HW122703   1.835   0.159   7.401 -2.0796 -0.6262  0.7258
 3747SOL    HW222704   1.851   0.272   7.499  0.2344  1.5575 -0.1464
 3748SOL     OW22705   3.070   0.499  10.845  0.0175  0.2319 -0.1993
 3748SOL    HW122706   3.078   0.582  10.892 -0.0748  0.6123 -0.8576
 3748SOL    HW222707   2.999   0.520  10.785 -0.0579 -4.2653 -1.7250
 3749SOL     OW22708   3.443   4.160  11.131  0.4370  0.1305 -0.0223
 3749SOL    HW122709   3.503   4.088  11.149  1.4243  1.5562  2.4041
 3749SOL    HW222710   3.368   4.106  11.105 -1.1308  1.5068  1.5552
 3750SOL     OW22711   3.205   2.678   6.470 -0.3047 -0.2424  0.3817
 3750SOL    HW122712   3.252   2.659   6.389  1.5802  0.4817  1.3132
 3750SOL    HW222713   3.276   2.667   6.533 -0.3933 -1.2860  0.2878
 3751SOL     OW22714   2.494   1.959   5.549  0.6627  0.4533  0.1093
 3751SOL    HW122715   2.404   1.938   5.525  0.8098 -0.5982  0.4441
 3751SOL    HW222716   2.519   1.989   5.462  1.0704  1.7410  0.6799
 3752SOL     OW22717   4.500   0.853   4.387  0.0269  0.4882  0.1962
 3752SOL    HW122718   4.452   0.778   4.422  1.3819 -0.3922  0.1875
 3752SOL    HW222719   4.430   0.912   4.361  0.2248  1.4174  1.7867
 3753SOL     OW22720   2.674   4.570   7.372  0.0487  0.4515  0.1587
 3753SOL    HW122721   2.625   4.533   7.299  0.4358  0.0987  0.0818
 3753SOL    HW222722   2.746   4.617   7.331  0.4490  0.7393  1.1834
 3754SOL     OW22723   2.095   3.745   9.978 -0.2645  0.2477  0.3887
 3754SOL    HW122724   2.133   3.828   9.951  0.2312 -0.0060  0.3022
 3754SOL    HW222725   2.095   3.696   9.896 -0.3420  0.3781  0.3098
 3755SOL     OW22726   3.578   0.746   3.958 -0.0838  0.2424 -0.1320
 3755SOL    HW122727   3.625   0.663   3.951 -0.2072  0.4509 -3.3520
 3755SOL    HW222728   3.633   0.811   3.915  1.6929 -0.5410  0.9533
 3756SOL     OW22729   3.442   2.542  16.398  0.2263 -0.3390  0.2106
 3756SOL    HW122730   3.403   2.456  16.379  0.1064 -0.6639  1.9654
 3756SOL    HW222731   3.384   2.581  16.463 -0.3032  0.5628 -0.8120
 3757SOL     OW22732   3.171   2.130  11.680 -0.5859 -0.0531 -0.1345
 3757SOL    HW122733   3.223   2.054  11.703  1.5303  2.1804  2.4830
 3757SOL    HW222734   3.218   2.205  11.717 -1.5496 -0.3574  1.7271
 3758SOL     OW22735   3.879   1.591   6.000 -0.6127  0.2352  0.4007
 3758SOL    HW122736   3.973   1.584   5.989 -0.5495  1.2192  0.3119
 3758SOL    HW222737   3.847   1.567   5.913 -0.3018 -0.1048  0.3842
 3759SOL     OW22738   1.692   1.687   6.775  0.9074 -0.0647 -0.0059
 3759SOL    HW122739   1.675   1.628   6.848 -0.1223  0.2311 -0.0025
 3759SOL    HW222740   1.694   1.617   6.710 -2.2176 -1.4758  1.4164
 3760SOL     OW22741   2.878   2.475  13.110 -0.4698  0.1495  0.2728
 3760SOL    HW122742   2.865   2.426  13.028  0.2649 -1.4937  1.1265
 3760SOL    HW222743   2.831   2.557  13.098 -0.2436  0.0643 -1.2497
 3761SOL     OW22744   1.209   2.386   3.098  0.3024 -0.1023  0.3871
 3761SOL    HW122745   1.303   2.402   3.098 -0.0200  1.8957  0.3992
 3761SOL    HW222746   1.184   2.377   3.005  0.2606  1.6411  0.2185
 3762SOL     OW22747   3.196   2.299   5.446 -0.7320 -0.6309  0.1673
 3762SOL    HW122748   3.250   2.366   5.404 -1.0182 -1.2504 -1.1636
 3762SOL    HW222749   3.117   2.350   5.460  0.7469  1.7945 -0.2311
 3763SOL     OW22750   2.334   2.945  17.092  1.1800 -0.2193  0.1589
 3763SOL    HW122751   2.257   2.955  17.036 -0.6179  1.1705  2.8828
 3763SOL    HW222752   2.310   3.001  17.166 -0.3180 -0.3538 -0.2120
 3764SOL     OW22753   0.118   4.444   2.778 -0.1929  0.6481 -0.1371
 3764SOL    HW122754   0.130   4.508   2.708 -1.3294  1.2431  0.1985
 3764SOL    HW222755   0.036   4.406   2.745  1.4363 -1.2483 -1.9909
 3765SOL     OW22756   1.273   2.483  11.771 -0.1203  0.0928  0.3909
 3765SOL    HW122757   1.202   2.484  11.836  0.2750  0.2103  0.8266
 3765SOL    HW222758   1.308   2.569  11.796 -2.3937  1.1049  0.0966
 3766SOL     OW22759   3.062   0.861   3.651 -0.4103 -0.0926  0.5172
 3766SOL    HW122760   3.001   0.927   3.617 -0.0632 -0.2490 -0.4220
 3766SOL    HW222761   3.135   0.911   3.687  1.2030 -1.3111 -1.0602
 3767SOL     OW22762   3.605   0.337   0.160 -0.3779 -0.4185 -0.3620
 3767SOL    HW122763   3.623   0.340   0.066  0.3733 -2.1311 -0.2743
 3767SOL    HW222764   3.605   0.243   0.177  1.4074 -0.5169 -0.9508
 3768SOL     OW22765   0.917   3.735  11.000  0.1214 -0.4386  0.2656
 3768SOL    HW122766   0.878   3.821  11.013  0.2130 -0.1024 -1.6435
 3768SOL    HW222767   0.927   3.703  11.089  0.4327 -0.7387  0.1236
 3769SOL     OW22768   4.472   1.834  13.657  0.1290 -0.1603 -0.0509
 3769SOL    HW122769   4.459   1.918  13.614 -0.4645  1.1082  2.6061
 3769SOL    HW222770   4.425   1.781  13.593  1.7540 -1.2870 -0.3184
 3770SOL     OW22771   1.210   1.139   0.875 -0.1229 -0.2896  0.2927
 3770SOL    HW122772   1.160   1.136   0.793  0.4641  0.5296 -0.0849
 3770SOL    HW222773   1.200   1.049   0.905 -1.3598 -0.4761 -0.6748
 3771SOL     OW22774   1.831   2.067   6.084  0.5132  0.4125 -0.0997
 3771SOL    HW122775   1.865   1.977   6.077  0.7514  0.4416  0.6158
 3771SOL    HW222776   1.791   2.074   6.171  1.7573  1.1014  0.4230
 3772SOL     OW22777   0.525   2.444   4.258  0.0299  0.1561 -0.2236
 3772SOL    HW122778   0.477   2.469   4.337 -0.3086 -1.1915  0.0012
 3772SOL    HW222779   0.612   2.469   4.288 -0.6328  0.4507  1.4473
 3773SOL     OW22780   3.282   1.518   7.332  0.3626  0.1205 -0.5327
 3773SOL    HW122781   3.329   1.458   7.274 -0.4920 -0.0583 -1.0421
 3773SOL    HW222782   3.201   1.523   7.281  1.0254  1.0666 -1.5083
 3774SOL     OW22783   0.121   1.795   9.157  0.0256  0.2947  0.1329
 3774SOL    HW122784   0.165   1.809   9.073 -0.1868 -0.4593 -0.1118
 3774SOL    HW222785   0.149   1.864   9.216  2.0510 -0.5517  0.1628
 3775SOL     OW22786   3.373   0.781   3.625 -0.0570 -0.5858 -0.1478
 3775SOL    HW122787   3.350   0.727   3.701 -0.8819 -0.6272 -0.4333
 3775SOL    HW222788   3.336   0.733   3.551  1.4297 -1.0803 -0.5854
 3776SOL     OW22789   3.228   3.842   5.353 -0.4362 -0.1834 -0.7392
 3776SOL    HW122790   3.136   3.819   5.361 -0.5352 -0.4185 -2.5383
 3776SOL    HW222791   3.271   3.756   5.344 -0.8442 -0.4012 -0.5990
 3777SOL     OW22792   0.259   3.149   0.305 -0.1509  0.1997  0.4457
 3777SOL    HW122793   0.308   3.173   0.384  1.5574 -1.1007 -0.2347
 3777SOL    HW222794   0.316   3.175   0.232 -0.7477  1.1752  0.3330
 3778SOL     OW22795   0.113   2.099   4.406 -0.5961  0.3705 -1.0531
 3778SOL    HW122796   0.045   2.065   4.348 -0.9304 -0.7589  0.0160
 3778SOL    HW222797   0.065   2.162   4.459  0.8866 -0.7723  1.6536
 3779SOL     OW22798   4.694   2.352  10.089 -0.4521 -0.3927 -0.1092
 3779SOL    HW122799   4.705   2.396  10.005  1.7790 -0.3145  0.2210
 3779SOL    HW222800   0.022   2.275  10.066  2.9567  1.3611  1.8309
 3780SOL     OW22801   0.501   1.541  10.823  0.0292  0.1119 -0.2840
 3780SOL    HW122802   0.534   1.491  10.898 -1.3778  0.6201  0.6634
 3780SOL    HW222803   0.502   1.463  10.768  0.7540 -0.0880  0.0140
 3781SOL     OW22804   4.582   1.498   4.344 -0.2294  0.0970  0.2592
 3781SOL    HW122805   4.508   1.551   4.374 -0.9742 -1.4983  1.2246
 3781SOL    HW222806   4.650   1.561   4.321 -1.8597  1.8383  0.2403
 3782SOL     OW22807   3.811   3.931   5.102 -0.2837  0.2513  0.9375
 3782SOL    HW122808   3.797   3.837   5.113  1.2184 -0.0263  0.4723
 3782SOL    HW222809   3.725   3.958   5.069  0.5839  0.5173 -1.0496
 3783SOL     OW22810   3.798   0.417   8.909 -0.1309  1.2977  0.8646
 3783SOL    HW122811   3.772   0.353   8.844  2.1583  0.4977  0.7475
 3783SOL    HW222812   3.731   0.407   8.977  0.3456 -2.5243  0.7969
 3784SOL     OW22813   1.482   3.490  12.982  0.0143  0.2423 -0.0247
 3784SOL    HW122814   1.578   3.487  12.976 -0.1605 -0.5572 -2.2658
 3784SOL    HW222815   1.467   3.428  13.054 -0.7692  0.2137 -0.2176
 3785SOL     OW22816   1.040   1.728  11.398 -0.3767  0.3186  0.4633
 3785SOL    HW122817   1.059   1.821  11.389 -0.4699  0.0698 -2.2682
 3785SOL    HW222818   0.956   1.734  11.442 -0.4214  1.1091  0.2726
 3786SOL     OW22819   1.010   0.173   5.152  0.3729  0.8400 -0.8407
 3786SOL    HW122820   0.957   0.209   5.223 -0.9502  1.0980 -1.9791
 3786SOL    HW222821   1.084   0.234   5.164  0.5130  1.0821 -3.0238
 3787SOL     OW22822   0.360   0.315  16.319 -0.9854 -0.2097  0.3203
 3787SOL    HW122823   0.300   0.275  16.382 -2.5490  1.1715 -0.2851
 3787SOL    HW222824   0.305   0.307  16.241  0.1922 -0.1333 -0.5177
 3788SOL     OW22825   2.748   1.385   2.773 -0.0239 -0.7141  0.8893
 3788SOL    HW122826   2.804   1.336   2.713 -0.9785 -0.1238 -0.4796
 3788SOL    HW222827   2.671   1.401   2.718 -1.6916 -2.8795  2.6090
 3789SOL     OW22828   3.319   3.052  13.879 -0.6317  0.6263  0.0227
 3789SOL    HW122829   3.241   3.056  13.934  0.6271  0.4419  1.8355
 3789SOL    HW222830   3.340   2.960  13.896 -3.5557 -0.0485 -0.0049
 3790SOL     OW22831   4.335   0.777   4.631  0.1116  0.2389 -0.1618
 3790SOL    HW122832   4.422   0.816   4.628  0.2011  0.1271  0.8622
 3790SOL    HW222833   4.345   0.705   4.694 -1.1748  0.9634  0.8763
 3791SOL     OW22834   1.932   0.444   5.409  0.2817  0.2159  0.3865
 3791SOL    HW122835   1.953   0.537   5.406 -1.6127  0.7664  3.2504
 3791SOL    HW222836   1.837   0.454   5.416  0.0436 -0.4903 -2.0933
 3792SOL     OW22837   1.644   0.273   8.400  0.1098  0.1476 -0.6094
 3792SOL    HW122838   1.692   0.356   8.394  0.5196 -0.1921 -2.0541
 3792SOL    HW222839   1.713   0.224   8.445 -0.4724  0.3710  0.5391
 3793SOL     OW22840   3.018   2.287   9.277  0.4134  0.4271  0.4608
 3793SOL    HW122841   3.046   2.197   9.257  2.6075  0.4303  3.5454
 3793SOL    HW222842   3.029   2.323   9.189 -1.9538  0.3094  0.1303
 3794SOL     OW22843   2.234   2.818   5.256  0.0455 -0.3388  0.1759
 3794SOL    HW122844   2.171   2.768   5.307 -0.4192  0.4752  0.4003
 3794SOL    HW222845   2.219   2.783   5.168 -1.0073 -1.2168  0.7148
 3795SOL     OW22846   1.685   1.359  14.240 -0.1061 -0.2402  0.0900
 3795SOL    HW122847   1.770   1.329  14.208 -0.6167 -0.8079 -0.7589
 3795SOL    HW222848   1.704   1.403  14.322  1.5881 -0.3293 -0.2676
 3796SOL     OW22849   2.845   4.182   6.425  0.1343  0.4819 -0.4405
 3796SOL    HW122850   2.825   4.091   6.407 -1.2437  0.1468  2.8351
 3796SOL    HW222851   2.930   4.167   6.467 -1.2619 -0.5709  1.9600
 3797SOL     OW22852   2.153   2.621   6.588  0.1123  0.2292 -0.3826
 3797SOL    HW122853   2.139   2.579   6.503 -0.3421 -2.5413  1.0507
 3797SOL    HW222854   2.067   2.608   6.629  0.0865  0.4453 -0.3662
 3798SOL     OW22855   4.542   1.758   5.877 -0.0663 -0.2780 -0.0951
 3798SOL    HW122856   4.570   1.845   5.848  1.4947 -1.5818 -2.5996
 3798SOL    HW222857   4.574   1.761   5.967  2.3119  0.5859 -0.9629
 3799SOL     OW22858   1.674   0.182   5.695  0.2598  0.1174  0.2337
 3799SOL    HW122859   1.634   0.142   5.772 -1.7489 -1.9074 -1.8657
 3799SOL    HW222860   1.699   0.269   5.727  3.1115 -0.9078  0.7129
 3800SOL     OW22861   4.295   3.359   3.056 -0.5145  0.3110 -0.3869
 3800SOL    HW122862   4.201   3.367   3.071 -0.3636 -2.0968  1.6563
 3800SOL    HW222863   4.312   3.273   3.094 -0.7732 -0.1314 -1.2581
 3801SOL     OW22864   1.382   1.262  11.908  0.2521 -0.0447  0.4805
 3801SOL    HW122865   1.337   1.333  11.953  0.8510 -0.2279  1.3784
 3801SOL    HW222866   1.353   1.266  11.817  2.3764  1.3531 -0.1327
 3802SOL     OW22867   0.992   1.693   2.045 -0.4237 -0.1138 -0.1385
 3802SOL    HW122868   1.069   1.649   2.009 -0.9512  0.4101 -1.9340
 3802SOL    HW222869   1.000   1.774   1.995  0.9049 -0.7437 -0.9684
 3803SOL     OW22870   0.462   3.656  16.163  0.5167 -0.0045  0.5664
 3803SOL    HW122871   0.459   3.737  16.113  0.5715 -0.3087  0.0686
 3803SOL    HW222872   0.381   3.658  16.214  0.6364 -0.8473  0.7924
 3804SOL     OW22873   0.258   0.373   5.612  0.1256 -0.0400 -0.5648
 3804SOL    HW122874   0.213   0.313   5.553 -0.2252  0.6127 -0.9607
 3804SOL    HW222875   0.349   0.359   5.586 -0.0192 -0.2193 -0.9680
 3805SOL     OW22876   1.151   4.144  11.550 -0.3086 -0.5456 -0.3632
 3805SOL    HW122877   1.116   4.223  11.592  0.2548 -0.3056 -0.3323
 3805SOL    HW222878   1.219   4.116  11.611 -1.6172 -0.8909  0.9255
 3806SOL     OW22879   1.377   2.656   7.873  0.3646  0.2374 -0.0256
 3806SOL    HW122880   1.392   2.691   7.961 -1.6544  0.8796  0.0649
 3806SOL    HW222881   1.451   2.702   7.833  0.5244 -0.2389 -0.2653
 3807SOL     OW22882   4.198   3.514  15.308  0.0697 -0.2733  0.8621
 3807SOL    HW122883   4.239   3.428  15.294  1.4394  0.7359 -1.3507
 3807SOL    HW222884   4.141   3.498  15.384 -2.0681 -2.5494 -1.2117
 3808SOL     OW22885   0.678   0.300   3.722  0.2450  0.1146  0.2520
 3808SOL    HW122886   0.695   0.227   3.782  0.9061  1.1752  1.3720
 3808SOL    HW222887   0.750   0.291   3.660 -0.9011 -1.0848 -0.8711
 3809SOL     OW22888   4.422   4.638   3.323 -0.4086  0.2034 -0.0965
 3809SOL    HW122889   4.332   4.606   3.332 -0.0445 -0.3459  1.6373
 3809SOL    HW222890   4.426   4.628   3.228 -1.2933 -2.8562  0.1897
 3810SOL     OW22891   2.281   1.244  13.575  0.1684  0.2793  0.4831
 3810SOL    HW122892   2.338   1.168  13.588 -1.6320 -1.2154 -0.4375
 3810SOL    HW222893   2.344   1.300  13.528 -1.0578 -0.0614 -1.5397
 3811SOL     OW22894   2.906   0.642   6.166 -0.1226 -0.4211  0.6522
 3811SOL    HW122895   2.874   0.616   6.080 -2.2773  1.3374  0.9230
 3811SOL    HW222896   2.843   0.588   6.213  0.0340 -1.2502 -0.0832
 3812SOL     OW22897   3.606   4.613   4.515  0.5119 -1.0593 -0.3112
 3812SOL    HW122898   3.560   4.586   4.594 -0.6035 -0.3115 -0.7004
 3812SOL    HW222899   3.547   4.581   4.447  0.0295  1.8842 -1.2849
 3813SOL     OW22900   2.145   3.427   4.477 -0.3253 -0.5529 -0.5198
 3813SOL    HW122901   2.225   3.439   4.528 -1.1425  1.5077  0.2669
 3813SOL    HW222902   2.112   3.340   4.500  1.8398 -0.5977  2.3427
 3814SOL     OW22903   1.166   4.201   7.738 -0.3907  0.3410 -0.4354
 3814SOL    HW122904   1.225   4.232   7.669 -1.0381 -1.3064 -1.7510
 3814SOL    HW222905   1.190   4.259   7.809 -0.4569  0.6941 -0.7018
 3815SOL     OW22906   2.801   2.101   6.847  0.0238  0.2798 -0.0917
 3815SOL    HW122907   2.775   2.010   6.861  1.8561 -0.9202 -4.6165
 3815SOL    HW222908   2.793   2.106   6.752  3.4198 -2.4142 -0.5101
 3816SOL     OW22909   1.481   3.515   0.693  0.5146 -0.5000  0.0459
 3816SOL    HW122910   1.511   3.476   0.610 -1.8107  0.8943 -1.4574
 3816SOL    HW222911   1.420   3.450   0.729  1.3329  0.4573  3.1498
 3817SOL     OW22912   0.961   1.105   8.309  0.3257  0.3379  0.3239
 3817SOL    HW122913   1.033   1.123   8.370  1.0566  0.3818 -0.5549
 3817SOL    HW222914   0.918   1.032   8.353 -2.1430  1.4601 -0.2674
 3818SOL     OW22915   0.322   1.583  15.144  0.1995  0.0512 -0.0001
 3818SOL    HW122916   0.412   1.603  15.117 -0.3230  1.0964 -0.9556
 3818SOL    HW222917   0.267   1.616  15.073  0.5957  2.5132  0.8382
 3819SOL     OW22918   2.725   0.314   1.714 -0.3657  0.0257 -0.1317
 3819SOL    HW122919   2.675   0.339   1.791 -0.6598 -2.8385  0.6003
 3819SOL    HW222920   2.717   0.219   1.719 -0.5302  0.0685  0.3501
 3820SOL     OW22921   0.319   3.329  16.622  0.2754  0.0768 -0.5105
 3820SOL    HW122922   0.337   3.253  16.567  1.4731  0.2013 -0.2891
 3820SOL    HW222923   0.401   3.320  16.669 -0.3867 -3.0496  0.0283
 3821SOL     OW22924   0.668   3.152   8.088 -0.0769 -0.5039  0.7627
 3821SOL    HW122925   0.675   3.099   8.008  0.8416 -1.0344  1.1889
 3821SOL    HW222926   0.591   3.207   8.072 -0.2335 -1.4751 -1.8265
 3822SOL     OW22927   2.698   0.634   7.690  0.1408 -0.0524  0.0616
 3822SOL    HW122928   2.718   0.690   7.615 -1.1925  1.4724  0.8433
 3822SOL    HW222929   2.606   0.622   7.669  0.6730 -0.4055 -1.9965
 3823SOL     OW22930   3.664   3.053   8.313 -0.1522  0.2813 -0.3332
 3823SOL    HW122931   3.627   2.966   8.328  1.0186 -0.0602  0.5545
 3823SOL    HW222932   3.751   3.031   8.279 -0.0250  2.5597 -1.5345
 3824SOL     OW22933   2.666   2.005   6.375  0.2448 -0.3451  0.3228
 3824SOL    HW122934   2.666   1.997   6.279  1.3140 -1.7753  0.4526
 3824SOL    HW222935   2.744   2.060   6.377  0.8558 -1.0406 -3.4830
 3825SOL     OW22936   1.472   1.889  17.198 -0.2685  0.0811  0.1509
 3825SOL    HW122937   1.396   1.884  17.140 -0.0126 -1.2108 -0.0585
 3825SOL    HW222938   1.498   1.981  17.188 -2.1129  0.6672  0.6459
 3826SOL     OW22939   2.923   1.211   4.821 -0.2703  0.1958  0.0248
 3826SOL    HW122940   2.948   1.119   4.825  0.2523  0.3371 -0.0774
 3826SOL    HW222941   2.841   1.206   4.871 -0.3248  2.2951  0.1671
 3827SOL     OW22942   3.738   4.305   6.856  0.8036 -0.1122 -0.2135
 3827SOL    HW122943   3.745   4.368   6.784 -1.0606  0.1193 -0.2119
 3827SOL    HW222944   3.824   4.307   6.897  0.6475  0.5199  0.0788
 3828SOL     OW22945   4.174   1.493   2.203 -0.6877  0.1086 -0.4408
 3828SOL    HW122946   4.252   1.538   2.172 -1.7634  1.8019 -0.7292
 3828SOL    HW222947   4.157   1.453   2.117  0.8243 -0.5754 -0.4095
 3829SOL     OW22948   2.218   0.362   6.771  0.3012  0.3502 -0.0603
 3829SOL    HW122949   2.175   0.281   6.799 -1.3603  0.7228 -1.5336
 3829SOL    HW222950   2.277   0.329   6.704  0.9653 -2.0079  1.6725
 3830SOL     OW22951   4.220   3.988   3.495  0.2089 -0.1880  0.1541
 3830SOL    HW122952   4.309   4.011   3.471 -0.2116  0.9158 -0.3217
 3830SOL    HW222953   4.207   4.053   3.564 -1.0178  1.9074 -2.0654
 3831SOL     OW22954   1.220   3.673  15.403  0.0988 -0.1994 -0.3799
 3831SOL    HW122955   1.292   3.686  15.341  1.0653 -0.6934  0.6540
 3831SOL    HW222956   1.272   3.639  15.476  0.1826 -1.3818 -1.0030
 3832SOL     OW22957   2.829   0.474   0.844 -0.2606 -0.0757 -0.3379
 3832SOL    HW122958   2.837   0.395   0.791 -0.4919  1.0075 -1.9689
 3832SOL    HW222959   2.824   0.540   0.776  1.1818 -0.3298 -0.6840
 3833SOL     OW22960   0.995   4.401   4.382  0.0366  0.0275 -0.5478
 3833SOL    HW122961   1.057   4.340   4.342  0.3915  0.9630 -1.4226
 3833SOL    HW222962   0.965   4.352   4.458 -0.3440 -0.3280 -0.9329
 3834SOL     OW22963   2.677   4.281   5.226 -0.1339  0.3955 -0.2100
 3834SOL    HW122964   2.731   4.213   5.268  0.1764 -0.9233 -2.7456
 3834SOL    HW222965   2.721   4.295   5.142 -0.1477 -1.5924 -0.5604
 3835SOL     OW22966   3.947   2.951   5.270  0.3246  0.1513  0.0354
 3835SOL    HW122967   4.001   2.991   5.202 -1.7931  0.8737 -1.2285
 3835SOL    HW222968   3.986   2.975   5.354 -2.5206 -0.5288  1.5455
 3836SOL     OW22969   1.858   0.176   7.792  0.0171  0.5450  0.2497
 3836SOL    HW122970   1.876   0.148   7.702  0.1371  2.6066 -0.3673
 3836SOL    HW222971   1.885   0.095   7.834  0.5312 -0.3938 -1.8638
 3837SOL     OW22972   3.580   0.438  10.056 -0.2672  0.2780  0.4745
 3837SOL    HW122973   3.641   0.408  10.123  1.4128 -2.2205 -2.1938
 3837SOL    HW222974   3.631   0.413   9.979 -1.0524 -0.7724  0.2982
 3838SOL     OW22975   0.589   1.272   5.688  0.2009 -0.0924  0.0680
 3838SOL    HW122976   0.565   1.359   5.720 -0.8604  0.0494 -1.1538
 3838SOL    HW222977   0.623   1.291   5.601  1.3971  1.2569  0.8242
 3839SOL     OW22978   4.385   2.591  10.131 -0.1508  1.1664 -0.0191
 3839SOL    HW122979   4.290   2.585  10.140 -0.0975 -0.0159 -0.3070
 3839SOL    HW222980   4.411   2.503  10.158 -0.0622  0.3387 -2.7956
 3840SOL     OW22981   3.538   0.889   5.085 -0.5680 -0.4455 -0.1551
 3840SOL    HW122982   3.612   0.829   5.077  1.0290  1.6205 -0.9394
 3840SOL    HW222983   3.512   0.903   4.994 -1.9022 -0.1104  0.2805
 3841SOL     OW22984   3.074   4.271   3.377  0.1260  0.3066 -0.1951
 3841SOL    HW122985   2.997   4.228   3.416 -0.1158  1.1905  0.3067
 3841SOL    HW222986   3.137   4.297   3.444 -0.5341  2.8984 -0.5700
 3842SOL     OW22987   0.507   4.530  13.191 -0.2958  0.1728  0.0018
 3842SOL    HW122988   0.471   4.539  13.102  1.9514  3.5112 -0.5583
 3842SOL    HW222989   0.599   4.510  13.175 -0.2913  0.6461 -0.5575
 3843SOL     OW22990   2.346   0.448   7.369  0.3274 -0.4255 -0.4944
 3843SOL    HW122991   2.353   0.363   7.414 -2.8833 -1.4532 -1.9300
 3843SOL    HW222992   2.315   0.491   7.449 -0.3656 -1.8730  0.0238
 3844SOL     OW22993   2.889   1.085   2.870  0.1138  0.0579 -0.1624
 3844SOL    HW122994   2.930   1.131   2.797 -0.9046  2.3255  0.6825
 3844SOL    HW222995   2.948   1.010   2.870  0.0863  0.0282 -1.2788
 3845SOL     OW22996   0.334   2.499   8.307 -0.0197 -0.0028  0.4834
 3845SOL    HW122997   0.423   2.512   8.340  1.0763  0.5890 -2.6871
 3845SOL    HW222998   0.310   2.435   8.374 -1.0271  0.7368  0.8167
 3846SOL     OW22999   2.710   1.083   6.823  0.4629 -0.3225  0.3914
 3846SOL    HW123000   2.792   1.093   6.774 -0.3141 -0.8963 -1.0472
 3846SOL    HW223001   2.733   1.019   6.890 -1.3824 -0.7555  0.6053
 3847SOL     OW23002   2.889   1.818   7.121 -0.0803  0.4800  0.0505
 3847SOL    HW123003   2.800   1.850   7.134  0.6532  2.2565  0.6485
 3847SOL    HW223004   2.906   1.819   7.215  1.4761 -1.3688 -0.2083
 3848SOL     OW23005   0.165   3.178   4.903 -0.4164 -0.6639  0.6227
 3848SOL    HW123006   0.075   3.192   4.932 -0.7519  1.7566 -1.6015
 3848SOL    HW223007   0.200   3.140   4.984  0.6165  2.7005  1.7667
 3849SOL     OW23008   0.059   0.390  12.700  0.1564  0.0115 -0.2829
 3849SOL    HW123009   0.053   0.479  12.736 -1.0623 -1.5485  3.3684
 3849SOL    HW223010   4.719   0.388  12.630 -0.5591 -4.8915  0.5071
 3850SOL     OW23011   4.109   3.470   2.229 -0.2117 -0.2798 -0.2576
 3850SOL    HW123012   4.070   3.420   2.300  1.9470 -0.2744  0.9213
 3850SOL    HW223013   4.157   3.539   2.275  0.5805 -1.5760  0.8455
 3851SOL     OW23014   2.883   4.078  10.306  0.0546 -0.5724  0.2422
 3851SOL    HW123015   2.875   4.173  10.305  1.9489 -0.4626 -3.9817
 3851SOL    HW223016   2.977   4.063  10.296  0.3404  0.7301  1.1148
 3852SOL     OW23017   2.142   2.887   3.609 -0.0445 -0.1084 -0.0038
 3852SOL    HW123018   2.063   2.876   3.556  0.3975  0.5834 -0.8091
 3852SOL    HW223019   2.113   2.925   3.691  2.7033  0.2243  0.8090
 3853SOL     OW23020   4.668   3.668  16.460 -0.3670  0.2587  0.6141
 3853SOL    HW123021   4.619   3.714  16.529 -0.6344  4.0057 -2.0505
 3853SOL    HW223022   0.022   3.644  16.508  0.4002  1.4094 -0.0887
 3854SOL     OW23023   2.636   1.015   3.767  0.1051 -0.0748 -0.3355
 3854SOL    HW123024   2.685   1.090   3.801  0.0825 -0.5880  0.8508
 3854SOL    HW223025   2.546   1.044   3.779  0.4248  0.4696  0.7991
 3855SOL     OW23026   0.331   0.130  17.230  0.0597 -0.3035  0.6667
 3855SOL    HW123027   0.311   0.215  17.192  0.1529 -0.0737  1.1374
 3855SOL    HW223028   0.291   0.071  17.166  1.0199 -0.3779  0.1288
 3856SOL     OW23029   0.372   4.240   3.635  0.2552  0.3087 -0.4067
 3856SOL    HW123030   0.364   4.161   3.689  0.3441  1.2203  0.9360
 3856SOL    HW223031   0.406   4.199   3.556 -0.1814  0.3896 -0.6321
 3857SOL     OW23032   1.314   3.227  15.759  0.3808  0.2094 -0.1353
 3857SOL    HW123033   1.233   3.208  15.807  0.3962  1.0497  0.2246
 3857SOL    HW223034   1.283   3.313  15.730 -2.4018 -0.8054 -0.1676
 3858SOL     OW23035   2.199   0.671   5.451 -0.1506 -0.2501 -0.0448
 3858SOL    HW123036   2.175   0.673   5.358 -0.6074  2.8387  0.1715
 3858SOL    HW223037   2.295   0.675   5.445 -0.0906  3.8838  3.5978
 3859SOL     OW23038   0.018   3.638   5.735  0.3638 -0.3174 -0.2767
 3859SOL    HW123039   0.093   3.620   5.679  1.4316  1.7145  0.4589
 3859SOL    HW223040   4.675   3.579   5.704  1.5933 -1.3960 -0.9259
 3860SOL     OW23041   4.028   0.121   7.653  0.3224 -0.0759 -0.4471
 3860SOL    HW123042   4.103   0.159   7.698  0.3530  1.9866 -2.2907
 3860SOL    HW223043   3.975   0.197   7.631 -0.0602 -1.1024 -3.0458
 3861SOL     OW23044   2.185   1.306   6.068  0.0428 -0.3966 -0.5662
 3861SOL    HW123045   2.281   1.300   6.072 -0.1392 -2.9230  0.2293
 3861SOL    HW223046   2.166   1.380   6.125  2.4956 -0.2653  0.0965
 3862SOL     OW23047   2.285   1.507   7.715 -0.3519  0.0050  0.3003
 3862SOL    HW123048   2.369   1.465   7.734 -0.2635 -0.1268 -0.3959
 3862SOL    HW223049   2.231   1.440   7.757 -0.4342  0.3714  0.7810
 3863SOL     OW23050   2.816   1.722   5.365 -0.5770 -0.0315  0.5205
 3863SOL    HW123051   2.848   1.640   5.329  1.7234  1.3783 -0.6384
 3863SOL    HW223052   2.841   1.787   5.299  2.4181  0.3522  2.0444
 3864SOL     OW23053   4.593   2.665   0.389  0.1299 -0.0728  0.4082
 3864SOL    HW123054   4.547   2.659   0.305  4.6787 -2.9845 -1.8617
 3864SOL    HW223055   4.574   2.756   0.413  1.3266  0.4500 -0.6431
 3865SOL     OW23056   2.121   3.511   4.965 -0.6496  0.3970  0.3600
 3865SOL    HW123057   2.088   3.600   4.954 -0.4277  0.4973  0.5190
 3865SOL    HW223058   2.072   3.472   4.892  1.4609  0.1980 -0.9363
 3866SOL     OW23059   1.672   2.707   5.606  0.6017 -0.3120  0.3187
 3866SOL    HW123060   1.579   2.692   5.586  0.6312  1.6525 -1.2950
 3866SOL    HW223061   1.704   2.652   5.534 -1.5724 -0.4740 -0.5302
 3867SOL     OW23062   0.938   2.958   9.895 -0.1537 -0.7003 -0.3664
 3867SOL    HW123063   0.909   2.915   9.976 -1.8978  1.2601  0.0375
 3867SOL    HW223064   0.856   2.994   9.861 -0.0914  1.0698  1.3995
 3868SOL     OW23065   3.478   2.833   3.616  0.5144  0.0993  0.3818
 3868SOL    HW123066   3.452   2.775   3.545  1.7825  0.6245 -0.5231
 3868SOL    HW223067   3.403   2.845   3.674 -1.6983 -5.6795 -1.3560
 3869SOL     OW23068   2.618   3.979   3.539 -0.1319 -0.0226 -0.0370
 3869SOL    HW123069   2.579   4.052   3.588 -0.2321  0.8118 -1.3660
 3869SOL    HW223070   2.580   3.982   3.451 -1.3351 -0.3208  0.4805
 3870SOL     OW23071   0.452   3.337   7.774  0.0469  0.0892 -0.7699
 3870SOL    HW123072   0.432   3.302   7.861  0.4645 -1.5254 -1.3170
 3870SOL    HW223073   0.484   3.425   7.795  2.3617 -0.7867 -0.6850
 3871SOL     OW23074   2.419   4.178  10.814  0.2153  0.2157  0.7905
 3871SOL    HW123075   2.514   4.175  10.806  0.3184  2.0692  1.4964
 3871SOL    HW223076   2.413   4.235  10.890  0.2339  1.0535  0.1602
 3872SOL     OW23077   2.334   0.693  14.632  0.0596 -0.5395 -0.2092
 3872SOL    HW123078   2.324   0.671  14.540 -0.0120 -1.1113 -0.0663
 3872SOL    HW223079   2.351   0.786  14.622  0.5305 -0.6550 -0.4725
 3873SOL     OW23080   1.814   1.352   2.360 -0.0250 -0.0711  0.0689
 3873SOL    HW123081   1.869   1.393   2.294  0.7524  0.7526  1.2327
 3873SOL    HW223082   1.750   1.420   2.382  0.1249  0.7645 -2.1650
 3874SOL     OW23083   2.495   3.170   2.980 -0.2330  0.3687 -0.7132
 3874SOL    HW123084   2.496   3.177   3.076  2.0039  0.9297 -0.7739
 3874SOL    HW223085   2.430   3.238   2.963  1.7118  2.3357 -0.3473
 3875SOL     OW23086   4.413   1.598  13.487 -0.0881  0.3579  0.7742
 3875SOL    HW123087   4.332   1.561  13.524 -0.1440  0.7814  1.0889
 3875SOL    HW223088   4.472   1.523  13.490 -2.8847 -1.9049 -1.1955
 3876SOL     OW23089   4.045   0.989   8.915  0.2986  0.2148  0.1581
 3876SOL    HW123090   4.108   0.985   8.987 -1.2708  0.7168  1.5711
 3876SOL    HW223091   4.105   0.978   8.841 -0.0907  1.1351 -0.2896
 3877SOL     OW23092   3.843   2.896   0.392 -0.6004 -0.3149 -0.1386
 3877SOL    HW123093   3.777   2.844   0.438  0.3645 -1.5786 -0.1809
 3877SOL    HW223094   3.914   2.832   0.395 -1.0107 -0.7710 -0.1974
 3878SOL     OW23095   3.595   2.057  10.318 -0.8695  0.1392  0.1281
 3878SOL    HW123096   3.627   1.967  10.315 -0.5548  0.2997 -1.0795
 3878SOL    HW223097   3.503   2.042  10.339 -0.9537 -0.8651 -0.9230
 3879SOL     OW23098   2.413   0.186   2.359  0.3813 -0.2309 -0.5722
 3879SOL    HW123099   2.460   0.134   2.424 -1.6676 -0.9322  0.3429
 3879SOL    HW223100   2.484   0.215   2.301 -0.7677  2.1485 -0.8163
 3880SOL     OW23101   0.857   4.711   3.275 -0.3679  0.2808 -0.5972
 3880SOL    HW123102   0.873   4.703   3.369  0.9576  0.1826 -0.8304
 3880SOL    HW223103   0.797   4.638   3.263 -2.5768  1.6195  2.3994
 3881SOL     OW23104   4.299   3.130   3.931  0.4244  0.2025 -0.2027
 3881SOL    HW123105   4.290   3.143   3.837 -0.0440  1.4776  0.0081
 3881SOL    HW223106   4.375   3.072   3.932  0.7938  0.6715 -2.7299
 3882SOL     OW23107   1.169   3.331   5.418 -0.2371 -0.0001 -0.2278
 3882SOL    HW123108   1.116   3.251   5.413  0.2234 -0.3816  0.9003
 3882SOL    HW223109   1.249   3.298   5.378 -0.9615 -1.7795 -0.2436
 3883SOL     OW23110   1.968   1.732   0.651  0.2574 -0.2470 -0.3518
 3883SOL    HW123111   1.965   1.828   0.643 -2.9885 -0.3166  0.2562
 3883SOL    HW223112   1.875   1.711   0.656  0.6354 -1.6913  0.3846
 3884SOL     OW23113   3.536   1.668   4.682  0.1295 -0.3830 -0.3529
 3884SOL    HW123114   3.519   1.725   4.758 -0.0042 -1.7012  0.5980
 3884SOL    HW223115   3.605   1.715   4.634  0.5003 -0.7813 -0.2091
 3885SOL     OW23116   1.511   3.993  10.615 -0.7616  0.9708 -0.3563
 3885SOL    HW123117   1.605   3.981  10.627 -0.7822 -0.8151 -2.0264
 3885SOL    HW223118   1.480   3.936  10.685  1.9613 -0.3229 -0.1958
 3886SOL     OW23119   0.352   0.123   7.413 -0.1146 -0.8810 -0.5190
 3886SOL    HW123120   0.298   0.198   7.435 -1.4259 -1.7884 -0.6362
 3886SOL    HW223121   0.415   0.170   7.359  0.4505  1.6960  2.3710
 3887SOL     OW23122   4.472   0.374   3.811  0.3537  0.0092  0.2227
 3887SOL    HW123123   4.563   0.382   3.781 -0.2629 -0.0989 -1.6905
 3887SOL    HW223124   4.424   0.362   3.729 -1.3603  2.1219  0.9375
 3888SOL     OW23125   1.952   0.755   0.300  0.2871 -0.4709  0.6471
 3888SOL    HW123126   1.880   0.718   0.351 -1.6217  1.8933 -0.3052
 3888SOL    HW223127   1.934   0.722   0.212 -0.9076  0.4283  0.5581
 3889SOL     OW23128   3.334   3.214  10.103 -0.0683  0.2202 -0.2398
 3889SOL    HW123129   3.426   3.236  10.113 -0.2281  1.0532 -0.5543
 3889SOL    HW223130   3.338   3.136  10.048  3.1512  0.7863 -0.7735
 3890SOL     OW23131   2.650   0.840   0.824 -0.2557 -0.3734  0.0775
 3890SOL    HW123132   2.561   0.807   0.807 -0.6914  0.0149  1.6846
 3890SOL    HW223133   2.630   0.926   0.788  0.3312 -0.2672  0.0068
 3891SOL     OW23134   4.421   3.195  12.161 -0.1831 -0.1570  0.0550
 3891SOL    HW123135   4.404   3.124  12.099 -3.5457  0.6144  0.1334
 3891SOL    HW223136   4.504   3.160  12.193 -0.7271 -1.0562  0.4764
 3892SOL     OW23137   0.396   2.411   2.505  0.1268 -0.0710 -0.5731
 3892SOL    HW123138   0.415   2.485   2.563 -1.2115 -0.3066  0.1595
 3892SOL    HW223139   0.443   2.437   2.426 -0.7283  0.3003 -0.9603
 3893SOL     OW23140   2.875   1.291   5.446 -0.3653  0.7516 -0.4692
 3893SOL    HW123141   2.941   1.273   5.513 -2.2117  0.7386  1.3626
 3893SOL    HW223142   2.919   1.348   5.384 -2.3566 -0.0558 -2.6425
 3894SOL     OW23143   4.218   4.087   3.771  0.1828  0.4146 -0.8755
 3894SOL    HW123144   4.155   4.138   3.822  0.6138  1.6394 -1.5795
 3894SOL    HW223145   4.270   4.054   3.844  0.3757 -0.9937 -1.6464
 3895SOL     OW23146   0.493   0.010   4.116 -0.1231  0.2873  0.2452
 3895SOL    HW123147   0.577   0.038   4.150  0.6592 -1.4336 -0.2532
 3895SOL    HW223148   0.514   4.647   4.084  1.2688  0.2454  1.2883
 3896SOL     OW23149   0.983   2.149  10.030  0.2734 -0.0019  0.0134
 3896SOL    HW123150   0.963   2.221  10.091  0.2754  0.0776 -0.0802
 3896SOL    HW223151   0.927   2.174   9.957 -0.0213  1.0300  0.5875
 3897SOL     OW23152   3.451   3.760   4.149  0.5964  0.2280  0.5125
 3897SOL    HW123153   3.507   3.830   4.180 -1.8232  1.5443  1.8721
 3897SOL    HW223154   3.505   3.684   4.171  0.0803  0.8997  3.9593
 3898SOL     OW23155   2.805   1.551   7.473  0.1531 -0.0950  0.2578
 3898SOL    HW123156   2.804   1.634   7.521  0.6584 -0.3358  0.6742
 3898SOL    HW223157   2.709   1.551   7.468  0.1015 -1.5538  1.5614
 3899SOL     OW23158   1.165   2.727   3.134 -0.1951 -0.3358 -0.2900
 3899SOL    HW123159   1.211   2.675   3.067 -0.4382 -1.0824  0.1176
 3899SOL    HW223160   1.221   2.718   3.211 -1.8300 -1.2498  0.8054
 3900SOL     OW23161   1.485   3.119   3.516 -0.4919  0.2997  0.1453
 3900SOL    HW123162   1.395   3.093   3.496 -0.5553 -0.1204  0.9892
 3900SOL    HW223163   1.469   3.167   3.598  0.2437  1.3830 -0.3389
 3901SOL     OW23164   0.394   2.340   8.854 -0.5521 -0.3264  0.2099
 3901SOL    HW123165   0.395   2.427   8.893  0.3875 -0.5978  0.7959
 3901SOL    HW223166   0.312   2.318   8.897 -0.2972  1.3853  1.5701
 3902SOL     OW23167   1.827   1.490   5.435 -0.5884 -0.0778 -0.6254
 3902SOL    HW123168   1.797   1.400   5.448  1.4033 -0.3095  2.3913
 3902SOL    HW223169   1.759   1.515   5.373  0.0161 -0.7011 -1.5278
 3903SOL     OW23170   0.763   1.784  11.495  0.7281  0.7289  0.5637
 3903SOL    HW123171   0.753   1.695  11.530 -1.2664  0.8700  0.3286
 3903SOL    HW223172   0.668   1.797  11.489  0.8640  1.0872 -0.8073
 3904SOL     OW23173   0.967   1.497  14.762  0.2990  0.1705 -0.0702
 3904SOL    HW123174   1.031   1.426  14.763 -0.7203 -0.7359  1.0018
 3904SOL    HW223175   1.028   1.558  14.721 -0.0839 -0.7073 -1.9485
 3905SOL     OW23176   1.220   3.602  15.816  0.2449  0.1420  0.2518
 3905SOL    HW123177   1.209   3.675  15.755 -2.4434 -0.3828  0.0917
 3905SOL    HW223178   1.174   3.532  15.769 -1.1115  0.2735  1.3866
 3906SOL     OW23179   1.818   3.480   5.558  0.4810  0.6713 -0.2533
 3906SOL    HW123180   1.798   3.411   5.494 -1.1526 -0.0161  0.9824
 3906SOL    HW223181   1.735   3.476   5.606  2.0068 -2.4401  2.0840
 3907SOL     OW23182   2.699   4.645   4.769 -0.4202 -0.9513 -0.1126
 3907SOL    HW123183   2.657   4.562   4.789 -0.1824 -0.6824  1.4803
 3907SOL    HW223184   2.634   4.709   4.800  0.9665  1.2392 -1.7270
 3908SOL     OW23185   3.930   2.910   4.299  0.3944  0.0111  0.6755
 3908SOL    HW123186   3.969   2.826   4.325  0.7497 -0.1848 -0.4647
 3908SOL    HW223187   3.995   2.946   4.238 -0.1560 -0.1599 -0.0169
 3909SOL     OW23188   0.003   1.597   2.816  0.5676 -0.4865  0.2071
 3909SOL    HW123189   4.634   1.614   2.825  0.0524 -2.5330 -1.0337
 3909SOL    HW223190   0.034   1.631   2.899  0.7074 -0.0003 -0.0490
 3910SOL     OW23191   3.092   0.373   6.048  0.3368  0.2926 -0.6254
 3910SOL    HW123192   3.152   0.358   5.975  0.5202  2.3301 -0.8881
 3910SOL    HW223193   3.041   0.448   6.017  0.9749  1.6006  1.5261
 3911SOL     OW23194   3.033   0.463  14.772  0.1273  0.4862 -0.0804
 3911SOL    HW123195   2.977   0.388  14.753  1.6142 -1.2496  2.4365
 3911SOL    HW223196   2.967   0.530  14.787  2.4326  2.8131 -0.3764
 3912SOL     OW23197   3.065   4.060   7.768  0.4173  0.1508 -0.0747
 3912SOL    HW123198   3.039   4.116   7.695  1.8756 -0.7844 -1.3245
 3912SOL    HW223199   2.988   4.066   7.824  0.0367  0.1265 -0.6071
 3913SOL     OW23200   2.885   2.646   2.791 -0.0779  0.5096 -0.2092
 3913SOL    HW123201   2.832   2.715   2.831 -2.5480 -0.9638 -0.9222
 3913SOL    HW223202   2.861   2.651   2.698  4.3938  0.4603 -1.3508
 3914SOL     OW23203   1.364   3.104  16.534 -0.4251  0.0732 -0.1497
 3914SOL    HW123204   1.415   3.159  16.593  0.1608 -1.8195  1.0981
 3914SOL    HW223205   1.277   3.135  16.558 -1.4081 -3.6071  1.0054
 3915SOL     OW23206   2.506   0.702   0.502  0.1227  0.7329  0.0377
 3915SOL    HW123207   2.446   0.688   0.429 -0.9899  3.0167  0.4904
 3915SOL    HW223208   2.593   0.701   0.463 -0.1192 -4.1673 -0.2762
 3916SOL     OW23209   3.653   4.120  12.459 -0.0116 -0.3209 -0.5940
 3916SOL    HW123210   3.713   4.126  12.533 -1.0707 -2.7913  0.4597
 3916SOL    HW223211   3.605   4.200  12.480  0.8963 -0.1909  1.0149
 3917SOL     OW23212   0.764   2.378   6.086  0.0268 -0.0954  0.6234
 3917SOL    HW123213   0.768   2.462   6.041  0.7612  0.0003  0.8637
 3917SOL    HW223214   0.814   2.398   6.166 -1.0443  0.5697  1.1320
 3918SOL     OW23215   1.854   3.730   0.509 -0.4301  0.1361  0.2303
 3918SOL    HW123216   1.828   3.812   0.551 -1.5387 -0.5199  0.8190
 3918SOL    HW223217   1.904   3.759   0.432  2.0742 -3.1136  0.6139
 3919SOL     OW23218   3.169   4.670   0.521  0.1153  0.7377 -0.4641
 3919SOL    HW123219   3.128   0.031   0.530 -0.6906  0.3035  0.0987
 3919SOL    HW223220   3.198   4.662   0.612 -2.6829  2.4789  0.5813
 3920SOL     OW23221   1.536   3.767   6.930  0.2251  0.5798  0.0792
 3920SOL    HW123222   1.626   3.740   6.912  0.2323  0.5388  0.1761
 3920SOL    HW223223   1.562   3.811   7.011 -2.2731  0.2588  1.0746
 3921SOL     OW23224   4.064   4.441   6.338 -0.2487  0.1462  0.5245
 3921SOL    HW123225   4.145   4.392   6.324 -0.9204 -0.8296  0.0877
 3921SOL    HW223226   4.083   4.520   6.389 -0.3881  2.1469 -2.5303
 3922SOL     OW23227   4.199   4.428   9.943 -0.5672 -0.5180  0.3121
 3922SOL    HW123228   4.226   4.510   9.985 -1.8910 -0.1047  0.3619
 3922SOL    HW223229   4.222   4.358  10.004  2.7759  2.2936  2.2432
 3923SOL     OW23230   4.012   3.014  15.435  0.8031  0.4533  0.1807
 3923SOL    HW123231   4.015   3.103  15.400  0.0857  0.0976 -0.7710
 3923SOL    HW223232   3.947   2.964  15.385 -0.2170  0.4756  1.5048
 3924SOL     OW23233   1.964   0.718   3.445  0.1585  0.5206  0.5995
 3924SOL    HW123234   2.042   0.709   3.390 -1.6558  1.7844 -2.2247
 3924SOL    HW223235   1.900   0.754   3.383  0.6984 -2.1867 -1.5217
 3925SOL     OW23236   3.795   4.418   6.591  0.2418 -0.0270  0.5129
 3925SOL    HW123237   3.779   4.368   6.511 -0.5160  1.9856 -0.6025
 3925SOL    HW223238   3.722   4.481   6.590  0.4239  0.2049  1.5242
 3926SOL     OW23239   0.157   1.608   7.289  0.9429  0.3166  1.0469
 3926SOL    HW123240   0.114   1.616   7.204 -0.2753 -0.7422  1.5834
 3926SOL    HW223241   0.123   1.689   7.327 -2.1681  0.9559 -3.1942
 3927SOL     OW23242   3.186   1.080   0.786  0.5586  0.1606 -0.2143
 3927SOL    HW123243   3.246   1.127   0.845  1.2213  0.7371 -1.3561
 3927SOL    HW223244   3.191   0.987   0.808 -1.5857  0.6180  2.1899
 3928SOL     OW23245   0.975   1.807   2.991 -0.1769  0.5150 -0.2444
 3928SOL    HW123246   0.978   1.715   2.963  1.2811  0.0534  1.3677
 3928SOL    HW223247   1.061   1.847   2.977  0.4854 -0.2982  1.5226
 3929SOL     OW23248   1.824   3.573  11.764 -0.8235  0.6658 -0.1493
 3929SOL    HW123249   1.855   3.653  11.807 -1.2270  0.8670 -0.2392
 3929SOL    HW223250   1.906   3.535  11.732 -1.4770 -0.8871  0.0327
 3930SOL     OW23251   0.503   0.728   3.631 -0.2122 -0.3867  0.4397
 3930SOL    HW123252   0.440   0.755   3.564 -0.0622  0.2254  0.5483
 3930SOL    HW223253   0.448   0.667   3.680  0.7663 -1.1627  0.5705
 3931SOL     OW23254   4.698   0.227  13.477  0.1471 -0.1481 -0.4008
 3931SOL    HW123255   0.021   0.157  13.520 -0.4433  0.2161  0.8620
 3931SOL    HW223256   4.715   0.217  13.383 -3.3318  0.2286 -1.0834
 3932SOL     OW23257   1.109   2.479   6.638  0.1121 -0.7817  0.4027
 3932SOL    HW123258   1.137   2.541   6.570  1.9094  0.8793  2.6626
 3932SOL    HW223259   1.122   2.394   6.597  0.3899 -0.8035  0.5386
 3933SOL     OW23260   4.446   4.267   5.576  0.1713  0.7788 -0.4217
 3933SOL    HW123261   4.496   4.310   5.507 -1.1925  0.1176 -1.8133
 3933SOL    HW223262   4.444   4.316   5.659 -1.9468  0.0207 -0.0422
 3934SOL     OW23263   1.099   1.423   4.539 -0.0179 -0.0395 -0.4486
 3934SOL    HW123264   1.186   1.445   4.574  0.0910  1.1214 -1.4651
 3934SOL    HW223265   1.050   1.376   4.607  0.1311  2.2334  1.2179
 3935SOL     OW23266   2.830   1.879   5.620 -0.9151 -0.1996  0.0977
 3935SOL    HW123267   2.843   1.838   5.534  0.5084  1.9759 -0.7257
 3935SOL    HW223268   2.913   1.925   5.633 -0.4931 -0.1599 -2.6960
 3936SOL     OW23269   2.353   4.351   5.974 -0.0453 -0.1582 -0.0854
 3936SOL    HW123270   2.445   4.351   5.946 -0.5809  0.5266 -1.8697
 3936SOL    HW223271   2.337   4.438   6.011 -0.7909  0.7359 -2.4398
 3937SOL     OW23272   2.709   0.913   4.916  0.3025  0.5819  0.1387
 3937SOL    HW123273   2.797   0.924   4.882 -0.1844  1.6941 -0.7626
 3937SOL    HW223274   2.652   0.900   4.840  0.6786 -2.6032  0.3840
 3938SOL     OW23275   4.329   1.657  14.593 -0.6375 -0.1219  0.9883
 3938SOL    HW123276   4.363   1.746  14.589 -1.4389  0.0796 -1.1270
 3938SOL    HW223277   4.333   1.621  14.505 -1.3604 -0.7973  1.2285
 3939SOL     OW23278   1.145   1.463  12.374  0.1880  0.0658  0.0376
 3939SOL    HW123279   1.221   1.405  12.364  0.7532  0.7193  0.4801
 3939SOL    HW223280   1.162   1.535  12.313  0.5994  2.1313  2.5473
 3940SOL     OW23281   1.896   3.648   2.764 -0.1018 -0.6567  0.1530
 3940SOL    HW123282   1.809   3.628   2.798  0.4980 -0.6393  1.6996
 3940SOL    HW223283   1.875   3.702   2.687  3.8703  0.8111  0.0695
 3941SOL     OW23284   4.666   4.613   5.839  0.6965  0.1541 -0.2562
 3941SOL    HW123285   4.709   4.527   5.842 -1.0529 -0.6688  1.2612
 3941SOL    HW223286   4.617   4.608   5.757 -0.6438 -1.6471  0.6607
 3942SOL     OW23287   0.297   1.963  15.013 -0.0245 -0.1287  0.2300
 3942SOL    HW123288   0.337   1.930  15.093  1.4121  3.6489  1.0621
 3942SOL    HW223289   0.295   2.057  15.030 -0.5468  0.0154 -0.6321
 3943SOL     OW23290   3.893   3.012   3.599  0.2233  0.0684  0.1240
 3943SOL    HW123291   3.953   2.939   3.585  0.5209  0.0058  1.7689
 3943SOL    HW223292   3.828   2.980   3.662 -0.7587  0.9317 -0.4594
 3944SOL     OW23293   0.842   3.586   7.490 -0.0395 -0.5984  0.3076
 3944SOL    HW123294   0.937   3.580   7.496  0.0332  0.9536  0.7266
 3944SOL    HW223295   0.828   3.667   7.440 -1.2492 -0.4376  0.8779
 3945SOL     OW23296   2.339   3.997   4.248 -0.1058 -0.3657 -0.7819
 3945SOL    HW123297   2.377   4.021   4.164 -0.5455  3.0288 -0.0276
 3945SOL    HW223298   2.270   4.064   4.256 -0.3484 -0.4740 -2.0403
 3946SOL     OW23299   2.854   0.958  17.370  0.0962  0.1926  0.0111
 3946SOL    HW123300   2.837   0.979  17.278 -3.3446 -1.0652  0.3527
 3946SOL    HW223301   2.941   0.997  17.376  0.7836 -1.6669  2.1206
 3947SOL     OW23302   0.050   4.015   3.036 -0.0736  0.4402 -0.0412
 3947SOL    HW123303   0.006   4.072   2.972  1.9749  1.9206 -0.1351
 3947SOL    HW223304   4.712   3.950   3.066 -0.1585  1.4986  2.0404
 3948SOL     OW23305   0.996   2.429  16.432  0.3874 -0.0146  0.6382
 3948SOL    HW123306   1.063   2.467  16.376  1.0970 -2.8057 -0.4368
 3948SOL    HW223307   1.045   2.429  16.514  1.1652 -2.2708  0.1841
 3949SOL     OW23308   1.824   2.022  15.881 -0.5761  0.2520 -0.0469
 3949SOL    HW123309   1.793   2.085  15.946  0.2108  2.0139 -1.3783
 3949SOL    HW223310   1.752   1.958  15.879 -0.9077  0.6217 -0.0035
 3950SOL     OW23311   0.683   2.700   8.102 -0.3705  0.3017  0.0787
 3950SOL    HW123312   0.640   2.762   8.044  0.5265  0.3067 -0.5722
 3950SOL    HW223313   0.624   2.625   8.105 -0.7200  0.6523  2.1914
 3951SOL     OW23314   0.189   3.755   5.464  0.0244 -0.0573 -0.3623
 3951SOL    HW123315   0.187   3.783   5.373  1.9136  0.5402 -0.2061
 3951SOL    HW223316   0.190   3.663   5.437 -0.1728 -0.2220  0.1998
 3952SOL     OW23317   2.841   4.576  13.727 -0.1237 -0.0167 -0.0748
 3952SOL    HW123318   2.845   4.650  13.666 -0.5365  0.1517  0.0968
 3952SOL    HW223319   2.936   4.576  13.730 -0.0340  0.8651 -2.2862
 3953SOL     OW23320   4.200   4.692   5.928 -0.2128  0.0510  0.5371
 3953SOL    HW123321   4.244   0.001   6.006  0.9196  2.0052 -0.9700
 3953SOL    HW223322   4.153   0.047   5.908  1.2296  0.7123 -0.1655
 3954SOL     OW23323   4.315   3.539  17.417  0.3843 -0.1099 -0.2720
 3954SOL    HW123324   4.320   3.444  17.419 -2.3380 -0.2325  0.4337
 3954SOL    HW223325   4.248   3.564  17.480 -1.9104 -3.0313 -1.5466
 3955SOL     OW23326   4.460   3.514  12.288  0.7591 -0.1743  0.3382
 3955SOL    HW123327   4.468   3.576  12.361  0.7255  0.8819 -0.5556
 3955SOL    HW223328   4.515   3.444  12.321  1.8294 -0.4966 -2.1563
 3956SOL     OW23329   0.714   4.598  11.172  0.2997  0.3078 -0.1806
 3956SOL    HW123330   0.722   4.611  11.267 -0.1863  0.0798 -0.1071
 3956SOL    HW223331   0.628   4.556  11.166  0.5360 -0.2589  0.3308
 3957SOL     OW23332   0.795   0.723   3.550 -0.0738 -0.2170  0.0801
 3957SOL    HW123333   0.809   0.631   3.528  0.0240  0.0229 -0.8764
 3957SOL    HW223334   0.699   0.730   3.552 -0.1274 -0.9527  0.1575
 3958SOL     OW23335   0.252   2.568   9.140  0.0928  0.0210  0.3387
 3958SOL    HW123336   0.174   2.622   9.152 -1.6523 -1.5891 -3.5968
 3958SOL    HW223337   0.296   2.622   9.074 -0.3282 -0.6755 -0.5232
 3959SOL     OW23338   0.112   3.935   5.683  0.3414  0.2006 -0.4081
 3959SOL    HW123339   0.034   3.934   5.628  1.6061 -2.1583 -2.1605
 3959SOL    HW223340   0.169   3.880   5.629 -1.4629 -1.6632 -0.4257
 3960SOL     OW23341   2.733   4.365   4.304  0.9738  0.1247  0.1011
 3960SOL    HW123342   2.734   4.347   4.398 -1.9538 -0.0723  0.0774
 3960SOL    HW223343   2.657   4.315   4.274 -0.8676  2.9816  0.0156
 3961SOL     OW23344   1.437   3.190  13.098  0.7744  0.4365 -0.3725
 3961SOL    HW123345   1.495   3.144  13.158 -0.0651  0.4236  0.4318
 3961SOL    HW223346   1.470   3.169  13.011  1.1649  0.4962 -0.2361
 3962SOL     OW23347   3.458   2.754   0.270 -0.2832  0.3692 -0.1816
 3962SOL    HW123348   3.382   2.742   0.326 -0.7162  1.4658 -0.5370
 3962SOL    HW223349   3.454   2.669   0.226 -0.1703  1.0410 -1.4876
 3963SOL     OW23350   4.377   0.321   2.056 -0.2737  0.2734  0.2460
 3963SOL    HW123351   4.390   0.239   2.008  0.7805  0.8629 -0.4757
 3963SOL    HW223352   4.320   0.369   1.996 -1.7653 -2.5739 -0.6025
 3964SOL     OW23353   1.979   4.663   3.199  0.2850  0.2702 -0.5140
 3964SOL    HW123354   2.057   4.676   3.145  0.6557  0.4077  0.0687
 3964SOL    HW223355   1.914   4.718   3.155  1.5512  1.8206 -0.4579
 3965SOL     OW23356   4.352   0.381  16.320 -0.0745 -0.4736  0.7508
 3965SOL    HW123357   4.384   0.331  16.394 -0.4862 -1.4485  0.2635
 3965SOL    HW223358   4.277   0.333  16.285 -0.6953  1.3516 -0.4854
 3966SOL     OW23359   4.235   2.586   5.205  0.3472  0.0036  0.7493
 3966SOL    HW123360   4.321   2.547   5.188  0.6001  0.5959  0.6545
 3966SOL    HW223361   4.245   2.672   5.162  1.7421 -0.1572  0.7648
 3967SOL     OW23362   0.561   1.091   3.894 -0.0211 -0.4782 -0.2011
 3967SOL    HW123363   0.566   0.998   3.915 -0.0494 -0.2240  0.9524
 3967SOL    HW223364   0.539   1.080   3.802 -2.3857 -0.4718  0.3439
 3968SOL     OW23365   2.684   0.648   3.429  0.0617  0.5478 -0.1231
 3968SOL    HW123366   2.747   0.589   3.470  0.0934 -0.8731 -2.1783
 3968SOL    HW223367   2.637   0.672   3.508 -2.6147  1.7878 -2.1055
 3969SOL     OW23368   0.637   1.612  11.705  0.3536  0.1040  0.0120
 3969SOL    HW123369   0.702   1.668  11.747  0.2922 -0.2500  0.5740
 3969SOL    HW223370   0.582   1.599  11.782  0.6571  0.8323  0.3534
 3970SOL     OW23371   0.450   0.899   2.642  0.4229 -0.0356 -0.3060
 3970SOL    HW123372   0.380   0.879   2.581  0.1073 -1.1936  0.4252
 3970SOL    HW223373   0.395   0.959   2.692  3.2918  1.1385  1.4414
 3971SOL     OW23374   2.020   2.687   4.287  0.1207  0.2293  0.1389
 3971SOL    HW123375   1.990   2.754   4.348 -0.9947 -0.2507  0.1133
 3971SOL    HW223376   2.076   2.623   4.331  1.1497  0.6595 -0.5496
 3972SOL     OW23377   1.434   0.858   6.985 -0.1510 -0.5986 -0.0191
 3972SOL    HW123378   1.373   0.793   6.950 -0.8131  0.6596 -1.1930
 3972SOL    HW223379   1.515   0.811   7.008 -0.3066 -1.5590 -1.4240
 3973SOL     OW23380   3.957   3.481   1.528  0.0936  0.6826  0.0118
 3973SOL    HW123381   3.872   3.503   1.490 -0.5425 -0.1338  0.9787
 3973SOL    HW223382   3.963   3.552   1.591 -0.5462 -0.1425  0.9841
 3974SOL     OW23383   2.342   0.681   3.292  0.1564  0.0341  0.1394
 3974SOL    HW123384   2.371   0.768   3.262 -0.0366  0.1063  0.1639
 3974SOL    HW223385   2.343   0.637   3.207 -0.7807 -1.3503  0.8596
 3975SOL     OW23386   3.697   3.649   9.006  0.7296  0.1961 -0.1983
 3975SOL    HW123387   3.686   3.590   9.081  0.3883  3.1173  2.0296
 3975SOL    HW223388   3.779   3.615   8.971 -0.4513  0.7662 -3.5354
 3976SOL     OW23389   0.481   0.752   8.304 -0.1498 -0.2501 -0.0525
 3976SOL    HW123390   0.525   0.740   8.389  0.4095  2.3579  0.0329
 3976SOL    HW223391   0.521   0.691   8.242  0.2245 -0.0265 -0.0370
 3977SOL     OW23392   0.658   1.356   4.715  0.0317 -0.2321  0.3879
 3977SOL    HW123393   0.729   1.409   4.750  0.6291  0.8952 -2.5198
 3977SOL    HW223394   0.589   1.379   4.777 -1.5865  0.7019 -1.7423
 3978SOL     OW23395   2.578   4.163   4.759 -0.0798  0.3906 -0.4411
 3978SOL    HW123396   2.484   4.179   4.750  0.1693  2.2628  0.3717
 3978SOL    HW223397   2.585   4.089   4.819  1.6352  0.9053  0.0134
 3979SOL     OW23398   2.652   2.794   0.245 -0.3139 -0.0580 -0.3464
 3979SOL    HW123399   2.559   2.794   0.271 -1.2439  0.1403 -3.6515
 3979SOL    HW223400   2.660   2.887   0.226 -2.2297  0.4492  1.3228
 3980SOL     OW23401   1.313   0.935   4.700 -0.4343 -0.2083  0.2093
 3980SOL    HW123402   1.259   0.878   4.646 -1.8424  2.8999 -1.6868
 3980SOL    HW223403   1.354   0.996   4.638 -0.8159 -0.0057  0.1563
 3981SOL     OW23404   2.815   0.659  11.042  0.0887  0.8926 -0.4911
 3981SOL    HW123405   2.772   0.731  10.995 -2.3210 -0.9375 -1.0981
 3981SOL    HW223406   2.903   0.664  11.004  0.2229  0.3767 -0.2441
 3982SOL     OW23407   0.975   4.073   4.459  0.3148  0.1713  0.4360
 3982SOL    HW123408   0.986   4.076   4.554  0.6139 -0.4607  0.4193
 3982SOL    HW223409   1.068   4.067   4.437  0.6875  1.6679  1.5464
 3983SOL     OW23410   1.625   3.104  12.902  0.0160 -0.4120  0.3881
 3983SOL    HW123411   1.689   3.072  12.838  0.8069  1.1203  0.4115
 3983SOL    HW223412   1.688   3.134  12.968 -0.7163 -0.1856  0.9867
 3984SOL     OW23413   2.947   4.391   8.523  0.6211  0.1025  0.2546
 3984SOL    HW123414   2.878   4.393   8.456 -0.3858 -0.6967  1.2663
 3984SOL    HW223415   2.990   4.473   8.501 -0.3946  0.3156 -0.9437
 3985SOL     OW23416   0.545   1.709   1.958  0.0559  0.6960 -0.4098
 3985SOL    HW123417   0.574   1.619   1.971  0.5786  0.8801 -0.2783
 3985SOL    HW223418   0.535   1.727   2.051  2.3672  0.2070 -0.0585
 3986SOL     OW23419   2.432   3.548  17.136 -0.5105  0.3939 -0.1962
 3986SOL    HW123420   2.517   3.520  17.170 -1.6138 -1.6897  0.8415
 3986SOL    HW223421   2.444   3.571  17.044  0.1273 -1.7180 -0.6265
 3987SOL     OW23422   2.286   4.089   4.764  0.1730  0.2002 -0.4067
 3987SOL    HW123423   2.244   4.118   4.683 -0.0382  0.6015 -0.1522
 3987SOL    HW223424   2.245   4.144   4.831 -0.9079  0.2267 -1.0887
 3988SOL     OW23425   4.071   2.393   3.811 -0.0045 -0.4204 -0.5227
 3988SOL    HW123426   4.107   2.422   3.727  0.1496 -1.5161 -0.8283
 3988SOL    HW223427   3.999   2.456   3.804  1.5705  1.3432 -0.9549
 3989SOL     OW23428   3.459   4.445   5.441 -0.4188 -0.0099  0.2091
 3989SOL    HW123429   3.491   4.510   5.379  2.0409 -0.2628  1.1780
 3989SOL    HW223430   3.498   4.367   5.400  0.5793  0.2396  0.6629
 3990SOL     OW23431   3.467   2.875   8.640  0.1486  0.2659 -0.1821
 3990SOL    HW123432   3.378   2.870   8.606 -0.1321  1.2683  0.4277
 3990SOL    HW223433   3.487   2.968   8.625 -1.2679  0.8116  1.3490
 3991SOL     OW23434   0.849   4.594   6.385  0.7397 -0.0561  0.0405
 3991SOL    HW123435   0.888   4.510   6.361 -0.4136 -0.5032 -0.2554
 3991SOL    HW223436   0.771   4.594   6.330  2.1936  0.0442 -2.0551
 3992SOL     OW23437   0.972   1.657  17.171  0.5271 -0.6798 -0.0104
 3992SOL    HW123438   0.879   1.679  17.175  0.2779 -1.6007 -0.7320
 3992SOL    HW223439   1.000   1.684  17.084 -2.4060  1.4785 -0.2980
 3993SOL     OW23440   0.863   4.649   2.903  0.5115  0.0710  0.1092
 3993SOL    HW123441   0.888   4.590   2.975  3.8932 -0.1260 -1.2378
 3993SOL    HW223442   0.851   4.588   2.831  1.0579  0.1228 -0.0262
 3994SOL     OW23443   3.412   0.524   2.732 -0.3881 -0.1402 -0.7935
 3994SOL    HW123444   3.508   0.523   2.724 -0.2244 -1.0052  1.3906
 3994SOL    HW223445   3.386   0.465   2.662 -0.2416 -0.8473 -0.2523
 3995SOL     OW23446   2.320   0.216   1.560  0.4820  0.5851 -0.2443
 3995SOL    HW123447   2.322   0.164   1.640 -0.4103 -2.7889 -2.4286
 3995SOL    HW223448   2.235   0.259   1.551  0.4392 -0.0809 -3.0275
 3996SOL     OW23449   3.139   1.464   2.330 -0.0122 -0.3342  0.6192
 3996SOL    HW123450   3.108   1.481   2.241 -1.7750  1.3444  1.5560
 3996SOL    HW223451   3.065   1.491   2.384 -1.2189 -2.3300 -0.0326
 3997SOL     OW23452   2.852   1.522   8.202  0.1426 -0.2436  0.5835
 3997SOL    HW123453   2.817   1.607   8.174  2.6090  0.3875 -0.5566
 3997SOL    HW223454   2.804   1.511   8.284 -0.1673  2.0690  0.7112
 3998SOL     OW23455   0.216   0.476   5.867  0.2499 -0.3011 -0.1396
 3998SOL    HW123456   0.218   0.389   5.908  0.9075  0.0580  0.6062
 3998SOL    HW223457   0.203   0.456   5.775  0.9553 -0.5251 -0.1898
 3999SOL     OW23458   4.535   1.282   7.583 -0.1188 -0.0414  0.2930
 3999SOL    HW123459   4.587   1.289   7.662  1.4678 -0.5099 -0.7101
 3999SOL    HW223460   4.542   1.364   7.535 -0.7878 -0.0279  0.2160
 4000SOL     OW23461   3.005   1.623   4.600  0.4867  0.0235 -0.0342
 4000SOL    HW123462   3.002   1.528   4.594  1.5857  0.0263 -0.6144
 4000SOL    HW223463   3.009   1.633   4.695  2.2708  0.1722 -0.1337
 4001SOL     OW23464   3.641   0.891   9.593  0.1361 -0.6569  0.1176
 4001SOL    HW123465   3.693   0.963   9.628 -0.8819 -0.6197  1.5444
 4001SOL    HW223466   3.683   0.882   9.507 -0.8639 -0.9587 -0.3312
 4002SOL     OW23467   2.709   4.550  14.193 -0.2688 -0.0637  0.4736
 4002SOL    HW123468   2.675   4.467  14.159  0.5091  1.0262 -2.9059
 4002SOL    HW223469   2.723   4.594  14.110  0.6666 -2.3025 -0.5399
 4003SOL     OW23470   3.695   0.199   9.677  0.2523 -0.3519  0.2792
 4003SOL    HW123471   3.623   0.257   9.704 -0.2581 -1.0837  0.5061
 4003SOL    HW223472   3.711   0.162   9.764  0.7814 -2.3656 -0.6709
 4004SOL     OW23473   0.065   2.430  16.214 -0.0038 -0.6081 -0.1144
 4004SOL    HW123474   0.111   2.486  16.152 -0.3862 -0.8990 -0.6651
 4004SOL    HW223475   4.702   2.466  16.220  0.9978  2.2218 -2.4224
 4005SOL     OW23476   3.915   1.489  14.699 -0.4729 -0.1854  0.6774
 4005SOL    HW123477   3.917   1.571  14.748 -0.6298 -0.9864  2.0168
 4005SOL    HW223478   3.845   1.440  14.742 -0.9683 -0.4711 -0.4624
 4006SOL     OW23479   3.756   3.615  13.732  0.1530 -0.2576  0.5584
 4006SOL    HW123480   3.673   3.618  13.684  0.6546  1.7420 -0.1635
 4006SOL    HW223481   3.732   3.572  13.815 -0.5841 -0.0557  0.4433
 4007SOL     OW23482   2.275   2.693   9.965  0.0964  0.1397 -0.1118
 4007SOL    HW123483   2.356   2.665  10.009 -0.0555 -1.6893 -1.0215
 4007SOL    HW223484   2.318   2.759   9.911 -0.7013  0.9089  0.1915
 4008SOL     OW23485   3.070   0.292   1.687  0.1036 -0.3143 -0.3012
 4008SOL    HW123486   3.124   0.290   1.608 -0.8923 -0.8995 -0.9654
 4008SOL    HW223487   3.016   0.366   1.660  0.1199 -0.7778 -1.6058
 4009SOL     OW23488   2.974   4.723   2.380  0.2697  0.1951  0.5188
 4009SOL    HW123489   2.990   4.656   2.314  0.1558  0.7480 -0.0711
 4009SOL    HW223490   3.061   0.010   2.420  0.0957 -0.1357  1.0073
 4010SOL     OW23491   0.542   3.402   2.320 -0.1092 -0.1129  0.5564
 4010SOL    HW123492   0.463   3.358   2.289  0.0849 -0.5765  0.7129
 4010SOL    HW223493   0.559   3.345   2.395  0.6163 -2.0020 -1.0400
 4011SOL     OW23494   3.636   4.235   7.253 -0.3153  0.0284 -0.1811
 4011SOL    HW123495   3.649   4.232   7.348  2.9849  1.7257 -0.6022
 4011SOL    HW223496   3.636   4.329   7.237 -0.7063  0.3144  1.5037
 4012SOL     OW23497   2.861   0.473   3.561  0.3149  0.5321 -0.9129
 4012SOL    HW123498   2.922   0.517   3.620  1.2065  1.1425 -2.3054
 4012SOL    HW223499   2.839   0.388   3.600 -1.6271  0.6687 -1.7102
 4013SOL     OW23500   3.919   0.269  11.586  0.5372  0.0320 -0.4132
 4013SOL    HW123501   4.011   0.296  11.582  0.0031  2.1562  2.5851
 4013SOL    HW223502   3.892   0.316  11.507 -0.4790 -0.3472 -0.2895
 4014SOL     OW23503   3.176   1.382   7.527  0.1276  0.2389 -0.4005
 4014SOL    HW123504   3.239   1.430   7.473 -1.0859 -0.5750 -2.5750
 4014SOL    HW223505   3.206   1.294   7.503 -2.6067 -1.0085  0.7117
 4015SOL     OW23506   0.920   0.750   3.926 -0.4464  0.6714 -0.5443
 4015SOL    HW123507   0.962   0.719   4.006 -1.3707 -0.0098 -0.3226
 4015SOL    HW223508   0.852   0.683   3.922  0.7116 -0.4899 -0.8523
 4016SOL     OW23509   2.390   1.620  17.430 -0.1133  0.2170 -0.3771
 4016SOL    HW123510   2.366   1.644  17.340  3.8992 -2.2765 -2.0907
 4016SOL    HW223511   2.301   1.602  17.460  0.2263  0.4205  0.7342
 4017SOL     OW23512   3.087   2.975  16.845  0.3338 -0.1682  0.4200
 4017SOL    HW123513   3.112   3.050  16.790 -0.2661  1.7561  2.7567
 4017SOL    HW223514   3.174   2.946  16.871  0.4346  0.9312  1.3107
 4018SOL     OW23515   3.886   3.869   9.076  0.5155  0.2803  0.6983
 4018SOL    HW123516   3.835   3.787   9.078  1.1858 -0.1833 -1.1212
 4018SOL    HW223517   3.966   3.838   9.118  1.2736  1.7044  0.2788
 4019SOL     OW23518   4.614   0.657  10.301 -0.9173  0.5467  0.6247
 4019SOL    HW123519   4.705   0.686  10.310 -0.7874 -0.3133  2.0469
 4019SOL    HW223520   4.613   0.562  10.312 -2.0259  0.4638 -0.1934
 4020SOL     OW23521   3.311   1.132   3.437 -0.1387  0.7443 -0.3399
 4020SOL    HW123522   3.340   1.057   3.385 -3.7113 -1.3893  0.7443
 4020SOL    HW223523   3.259   1.179   3.371 -1.3476 -3.1791 -2.2187
 4021SOL     OW23524   4.169   2.197   6.412  0.1906  0.5259 -0.1492
 4021SOL    HW123525   4.172   2.111   6.369  2.0016  0.3976  0.2658
 4021SOL    HW223526   4.262   2.216   6.424 -0.5320  2.6843  1.9211
 4022SOL     OW23527   4.453   2.730   2.648 -0.5422  0.3916 -0.0977
 4022SOL    HW123528   4.375   2.751   2.699  1.0516  1.7534  1.7586
 4022SOL    HW223529   4.416   2.702   2.564  1.6620 -3.9932  0.3970
 4023SOL     OW23530   1.122   2.634  15.806 -0.5819 -0.2504 -0.1570
 4023SOL    HW123531   1.192   2.699  15.802 -1.3037  0.4789 -0.7643
 4023SOL    HW223532   1.134   2.583  15.726 -0.3684 -0.2057 -0.1525
 4024SOL     OW23533   1.397   3.565   7.064  0.1456  0.4108  0.0040
 4024SOL    HW123534   1.428   3.593   6.978 -2.8232 -2.3465 -1.9740
 4024SOL    HW223535   1.479   3.560   7.112  0.1008  2.8607  0.3706
 4025SOL     OW23536   3.204   3.075   6.094 -0.1450 -0.5049  0.4118
 4025SOL    HW123537   3.220   3.018   6.170 -2.3821 -2.4595 -0.6295
 4025SOL    HW223538   3.191   3.162   6.132 -0.0596 -0.7291  0.9545
 4026SOL     OW23539   4.438   1.857   9.705 -0.6862 -0.1188 -0.1623
 4026SOL    HW123540   4.393   1.788   9.754  1.2728 -1.6799 -0.5495
 4026SOL    HW223541   4.487   1.818   9.632 -0.9196 -0.3802 -0.1776
 4027SOL     OW23542   0.545   0.495   2.083 -0.1927 -0.1680 -0.0564
 4027SOL    HW123543   0.452   0.483   2.103 -0.3748  2.9130  0.8731
 4027SOL    HW223544   0.576   0.422   2.030 -0.1373  0.8463 -1.4221
 4028SOL     OW23545   0.047   3.131  15.043  0.2676 -0.2304  0.1646
 4028SOL    HW123546   0.115   3.088  15.094 -0.4148 -2.9244 -1.1740
 4028SOL    HW223547   0.099   3.181  14.980  1.8066 -1.5095  0.4269
 4029SOL     OW23548   2.841   2.337  14.864  0.3081 -0.0405 -0.2397
 4029SOL    HW123549   2.932   2.339  14.836  0.4420  0.2923  0.2206
 4029SOL    HW223550   2.860   2.358  14.955  0.5332 -0.6303 -0.1494
 4030SOL     OW23551   1.731   2.841   1.080  0.0413 -0.1271  0.3393
 4030SOL    HW123552   1.774   2.818   1.163  0.8171 -1.9060 -0.5631
 4030SOL    HW223553   1.647   2.795   1.085  0.2965 -0.7336 -1.0105
 4031SOL     OW23554   2.719   2.850   5.831  0.0017  0.0549  0.1301
 4031SOL    HW123555   2.779   2.909   5.876 -0.4974  0.8970 -0.2996
 4031SOL    HW223556   2.652   2.913   5.804  0.7137 -0.4916 -2.8638
 4032SOL     OW23557   2.593   1.832   6.551  0.5182 -0.4210 -0.0637
 4032SOL    HW123558   2.683   1.831   6.583  1.1587  2.1784 -1.8058
 4032SOL    HW223559   2.602   1.903   6.488 -0.4372  1.0730  1.5037
 4033SOL     OW23560   4.553   0.711   3.899  0.0558 -1.3412 -0.1891
 4033SOL    HW123561   4.524   0.786   3.951 -1.5986 -0.3985 -2.4572
 4033SOL    HW223562   4.604   0.752   3.829  0.9467 -1.1793  0.5703
 4034SOL     OW23563   2.500   2.325  14.608 -0.0566 -0.0940  0.3539
 4034SOL    HW123564   2.559   2.254  14.581 -0.2896 -0.0427 -0.2763
 4034SOL    HW223565   2.490   2.379  14.530 -1.9554  1.0745  1.3922
 4035SOL     OW23566   1.417   1.765   8.304 -0.0439  0.2490 -0.4638
 4035SOL    HW123567   1.457   1.851   8.295  1.2123 -0.0117  2.6817
 4035SOL    HW223568   1.399   1.765   8.398 -1.0187 -0.4426 -0.6548
 4036SOL     OW23569   0.864   1.185  10.773 -0.2585 -0.1260  0.4018
 4036SOL    HW123570   0.775   1.175  10.807 -0.1518  0.2741  0.7944
 4036SOL    HW223571   0.908   1.186  10.858 -1.8823 -0.6408  1.2265
 4037SOL     OW23572   0.207   2.675   6.794  0.2014 -0.2364 -0.0332
 4037SOL    HW123573   0.138   2.736   6.766  0.4112  1.3397  2.8894
 4037SOL    HW223574   0.218   2.609   6.725 -0.1554 -0.4763  0.1380
 4038SOL     OW23575   1.596   1.529   5.286  0.0474  0.2575 -0.2354
 4038SOL    HW123576   1.625   1.484   5.207 -1.2023 -0.0113 -0.5332
 4038SOL    HW223577   1.520   1.577   5.253 -0.9636 -0.4340  1.0857
 4039SOL     OW23578   2.208   0.561  11.510  0.1640  0.0119 -0.1975
 4039SOL    HW123579   2.232   0.522  11.595  0.7401  0.5196 -0.1271
 4039SOL    HW223580   2.294   0.579  11.472  1.1697  0.0738  2.1035
 4040SOL     OW23581   1.575   4.602   0.114 -0.0047 -0.2381 -0.0482
 4040SOL    HW123582   1.632   4.674   0.140 -0.6667 -0.4143  1.8768
 4040SOL    HW223583   1.640   4.535   0.093  1.5277  1.0373  0.6388
 4041SOL     OW23584   0.445   2.176   3.099  0.4391 -0.4494 -0.2076
 4041SOL    HW123585   0.352   2.152   3.092 -0.1799  1.5772  1.0419
 4041SOL    HW223586   0.457   2.269   3.076 -0.6105 -0.4775 -0.9088
 4042SOL     OW23587   0.455   4.092   4.448 -0.3359  0.2856 -0.3826
 4042SOL    HW123588   0.362   4.108   4.434  0.2156  1.8443 -2.2869
 4042SOL    HW223589   0.473   4.145   4.526  2.4263 -0.4387 -0.5339
 4043SOL     OW23590   4.382   4.652   1.527  0.4062 -0.0859 -0.2314
 4043SOL    HW123591   4.468   4.640   1.566 -0.5444  1.0869  2.2041
 4043SOL    HW223592   4.419   4.681   1.443 -1.0383  1.1760 -0.4396
 4044SOL     OW23593   2.736   3.084   2.652 -0.4698 -0.0601  0.5198
 4044SOL    HW123594   2.668   3.041   2.600 -1.6646  1.3802  0.8744
 4044SOL    HW223595   2.774   3.149   2.593 -2.2384  0.6248  0.1245
 4045SOL     OW23596   3.173   0.775   7.967  0.6570 -0.3233 -0.0773
 4045SOL    HW123597   3.192   0.783   8.060 -1.0615 -2.8971  0.4933
 4045SOL    HW223598   3.099   0.715   7.969  0.6463 -0.2118  2.8344
 4046SOL     OW23599   3.524   1.971   5.149 -0.4348 -0.4105 -0.1818
 4046SOL    HW123600   3.616   1.960   5.126  0.1516  0.3695  1.7752
 4046SOL    HW223601   3.517   2.066   5.142 -1.3490 -0.3866  0.9449
 4047SOL     OW23602   2.928   2.255   8.269 -0.5053  0.1440  0.1032
 4047SOL    HW123603   2.998   2.264   8.334  0.3451  1.5113 -0.9994
 4047SOL    HW223604   2.858   2.239   8.332 -0.8487  1.2956  0.0066
 4048SOL     OW23605   0.692   1.405  10.638 -0.1677 -0.0204  0.1793
 4048SOL    HW123606   0.637   1.351  10.581  0.0460  0.8991 -0.8734
 4048SOL    HW223607   0.759   1.345  10.671  0.3689  0.1161 -0.6816
 4049SOL     OW23608   3.529   2.553   8.527 -0.0372  0.0734 -0.8271
 4049SOL    HW123609   3.614   2.539   8.484  0.0525 -0.8308 -0.3605
 4049SOL    HW223610   3.506   2.460   8.536  2.2756 -0.5523 -1.2998
 4050SOL     OW23611   2.751   3.814   4.785 -0.3819  0.3543 -0.1855
 4050SOL    HW123612   2.779   3.878   4.850 -1.8365 -1.0950  1.8253
 4050SOL    HW223613   2.709   3.746   4.837  0.0978  1.4870  1.6776
 4051SOL     OW23614   4.150   0.593   4.937 -0.2137  0.1857 -0.7770
 4051SOL    HW123615   4.233   0.600   4.890  0.4117  1.6484  0.5686
 4051SOL    HW223616   4.134   0.499   4.935  1.2090 -0.0693  0.3985
 4052SOL     OW23617   1.105   0.869   4.909 -0.0440  0.0995 -0.2231
 4052SOL    HW123618   1.110   0.923   4.830 -0.0240 -0.9504 -0.9381
 4052SOL    HW223619   1.150   0.788   4.889 -0.6885 -0.9380  2.4873
 4053SOL     OW23620   4.471   1.239   2.837  0.0570 -0.1101  0.4713
 4053SOL    HW123621   4.465   1.163   2.780  0.5011 -1.3741  2.1193
 4053SOL    HW223622   4.503   1.297   2.768 -0.6094 -0.2485  0.0481
 4054SOL     OW23623   3.661   0.403   5.431  0.0666 -0.6068 -0.2877
 4054SOL    HW123624   3.727   0.472   5.446 -0.7324 -0.4357  2.3470
 4054SOL    HW223625   3.674   0.342   5.504 -1.1022 -0.6820 -0.1498
 4055SOL     OW23626   3.870   0.276   3.849 -0.0255 -0.1145  0.5090
 4055SOL    HW123627   3.845   0.183   3.849  2.2067 -0.7213  2.2054
 4055SOL    HW223628   3.936   0.278   3.780  1.1196  0.0959  1.6201
 4056SOL     OW23629   1.653   4.667   5.095 -0.7720  0.1943 -0.2598
 4056SOL    HW123630   1.720   4.696   5.156  0.6687 -1.9864 -0.8001
 4056SOL    HW223631   1.584   4.646   5.158  0.4694  0.8785  1.3229
 4057SOL     OW23632   2.187   0.255   3.223  0.3124 -0.4989 -1.2351
 4057SOL    HW123633   2.192   0.292   3.312 -2.1731 -1.4166 -0.7121
 4057SOL    HW223634   2.105   0.299   3.201  1.1634  1.5169 -0.3866
 4058SOL     OW23635   1.924   2.782   0.146  0.1320  0.3057 -0.1783
 4058SOL    HW123636   1.874   2.839   0.087 -0.3736 -2.2981 -2.3040
 4058SOL    HW223637   2.000   2.835   0.169  0.2926 -0.3237  0.7417
 4059SOL     OW23638   2.567   1.947   3.809 -0.2555  0.9152 -0.1393
 4059SOL    HW123639   2.572   1.928   3.715 -0.1041  2.0146 -0.3563
 4059SOL    HW223640   2.506   2.022   3.811  0.2648  1.3229  0.2024
 4060SOL     OW23641   0.704   3.808   7.746 -0.9810  0.3241  0.3197
 4060SOL    HW123642   0.631   3.849   7.699 -0.5620  1.3160  0.5394
 4060SOL    HW223643   0.779   3.831   7.692 -1.1720  1.7242  0.6417
 4061SOL     OW23644   3.380   4.428   6.408 -0.2865 -0.0277 -0.3931
 4061SOL    HW123645   3.471   4.407   6.391 -0.4360 -1.3879  0.3773
 4061SOL    HW223646   3.382   4.441   6.503  1.4748 -0.1234 -0.4194
 4062SOL     OW23647   3.843   3.283   8.128 -0.4203  0.1027  0.1612
 4062SOL    HW123648   3.753   3.297   8.159 -1.5779 -1.1792 -2.6271
 4062SOL    HW223649   3.870   3.202   8.173 -1.7250 -0.0611  0.6371
 4063SOL     OW23650   3.869   4.721   3.825 -0.1061  0.4105  0.3412
 4063SOL    HW123651   3.907   4.711   3.912 -1.9181 -0.4340  1.0390
 4063SOL    HW223652   3.828   4.636   3.809  0.5465 -0.1425  1.5661
 4064SOL     OW23653   4.693   4.644   5.521 -0.3440 -0.2883  0.3218
 4064SOL    HW123654   0.021   4.641   5.442 -0.1932 -2.8835  0.5305
 4064SOL    HW223655   4.674   0.013   5.523 -3.3091 -0.8354 -3.2298
 4065SOL     OW23656   2.854   1.133  13.947 -0.2683  0.4079  0.5031
 4065SOL    HW123657   2.916   1.175  13.887 -0.4618 -0.5849 -0.3940
 4065SOL    HW223658   2.905   1.073  14.002 -2.4985  0.2601  2.4021
 4066SOL     OW23659   1.428   3.488   2.816  0.7481  0.4204  0.0072
 4066SOL    HW123660   1.398   3.479   2.907 -1.4075  0.2241 -0.7299
 4066SOL    HW223661   1.391   3.410   2.774 -0.2105  0.3085  1.0574
 4067SOL     OW23662   3.108   3.342   3.213 -0.2694 -0.5256  0.2796
 4067SOL    HW123663   3.060   3.319   3.293 -0.0446 -3.7756 -0.5304
 4067SOL    HW223664   3.072   3.431   3.208 -0.9178 -0.9115 -1.8818
 4068SOL     OW23665   1.372   0.578  15.397 -0.7773 -0.3808  0.2095
 4068SOL    HW123666   1.321   0.613  15.469  0.3617  1.3649  0.1703
 4068SOL    HW223667   1.426   0.510  15.437  1.8818  0.3563 -2.1266
 4069SOL     OW23668   3.462   2.534   5.287 -0.7887 -0.3652  0.1516
 4069SOL    HW123669   3.488   2.443   5.273 -0.6846 -0.3716  0.3802
 4069SOL    HW223670   3.367   2.528   5.280 -0.9739 -1.0892  3.2111
 4070SOL     OW23671   3.493   3.888   2.497 -0.0876 -1.1465  0.2275
 4070SOL    HW123672   3.438   3.931   2.431  1.6860 -1.8860 -1.7346
 4070SOL    HW223673   3.503   3.960   2.560 -0.0408  0.5685 -1.7166
 4071SOL     OW23674   4.634   1.055   9.146 -0.0448  0.5482 -0.0588
 4071SOL    HW123675   4.629   1.135   9.095 -0.9385  0.6352  0.1770
 4071SOL    HW223676   4.689   1.002   9.088  0.0119  0.8122 -0.2414
 4072SOL     OW23677   3.367   2.617   0.921  0.1544 -0.1155 -0.1921
 4072SOL    HW123678   3.285   2.651   0.884  0.0202  0.5092  0.6808
 4072SOL    HW223679   3.380   2.533   0.876  1.2390 -0.2704  0.4062
 4073SOL     OW23680   3.329   3.796   7.195  0.4212  0.0148  0.2078
 4073SOL    HW123681   3.315   3.760   7.282 -0.1418 -1.7721 -0.6128
 4073SOL    HW223682   3.405   3.742   7.171 -1.0005 -1.7656 -0.3343
 4074SOL     OW23683   1.924   4.014  13.837 -0.1213  1.3682 -0.2908
 4074SOL    HW123684   1.967   3.929  13.845 -3.0865 -0.2108 -0.9403
 4074SOL    HW223685   1.949   4.059  13.918  1.5612 -0.3619  0.1418
 4075SOL     OW23686   2.717   0.613   0.348 -0.3192 -0.5328  0.0422
 4075SOL    HW123687   2.795   0.669   0.352  0.2441 -1.4930  2.8924
 4075SOL    HW223688   2.720   0.575   0.260  0.8031 -0.5860  0.0951
 4076SOL     OW23689   0.724   3.684   8.697 -0.3766 -0.6387  0.4169
 4076SOL    HW123690   0.722   3.637   8.613  2.7773 -0.9930  0.5598
 4076SOL    HW223691   0.808   3.644   8.719  1.5567  1.7048 -2.7218
 4077SOL     OW23692   0.120   3.766   1.945 -0.3948  0.0629  0.6340
 4077SOL    HW123693   0.068   3.750   2.023 -1.2097 -0.5987 -0.0332
 4077SOL    HW223694   0.118   3.683   1.897  2.2587  0.1925  0.3072
 4078SOL     OW23695   1.567   4.093  10.086 -0.1900  0.2275  0.7149
 4078SOL    HW123696   1.518   4.170  10.113 -0.4176  0.4574 -0.3626
 4078SOL    HW223697   1.645   4.142  10.062  1.0225 -2.1307 -0.1822
 4079SOL     OW23698   2.487   2.924  15.442 -0.3189 -0.2941  0.6901
 4079SOL    HW123699   2.457   2.989  15.379 -0.9555 -1.1439  0.1163
 4079SOL    HW223700   2.580   2.943  15.431 -0.3642 -0.5868 -0.2485
 4080SOL     OW23701   0.932   2.794  16.284  0.0911  0.3135 -0.8861
 4080SOL    HW123702   0.986   2.874  16.286 -0.1839  0.5660 -2.7623
 4080SOL    HW223703   0.973   2.734  16.222  1.4529 -0.0657  0.3887
 4081SOL     OW23704   1.356   0.649   6.076  0.0328  0.2427  0.0210
 4081SOL    HW123705   1.451   0.651   6.090  0.1239 -0.3295 -0.5307
 4081SOL    HW223706   1.344   0.583   6.145 -0.0840 -0.9918 -1.1867
 4082SOL     OW23707   0.706   3.050   7.841 -0.1241  0.1962 -0.8796
 4082SOL    HW123708   0.761   3.030   7.765  0.2767 -2.0457 -0.0012
 4082SOL    HW223709   0.624   3.018   7.804 -0.7267 -0.0066  0.6489
 4083SOL     OW23710   4.484   2.422  15.052  0.0697  0.6219 -0.0610
 4083SOL    HW123711   4.564   2.370  15.056  0.3390  1.0430  0.1449
 4083SOL    HW223712   4.418   2.369  15.096  2.3620 -0.0997  2.5367
 4084SOL     OW23713   1.397   3.565   3.606  0.4151 -0.0106  0.6222
 4084SOL    HW123714   1.453   3.573   3.529 -1.8195  0.9084 -0.9440
 4084SOL    HW223715   1.461   3.578   3.676 -0.5931  1.2414  1.3251
 4085SOL     OW23716   0.724   3.562  16.756 -0.2344  0.0391  0.1533
 4085SOL    HW123717   0.667   3.552  16.832  1.8712 -0.4810  1.6602
 4085SOL    HW223718   0.724   3.656  16.738 -2.2968  0.1940  1.0706
 4086SOL     OW23719   0.253   1.736   7.782 -0.1955  0.0651 -0.0125
 4086SOL    HW123720   0.241   1.650   7.824 -1.3801  1.6711  2.9629
 4086SOL    HW223721   0.332   1.756   7.832 -0.0039  0.1121 -0.3409
 4087SOL     OW23722   3.832   3.598   6.155  0.5452  0.3995 -0.0089
 4087SOL    HW123723   3.784   3.593   6.237  0.1372 -1.1696 -0.3514
 4087SOL    HW223724   3.920   3.579   6.189  0.1806 -0.6199  0.3549
 4088SOL     OW23725   1.306   4.203   2.524  0.3832 -0.5414  0.3952
 4088SOL    HW123726   1.338   4.115   2.504  1.6076 -0.3804  1.5833
 4088SOL    HW223727   1.388   4.253   2.522 -0.0491  0.0606 -2.2769
 4089SOL     OW23728   2.043   0.235   1.411 -0.5262  0.0541  0.1065
 4089SOL    HW123729   2.111   0.195   1.356 -0.8387 -2.6329  1.6567
 4089SOL    HW223730   1.988   0.259   1.337 -0.7516 -1.0804 -0.1015
 4090SOL     OW23731   3.571   2.003  16.432 -0.5246 -0.1607 -0.2729
 4090SOL    HW123732   3.531   2.078  16.476  1.3108  0.1270  0.9031
 4090SOL    HW223733   3.640   1.996  16.498 -1.3290 -1.1441  0.4522
 4091SOL     OW23734   2.427   3.150   8.011 -0.1399 -0.3435  0.1376
 4091SOL    HW123735   2.498   3.183   8.067  0.3036 -0.6008 -0.2703
 4091SOL    HW223736   2.403   3.068   8.053  1.8956 -1.3514 -0.7012
 4092SOL     OW23737   3.497   0.679   9.712 -0.5875  0.1647  0.1808
 4092SOL    HW123738   3.422   0.734   9.688 -0.5721 -0.9477 -2.3988
 4092SOL    HW223739   3.560   0.744   9.682 -1.5385  1.4627  0.9479
 4093SOL     OW23740   3.329   0.473   0.806 -0.6836  0.0606 -0.7963
 4093SOL    HW123741   3.267   0.424   0.751  0.4591 -0.7942 -1.3302
 4093SOL    HW223742   3.296   0.457   0.894  2.2470 -0.7557  0.1299
 4094SOL     OW23743   3.652   0.072  15.819  0.6099 -0.2491 -0.1440
 4094SOL    HW123744   3.569   0.120  15.811 -0.1705 -1.7786 -1.0403
 4094SOL    HW223745   3.648   0.021  15.739 -0.2190 -1.9204  0.9626
 4095SOL     OW23746   1.846   0.328   8.699  0.4449  0.1446 -0.7361
 4095SOL    HW123747   1.797   0.261   8.651 -0.7393  0.9888 -0.6949
 4095SOL    HW223748   1.928   0.321   8.652  0.7201 -1.5246 -0.0209
 4096SOL     OW23749   3.789   1.646  17.675  0.1362  0.6510  0.9093
 4096SOL    HW123750   3.748   1.573  17.628  0.1990 -1.0401  3.4537
 4096SOL    HW223751   3.809   1.613   0.060  1.0440 -2.2981 -0.3952
 4097SOL     OW23752   2.840   2.678   5.417  0.5499  0.6924 -0.3337
 4097SOL    HW123753   2.835   2.688   5.512 -1.9747  1.0148 -0.4792
 4097SOL    HW223754   2.779   2.748   5.391 -0.2408 -0.3668 -1.2918
 4098SOL     OW23755   3.828   4.698   6.811 -0.4062  0.1428 -0.0522
 4098SOL    HW123756   3.809   0.051   6.761 -2.3595  0.7023  1.5411
 4098SOL    HW223757   3.782   4.639   6.751 -0.3335 -0.4599  0.4784
 4099SOL     OW23758   2.640   0.039   1.781  0.1575 -0.0978  0.0576
 4099SOL    HW123759   2.589   0.009   1.856  0.7568  0.8268  0.8355
 4099SOL    HW223760   2.598   0.003   1.703  0.6743 -1.4313  0.3970
 4100SOL     OW23761   1.227   2.326  13.303 -0.0311 -0.4169  0.1012
 4100SOL    HW123762   1.234   2.313  13.398  0.3788  1.5901  0.3572
 4100SOL    HW223763   1.260   2.416  13.301  2.4134 -1.3399 -0.6051
 4101SOL     OW23764   3.825   2.487  17.123 -0.1922 -0.3997  0.2025
 4101SOL    HW123765   3.840   2.425  17.194 -1.1041  2.0599  2.5510
 4101SOL    HW223766   3.759   2.543  17.163  0.6763 -0.3439  1.5498
 4102SOL     OW23767   2.106   0.485  13.612 -0.1650  0.4312  0.1076
 4102SOL    HW123768   2.133   0.573  13.637  2.8754 -1.2568  2.8375
 4102SOL    HW223769   2.078   0.504  13.523  0.1975 -0.5225 -0.2166
 4103SOL     OW23770   3.342   2.602   3.530 -0.2784 -0.1291 -0.8590
 4103SOL    HW123771   3.259   2.612   3.578 -0.4546 -0.9356 -0.9869
 4103SOL    HW223772   3.371   2.529   3.584 -0.1520  1.0649  0.6840
 4104SOL     OW23773   3.534   1.744   6.689  0.3770 -0.5304 -0.0980
 4104SOL    HW123774   3.517   1.659   6.728 -0.3112 -1.3725 -2.2138
 4104SOL    HW223775   3.614   1.772   6.733 -0.0498  1.8674 -0.8284
 4105SOL     OW23776   1.965   3.431  13.074 -0.1489  0.5548 -0.2860
 4105SOL    HW123777   2.045   3.378  13.077 -1.1321 -1.0177 -2.0466
 4105SOL    HW223778   1.988   3.509  13.124  0.9533 -1.4451  2.3074
 4106SOL     OW23779   4.586   1.232   4.405  0.2363  0.2726 -0.0836
 4106SOL    HW123780   4.674   1.218   4.373 -0.5393 -2.5976 -0.9243
 4106SOL    HW223781   4.577   1.319   4.366  1.4817  0.9440  1.1260
 4107SOL     OW23782   0.404   0.158   2.677  0.3557  0.7007 -0.0759
 4107SOL    HW123783   0.494   0.135   2.654 -0.1077 -0.6381 -0.5418
 4107SOL    HW223784   0.396   0.250   2.652 -0.8073  0.1959 -1.5225
 4108SOL     OW23785   0.661   1.757   5.888  0.2797  0.1537  0.1151
 4108SOL    HW123786   0.631   1.784   5.975  2.6002 -0.4172  1.0908
 4108SOL    HW223787   0.749   1.789   5.869  0.6341 -0.2815  1.0118
 4109SOL     OW23788   0.050   2.884  13.037 -0.2957  0.3929  0.0971
 4109SOL    HW123789   0.006   2.844  13.112 -0.1707 -2.5055 -1.3768
 4109SOL    HW223790   4.704   2.944  13.014 -2.9465 -1.8409  2.6376
 4110SOL     OW23791   1.778   4.192   7.792  0.7057  0.2886 -0.1158
 4110SOL    HW123792   1.729   4.119   7.829 -0.1047  1.2510  0.7054
 4110SOL    HW223793   1.767   4.180   7.697  1.3161  0.5117 -0.2131
 4111SOL     OW23794   4.113   4.265   9.168 -0.0056 -0.4624 -0.2338
 4111SOL    HW123795   4.051   4.197   9.144  0.5937 -1.1481  0.1385
 4111SOL    HW223796   4.061   4.337   9.134  0.5162 -0.4404 -0.9826
 4112SOL     OW23797   4.328   0.120  11.740 -0.0703  0.2901  0.1066
 4112SOL    HW123798   4.343   0.039  11.787 -2.0126 -0.3634 -0.4012
 4112SOL    HW223799   4.389   0.121  11.667  1.9353  2.6155  1.8150
 4113SOL     OW23800   4.618   3.575   4.491  0.2469  0.4101 -0.4908
 4113SOL    HW123801   4.697   3.627   4.508  0.5806 -0.4218  0.4954
 4113SOL    HW223802   4.546   3.621   4.535 -1.5024 -1.5732 -1.2797
 4114SOL     OW23803   1.953   2.254   5.500 -0.2342 -0.2678 -0.6500
 4114SOL    HW123804   1.962   2.182   5.438  0.9383 -2.0119  1.5353
 4114SOL    HW223805   1.976   2.216   5.585 -2.2440  0.0366  0.0312
 4115SOL     OW23806   4.086   0.182   6.974  0.4147  0.2168 -0.2168
 4115SOL    HW123807   4.145   0.233   6.918 -0.6075 -0.3740 -1.8243
 4115SOL    HW223808   4.007   0.189   6.920 -0.9183 -2.2018  1.4284
 4116SOL     OW23809   2.261   4.393   4.692 -0.8354 -0.0338 -0.1703
 4116SOL    HW123810   2.306   4.362   4.614 -0.6754 -1.2041  0.3914
 4116SOL    HW223811   2.200   4.458   4.657 -0.5583 -0.3357 -1.2046
 4117SOL     OW23812   2.621   2.419  12.760 -0.4005 -1.1155 -0.4707
 4117SOL    HW123813   2.700   2.389  12.805 -1.7020 -1.4155  1.6322
 4117SOL    HW223814   2.567   2.449  12.834 -0.6372 -1.4754 -0.4960
 4118SOL     OW23815   1.310   1.288  12.993 -0.1298 -0.4689  0.1970
 4118SOL    HW123816   1.314   1.357  12.927 -0.0290 -1.7727 -1.1748
 4118SOL    HW223817   1.274   1.336  13.067 -0.4491 -0.5383  0.0861
 4119SOL     OW23818   0.850   4.484   8.771  0.4698  0.1032 -0.0691
 4119SOL    HW123819   0.836   4.409   8.712 -0.0146  0.0773  0.0782
 4119SOL    HW223820   0.867   4.549   8.703 -0.8494 -1.2737 -1.7239
 4120SOL     OW23821   3.793   1.218   1.022 -0.4587 -0.0087  0.1997
 4120SOL    HW123822   3.870   1.274   1.027  0.1630 -0.8211 -0.2857
 4120SOL    HW223823   3.730   1.267   0.970  0.6021 -0.0981 -1.1621
 4121SOL     OW23824   2.475   3.683   7.174 -0.0682 -0.0236 -0.7856
 4121SOL    HW123825   2.455   3.649   7.262 -0.0353 -1.0761 -1.1824
 4121SOL    HW223826   2.564   3.719   7.179  0.4396 -1.3998  0.0552
 4122SOL     OW23827   3.585   4.171   7.869 -0.5943  0.1695  0.3189
 4122SOL    HW123828   3.602   4.214   7.952 -0.5393  0.2915  0.2449
 4122SOL    HW223829   3.607   4.079   7.887  0.3685  0.0082 -1.6107
 4123SOL     OW23830   4.393   2.186   8.731 -0.3562  0.7220 -0.5780
 4123SOL    HW123831   4.436   2.258   8.777  1.6646  0.0331 -1.3769
 4123SOL    HW223832   4.330   2.157   8.797 -1.2091  0.9754 -1.2763
 4124SOL     OW23833   4.116   2.003   4.983 -0.2884  0.6373  0.4935
 4124SOL    HW123834   4.195   1.979   5.031  0.1126 -0.9114 -0.9511
 4124SOL    HW223835   4.131   2.096   4.965 -0.2045  0.3794 -0.7776
 4125SOL     OW23836   1.966   1.270   6.324 -0.1078  0.0966 -0.4631
 4125SOL    HW123837   1.958   1.357   6.284  1.2449  0.4051 -0.0784
 4125SOL    HW223838   1.973   1.291   6.417 -0.0092 -2.4057  0.0898
 4126SOL     OW23839   3.851   1.559  11.285  0.4320  0.1458  1.0239
 4126SOL    HW123840   3.844   1.554  11.380  1.7516 -1.3651  1.0386
 4126SOL    HW223841   3.791   1.490  11.256  1.6704 -0.5467  0.1120
 4127SOL     OW23842   3.775   0.895   3.322  0.1391  0.4358  0.0021
 4127SOL    HW123843   3.802   0.850   3.242  2.4125  0.7268  0.6001
 4127SOL    HW223844   3.753   0.983   3.292  1.5787  0.3228 -1.3440
 4128SOL     OW23845   1.765   3.869   3.647 -0.0901 -0.6214  0.0991
 4128SOL    HW123846   1.721   3.873   3.732  2.0848 -0.1662  1.2060
 4128SOL    HW223847   1.703   3.906   3.585  0.2643  0.3827  0.3477
 4129SOL     OW23848   4.375   4.574   2.581  0.1147 -0.0950 -0.0734
 4129SOL    HW123849   4.284   4.555   2.558 -0.0493 -0.4039  0.8380
 4129SOL    HW223850   4.383   4.663   2.546 -6.0214  0.9161  1.0407
 4130SOL     OW23851   0.681   1.352   6.733  0.4728 -0.2048 -0.1754
 4130SOL    HW123852   0.633   1.355   6.816  1.9294  0.3261  0.6455
 4130SOL    HW223853   0.765   1.314   6.758  0.6517  1.9932  2.5439
 4131SOL     OW23854   4.332   2.339   2.594  0.1090 -0.6838 -0.2360
 4131SOL    HW123855   4.401   2.284   2.631 -0.7331 -0.7191  1.2555
 4131SOL    HW223856   4.252   2.289   2.605 -1.4730  1.8641 -0.1686
 4132SOL     OW23857   4.306   1.686  10.403 -0.1940 -0.0356 -0.4864
 4132SOL    HW123858   4.378   1.625  10.421 -1.1685 -1.5705 -1.7709
 4132SOL    HW223859   4.334   1.758  10.459  1.2370 -0.9239 -0.0533
 4133SOL     OW23860   2.759   0.802  15.234  0.3230  0.2115 -0.0776
 4133SOL    HW123861   2.805   0.767  15.310 -0.1274  0.6032  0.3793
 4133SOL    HW223862   2.739   0.895  15.243 -0.3154  0.0481  0.1428
 4134SOL     OW23863   1.094   4.052   2.198  0.4186  0.3483 -0.1807
 4134SOL    HW123864   1.114   4.119   2.263 -1.5654  0.1740  0.6183
 4134SOL    HW223865   1.074   4.106   2.122 -1.5457 -2.1749 -1.4715
 4135SOL     OW23866   2.816   1.820   3.021 -0.3363  0.1108  0.2966
 4135SOL    HW123867   2.906   1.789   3.021  0.0519  1.2567  1.9053
 4135SOL    HW223868   2.769   1.738   3.008  2.3767 -1.7827  2.6076
 4136SOL     OW23869   1.615   2.683   6.936 -0.0805 -0.0109  0.1664
 4136SOL    HW123870   1.540   2.638   6.975  0.4706 -1.8626 -0.9357
 4136SOL    HW223871   1.591   2.718   6.850 -0.7868 -1.5649 -0.2647
 4137SOL     OW23872   3.454   2.332   5.696  0.1371  0.8099  1.1799
 4137SOL    HW123873   3.521   2.321   5.763  1.6378  3.1616  0.0782
 4137SOL    HW223874   3.458   2.241   5.667  0.4310  1.1072  0.2961
 4138SOL     OW23875   3.582   2.093   3.166 -0.2321 -0.4239  0.0894
 4138SOL    HW123876   3.512   2.112   3.103 -1.5504 -0.3317  1.6062
 4138SOL    HW223877   3.620   2.180   3.178  2.4771 -1.4939 -0.7691
 4139SOL     OW23878   2.134   1.981   9.297  0.4501  0.1645  1.0766
 4139SOL    HW123879   2.207   1.926   9.324  2.6992  0.4687 -4.3757
 4139SOL    HW223880   2.143   2.058   9.353  1.2972  0.2251  0.8671
 4140SOL     OW23881   3.686   2.929   2.497  0.1348  0.1885  0.2634
 4140SOL    HW123882   3.664   2.848   2.452  0.0408  0.1641  0.3535
 4140SOL    HW223883   3.681   2.901   2.589  1.0238  1.0196  0.5689
 4141SOL     OW23884   0.700   1.027   9.128  0.3050  0.2254 -0.0625
 4141SOL    HW123885   0.796   1.024   9.134  0.2215  0.7589  1.6599
 4141SOL    HW223886   0.682   1.088   9.201  2.0939 -0.6567  1.1249
 4142SOL     OW23887   2.598   0.756   3.687 -0.1003  0.1319  0.5445
 4142SOL    HW123888   2.662   0.738   3.757  0.4995 -1.9982 -0.5678
 4142SOL    HW223889   2.597   0.852   3.695 -0.5078  0.0741  1.2326
 4143SOL     OW23890   2.776   4.399  15.322  0.3936  0.0107  0.9200
 4143SOL    HW123891   2.701   4.439  15.366 -0.1152  2.0994 -1.8293
 4143SOL    HW223892   2.840   4.470  15.314 -0.2828  0.4701 -0.4260
 4144SOL     OW23893   2.956   2.412   4.505  0.0514  0.1073 -0.3781
 4144SOL    HW123894   3.007   2.333   4.525  0.3315  0.7219  1.4098
 4144SOL    HW223895   2.868   2.377   4.513 -0.2400  1.0402  0.4663
 4145SOL     OW23896   2.767   4.640  12.159  0.0710 -0.0241 -0.7420
 4145SOL    HW123897   2.702   4.684  12.104 -2.4480 -3.9334 -0.8319
 4145SOL    HW223898   2.848   4.641  12.107  0.2575  0.2470 -0.4507
 4146SOL     OW23899   4.039   1.823  14.508 -0.5444  0.1053  0.0825
 4146SOL    HW123900   4.026   1.748  14.450  4.4551 -1.1368  0.5941
 4146SOL    HW223901   4.061   1.775  14.589  0.7976 -1.5482 -1.2628
 4147SOL     OW23902   4.276   1.420  17.263 -0.1797 -0.8320 -0.3522
 4147SOL    HW123903   4.258   1.412  17.170  0.4273  0.8067 -0.5958
 4147SOL    HW223904   4.340   1.490  17.266 -2.6394  1.3803 -0.0190
 4148SOL     OW23905   3.461   1.581   5.498 -0.5218  0.5043 -0.0414
 4148SOL    HW123906   3.396   1.512   5.513  1.6753 -1.8442 -1.4002
 4148SOL    HW223907   3.522   1.542   5.435 -1.5044  0.8033 -1.1794
 4149SOL     OW23908   3.019   1.373  17.690  0.2527 -0.2694 -0.4758
 4149SOL    HW123909   2.980   1.287  17.677  0.5154 -0.3426 -0.7879
 4149SOL    HW223910   2.952   1.433  17.659 -0.5731 -0.5398  0.8166
 4150SOL     OW23911   0.504   3.341  11.369  0.2231 -0.0825 -0.3891
 4150SOL    HW123912   0.478   3.323  11.460  0.8642  0.5484 -0.0879
 4150SOL    HW223913   0.523   3.434  11.377  0.8145  0.0139 -2.8628
 4151SOL     OW23914   4.591   4.429   2.684  0.1321  0.6451  0.7230
 4151SOL    HW123915   4.610   4.447   2.592 -1.2170  0.1850  0.3541
 4151SOL    HW223916   4.497   4.446   2.679 -0.0254 -0.4613 -0.0528
 4152SOL     OW23917   2.002   4.426   6.271 -0.2759 -0.9249 -0.5561
 4152SOL    HW123918   1.971   4.444   6.182  0.3379  0.3009 -0.5387
 4152SOL    HW223919   2.086   4.385   6.252  0.8758  1.8473 -1.4674
 4153SOL     OW23920   2.372   0.801   8.634  0.2561 -0.3371  0.1138
 4153SOL    HW123921   2.332   0.886   8.615  0.9002  0.5365  2.7009
 4153SOL    HW223922   2.334   0.777   8.718  0.7705  1.0844  0.7430
 4154SOL     OW23923   1.979   0.532  12.356 -0.4775  0.4310 -0.7454
 4154SOL    HW123924   1.943   0.614  12.324 -2.3501 -0.6746 -1.5005
 4154SOL    HW223925   2.022   0.510  12.273  0.4827  2.1820 -0.7033
 4155SOL     OW23926   3.876   4.032   5.676  0.2556  0.3452 -0.1525
 4155SOL    HW123927   3.813   3.994   5.736  1.3759  0.0231  0.8303
 4155SOL    HW223928   3.826   4.071   5.604 -1.7387  1.7441  2.0325
 4156SOL     OW23929   0.280   1.897   3.169 -0.0503 -0.2200  0.3557
 4156SOL    HW123930   0.212   1.831   3.156  1.0072 -0.6357 -2.9850
 4156SOL    HW223931   0.285   1.936   3.082 -3.6893 -0.2593  0.1409
 4157SOL     OW23932   3.608   3.512   4.230  0.0622  0.1180  0.3306
 4157SOL    HW123933   3.609   3.449   4.302 -0.9191  0.6455  0.8018
 4157SOL    HW223934   3.608   3.459   4.150 -1.9953  0.7649 -0.1108
 4158SOL     OW23935   2.467   0.236   3.640  0.0935 -0.6755  0.0794
 4158SOL    HW123936   2.431   0.266   3.723 -2.1896 -1.3927 -0.6669
 4158SOL    HW223937   2.548   0.282   3.664 -0.3600  0.6337 -0.9167
 4159SOL     OW23938   2.234   2.534   4.431 -0.1659 -0.7444 -0.1129
 4159SOL    HW123939   2.324   2.544   4.401 -1.1022 -1.2324 -3.0892
 4159SOL    HW223940   2.219   2.443   4.457 -0.8309 -1.1223 -1.8415
 4160SOL     OW23941   2.742   0.491  11.627  0.1063 -0.0339 -0.0679
 4160SOL    HW123942   2.770   0.502  11.718 -0.6777  1.1982  0.0287
 4160SOL    HW223943   2.788   0.564  11.585  0.8695 -0.4755 -0.0020
 4161SOL     OW23944   0.256   4.558   6.186 -0.2598 -0.1393  0.1337
 4161SOL    HW123945   0.305   4.560   6.103  0.0758  1.8220  0.3707
 4161SOL    HW223946   0.192   4.629   6.185 -1.1450 -0.9409 -0.6811
 4162SOL     OW23947   4.568   3.298  17.495  0.0429  0.6967 -0.8347
 4162SOL    HW123948   4.612   3.248  17.427 -0.0145  0.8628 -0.9935
 4162SOL    HW223949   4.485   3.304  17.448  0.1237  1.3733 -0.8887
 4163SOL     OW23950   1.903   0.007   1.490  0.0605  0.3855  0.4748
 4163SOL    HW123951   1.821   0.031   1.533 -0.2076  0.2743  0.0330
 4163SOL    HW223952   1.959   0.084   1.503  1.8414 -0.7708 -0.2808
 4164SOL     OW23953   2.145   3.970  16.185  0.0419  0.4140 -0.0998
 4164SOL    HW123954   2.122   4.023  16.262 -0.9046 -0.6633  0.3627
 4164SOL    HW223955   2.172   3.891  16.232 -1.6139 -0.3978 -0.5070
 4165SOL     OW23956   2.770   1.362   6.532  0.0258  0.8093  0.2338
 4165SOL    HW123957   2.803   1.393   6.448  0.6908  0.4038  0.3502
 4165SOL    HW223958   2.676   1.372   6.518 -0.0282  1.6682  1.2296
 4166SOL     OW23959   1.161   2.285  10.876 -0.2885  0.0702 -0.6607
 4166SOL    HW123960   1.128   2.327  10.796  0.4555  2.3103  0.2269
 4166SOL    HW223961   1.171   2.198  10.838  0.2702  0.1465 -0.6822
 4167SOL     OW23962   0.122   3.600   2.600  0.0485  0.2474 -0.0496
 4167SOL    HW123963   0.065   3.522   2.592  1.2078 -0.6590  0.5630
 4167SOL    HW223964   0.058   3.668   2.621 -2.0208 -1.2601 -1.3987
 4168SOL     OW23965   3.448   3.298   1.593 -0.2155 -0.8503 -0.2316
 4168SOL    HW123966   3.395   3.348   1.531  1.5227  0.8003 -0.4138
 4168SOL    HW223967   3.500   3.242   1.535  0.6776 -1.2922  0.9863
 4169SOL     OW23968   3.815   3.004   2.067 -0.3685  0.3012  0.0688
 4169SOL    HW123969   3.780   2.921   2.034  2.3695 -0.2796 -1.4075
 4169SOL    HW223970   3.879   3.007   1.996 -0.9138  1.2140 -0.3941
 4170SOL     OW23971   2.053   1.000   6.392 -0.5026 -0.2943 -0.0801
 4170SOL    HW123972   2.053   1.052   6.473 -1.4675 -1.2241  0.5178
 4170SOL    HW223973   1.985   0.938   6.420 -0.3099 -0.5511 -0.1776
 4171SOL     OW23974   2.121   2.989   0.854 -0.3406  0.5236  0.2721
 4171SOL    HW123975   2.167   2.982   0.771  1.2922 -0.0419  1.2206
 4171SOL    HW223976   2.163   3.065   0.893  1.0678  0.1540 -0.5554
 4172SOL     OW23977   4.594   4.458   3.446 -0.0386  0.2330  0.0834
 4172SOL    HW123978   4.683   4.485   3.423  0.2153  2.1846  3.4539
 4172SOL    HW223979   4.541   4.534   3.426  0.7158  0.4074 -1.3200
 4173SOL     OW23980   2.896   0.931   3.866  0.0505  0.2687  0.0260
 4173SOL    HW123981   2.889   0.883   3.784 -0.9496 -0.6922  0.6688
 4173SOL    HW223982   2.845   0.871   3.921  1.1846 -0.8925 -0.2068
 4174SOL     OW23983   3.930   2.179  13.598  0.4408  0.2877  0.6888
 4174SOL    HW123984   3.900   2.190  13.689  1.9794 -1.0192  1.3767
 4174SOL    HW223985   3.933   2.269  13.568  0.7456 -0.9756 -2.9983
 4175SOL     OW23986   4.279   3.992   8.183 -0.0228  0.0176  0.2427
 4175SOL    HW123987   4.230   4.046   8.245  0.5895 -0.9206  1.5630
 4175SOL    HW223988   4.282   4.057   8.113 -0.3002  0.0990  0.3078
 4176SOL     OW23989   2.062   0.520   6.236  0.0309  0.0247 -0.7971
 4176SOL    HW123990   1.982   0.534   6.287  1.2409 -0.5698  1.2836
 4176SOL    HW223991   2.124   0.493   6.304 -0.8760 -0.4070 -0.1352
 4177SOL     OW23992   2.201   3.460   7.317  0.5493  0.0560 -0.4020
 4177SOL    HW123993   2.271   3.504   7.366  2.4894 -2.7529 -0.6283
 4177SOL    HW223994   2.231   3.369   7.311 -0.2504 -0.1578 -1.1319
 4178SOL     OW23995   3.938   2.555   9.399 -0.2177 -0.2340 -0.7682
 4178SOL    HW123996   3.910   2.600   9.319  0.6786  1.3459 -0.2015
 4178SOL    HW223997   3.979   2.630   9.443  1.9003  0.2972 -3.6477
 4179SOL     OW23998   2.487   1.487   8.274 -0.5621 -0.4186 -0.0825
 4179SOL    HW123999   2.533   1.451   8.350 -1.5124 -0.2685  0.5585
 4179SOL    HW224000   2.488   1.580   8.299 -0.5440 -0.0469 -1.4984
 4180SOL     OW24001   1.008   0.326   6.862 -0.9041 -0.2827  1.1320
 4180SOL    HW124002   0.956   0.264   6.810 -0.4443  0.3000 -0.0203
 4180SOL    HW224003   0.937   0.389   6.874 -0.6962 -0.3137  2.5795
 4181SOL     OW24004   4.341   4.669  15.498 -0.4809 -0.0961 -0.1192
 4181SOL    HW124005   4.412   4.723  15.533  0.1532 -0.2230 -1.2151
 4181SOL    HW224006   4.283   0.005  15.453 -2.8161 -1.8882  0.4562
 4182SOL     OW24007   1.473   2.019   2.890 -0.5782 -0.2170  0.0384
 4182SOL    HW124008   1.460   2.041   2.798 -0.0520  0.5830  0.1571
 4182SOL    HW224009   1.517   2.097   2.926  1.4718 -2.2669  1.9401
 4183SOL     OW24010   1.054   2.290   4.990 -0.0233  0.3224 -0.3770
 4183SOL    HW124011   1.084   2.310   4.902  0.1642  2.3770  0.1564
 4183SOL    HW224012   1.018   2.370   5.029  1.4860  1.1730 -0.7185
 4184SOL     OW24013   3.006   3.828  11.673 -0.2111  0.2221 -0.0173
 4184SOL    HW124014   2.924   3.797  11.712 -0.9815  0.6986 -1.2483
 4184SOL    HW224015   3.075   3.765  11.689 -0.6393 -0.1167  0.4865
 4185SOL     OW24016   4.509   2.961  16.867  0.5828  0.4405 -0.0079
 4185SOL    HW124017   4.541   3.051  16.853 -1.5195  0.7949 -2.5788
 4185SOL    HW224018   4.422   2.979  16.832  0.6127 -4.1367 -2.3222
 4186SOL     OW24019   3.601   2.464   7.962 -0.3967 -0.3640  0.0946
 4186SOL    HW124020   3.577   2.452   7.870 -1.6987 -2.5531  0.7230
 4186SOL    HW224021   3.577   2.556   7.971  2.5862  0.4454 -0.3609
 4187SOL     OW24022   1.548   1.569   9.387 -0.3336 -0.7681 -0.1095
 4187SOL    HW124023   1.569   1.626   9.313  0.7497  0.5228  1.2069
 4187SOL    HW224024   1.581   1.484   9.356  0.9209 -0.7328  1.1545
 4188SOL     OW24025   0.141   1.242  16.308  0.9603 -0.2701 -0.0417
 4188SOL    HW124026   0.211   1.200  16.359  1.5502  1.9076  0.9571
 4188SOL    HW224027   0.128   1.175  16.242  1.7788  0.4483 -0.9423
 4189SOL     OW24028   4.031   1.899   4.051 -0.3495  0.0042 -0.5427
 4189SOL    HW124029   3.999   1.975   4.100  0.2149 -0.6801  0.9141
 4189SOL    HW224030   4.027   1.938   3.964 -0.5219  0.0664 -0.5071
 4190SOL     OW24031   0.858   4.716   9.016 -0.4140  0.5223  0.2602
 4190SOL    HW124032   0.888   0.035   9.095 -2.4126 -0.6739  1.6782
 4190SOL    HW224033   0.764   4.723   9.032 -0.4138 -2.5512  1.4637
 4191SOL     OW24034   2.834   0.342  10.590 -0.0382  0.3908 -0.2234
 4191SOL    HW124035   2.913   0.302  10.626 -2.0160 -1.8360  1.6683
 4191SOL    HW224036   2.788   0.373  10.667 -2.3338 -0.8615 -1.0815
 4192SOL     OW24037   3.016   1.237  13.761 -0.0033 -0.2790  0.1281
 4192SOL    HW124038   2.993   1.222  13.669  0.8805 -1.4638  0.1113
 4192SOL    HW224039   3.082   1.306  13.752 -0.4532  0.5716  3.2554
 4193SOL     OW24040   0.292   3.831   2.371  0.1405 -0.2193  0.3239
 4193SOL    HW124041   0.354   3.807   2.302 -1.2297 -1.2956 -0.5254
 4193SOL    HW224042   0.305   3.926   2.368  0.0643 -0.2891 -1.9621
 4194SOL     OW24043   2.576   3.193   7.783  0.1589  0.3608 -0.2495
 4194SOL    HW124044   2.530   3.160   7.860 -2.3946 -3.1746 -3.2196
 4194SOL    HW224045   2.517   3.159   7.715 -1.9807  0.4409  1.5675
 4195SOL     OW24046   0.538   1.923  12.599  0.4378 -0.4167  0.3975
 4195SOL    HW124047   0.633   1.934  12.593 -0.0263  2.8356 -0.8611
 4195SOL    HW224048   0.509   2.014  12.590  0.1563 -0.3751  1.6547
 4196SOL     OW24049   4.573   1.047   8.142 -0.1992 -0.1992 -0.0785
 4196SOL    HW124050   4.600   0.997   8.219 -0.5090  0.6909  0.6163
 4196SOL    HW224051   4.656   1.082   8.112 -2.3688  2.6816 -2.6729
 4197SOL     OW24052   2.336   1.611   7.990  0.2965  0.5136 -0.1978
 4197SOL    HW124053   2.281   1.542   7.953 -1.2428  1.9220 -0.5456
 4197SOL    HW224054   2.416   1.559   7.984  1.3457  2.1562 -0.4952
 4198SOL     OW24055   0.742   1.788   5.255 -0.6707 -0.1603 -0.0314
 4198SOL    HW124056   0.752   1.762   5.164 -2.0314  1.1760 -0.5453
 4198SOL    HW224057   0.706   1.876   5.261 -0.5740 -0.0436 -1.1611
 4199SOL     OW24058   4.417   2.283   6.099  0.8596  0.0992  0.4459
 4199SOL    HW124059   4.441   2.312   6.187 -1.0017 -0.2230  1.0718
 4199SOL    HW224060   4.370   2.358   6.061  0.1823 -1.8285 -2.4634
 4200SOL     OW24061   4.052   3.631  16.264 -0.3050 -0.6217 -0.1567
 4200SOL    HW124062   3.982   3.693  16.242 -0.8517 -0.9268  0.7492
 4200SOL    HW224063   4.052   3.632  16.359 -1.4104 -1.5103 -0.1499
 4201SOL     OW24064   2.156   1.513   7.226  0.7271 -0.1323  0.0157
 4201SOL    HW124065   2.179   1.530   7.318  2.1920  2.1331 -0.7776
 4201SOL    HW224066   2.204   1.431   7.221  1.9199  0.5601  0.0317
 4202SOL     OW24067   3.618   1.947   7.600  0.1717  0.1335  0.6009
 4202SOL    HW124068   3.626   2.038   7.629  0.4745 -0.6161  2.8399
 4202SOL    HW224069   3.629   1.959   7.506 -0.8886  1.7808  0.6957
 4203SOL     OW24070   0.627   2.841   6.875 -0.0527  0.0019 -0.1194
 4203SOL    HW124071   0.577   2.890   6.810 -0.8206 -1.1326 -0.3910
 4203SOL    HW224072   0.598   2.893   6.951 -0.8847 -1.7595  0.7718
 4204SOL     OW24073   3.242   2.068   4.876 -0.0141 -0.0210  0.2359
 4204SOL    HW124074   3.310   2.010   4.909 -0.0443  0.5924  1.3602
 4204SOL    HW224075   3.193   2.007   4.821 -1.5119  2.8146 -1.5709
 4205SOL     OW24076   0.668   0.046   5.035  0.4478 -0.0563  0.4709
 4205SOL    HW124077   0.739   0.030   5.096  1.2749  1.0464 -0.1961
 4205SOL    HW224078   0.700   0.121   4.984 -2.8156  0.7875 -0.3421
 4206SOL     OW24079   3.423   1.447  10.894  0.1723  0.0675 -0.0770
 4206SOL    HW124080   3.392   1.368  10.849 -2.3658  0.1779  1.4742
 4206SOL    HW224081   3.466   1.489  10.820  0.4039  2.0746  1.2095
 4207SOL     OW24082   0.581   1.550   8.522  0.0957 -0.3709  0.0793
 4207SOL    HW124083   0.555   1.583   8.608 -0.4872 -0.1053 -0.1994
 4207SOL    HW224084   0.592   1.458   8.548  2.3411 -0.6070 -1.7750
 4208SOL     OW24085   4.218   2.326   7.770 -0.0122  0.1215  0.3004
 4208SOL    HW124086   4.269   2.312   7.850  0.3239 -0.0225  0.0586
 4208SOL    HW224087   4.137   2.362   7.806  0.4889 -0.6227  2.1920
 4209SOL     OW24088   4.668   1.753  14.749 -0.0204 -0.2028 -0.3716
 4209SOL    HW124089   4.599   1.697  14.784 -2.2498  1.2133 -2.4832
 4209SOL    HW224090   4.667   1.836  14.797  2.5379  0.0966 -0.8459
 4210SOL     OW24091   2.145   0.809   5.952  0.2591 -0.7132  0.0223
 4210SOL    HW124092   2.181   0.815   5.863 -1.9126  0.7534 -0.7521
 4210SOL    HW224093   2.052   0.803   5.931  0.5260 -2.6008 -0.5673
 4211SOL     OW24094   0.482   4.531   7.767  0.0199 -0.1260  0.5996
 4211SOL    HW124095   0.458   4.559   7.679  2.7123  0.6329  0.0979
 4211SOL    HW224096   0.573   4.506   7.755 -0.1171  0.0737 -0.8331
 4212SOL     OW24097   4.035   3.815   5.867  0.0695 -0.6602 -0.0555
 4212SOL    HW124098   4.102   3.837   5.933  0.1508 -2.8129  0.5883
 4212SOL    HW224099   3.980   3.892   5.879  3.5056  1.3455  2.9038
 4213SOL     OW24100   3.177   0.020   7.988  0.8914 -0.2040  0.3368
 4213SOL    HW124101   3.143   0.081   8.054  1.0465  1.6598 -1.2859
 4213SOL    HW224102   3.094   4.718   7.950  0.7769 -1.6728  1.6383
 4214SOL     OW24103   2.932   2.417   2.057  0.3747  0.6560 -0.0497
 4214SOL    HW124104   2.950   2.511   2.069  2.8568  0.3187 -1.1140
 4214SOL    HW224105   2.924   2.405   1.963 -1.3354 -0.1242  0.1942
 4215SOL     OW24106   1.264   3.041   6.892 -0.4768 -0.0732  0.1239
 4215SOL    HW124107   1.208   3.101   6.843 -0.6250 -0.4388 -0.1545
 4215SOL    HW224108   1.215   3.026   6.973  0.7809 -0.3928  0.8349
 4216SOL     OW24109   1.964   0.097   5.859  0.0220 -0.2820  0.5901
 4216SOL    HW124110   1.952   0.148   5.778  1.7050  1.9603  1.7697
 4216SOL    HW224111   2.000   0.166   5.914  0.9975 -1.5107  1.4938
 4217SOL     OW24112   2.013   1.215   2.608 -0.1830  0.1272  0.6293
 4217SOL    HW124113   1.991   1.233   2.700 -0.3662  0.4000  0.5312
 4217SOL    HW224114   2.007   1.302   2.570 -1.6915 -0.3418 -0.2069
 4218SOL     OW24115   0.541   3.817   6.463 -0.4926  0.1516  0.2411
 4218SOL    HW124116   0.609   3.790   6.400  0.7931  2.8719  0.4592
 4218SOL    HW224117   0.585   3.884   6.516 -1.7220  0.2875  1.0908
 4219SOL     OW24118   3.842   4.506   8.033  0.3820  0.1556  0.1862
 4219SOL    HW124119   3.785   4.550   8.096  1.7623  1.2341  0.6914
 4219SOL    HW224120   3.808   4.417   8.032 -1.2551  0.7756  0.8343
 4220SOL     OW24121   4.237   3.937   6.056 -0.5415  0.1014 -1.1267
 4220SOL    HW124122   4.322   3.955   6.095 -1.8160  0.0828  1.6163
 4220SOL    HW224123   4.272   3.919   5.968 -0.4952  2.8381 -1.6882
 4221SOL     OW24124   3.599   2.237   7.636 -0.2659 -0.2550 -0.2250
 4221SOL    HW124125   3.627   2.329   7.634  1.4576 -0.7535  1.2435
 4221SOL    HW224126   3.517   2.239   7.587 -1.2094  3.0100  1.5125
 4222SOL     OW24127   3.483   3.027   8.021 -0.1620  0.3695 -0.5516
 4222SOL    HW124128   3.574   3.006   8.001 -0.6008 -0.1250 -2.0339
 4222SOL    HW224129   3.453   2.950   8.069 -2.6147  0.3402 -2.1201
 4223SOL     OW24130   2.347   4.437   2.909 -0.0612 -0.0458 -0.1424
 4223SOL    HW124131   2.430   4.472   2.943 -0.0517  4.0018 -4.3650
 4223SOL    HW224132   2.298   4.511   2.874 -0.0059  0.0191 -0.0845
 4224SOL     OW24133   0.570   3.491   2.845 -0.0462  0.1931  0.3430
 4224SOL    HW124134   0.567   3.538   2.929  0.6739  0.0153  0.4660
 4224SOL    HW224135   0.480   3.499   2.813  1.0198  3.0471 -1.9357
 4225SOL     OW24136   4.225   0.067   1.253  0.0620  0.1023  0.7035
 4225SOL    HW124137   4.316   0.042   1.266  0.6175  3.4155  3.2899
 4225SOL    HW224138   4.199   0.095   1.341  0.1328 -1.0785  1.1070
 4226SOL     OW24139   0.963   1.413  15.398 -0.1322  0.0231 -0.6595
 4226SOL    HW124140   0.961   1.508  15.413 -1.6507 -0.2064  0.5326
 4226SOL    HW224141   0.933   1.403  15.308 -0.6864 -2.1155 -0.2338
 4227SOL     OW24142   2.959   3.690   3.984 -0.3745  0.9671  0.1966
 4227SOL    HW124143   3.053   3.703   3.974  0.0676 -1.5265  1.1811
 4227SOL    HW224144   2.934   3.621   3.923  0.1391  0.1414  0.9392
 4228SOL     OW24145   2.160   1.798   0.053 -0.5998  0.3375 -0.1945
 4228SOL    HW124146   2.222   1.726   0.067 -1.5716 -0.0547  2.0301
 4228SOL    HW224147   2.116   1.777  17.673 -1.6416 -0.2121  0.5020
 4229SOL     OW24148   1.723   4.372   6.632  0.1390 -0.9053 -0.1310
 4229SOL    HW124149   1.764   4.348   6.716  2.4852  0.3096 -0.9384
 4229SOL    HW224150   1.661   4.441   6.656 -0.8835 -1.2891 -1.6840
 4230SOL     OW24151   2.376   2.077  12.774  0.3985  0.1763  0.3411
 4230SOL    HW124152   2.318   2.007  12.744 -0.3380  0.2026  1.7286
 4230SOL    HW224153   2.391   2.043  12.862  1.4550  1.7046  0.7584
 4231SOL     OW24154   3.980   4.279   9.473 -0.4662  0.8221  0.3305
 4231SOL    HW124155   4.001   4.370   9.449  2.4249 -0.3392 -1.5704
 4231SOL    HW224156   4.039   4.268   9.548 -0.9214 -1.0630  0.3999
 4232SOL     OW24157   1.520   1.066  15.772 -0.1579  0.5665  0.3941
 4232SOL    HW124158   1.455   1.104  15.831 -0.6816 -0.6173  0.5627
 4232SOL    HW224159   1.513   1.134  15.705 -0.0028 -0.2582 -0.4432
 4233SOL     OW24160   0.391   2.074   1.820 -0.2677  0.4072  0.4335
 4233SOL    HW124161   0.471   2.046   1.776  0.8790 -0.7815  3.2635
 4233SOL    HW224162   0.323   2.015   1.789  0.3298  0.1352 -0.3710
 4234SOL     OW24163   4.237   3.790  17.008  0.2230 -0.3980 -0.3302
 4234SOL    HW124164   4.188   3.778  17.089  1.7112 -2.0302  0.3172
 4234SOL    HW224165   4.197   3.720  16.956 -1.4183  1.9077 -2.1790
 4235SOL     OW24166   0.127   0.815   2.874  0.2839 -0.5030 -0.3303
 4235SOL    HW124167   0.097   0.903   2.851  2.6143  0.2810 -0.3793
 4235SOL    HW224168   0.047   0.776   2.909 -0.2327  1.0012  0.1633
 4236SOL     OW24169   0.437   0.777   6.221 -0.4723 -0.3669  0.3091
 4236SOL    HW124170   0.405   0.864   6.246 -0.3756 -0.2823  0.1414
 4236SOL    HW224171   0.397   0.724   6.289 -0.1067 -2.2627 -0.9440
 4237SOL     OW24172   1.735   3.197   2.118 -0.3147 -0.1861 -0.7490
 4237SOL    HW124173   1.789   3.216   2.195 -0.7723 -0.6713 -0.3132
 4237SOL    HW224174   1.673   3.135   2.155  0.1894  0.5178  1.2587
 4238SOL     OW24175   2.783   1.514   3.089  0.1887  0.3005 -0.2272
 4238SOL    HW124176   2.786   1.550   3.178 -1.9039 -2.6506  1.0368
 4238SOL    HW224177   2.874   1.491   3.072  0.3965  1.1261 -0.2354
 4239SOL     OW24178   2.319   0.673   4.791  0.0385 -0.4599  0.3270
 4239SOL    HW124179   2.410   0.645   4.783  0.3418  0.1253  1.7265
 4239SOL    HW224180   2.335   0.767   4.796 -1.9703 -0.0747 -0.5508
 4240SOL     OW24181   4.487   0.861  11.045  0.1746 -0.5982  0.0779
 4240SOL    HW124182   4.543   0.888  10.971 -0.3018 -1.0962 -0.4627
 4240SOL    HW224183   4.556   0.827  11.102 -0.0677  0.2136  0.8543
 4241SOL     OW24184   0.198   4.285   2.295 -0.5072  0.1813 -0.0006
 4241SOL    HW124185   0.209   4.257   2.204  1.1900 -0.9901  0.5588
 4241SOL    HW224186   0.106   4.306   2.309 -0.2610 -0.2172  2.2093
 4242SOL     OW24187   0.651   1.497   1.221  1.0541  0.5086  0.0001
 4242SOL    HW124188   0.724   1.439   1.243  0.7117  0.0994  0.0738
 4242SOL    HW224189   0.578   1.471   1.278  0.2100  0.2489 -1.1859
 4243SOL     OW24190   1.794   0.286   6.756  0.7772  0.0716 -0.4990
 4243SOL    HW124191   1.861   0.295   6.688  1.3903  2.5895  0.4309
 4243SOL    HW224192   1.786   0.195   6.785  0.0282  1.1189  2.6597
 4244SOL     OW24193   3.646   4.019   4.538 -0.2353  0.0351  0.2493
 4244SOL    HW124194   3.558   3.986   4.558 -0.5443  0.7677  0.0952
 4244SOL    HW224195   3.685   3.971   4.611 -0.7420  0.4876  0.8164
 4245SOL     OW24196   0.992   1.028   4.050  0.2268 -0.0925  0.7992
 4245SOL    HW124197   0.904   1.054   4.074  0.2706 -0.4669  1.3537
 4245SOL    HW224198   0.977   0.942   4.011 -0.6539 -0.5817  2.2015
 4246SOL     OW24199   4.245   1.418  13.713  0.1921 -0.1465 -0.2065
 4246SOL    HW124200   4.244   1.501  13.761  2.5357  0.4269 -1.1520
 4246SOL    HW224201   4.204   1.457  13.636 -0.1766 -3.1643 -1.5446
 4247SOL     OW24202   2.409   4.363   1.559 -0.1545  0.4868  0.3523
 4247SOL    HW124203   2.454   4.331   1.638 -1.2228 -0.3525  0.6235
 4247SOL    HW224204   2.374   4.445   1.594 -1.4540  0.5210 -1.0310
 4248SOL     OW24205   0.590   2.650   6.674 -0.1267 -0.0370 -0.3800
 4248SOL    HW124206   0.597   2.693   6.760 -1.8343 -2.2383  0.8476
 4248SOL    HW224207   0.619   2.725   6.621 -0.0459 -1.7756 -2.7763
 4249SOL     OW24208   2.346   1.751  16.501  0.1863 -0.6807 -0.5235
 4249SOL    HW124209   2.351   1.658  16.522 -2.9228 -1.0641 -1.4774
 4249SOL    HW224210   2.424   1.790  16.540 -0.1539  0.0017 -0.5187
 4250SOL     OW24211   3.095   1.371   5.089 -0.0750 -0.6727 -0.6926
 4250SOL    HW124212   3.168   1.416   5.048 -0.8921  1.0000 -0.2884
 4250SOL    HW224213   3.096   1.286   5.045 -0.9154 -0.5507 -0.9435
 4251SOL     OW24214   1.124   3.547   4.870 -0.3358 -0.6299  0.2283
 4251SOL    HW124215   1.106   3.640   4.859 -1.1250 -0.8658 -0.4361
 4251SOL    HW224216   1.035   3.520   4.847 -0.4130 -1.1255  1.0838
 4252SOL     OW24217   0.565   4.399  12.313 -0.3061 -0.0636 -0.2249
 4252SOL    HW124218   0.621   4.465  12.354 -0.0929  0.1170 -0.8051
 4252SOL    HW224219   0.500   4.451  12.266  1.3734  1.3197 -1.0080
 4253SOL     OW24220   0.269   0.528   0.796 -0.0955 -0.2113  0.1455
 4253SOL    HW124221   0.205   0.599   0.808  0.4553  0.4372 -0.6789
 4253SOL    HW224222   0.271   0.497   0.886  4.3706 -2.9432 -0.9148
 4254SOL     OW24223   4.539   2.876   4.886 -0.1650  0.3771  0.2867
 4254SOL    HW124224   4.543   2.863   4.792 -2.0951  1.0451  0.1149
 4254SOL    HW224225   4.633   2.890   4.901 -0.0586  0.2430 -0.2735
 4255SOL     OW24226   1.339   0.390   2.091  0.5276  0.2003  0.0439
 4255SOL    HW124227   1.340   0.468   2.035  0.0711  0.4818  0.4321
 4255SOL    HW224228   1.257   0.400   2.138  0.2957 -0.6196 -0.1848
 4256SOL     OW24229   2.038   2.755  12.758 -0.8099  0.4745 -0.2188
 4256SOL    HW124230   1.985   2.711  12.824 -1.6088  0.2311 -1.0293
 4256SOL    HW224231   2.131   2.735  12.769 -0.2827  3.2110  0.2914
 4257SOL     OW24232   4.301   2.647   9.379 -0.2304 -0.1585 -0.2235
 4257SOL    HW124233   4.267   2.640   9.290 -1.7308 -0.2455  0.3412
 4257SOL    HW224234   4.360   2.722   9.369 -0.7928  0.0565 -1.7878
 4258SOL     OW24235   2.049   1.376   6.586  0.1183 -1.3228  0.1333
 4258SOL    HW124236   2.065   1.293   6.631 -1.9258 -1.5613  0.4301
 4258SOL    HW224237   2.140   1.405   6.579 -0.2795 -0.3111 -0.8106
 4259SOL     OW24238   1.089   3.662   8.151 -0.8138  0.2800 -0.4558
 4259SOL    HW124239   1.104   3.621   8.066 -0.6478 -0.3905 -0.0971
 4259SOL    HW224240   1.166   3.631   8.198 -1.6553 -0.0597  0.7093
 4260SOL     OW24241   2.157   2.689   7.286  0.0065 -0.1602 -0.4368
 4260SOL    HW124242   2.093   2.629   7.325 -1.0379  1.7587  0.8273
 4260SOL    HW224243   2.114   2.715   7.205  0.7508 -0.9797 -1.0949
 4261SOL     OW24244   2.041   4.248   2.618 -0.1215 -0.9494 -0.3249
 4261SOL    HW124245   2.110   4.217   2.559  2.2326  0.2859  1.7749
 4261SOL    HW224246   1.960   4.237   2.567  0.4642  1.7495 -1.8476
 4262SOL     OW24247   2.088   0.542  10.954  0.4487 -0.0701 -0.3417
 4262SOL    HW124248   2.011   0.577  10.911  0.4030  0.8660  0.4974
 4262SOL    HW224249   2.127   0.621  10.993 -0.8085  0.3098  0.1500
 4263SOL     OW24250   2.234   2.064   7.764  0.3251  0.2364 -0.0363
 4263SOL    HW124251   2.243   1.975   7.798  1.4599  0.2800 -0.2259
 4263SOL    HW224252   2.272   2.057   7.676 -0.0919  1.9565 -0.3715
 4264SOL     OW24253   1.644   3.629   7.558 -0.3604 -0.2262 -0.6561
 4264SOL    HW124254   1.635   3.708   7.505 -2.5729  0.3885  0.6340
 4264SOL    HW224255   1.686   3.663   7.637  1.6181  1.5280 -2.4585
 4265SOL     OW24256   0.389   4.659   8.026 -0.4764  0.7003 -0.1907
 4265SOL    HW124257   0.423   4.645   7.938  0.9074  0.4571  0.3705
 4265SOL    HW224258   0.297   4.679   8.014 -0.8209  0.5477  2.1197
 4266SOL     OW24259   2.950   2.635  15.846 -0.3824 -0.2020 -0.6661
 4266SOL    HW124260   2.874   2.641  15.788  0.0131 -0.6791 -1.2248
 4266SOL    HW224261   3.003   2.709  15.818 -3.2163  2.1550  0.1460
 4267SOL     OW24262   1.714   3.521   5.236 -0.0766 -0.4099  0.3701
 4267SOL    HW124263   1.627   3.554   5.256  0.3502  1.1323 -0.3231
 4267SOL    HW224264   1.711   3.495   5.144 -0.5764 -1.4606  0.6804
 4268SOL     OW24265   1.204   1.504  15.073  0.0608 -0.1560  0.7349
 4268SOL    HW124266   1.131   1.443  15.067  0.9589 -1.0069 -1.3959
 4268SOL    HW224267   1.279   1.465  15.029  0.3717 -0.3932  1.4694
 4269SOL     OW24268   0.072   0.846   5.442  0.4292 -0.0132  0.3094
 4269SOL    HW124269   0.016   0.824   5.368  1.3478 -0.4516 -0.2665
 4269SOL    HW224270   0.152   0.796   5.425  0.0480 -0.0361 -1.4375
 4270SOL     OW24271   4.391   1.852   6.402  0.1747  0.0575 -0.3124
 4270SOL    HW124272   4.482   1.821   6.401  0.5210  0.9487  2.5342
 4270SOL    HW224273   4.364   1.825   6.490  1.9605  2.1551  0.8962
 4271SOL     OW24274   4.344   4.474  13.506 -0.2754 -0.0399 -0.4384
 4271SOL    HW124275   4.433   4.506  13.491 -0.1337  0.3336  1.2774
 4271SOL    HW224276   4.355   4.418  13.582 -0.6675  0.0433 -0.3171
 4272SOL     OW24277   2.366   1.293   7.266 -0.4363 -0.3472  0.2841
 4272SOL    HW124278   2.438   1.341   7.226 -1.7306  1.6810  0.4226
 4272SOL    HW224279   2.407   1.211   7.293 -0.7258 -0.6094 -0.0735
 4273SOL     OW24280   1.859   2.591   2.024 -0.2101  0.1699  0.3068
 4273SOL    HW124281   1.895   2.507   1.996 -2.4963 -1.3955  1.9694
 4273SOL    HW224282   1.862   2.640   1.942  0.7661  0.8329  0.7502
 4274SOL     OW24283   1.352   1.252   5.948 -0.3166 -0.1708 -0.1604
 4274SOL    HW124284   1.341   1.309   6.024 -1.4902 -1.1660  0.4127
 4274SOL    HW224285   1.274   1.199   5.961  0.1225 -0.7826 -0.0083
 4275SOL     OW24286   4.635   1.072   7.071 -0.1105 -0.5073 -0.1089
 4275SOL    HW124287   4.585   1.090   7.151 -0.1877 -1.6292  0.0938
 4275SOL    HW224288   4.666   0.983   7.088  0.8713 -0.3493 -1.0815
 4276SOL     OW24289   3.951   2.287   5.880 -0.0527  0.0461 -0.2656
 4276SOL    HW124290   3.981   2.246   5.961  0.5252  0.6466 -0.1772
 4276SOL    HW224291   3.857   2.278   5.900  0.1794 -1.6654  0.0364
 4277SOL     OW24292   3.533   3.633  11.675 -0.0025 -0.5897  0.2130
 4277SOL    HW124293   3.552   3.552  11.723  1.0628  0.7532  2.0703
 4277SOL    HW224294   3.525   3.698  11.745  1.4986 -0.0393 -0.1107
 4278SOL     OW24295   2.693   4.396  12.093  0.5216 -0.8905  0.9023
 4278SOL    HW124296   2.728   4.478  12.126  3.0867 -1.0068 -1.5015
 4278SOL    HW224297   2.770   4.347  12.064 -1.0466 -3.8312  1.7019
 4279SOL     OW24298   2.659   3.070  15.266 -0.0808  0.0905  0.4840
 4279SOL    HW124299   2.718   3.141  15.242 -1.3758  1.2524  0.7317
 4279SOL    HW224300   2.693   2.996  15.217 -0.0472  1.9737 -2.2867
 4280SOL     OW24301   2.430   0.862  14.365  0.5097  0.7474  0.1116
 4280SOL    HW124302   2.433   0.908  14.281  1.6642 -0.6401 -0.6106
 4280SOL    HW224303   2.497   0.795  14.354 -1.6271 -1.5917  1.4338
 4281SOL     OW24304   3.968   3.586   6.536  0.0934 -0.2977  0.5433
 4281SOL    HW124305   3.997   3.574   6.446 -1.5412  1.1790 -0.1863
 4281SOL    HW224306   3.887   3.636   6.524  0.6137 -0.1204 -2.1981
 4282SOL     OW24307   3.855   0.242  15.902  0.2783 -0.6307  0.5184
 4282SOL    HW124308   3.807   0.170  15.862 -0.7184 -1.4240  3.1114
 4282SOL    HW224309   3.853   0.211  15.993 -3.2532 -2.8817 -0.3571
 4283SOL     OW24310   0.101   0.634   1.081 -0.2280  0.3115 -0.9122
 4283SOL    HW124311   0.065   0.622   0.994  0.4081  0.4825 -1.1964
 4283SOL    HW224312   0.159   0.558   1.073 -1.7099 -0.9154 -0.0723
 4284SOL     OW24313   1.821   1.027   0.262 -0.2277 -0.5891  0.2642
 4284SOL    HW124314   1.858   1.004   0.347  0.3649  3.8344  1.2286
 4284SOL    HW224315   1.776   1.110   0.280  2.2595  0.9551 -0.6007
 4285SOL     OW24316   3.232   2.566   8.122  0.0913  0.1193  0.1471
 4285SOL    HW124317   3.140   2.543   8.129 -0.0260  0.5586  0.0028
 4285SOL    HW224318   3.274   2.514   8.191 -1.5921 -2.2577 -0.6231
 4286SOL     OW24319   4.697   2.167   8.648 -0.2006 -0.0276  0.2033
 4286SOL    HW124320   4.694   2.213   8.563  2.6821 -0.9972 -0.4466
 4286SOL    HW224321   4.697   2.075   8.620  2.7879  0.0331 -0.0550
 4287SOL     OW24322   0.040   3.311   4.685 -0.1735 -0.2834  0.1122
 4287SOL    HW124323   0.080   3.398   4.680 -0.4656 -0.1823 -0.6197
 4287SOL    HW224324   0.092   3.265   4.750 -1.7397  0.0980  1.6540
 4288SOL     OW24325   1.320   2.044  16.832  0.1679  0.0968  0.1207
 4288SOL    HW124326   1.228   2.068  16.820  0.2319 -0.5661 -1.7086
 4288SOL    HW224327   1.320   2.031  16.927 -1.7886 -1.5951 -0.1077
 4289SOL     OW24328   0.481   4.527  10.940 -0.3949  0.6707 -0.2864
 4289SOL    HW124329   0.563   4.490  10.907  0.4474  1.6475  0.7077
 4289SOL    HW224330   0.482   4.501  11.032 -2.2889  1.1263 -0.1491
 4290SOL     OW24331   2.648   3.549   8.034 -0.1501  0.1280  0.0058
 4290SOL    HW124332   2.567   3.581   8.074  0.1537 -1.0730  1.6070
 4290SOL    HW224333   2.700   3.629   8.035  0.1775 -0.0512 -1.5225
 4291SOL     OW24334   1.586   1.361   6.087  0.3882 -0.2521 -0.1187
 4291SOL    HW124335   1.517   1.298   6.069 -0.1608 -0.6857  3.4616
 4291SOL    HW224336   1.599   1.364   6.182  0.0872  0.8756 -0.1071
 4292SOL     OW24337   3.284   4.343  11.763  0.2938  0.5231 -0.4674
 4292SOL    HW124338   3.231   4.416  11.795 -1.3631  0.0370 -2.1146
 4292SOL    HW224339   3.237   4.264  11.790  0.8201 -1.2409 -4.8328
 4293SOL     OW24340   3.274   3.750   0.669  0.6604 -0.0394 -0.0925
 4293SOL    HW124341   3.210   3.802   0.716 -0.7515 -1.3975 -0.5053
 4293SOL    HW224342   3.312   3.812   0.608 -1.9229  1.1645 -0.4687
 4294SOL     OW24343   1.260   2.055   7.618  0.0682  0.1479  0.8069
 4294SOL    HW124344   1.344   2.081   7.656  0.4388 -0.5035  0.4262
 4294SOL    HW224345   1.212   2.034   7.698  0.1607  0.0709  0.8422
 4295SOL     OW24346   2.018   2.707   5.374 -0.4346 -0.3334  0.0914
 4295SOL    HW124347   1.955   2.638   5.393  0.8706 -1.4175  0.4447
 4295SOL    HW224348   2.023   2.751   5.459  3.3031 -1.5684  0.5128
 4296SOL     OW24349   1.082   3.703  16.012  0.0569  0.2155  0.2115
 4296SOL    HW124350   1.047   3.617  16.036  1.1942 -0.1130  0.6894
 4296SOL    HW224351   1.145   3.671  15.947  0.7290  0.2189  0.8628
 4297SOL     OW24352   4.153   0.459  11.624 -0.1437 -0.2594  0.0212
 4297SOL    HW124353   4.096   0.526  11.660 -2.3186 -1.6251 -0.8736
 4297SOL    HW224354   4.179   0.417  11.706 -2.4602 -1.4246  0.1707
 4298SOL     OW24355   4.485   1.465   7.889 -0.4902 -0.0228  0.0732
 4298SOL    HW124356   4.561   1.483   7.944  1.0041  0.1618 -2.0680
 4298SOL    HW224357   4.523   1.429   7.808  0.1243  0.5755  0.0961
 4299SOL     OW24358   2.577   0.897   4.672 -0.9285  0.0231  0.3127
 4299SOL    HW124359   2.490   0.908   4.709 -0.0036  0.6391  2.3292
 4299SOL    HW224360   2.591   0.977   4.621 -2.1369  0.0519  0.0233
 4300SOL     OW24361   2.013   1.540   1.392 -0.4300 -0.5200  0.3245
 4300SOL    HW124362   2.027   1.630   1.363  0.1503 -1.4010 -2.1673
 4300SOL    HW224363   1.972   1.561   1.476 -0.5789 -1.2569  0.4369
 4301SOL     OW24364   0.588   0.739   7.500  0.1976 -0.0648 -0.2169
 4301SOL    HW124365   0.674   0.732   7.543 -0.8641 -1.4225  1.6627
 4301SOL    HW224366   0.548   0.768   7.582  0.7832  1.0417 -0.3212
 4302SOL     OW24367   4.067   2.780  10.288 -0.6745 -0.1006  0.4154
 4302SOL    HW124368   4.088   2.696  10.246  1.7261  0.5844  0.2123
 4302SOL    HW224369   4.024   2.823  10.213 -0.2248 -3.5024 -1.7952
 4303SOL     OW24370   3.071   0.908   2.032 -0.9154  0.2725 -0.2866
 4303SOL    HW124371   3.044   0.885   1.943  2.1074 -3.8769 -0.1120
 4303SOL    HW224372   3.164   0.886   2.027 -1.0353 -0.0442 -1.0984
 4304SOL     OW24373   2.048   4.203   4.586 -0.1511 -0.5011 -0.9145
 4304SOL    HW124374   2.074   4.209   4.494 -1.7747  0.1052 -1.3313
 4304SOL    HW224375   1.963   4.160   4.576  0.4943 -2.0472  0.4103
 4305SOL     OW24376   1.948   4.122   4.978  0.6270  0.3925  0.1606
 4305SOL    HW124377   2.033   4.152   4.944  0.5263  0.1496 -0.3083
 4305SOL    HW224378   1.974   4.093   5.065 -0.9252  2.0245  1.1772
 4306SOL     OW24379   0.254   2.689   6.253 -0.2960  0.1794  0.3734
 4306SOL    HW124380   0.271   2.651   6.339  0.5363 -0.6137 -0.1436
 4306SOL    HW224381   0.336   2.680   6.204 -0.0415  1.4148  0.5620
 4307SOL     OW24382   0.547   0.134   6.911 -0.2875  0.4355  1.1035
 4307SOL    HW124383   0.600   0.056   6.926  1.2355  1.1944 -0.3120
 4307SOL    HW224384   0.457   0.101   6.912 -0.5002  0.9555 -1.0677
 4308SOL     OW24385   2.155   4.310  15.832 -0.2758  0.1374 -0.3284
 4308SOL    HW124386   2.095   4.250  15.876 -1.4175  1.3954 -0.1411
 4308SOL    HW224387   2.237   4.262  15.840 -0.4862  0.1830  1.9074
 4309SOL     OW24388   0.118   0.005   4.383 -0.4052  0.4836  0.4421
 4309SOL    HW124389   0.074   4.713   4.300 -1.6938  0.8105  1.0616
 4309SOL    HW224390   0.088   4.654   4.433  1.9735  0.5790  2.0149
 4310SOL     OW24391   2.082   2.056  12.354 -0.3763  0.2277  0.1288
 4310SOL    HW124392   2.059   2.003  12.277 -0.0351  1.3451 -0.7440
 4310SOL    HW224393   2.173   2.027  12.355 -0.1630  0.9518  0.8919
 4311SOL     OW24394   4.683   2.021   3.347 -0.2518  0.0558 -0.1065
 4311SOL    HW124395   4.660   2.000   3.256 -0.9007  2.0790 -0.4083
 4311SOL    HW224396   4.682   1.933   3.384 -1.4252  0.7269  1.4594
 4312SOL     OW24397   3.433   3.394   6.145  0.0219  0.3181  0.9559
 4312SOL    HW124398   3.491   3.450   6.197 -1.4362 -0.0130  2.9834
 4312SOL    HW224399   3.454   3.308   6.180  0.7321 -1.3040 -3.4743
 4313SOL     OW24400   0.329   0.659  15.021  0.0387  0.0018 -0.2892
 4313SOL    HW124401   0.307   0.749  14.998  2.0429  0.3578 -0.7988
 4313SOL    HW224402   0.253   0.619  14.978  0.7645  0.3765 -1.9217
 4314SOL     OW24403   3.349   1.523   6.398  0.6614 -0.2281 -0.4531
 4314SOL    HW124404   3.304   1.496   6.318  2.0638  0.8218 -1.6012
 4314SOL    HW224405   3.400   1.446   6.424  2.1773  0.6422 -0.8249
 4315SOL     OW24406   3.034   2.991   4.453 -0.0834 -0.0719  0.3231
 4315SOL    HW124407   2.988   2.956   4.377  0.4807  1.0499 -0.5239
 4315SOL    HW224408   3.091   3.057   4.414 -1.9610  2.4949  1.9087
 4316SOL     OW24409   0.102   4.635  15.659  0.2169 -0.0672 -0.4973
 4316SOL    HW124410   0.102   4.649  15.565 -2.8501 -0.4806 -0.5391
 4316SOL    HW224411   0.194   4.623  15.686  1.0526 -0.5344 -3.6007
 4317SOL     OW24412   3.810   2.847   9.852  0.2615 -0.1126  0.4757
 4317SOL    HW124413   3.870   2.864   9.925  0.0381  1.4186  0.3089
 4317SOL    HW224414   3.843   2.763   9.820  1.4247 -0.2400  1.9983
 4318SOL     OW24415   0.216   3.639   1.408 -0.4059 -0.3336 -0.1803
 4318SOL    HW124416   0.247   3.549   1.396 -0.8902 -0.6576  1.0532
 4318SOL    HW224417   0.128   3.620   1.441  0.6209  0.0632  2.7286
 4319SOL     OW24418   2.877   0.815  15.682 -0.1555  0.5488  0.0185
 4319SOL    HW124419   2.922   0.897  15.700 -0.3743  0.5990  0.3501
 4319SOL    HW224420   2.825   0.818  15.763  0.3628 -1.7276  0.4476
 4320SOL     OW24421   1.249   3.362   8.559  0.5544  0.1144 -0.2243
 4320SOL    HW124422   1.338   3.331   8.576  0.8197  0.7470 -0.4535
 4320SOL    HW224423   1.198   3.282   8.565 -0.1625  0.7244  1.7696
 4321SOL     OW24424   3.854   2.974   3.225 -0.1754 -0.4453  0.1299
 4321SOL    HW124425   3.813   3.035   3.287 -0.0701 -0.9011  0.6458
 4321SOL    HW224426   3.920   2.937   3.283 -0.8796  1.9158  2.4621
 4322SOL     OW24427   4.138   3.982   8.843  0.5620 -0.3959  0.9851
 4322SOL    HW124428   4.158   3.916   8.776 -1.2172 -1.5978  1.6175
 4322SOL    HW224429   4.224   3.998   8.883  0.1909 -0.5737  1.8556
 4323SOL     OW24430   0.108   0.383  16.185 -0.0334  0.9384  0.0911
 4323SOL    HW124431   0.098   0.417  16.096 -2.6947 -0.6902 -0.2344
 4323SOL    HW224432   0.019   0.402  16.215 -0.0947 -0.3205  0.7172
 4324SOL     OW24433   3.999   3.357   9.045 -0.4114 -0.5100 -0.4282
 4324SOL    HW124434   3.961   3.272   9.021  0.8440 -0.8048 -1.3837
 4324SOL    HW224435   4.090   3.329   9.052  0.0727  1.2520  0.3388
 4325SOL     OW24436   4.534   0.618   3.211  0.3819 -0.5525 -0.8766
 4325SOL    HW124437   4.455   0.579   3.174  0.7305  0.0894 -2.2864
 4325SOL    HW224438   4.501   0.682   3.273 -0.2599 -1.0879 -0.6689
 4326SOL     OW24439   1.990   4.507   1.357 -0.5050  0.8493  0.4047
 4326SOL    HW124440   1.934   4.479   1.284 -1.4322 -2.4848  2.3794
 4326SOL    HW224441   1.950   4.592   1.376 -2.3723  0.4322 -1.7305
 4327SOL     OW24442   2.691   3.245  16.997 -0.2049  0.2556 -0.2141
 4327SOL    HW124443   2.713   3.336  17.015 -0.8881  0.6941 -1.5823
 4327SOL    HW224444   2.608   3.262  16.952 -0.1555  2.2635  0.4380
 4328SOL     OW24445   3.127   2.823   5.358  0.1139  0.6330  0.2732
 4328SOL    HW124446   3.181   2.884   5.309  0.6093 -0.3735 -0.4443
 4328SOL    HW224447   3.181   2.822   5.437  0.6651 -1.2435 -0.1288
 4329SOL     OW24448   1.547   2.976  14.565 -0.2837 -0.2145 -0.1957
 4329SOL    HW124449   1.552   2.887  14.598  0.1028  0.6108  1.9435
 4329SOL    HW224450   1.548   3.038  14.638  0.8949  1.0330 -1.2634
 4330SOL     OW24451   3.650   4.429  13.001  0.0461 -0.2281 -0.0428
 4330SOL    HW124452   3.717   4.471  13.056  1.8006 -3.7754  0.5319
 4330SOL    HW224453   3.702   4.381  12.938 -0.5822 -1.1980  0.1817
 4331SOL     OW24454   3.611   0.782   8.461  0.4911  0.4393  0.1248
 4331SOL    HW124455   3.688   0.729   8.481 -0.2467 -1.2294 -1.5129
 4331SOL    HW224456   3.599   0.795   8.367 -0.2127  2.5916  0.5004
 4332SOL     OW24457   3.612   1.306   5.904  0.2441  0.0951  0.5362
 4332SOL    HW124458   3.595   1.400   5.898 -2.0974 -0.3215  0.3497
 4332SOL    HW224459   3.670   1.291   5.830 -1.3275  0.3152 -0.7589
 4333SOL     OW24460   0.599   0.994  10.395 -0.5781  0.1379  0.0032
 4333SOL    HW124461   0.668   0.934  10.424  0.3640  1.5648  0.6967
 4333SOL    HW224462   0.638   1.081  10.396  0.7804 -0.4511 -1.2484
 4334SOL     OW24463   3.362   4.344  10.695 -0.3309  0.1021 -0.3361
 4334SOL    HW124464   3.359   4.344  10.791 -0.5527 -0.7069 -0.3462
 4334SOL    HW224465   3.430   4.280  10.674 -1.3470 -1.3567  0.8130
 4335SOL     OW24466   4.252   3.523   1.706  0.2464 -0.3721 -0.0980
 4335SOL    HW124467   4.164   3.544   1.739 -0.5744  0.3344 -2.7079
 4335SOL    HW224468   4.233   3.442   1.658 -1.9495  0.4455 -0.6310
 4336SOL     OW24469   4.363   2.861   2.305 -0.3875 -0.6539 -0.3764
 4336SOL    HW124470   4.318   2.871   2.389 -0.1791  1.6436 -0.5292
 4336SOL    HW224471   4.295   2.810   2.261  1.2321 -3.5274  0.4703
 4337SOL     OW24472   1.348   1.965   4.259  0.4477 -0.2592 -0.2599
 4337SOL    HW124473   1.397   1.918   4.326  2.3374  3.8079  1.1906
 4337SOL    HW224474   1.304   1.888   4.222 -1.6523  1.3323 -1.0441
 4338SOL     OW24475   1.276   3.947   2.378  0.2105  0.4170  0.4709
 4338SOL    HW124476   1.357   3.940   2.328  0.3470 -1.8973  0.9945
 4338SOL    HW224477   1.207   3.959   2.312  1.3242 -0.1483 -0.7927
 4339SOL     OW24478   3.938   3.855   3.983 -0.1779  0.1785 -0.2028
 4339SOL    HW124479   3.890   3.774   4.000  0.6119  0.6859  4.4311
 4339SOL    HW224480   4.026   3.827   4.010  0.1091  0.5858 -0.7156
 4340SOL     OW24481   2.591   1.258  15.636 -0.0250 -0.6821 -0.1923
 4340SOL    HW124482   2.655   1.280  15.703  1.1627 -1.6820 -0.9992
 4340SOL    HW224483   2.507   1.258  15.681  0.4826  1.9872  0.7602
 4341SOL     OW24484   2.184   4.558   1.561 -0.7048 -0.4585 -0.1167
 4341SOL    HW124485   2.222   4.632   1.514  0.6601 -2.0415 -1.4852
 4341SOL    HW224486   2.096   4.558   1.523 -0.7085  1.0262 -0.1331
 4342SOL     OW24487   0.564   0.789   2.385  0.3197 -0.1705 -0.3398
 4342SOL    HW124488   0.579   0.782   2.291  0.0241 -2.4329 -0.2294
 4342SOL    HW224489   0.470   0.809   2.391  0.0215 -1.8092  0.6666
 4343SOL     OW24490   2.917   2.167   9.035 -0.7484 -0.5171 -0.1481
 4343SOL    HW124491   2.872   2.124   9.108 -2.2927 -0.2918 -0.9519
 4343SOL    HW224492   2.844   2.212   8.991  0.0628  0.2640 -0.6816
 4344SOL     OW24493   1.822   3.739   5.379 -0.0542 -0.2268 -0.0499
 4344SOL    HW124494   1.794   3.668   5.322  0.5234 -0.6021  0.1360
 4344SOL    HW224495   1.847   3.684   5.453  1.2781  0.5891  0.1241
 4345SOL     OW24496   0.778   1.731   1.459 -0.0055 -0.0540 -0.6314
 4345SOL    HW124497   0.859   1.688   1.430  0.2602 -1.7973  2.6960
 4345SOL    HW224498   0.778   1.702   1.550  0.8643  0.2048 -0.5429
 4346SOL     OW24499   1.861   3.292   3.230  0.0668 -0.1944  0.2365
 4346SOL    HW124500   1.881   3.200   3.212  1.3089  0.5039 -1.8659
 4346SOL    HW224501   1.807   3.283   3.309 -0.8956  0.5417 -0.3241
 4347SOL     OW24502   0.336   4.267   5.570 -0.2121  0.4184  0.3474
 4347SOL    HW124503   0.331   4.199   5.638  1.0915 -1.1091 -1.0497
 4347SOL    HW224504   0.275   4.336   5.593 -1.1608  0.2779 -1.7037
 4348SOL     OW24505   1.450   2.705   9.045  0.3535  0.1666  0.4731
 4348SOL    HW124506   1.513   2.635   9.025 -0.5056 -0.6432  0.6231
 4348SOL    HW224507   1.416   2.674   9.128 -0.4471 -1.8478 -0.6205
 4349SOL     OW24508   3.064   0.235  10.698 -0.2556  0.1854 -0.0488
 4349SOL    HW124509   3.093   0.299  10.764  0.5304 -0.1389 -0.0719
 4349SOL    HW224510   3.047   0.154  10.746  1.6086 -0.6565 -0.7957
 4350SOL     OW24511   3.337   1.259  15.860  0.2351  0.3293 -0.1080
 4350SOL    HW124512   3.381   1.295  15.937  0.4374 -0.7641  0.2811
 4350SOL    HW224513   3.362   1.167  15.862  0.4435  0.3864 -0.0858
 4351SOL     OW24514   4.118   2.745   7.806 -0.0410 -0.8085  0.0031
 4351SOL    HW124515   4.152   2.830   7.775 -1.4720  0.5641  2.1973
 4351SOL    HW224516   4.168   2.686   7.750 -1.6126 -0.6860 -1.5584
 4352SOL     OW24517   2.499   4.530   1.971 -0.0789  0.4361  0.1084
 4352SOL    HW124518   2.453   4.543   2.054 -0.4214  2.1110 -0.3529
 4352SOL    HW224519   2.430   4.525   1.905  0.6133 -0.2693 -0.5604
 4353SOL     OW24520   0.224   2.251   6.775 -0.3993  0.2121  0.5091
 4353SOL    HW124521   0.292   2.271   6.839 -1.2479 -1.0424  1.7993
 4353SOL    HW224522   0.176   2.197   6.838 -1.2749  0.8441  0.3898
 4354SOL     OW24523   3.820   3.473   8.462 -0.1374  0.4785  0.1322
 4354SOL    HW124524   3.870   3.551   8.485  0.3643  0.1141  0.2785
 4354SOL    HW224525   3.864   3.402   8.509 -1.6201 -1.2544 -1.0570
 4355SOL     OW24526   0.087   1.841   8.471 -0.2269 -0.1804 -0.0708
 4355SOL    HW124527   0.148   1.802   8.534  2.7827  1.9197 -1.7123
 4355SOL    HW224528   0.136   1.919   8.445  0.3628 -0.1084  1.2402
 4356SOL     OW24529   4.483   0.960   9.583  0.3178  0.2445 -0.4529
 4356SOL    HW124530   4.443   0.905   9.649 -2.5030  1.1292 -1.4339
 4356SOL    HW224531   4.475   1.048   9.620  0.3563  0.5838 -1.2592
 4357SOL     OW24532   2.727   0.770   7.996  0.1830 -0.4719 -0.3979
 4357SOL    HW124533   2.719   0.702   7.930 -0.4455 -0.7213 -0.0655
 4357SOL    HW224534   2.641   0.808   7.980  0.8759  0.6714 -1.3356
 4358SOL     OW24535   1.995   0.303  11.901 -0.2232 -0.3768  0.6545
 4358SOL    HW124536   1.902   0.284  11.905 -0.1110 -1.4331 -1.3627
 4358SOL    HW224537   2.002   0.361  11.976 -0.5442  0.8481 -0.2658
 4359SOL     OW24538   1.842   0.097   3.019 -0.5322 -0.0834 -0.3272
 4359SOL    HW124539   1.804   0.175   2.979 -1.0477  0.5970  1.4828
 4359SOL    HW224540   1.897   0.065   2.948  0.6986 -0.6439  0.8690
 4360SOL     OW24541   0.680   3.771   4.657  0.2679  0.3173 -0.4941
 4360SOL    HW124542   0.663   3.865   4.666 -1.1192  0.1814 -1.6450
 4360SOL    HW224543   0.615   3.715   4.700  1.2767 -0.8914 -0.5367
 4361SOL     OW24544   1.983   2.012   0.623  0.6136 -0.5936  0.5809
 4361SOL    HW124545   2.047   2.054   0.566  0.1774  0.8704  1.1746
 4361SOL    HW224546   1.940   2.093   0.648  2.0069 -0.5245  2.8058
 4362SOL     OW24547   4.626   1.762   7.151  0.6310 -0.1123 -0.0868
 4362SOL    HW124548   4.697   1.803   7.201  1.2572 -0.5358 -0.6268
 4362SOL    HW224549   4.552   1.756   7.212 -0.3084  2.7325 -0.9380
 4363SOL     OW24550   2.595   0.414  17.494 -0.2285 -0.5498 -0.6453
 4363SOL    HW124551   2.627   0.500  17.519  1.4169 -0.6138 -2.5247
 4363SOL    HW224552   2.651   0.403  17.417  0.0964 -0.8966 -0.3581
 4364SOL     OW24553   1.596   1.670   4.839 -0.0273 -0.3284 -0.7281
 4364SOL    HW124554   1.552   1.705   4.762 -0.2692  2.0564  0.5011
 4364SOL    HW224555   1.564   1.741   4.894  1.2019 -0.8707  0.6808
 4365SOL     OW24556   2.600   2.264   8.308 -0.1589 -0.6192 -0.3412
 4365SOL    HW124557   2.563   2.273   8.395 -0.1616 -0.4597 -0.3584
 4365SOL    HW224558   2.523   2.293   8.259 -0.5220  1.3756  1.4419
 4366SOL     OW24559   4.568   1.359  13.527 -0.2704  0.5162 -0.1757
 4366SOL    HW124560   4.529   1.276  13.499 -0.9786  1.1128 -0.9639
 4366SOL    HW224561   4.659   1.340  13.506  0.2780  0.9742  1.8473
 4367SOL     OW24562   3.668   0.557  16.735 -0.8399 -0.1007  0.0896
 4367SOL    HW124563   3.705   0.520  16.655 -0.6305 -2.1097  1.1194
 4367SOL    HW224564   3.747   0.603  16.765  1.0458 -2.8720 -0.6678
 4368SOL     OW24565   0.180   2.739   8.667  0.2310 -0.0818 -0.6704
 4368SOL    HW124566   0.126   2.759   8.744  0.1647  1.1944 -1.0394
 4368SOL    HW224567   0.234   2.818   8.671 -0.7269  0.6349 -1.9517
 4369SOL     OW24568   0.745   3.585   5.901  0.1854  0.0591 -0.0316
 4369SOL    HW124569   0.834   3.583   5.865 -0.1158  2.8423 -0.9333
 4369SOL    HW224570   0.759   3.671   5.940  0.2938 -0.3450  0.8374
 4370SOL     OW24571   2.232   0.370   2.532  0.1242  0.3547  0.3743
 4370SOL    HW124572   2.297   0.351   2.599 -2.8318 -3.5056  2.1283
 4370SOL    HW224573   2.186   0.287   2.541  0.9091 -0.1198 -0.0270
 4371SOL     OW24574   2.807   2.768  17.060 -0.0042 -0.4467  0.4393
 4371SOL    HW124575   2.866   2.713  17.009 -1.8289 -1.5432 -0.4929
 4371SOL    HW224576   2.735   2.776  16.997  2.8510  0.1184 -2.7793
 4372SOL     OW24577   1.377   2.619   9.389  0.1782  0.7033 -0.2713
 4372SOL    HW124578   1.342   2.617   9.478 -1.3542 -0.2756 -0.9035
 4372SOL    HW224579   1.327   2.549   9.348  0.1583  0.6610 -0.1737
 4373SOL     OW24580   1.076   0.819   2.524  0.0965  0.3179 -1.0796
 4373SOL    HW124581   1.098   0.789   2.436 -2.4009 -3.1777 -0.4968
 4373SOL    HW224582   1.165   0.840   2.554 -1.3232  1.7164  2.1654
 4374SOL     OW24583   2.480   1.345  17.302 -0.4106  0.2649  0.0337
 4374SOL    HW124584   2.456   1.415  17.363 -0.5194 -1.6697  2.2532
 4374SOL    HW224585   2.419   1.348  17.228  1.0399 -0.8691 -1.1988
 4375SOL     OW24586   2.065   4.610   4.642 -0.2382 -0.3224  0.6906
 4375SOL    HW124587   2.028   4.523   4.632  0.7315 -0.7088  0.4563
 4375SOL    HW224588   2.022   4.639   4.723  0.4414  0.9618  0.6029
 4376SOL     OW24589   0.102   2.800   0.105  0.4567  0.4124  0.3381
 4376SOL    HW124590   0.025   2.747   0.128  1.3371  0.3487  3.1259
 4376SOL    HW224591   0.125   2.832   0.192 -0.1467 -2.1077  1.4206
 4377SOL     OW24592   1.028   2.308   8.085 -0.6734 -0.5003  0.1608
 4377SOL    HW124593   1.098   2.359   8.125 -0.9212 -1.1461  1.4136
 4377SOL    HW224594   1.055   2.217   8.099  2.3068  0.1939 -1.2315
 4378SOL     OW24595   0.427   3.457  11.625  0.0676 -0.2992  0.3509
 4378SOL    HW124596   0.490   3.528  11.627  0.7719 -0.9600  2.7001
 4378SOL    HW224597   0.440   3.411  11.708  1.0934  0.1690  0.4394
 4379SOL     OW24598   0.150   0.117   6.167 -0.1057  0.1380 -0.1456
 4379SOL    HW124599   0.132   0.125   6.073 -2.4701 -1.7139  0.1455
 4379SOL    HW224600   0.212   0.189   6.171 -2.6886  2.3949 -0.8464
 4380SOL     OW24601   4.325   0.386   7.674 -0.0366 -0.6207  0.3171
 4380SOL    HW124602   4.383   0.393   7.750 -0.0537  1.6698  0.1275
 4380SOL    HW224603   4.249   0.356   7.723 -1.2559  1.7626 -0.0861
 4381SOL     OW24604   1.730   1.722   1.179 -0.0018  0.3523 -0.3308
 4381SOL    HW124605   1.801   1.771   1.137  0.9739  0.8851  1.9298
 4381SOL    HW224606   1.675   1.719   1.101 -0.0979 -1.3714 -0.1917
 4382SOL     OW24607   1.845   1.172   8.737 -0.7074 -0.3702 -0.0702
 4382SOL    HW124608   1.760   1.171   8.692 -1.7657  1.0419  1.8497
 4382SOL    HW224609   1.889   1.246   8.695 -2.9514  0.8278 -0.3618
 4383SOL     OW24610   2.138   0.287   4.492  0.3139 -0.4892 -0.0933
 4383SOL    HW124611   2.167   0.374   4.520 -1.3040 -0.2780  0.8670
 4383SOL    HW224612   2.168   0.290   4.401  0.6740 -2.4646 -0.0522
 4384SOL     OW24613   2.495   0.429   4.109  0.4318  0.2524  0.1170
 4384SOL    HW124614   2.456   0.460   4.191 -1.1410 -0.3475 -0.4096
 4384SOL    HW224615   2.484   0.505   4.053  2.3250 -0.8156 -1.6890
 4385SOL     OW24616   3.864   0.069   9.017  0.4073  0.0551  0.1319
 4385SOL    HW124617   3.785   0.026   9.050  2.0709 -0.9882  2.6917
 4385SOL    HW224618   3.892   0.102   9.102  2.8749 -1.6652 -0.0051
 4386SOL     OW24619   0.133   0.485   1.439  0.3674 -0.6229  0.6853
 4386SOL    HW124620   0.129   0.415   1.373 -0.7233 -0.3773  0.4844
 4386SOL    HW224621   0.061   0.539   1.406  2.1956  0.1636 -1.9814
 4387SOL     OW24622   0.894   1.657   4.559  0.5574  0.0994  0.7711
 4387SOL    HW124623   0.821   1.638   4.501  2.2484 -0.6893 -1.0796
 4387SOL    HW224624   0.929   1.569   4.575  1.6321 -0.0699 -2.4763
 4388SOL     OW24625   1.030   4.244   6.106  0.2226  0.2281  0.5367
 4388SOL    HW124626   0.959   4.253   6.170 -1.2024 -0.9681 -0.8812
 4388SOL    HW224627   1.088   4.310   6.144  0.2484 -0.1271  1.1199
 4389SOL     OW24628   0.973   1.126   7.106  0.1950  0.3896 -0.7104
 4389SOL    HW124629   0.934   1.039   7.092  0.5802  0.4307 -1.9892
 4389SOL    HW224630   1.066   1.106   7.094  0.0499  0.1185 -1.3508
 4390SOL     OW24631   1.491   0.683   1.742 -0.0724 -0.2334 -0.2125
 4390SOL    HW124632   1.474   0.596   1.707  2.1410 -0.7216 -0.0570
 4390SOL    HW224633   1.400   0.713   1.750  0.3124  0.1183  2.9724
 4391SOL     OW24634   3.458   3.731   9.019  0.0712 -0.0230  0.2191
 4391SOL    HW124635   3.547   3.701   9.000 -0.1553  0.7392 -2.0651
 4391SOL    HW224636   3.432   3.666   9.085 -2.1750 -0.8125 -1.4323
 4392SOL     OW24637   3.089   3.800   2.848  0.0004 -0.1546  0.3270
 4392SOL    HW124638   3.045   3.726   2.806 -1.7958  0.6866  0.7443
 4392SOL    HW224639   3.166   3.785   2.792 -0.8713  2.2862 -1.5245
 4393SOL     OW24640   2.146   3.252  17.629 -0.1131 -0.1010  0.1278
 4393SOL    HW124641   2.210   3.319  17.608  1.0079 -1.3473 -0.4300
 4393SOL    HW224642   2.129   3.280   0.016 -1.1621 -1.8583  0.4936
 4394SOL     OW24643   3.861   3.989   8.827  0.1345 -0.4691 -0.1621
 4394SOL    HW124644   3.947   3.988   8.786  0.3997 -0.8387  0.3885
 4394SOL    HW224645   3.870   3.922   8.895  0.4405  0.4841  0.7394
 4395SOL     OW24646   3.905   1.400  17.478 -0.5258 -0.0548  0.4388
 4395SOL    HW124647   3.949   1.343  17.415  1.5858  0.4274  1.4685
 4395SOL    HW224648   3.944   1.373  17.562  1.2940 -1.6598 -0.9205
 4396SOL     OW24649   2.691   4.654   3.853  0.7998  0.3081 -0.1193
 4396SOL    HW124650   2.667   4.625   3.941  1.8220  2.3655  0.8419
 4396SOL    HW224651   2.729   0.015   3.871 -1.3836  1.2394 -0.0356
 4397SOL     OW24652   2.210   4.241   7.819 -0.0431  0.0507  0.0121
 4397SOL    HW124653   2.116   4.229   7.834 -0.0885 -0.7771 -0.9419
 4397SOL    HW224654   2.232   4.177   7.751  0.7223  2.2424 -1.8266
 4398SOL     OW24655   4.244   4.639   1.799 -0.1074 -0.1622  0.4639
 4398SOL    HW124656   4.310   4.684   1.852 -0.8088  0.3074  0.9293
 4398SOL    HW224657   4.300   4.589   1.739  0.1205 -1.3052  1.6477
 4399SOL     OW24658   0.343   1.489   8.954  0.5492 -0.6101  0.0607
 4399SOL    HW124659   0.329   1.501   9.047 -1.6125 -0.7020 -0.2661
 4399SOL    HW224660   0.420   1.432   8.956  0.3533 -0.8882 -0.2816
 4400SOL     OW24661   0.518   3.157  16.795  0.2519 -0.2101 -0.1636
 4400SOL    HW124662   0.566   3.105  16.731  0.1302 -1.5775  0.8654
 4400SOL    HW224663   0.431   3.119  16.785  0.6179 -0.7402 -1.3838
 4401SOL     OW24664   4.538   3.913   6.088  0.0515  0.3155  0.0124
 4401SOL    HW124665   4.512   3.852   6.019  2.5327 -1.0528  0.2896
 4401SOL    HW224666   4.606   3.855   6.123 -0.5387  0.4461  1.3701
 4402SOL     OW24667   2.162   0.814  16.341 -0.0583  0.1175  0.4097
 4402SOL    HW124668   2.104   0.886  16.367 -0.5142 -0.3615  0.7287
 4402SOL    HW224669   2.222   0.822  16.415  1.4056  1.7948 -0.9760
 4403SOL     OW24670   1.162   1.749  17.677 -0.0722 -0.0908 -0.4602
 4403SOL    HW124671   1.257   1.759  17.673 -0.1256 -0.1948 -1.8825
 4403SOL    HW224672   1.144   1.743  17.583  2.8965 -0.6693 -0.9961
 4404SOL     OW24673   4.468   3.169   5.344  0.0331  0.2805 -0.7375
 4404SOL    HW124674   4.523   3.247   5.351 -2.6365  1.9498  2.0187
 4404SOL    HW224675   4.530   3.096   5.339  0.5831  0.4874  2.5246
 4405SOL     OW24676   1.539   2.999   1.317  0.2678 -0.2604  0.0345
 4405SOL    HW124677   1.550   3.091   1.341 -0.2181  0.0667 -0.9801
 4405SOL    HW224678   1.451   2.993   1.280 -0.4635  4.1280  1.0513
 4406SOL     OW24679   3.308   1.355   2.919  0.0263 -0.1607 -0.4128
 4406SOL    HW124680   3.345   1.324   2.836  0.1598  1.9501 -1.1354
 4406SOL    HW224681   3.383   1.407   2.949 -0.1790 -0.4964  0.6951
 4407SOL     OW24682   0.150   2.854   4.181  0.2611  0.0438  0.0785
 4407SOL    HW124683   0.099   2.786   4.225  1.3367 -2.4593 -2.5491
 4407SOL    HW224684   0.222   2.794   4.162 -0.0730 -0.8994  1.8544
 4408SOL     OW24685   0.892   1.251   8.648  0.0582 -0.5704  0.2308
 4408SOL    HW124686   0.946   1.275   8.572  2.0039 -1.4274  1.3370
 4408SOL    HW224687   0.954   1.193   8.692  1.6374  1.9995  1.4025
 4409SOL     OW24688   1.290   1.798  12.026 -0.3280 -0.0807  0.2366
 4409SOL    HW124689   1.355   1.858  12.060  2.3123 -2.3404 -0.8455
 4409SOL    HW224690   1.253   1.859  11.961 -0.0419  0.5925  0.7093
 4410SOL     OW24691   1.220   0.703   3.499 -0.2486 -0.3336 -0.7068
 4410SOL    HW124692   1.141   0.651   3.516 -0.0085 -0.9158 -1.3684
 4410SOL    HW224693   1.192   0.759   3.427  0.1210 -1.4600 -1.7262
 4411SOL     OW24694   2.675   2.393   2.289  0.1582  0.0147 -0.0238
 4411SOL    HW124695   2.698   2.313   2.242  0.8669  0.4498 -0.4108
 4411SOL    HW224696   2.610   2.348   2.343 -1.6885  0.0401 -2.2746
 4412SOL     OW24697   0.469   4.012   3.245  0.3425  0.5853  0.4533
 4412SOL    HW124698   0.393   4.036   3.192  1.3133 -1.5592 -1.8805
 4412SOL    HW224699   0.479   4.090   3.301  4.0525 -0.5183  1.3141
 4413SOL     OW24700   4.205   4.237   4.027 -0.0233 -0.5115 -0.1893
 4413SOL    HW124701   4.128   4.283   4.061  1.7059  1.4578  1.0615
 4413SOL    HW224702   4.197   4.174   4.100  1.1513 -0.0476  0.3373
 4414SOL     OW24703   2.640   0.706  14.334  0.0478  0.5874 -0.3226
 4414SOL    HW124704   2.677   0.669  14.414 -1.8840  0.3312  0.4342
 4414SOL    HW224705   2.681   0.653  14.265 -1.5445  0.4728 -1.1762
 4415SOL     OW24706   1.504   0.200   0.142  0.1549 -0.1785  0.0151
 4415SOL    HW124707   1.427   0.248   0.111 -1.2434 -0.5785  2.9398
 4415SOL    HW224708   1.474   0.134   0.204  0.5588 -0.1014  0.2898
 4416SOL     OW24709   1.444   1.993   7.431 -0.5748 -0.1463  0.3017
 4416SOL    HW124710   1.438   2.064   7.367 -2.2562  1.0004  1.7454
 4416SOL    HW224711   1.368   2.016   7.484 -0.7361 -0.5651  0.2521
 4417SOL     OW24712   3.493   0.842   0.992  0.4239  0.2557 -0.5854
 4417SOL    HW124713   3.471   0.803   0.907  0.3623  0.5912 -0.7220
 4417SOL    HW224714   3.581   0.876   0.976  0.0869  1.7283  0.6696
 4418SOL     OW24715   1.240   2.602   3.556  0.0088 -0.2542 -0.5414
 4418SOL    HW124716   1.198   2.660   3.619  1.9747  0.6057 -0.0372
 4418SOL    HW224717   1.167   2.560   3.510 -2.8557  1.4290  2.4291
 4419SOL     OW24718   4.673   2.616   2.928 -0.4475  0.2230  0.5263
 4419SOL    HW124719   0.035   2.623   2.966  0.9919  0.1460 -2.7834
 4419SOL    HW224720   4.631   2.538   2.965  1.3010 -0.4505  1.0727
 4420SOL     OW24721   4.637   0.142   2.194 -0.0924  0.0751 -0.1975
 4420SOL    HW124722   4.631   0.128   2.289  1.8468  1.5152  0.1510
 4420SOL    HW224723   4.593   0.226   2.201  1.4697  0.6242  3.4492
 4421SOL     OW24724   4.213   1.021   8.306 -0.0218 -0.3378  0.1257
 4421SOL    HW124725   4.248   1.109   8.322  1.3929 -1.0787  1.1137
 4421SOL    HW224726   4.160   1.027   8.226 -1.4985 -0.7783  1.0733
 4422SOL     OW24727   1.001   4.206   5.176  0.1648  0.4387 -0.3039
 4422SOL    HW124728   1.071   4.217   5.241  0.0731  1.4639 -0.3748
 4422SOL    HW224729   0.936   4.273   5.197  0.7841  0.2904  2.0757
 4423SOL     OW24730   0.049   2.700   9.504 -0.1253  0.3808  0.3463
 4423SOL    HW124731   4.715   2.633   9.536  1.5584  0.2800  3.3111
 4423SOL    HW224732   0.086   2.649   9.432 -1.4113  1.0471 -0.7938
 4424SOL     OW24733   3.026   3.590   3.552  0.0653 -0.2725 -0.3653
 4424SOL    HW124734   3.096   3.655   3.564 -1.6016  0.8594  3.2652
 4424SOL    HW224735   3.024   3.595   3.456  1.3781  1.2195 -0.3052
 4425SOL     OW24736   3.089   0.593  15.240 -0.0429  0.1960  0.1748
 4425SOL    HW124737   3.109   0.684  15.260  3.0640 -0.2776 -0.6070
 4425SOL    HW224738   3.129   0.549  15.315  0.8336  2.7061  1.1554
 4426SOL     OW24739   3.171   4.319   6.266  0.0351 -0.2559  0.4725
 4426SOL    HW124740   3.257   4.346   6.300  0.8359 -2.0500 -0.1118
 4426SOL    HW224741   3.111   4.345   6.337 -1.1277 -2.1268  0.1740
 4427SOL     OW24742   1.156   0.370   3.230 -0.2169 -0.0306 -1.1483
 4427SOL    HW124743   1.226   0.357   3.294 -0.5203  1.0826 -0.5866
 4427SOL    HW224744   1.120   0.282   3.229  0.0403 -0.1350 -0.8348
 4428SOL     OW24745   4.389   3.646   5.398 -0.1985 -0.0904 -0.2774
 4428SOL    HW124746   4.334   3.721   5.419  2.7744  2.0670 -0.1326
 4428SOL    HW224747   4.440   3.626   5.477 -1.7085  0.5190  0.8446
 4429SOL     OW24748   4.165   1.044   8.011  0.2403 -0.9067 -0.1901
 4429SOL    HW124749   4.098   1.101   7.974 -1.4713 -3.2013 -0.6573
 4429SOL    HW224750   4.247   1.068   7.968 -0.3026  2.3688  0.6302
 4430SOL     OW24751   1.964   3.834   8.089  0.3554 -0.2321 -0.4974
 4430SOL    HW124752   1.917   3.881   8.158 -0.6410  0.9661 -2.0223
 4430SOL    HW224753   1.951   3.741   8.108 -1.5115 -0.2045 -1.6798
 4431SOL     OW24754   3.956   4.079  11.040 -0.0436  0.4523 -0.3256
 4431SOL    HW124755   3.909   4.124  10.970  0.6170  0.2893 -0.8696
 4431SOL    HW224756   4.026   4.036  10.992  1.4582  2.4711  0.0687
 4432SOL     OW24757   1.909   1.655   5.821 -0.4676  0.2582  0.2614
 4432SOL    HW124758   1.838   1.626   5.763  1.1983 -0.8884 -1.1665
 4432SOL    HW224759   1.978   1.650   5.756  0.0505  1.0663  0.7475
 4433SOL     OW24760   1.695   1.514   4.628  0.1957 -0.5350  0.3022
 4433SOL    HW124761   1.715   1.573   4.556  1.6860 -0.5536  0.6959
 4433SOL    HW224762   1.676   1.578   4.697 -2.9875 -0.9398 -0.2101
 4434SOL     OW24763   3.562   3.111   9.148  0.8997 -0.2930 -0.1238
 4434SOL    HW124764   3.518   3.027   9.136  0.3019 -0.1625  1.2421
 4434SOL    HW224765   3.594   3.101   9.237  1.7650 -0.2543 -0.4281
 4435SOL     OW24766   4.706   2.175  16.250  0.4108 -0.0040  0.2582
 4435SOL    HW124767   0.026   2.259  16.246  0.2844  0.0913  0.7888
 4435SOL    HW224768   0.031   2.121  16.189 -1.7911  0.1681 -1.7230
 4436SOL     OW24769   1.125   3.453   6.152 -0.5777 -0.0524 -0.0545
 4436SOL    HW124770   1.146   3.391   6.083 -1.3026 -0.4641  0.0912
 4436SOL    HW224771   1.212   3.489   6.169 -1.0007 -0.5223  3.1782
 4437SOL     OW24772   1.242   2.847   1.431  0.9024 -0.5503 -0.1189
 4437SOL    HW124773   1.255   2.903   1.355  0.0361  0.1768  0.2689
 4437SOL    HW224774   1.215   2.899   1.507 -0.5498 -1.0989 -0.2691
 4438SOL     OW24775   3.994   3.517  15.554 -0.6256  0.6509  0.5267
 4438SOL    HW124776   4.060   3.484  15.615 -0.0948  1.9095  0.6444
 4438SOL    HW224777   3.918   3.484  15.601  0.2703 -0.8784  0.9035
 4439SOL     OW24778   1.901   1.867   2.891  0.0156  0.3850 -0.1868
 4439SOL    HW124779   1.900   1.876   2.795 -0.0608  1.0321 -0.1254
 4439SOL    HW224780   1.984   1.904   2.918 -0.0248  0.7885 -0.6241
 4440SOL     OW24781   4.602   1.553   1.506  0.8831 -0.2812 -0.3060
 4440SOL    HW124782   4.670   1.579   1.569  0.8918  0.5144 -0.6373
 4440SOL    HW224783   4.582   1.461   1.521  1.5048 -0.4522 -0.5557
 4441SOL     OW24784   0.883   3.870   8.915 -0.1448  0.9315  0.0337
 4441SOL    HW124785   0.805   3.891   8.864 -0.3834 -1.5575 -0.6159
 4441SOL    HW224786   0.841   3.805   8.971  1.2396  1.6644  1.9319
 4442SOL     OW24787   0.200   2.435   8.533 -0.0668 -0.4416 -0.1014
 4442SOL    HW124788   0.200   2.510   8.593  1.5802 -0.1020 -0.5146
 4442SOL    HW224789   0.106   2.427   8.517  0.0980 -0.9233 -0.7833
 4443SOL     OW24790   3.360   3.856  11.613  0.2509 -0.2238 -0.3043
 4443SOL    HW124791   3.421   3.859  11.686  0.2362  0.8478 -0.3352
 4443SOL    HW224792   3.413   3.883  11.537 -0.4312 -1.9630 -1.3995
 4444SOL     OW24793   4.397   3.944   2.179  0.9146  0.2233 -0.8914
 4444SOL    HW124794   4.342   4.014   2.212  1.6964 -0.0971  1.0708
 4444SOL    HW224795   4.334   3.873   2.193  0.3204  0.9999  0.4027
 4445SOL     OW24796   3.623   2.112  17.571 -0.1065  0.5585 -0.2012
 4445SOL    HW124797   3.598   2.035  17.621 -1.1107 -0.2835 -2.0230
 4445SOL    HW224798   3.717   2.094  17.579  0.2423  1.9436 -1.1857
 4446SOL     OW24799   1.415   0.332   8.289  0.1589  0.1296 -0.6999
 4446SOL    HW124800   1.495   0.304   8.335 -0.1025 -0.8951 -0.8714
 4446SOL    HW224801   1.350   0.329   8.359 -1.1647 -1.6243 -2.0227
 4447SOL     OW24802   3.429   4.705   1.251  0.7946  0.4741 -0.3042
 4447SOL    HW124803   3.464   0.061   1.214 -0.5973  2.0830  1.8403
 4447SOL    HW224804   3.378   0.001   1.330  0.8383 -1.1752  0.1777
 4448SOL     OW24805   2.281   4.534   1.810  0.9125 -0.1220  0.0625
 4448SOL    HW124806   2.225   4.522   1.733 -1.3027 -2.0337  1.9774
 4448SOL    HW224807   2.265   4.443   1.835 -1.5483  0.2033 -0.3795
 4449SOL     OW24808   2.773   4.444   7.004  0.1547  0.4116 -0.3033
 4449SOL    HW124809   2.715   4.393   6.948  1.6895 -1.9516  0.2580
 4449SOL    HW224810   2.714   4.492   7.062  0.8310  0.1593  0.5849
 4450SOL     OW24811   0.746   2.145   1.842 -0.0097 -0.1966 -0.1653
 4450SOL    HW124812   0.705   2.106   1.765 -0.7345 -2.8909  1.5736
 4450SOL    HW224813   0.715   2.236   1.836 -0.6267 -0.3341  0.8563
 4451SOL     OW24814   3.333   1.109   8.896  0.3424 -0.1430 -0.1870
 4451SOL    HW124815   3.398   1.159   8.846  0.9357 -0.7525 -0.0114
 4451SOL    HW224816   3.362   1.143   8.980 -1.5403  0.6724  0.1455
 4452SOL     OW24817   2.866   2.496   6.956 -0.2330  0.2347  0.5726
 4452SOL    HW124818   2.847   2.581   6.916 -0.9981  0.3451  1.1520
 4452SOL    HW224819   2.873   2.514   7.050  2.4944  1.0236  0.1989
 4453SOL     OW24820   2.101   4.148  11.526  0.2290  0.0766 -0.0600
 4453SOL    HW124821   2.099   4.137  11.431 -3.6646 -0.3491  0.0711
 4453SOL    HW224822   2.190   4.118  11.541  0.0526  0.1377  1.0923
 4454SOL     OW24823   4.535   4.639   4.382  0.4939  0.3241 -0.2683
 4454SOL    HW124824   4.506   4.598   4.464  0.8532  0.5139 -0.0488
 4454SOL    HW224825   4.502   0.002   4.398  0.9710  0.2047  1.3704
 4455SOL     OW24826   0.848   4.339   1.669  0.9986  0.1472  0.0058
 4455SOL    HW124827   0.881   4.251   1.689  1.6600  0.0825 -1.3538
 4455SOL    HW224828   0.764   4.314   1.629  0.4323 -0.6410  1.6627
 4456SOL     OW24829   1.655   2.753  10.024  0.4212 -0.5881 -0.7386
 4456SOL    HW124830   1.664   2.673   9.972  2.4807 -0.6688 -0.2511
 4456SOL    HW224831   1.580   2.794   9.981  0.1284  0.3723  0.6815
 4457SOL     OW24832   0.648   2.456  13.825  0.0705  0.1458 -0.2988
 4457SOL    HW124833   0.701   2.414  13.757  2.8554  0.8278  1.4450
 4457SOL    HW224834   0.587   2.507  13.771 -0.1569 -0.3765 -0.5305
 4458SOL     OW24835   3.265   3.927   7.530 -0.1770 -0.0441 -0.1261
 4458SOL    HW124836   3.171   3.912   7.522 -0.2035  2.0022 -3.3295
 4458SOL    HW224837   3.282   4.021   7.524 -0.7399  0.1828  2.0629
 4459SOL     OW24838   4.356   0.503  17.150  1.1469  0.4122  0.1076
 4459SOL    HW124839   4.325   0.415  17.130  0.9458  0.4550  0.2269
 4459SOL    HW224840   4.435   0.506  17.096  2.0255  0.9007  1.4071
 4460SOL     OW24841   4.122   3.117   3.277  0.0227 -0.1179  0.9476
 4460SOL    HW124842   4.212   3.128   3.305  0.9470 -0.8669 -1.7185
 4460SOL    HW224843   4.087   3.103   3.365 -1.5043 -0.1838  0.3423
 4461SOL     OW24844   3.143   1.744   5.794  0.0158 -0.5753  0.0021
 4461SOL    HW124845   3.178   1.814   5.739 -1.8188 -0.6850 -1.3092
 4461SOL    HW224846   3.099   1.708   5.716 -1.2113  0.2173  0.3409
 4462SOL     OW24847   3.612   2.733  14.202 -0.1460  0.1668 -0.1605
 4462SOL    HW124848   3.655   2.792  14.140  3.0563  0.0469  1.9872
 4462SOL    HW224849   3.569   2.675  14.139 -1.2162 -0.3054  1.0144
 4463SOL     OW24850   3.409   0.207   7.787 -0.5010 -0.8244  0.5183
 4463SOL    HW124851   3.315   0.202   7.773 -0.6797 -0.7079  1.6834
 4463SOL    HW224852   3.409   0.280   7.849 -0.0630  0.4037 -0.9283
 4464SOL     OW24853   4.548   2.657   1.490 -0.3932 -0.6860  0.3878
 4464SOL    HW124854   4.515   2.733   1.537  0.4062 -0.1374  0.0531
 4464SOL    HW224855   4.523   2.584   1.547 -2.2212  1.0155  1.7798
 4465SOL     OW24856   1.213   2.232  12.035 -1.0250  0.4722  0.3868
 4465SOL    HW124857   1.227   2.324  12.055  0.1247  0.4507 -0.3289
 4465SOL    HW224858   1.121   2.218  12.055 -1.1819  3.1697  1.4646
 4466SOL     OW24859   1.449   0.602   7.296  0.2202 -0.4007 -0.0907
 4466SOL    HW124860   1.504   0.533   7.333  0.9539 -0.5669 -1.4738
 4466SOL    HW224861   1.361   0.564   7.298 -0.7530  1.7372 -1.7173
 4467SOL     OW24862   1.981   0.443   2.350 -0.2422  0.0722  0.5507
 4467SOL    HW124863   1.968   0.528   2.392  0.5615  0.5562 -0.1988
 4467SOL    HW224864   1.894   0.403   2.357  0.6107 -1.3636  3.1517
 4468SOL     OW24865   0.556   1.936   7.834  0.1836 -0.0732  0.1266
 4468SOL    HW124866   0.612   1.881   7.780 -2.5904 -0.9995 -1.7985
 4468SOL    HW224867   0.581   1.913   7.923  2.1217 -0.7470 -0.5904
 4469SOL     OW24868   1.254   4.005   9.195 -0.0051 -0.4482  0.3091
 4469SOL    HW124869   1.270   4.076   9.257 -3.1779  1.7718 -1.4713
 4469SOL    HW224870   1.161   4.020   9.181  0.5644  1.6927 -1.0878
 4470SOL     OW24871   0.358   0.011   3.010  0.1874 -0.3164 -0.1376
 4470SOL    HW124872   0.318   4.701   3.089  1.7812 -0.2062  0.7099
 4470SOL    HW224873   0.442   0.047   3.038  0.7452 -2.6812  1.2706
 4471SOL     OW24874   2.457   0.546   1.941 -0.1246 -0.4945  0.9440
 4471SOL    HW124875   2.498   0.461   1.954 -0.7577 -0.9031  0.3176
 4471SOL    HW224876   2.455   0.553   1.846  0.2325 -2.9814  0.7414
 4472SOL     OW24877   1.082   3.130   8.827  0.1249 -0.1755  0.4042
 4472SOL    HW124878   1.071   3.116   8.733  0.3483  1.7150  0.0916
 4472SOL    HW224879   1.167   3.173   8.836 -0.1037  0.1309  1.0798
 4473SOL     OW24880   1.235   0.563   4.921 -0.2214 -0.4669 -0.9156
 4473SOL    HW124881   1.302   0.557   4.989  0.0080  0.8248 -1.0383
 4473SOL    HW224882   1.236   0.481   4.872 -1.2031  0.7216 -2.9072
 4474SOL     OW24883   0.543   1.968   9.849  0.1972  0.4936 -0.6475
 4474SOL    HW124884   0.547   1.911   9.772  0.5527 -0.3190 -0.0292
 4474SOL    HW224885   0.550   1.902   9.918 -0.3052  0.3470 -0.7331
 4475SOL     OW24886   0.964   1.874   5.574  0.3915 -0.1031 -0.0237
 4475SOL    HW124887   1.004   1.909   5.495  0.1842 -0.2690 -0.2022
 4475SOL    HW224888   0.990   1.782   5.564 -1.5381 -0.4211 -2.1150
 4476SOL     OW24889   2.044   1.146   7.726  0.0038 -0.6989  0.2484
 4476SOL    HW124890   1.979   1.159   7.795  0.0270  0.4503  0.0447
 4476SOL    HW224891   2.010   1.191   7.649 -1.9831  0.4530  1.8187
 4477SOL     OW24892   2.586   1.515  14.699  0.4137 -0.2944  0.7772
 4477SOL    HW124893   2.605   1.575  14.771  1.2501  1.1439 -0.6637
 4477SOL    HW224894   2.497   1.534  14.670  1.1927  1.2474 -0.5545
 4478SOL     OW24895   3.088   1.799   7.381 -0.1396  0.1395  0.0958
 4478SOL    HW124896   3.109   1.739   7.453 -0.9813  1.8676  1.8081
 4478SOL    HW224897   3.015   1.849   7.420  0.5441  0.2295  1.2686
 4479SOL     OW24898   4.002   1.832   0.014 -0.2607  0.4325  0.3254
 4479SOL    HW124899   3.952   1.756  17.690  0.0526  1.0528 -1.9717
 4479SOL    HW224900   4.082   1.794   0.050  0.0624 -0.9133 -1.8215
 4480SOL     OW24901   4.565   4.005   5.641  0.2481  0.0748  0.6289
 4480SOL    HW124902   4.536   4.092   5.613  0.8632 -0.2272 -0.9248
 4480SOL    HW224903   4.610   4.030   5.722 -1.6146 -1.9050  2.2665
 4481SOL     OW24904   2.455   2.401  10.455  0.1501 -0.0892 -0.4162
 4481SOL    HW124905   2.394   2.467  10.421  0.2856 -0.1484 -0.7704
 4481SOL    HW224906   2.432   2.317  10.415 -1.6806  1.5587 -2.8539
 4482SOL     OW24907   0.219   4.290   7.653  0.0106  0.6655 -0.2687
 4482SOL    HW124908   0.144   4.241   7.685 -1.3245  2.4394 -0.6575
 4482SOL    HW224909   0.282   4.267   7.721 -1.4124  0.2826  0.9099
 4483SOL     OW24910   2.856   2.589   3.921  0.1986 -0.3011 -0.2387
 4483SOL    HW124911   2.831   2.671   3.963 -0.3983 -1.4010  1.5564
 4483SOL    HW224912   2.774   2.545   3.898  0.0181 -1.9904  3.5934
 4484SOL     OW24913   0.971   2.198   5.613  0.3542  0.1217  0.0103
 4484SOL    HW124914   0.898   2.142   5.641  0.2917  0.0075 -0.3849
 4484SOL    HW224915   1.011   2.140   5.548 -1.1417  0.0810 -0.8557
 4485SOL     OW24916   2.928   1.061   6.653  0.7434 -0.6877 -0.0394
 4485SOL    HW124917   2.931   1.036   6.561  4.2323  1.8479 -0.6275
 4485SOL    HW224918   2.989   1.135   6.653  0.0602 -0.1351  1.2798
 4486SOL     OW24919   2.814   2.308   4.779 -0.0837 -0.1707 -0.0764
 4486SOL    HW124920   2.795   2.298   4.873 -0.2626 -0.8138 -0.1862
 4486SOL    HW224921   2.907   2.328   4.785 -0.2968  0.8665 -0.1815
 4487SOL     OW24922   2.614   4.147  11.606 -0.3746 -0.3393 -0.6076
 4487SOL    HW124923   2.650   4.063  11.580  1.3234 -0.2814  1.6078
 4487SOL    HW224924   2.695   4.173  11.648 -1.4502  0.4431  0.9770
 4488SOL     OW24925   1.869   2.463   8.944  0.4133  0.0395  0.3575
 4488SOL    HW124926   1.926   2.395   8.908 -3.0893 -2.6373 -0.1120
 4488SOL    HW224927   1.878   2.446   9.038 -2.0481 -1.1970  0.3693
 4489SOL     OW24928   3.046   0.792  17.701  0.3605 -0.1463 -0.3976
 4489SOL    HW124929   3.091   0.760   0.076 -0.5375  2.8587  1.3519
 4489SOL    HW224930   3.040   0.709  17.653  0.9327  0.5719 -1.7033
 4490SOL     OW24931   4.236   0.711   2.974  0.4647 -0.3752 -0.2055
 4490SOL    HW124932   4.289   0.647   3.022  0.6428  0.6912  1.0280
 4490SOL    HW224933   4.254   0.663   2.894 -1.7783 -0.1328 -0.8481
 4491SOL     OW24934   3.802   1.478  11.544  0.1361 -0.4405 -0.3835
 4491SOL    HW124935   3.783   1.487  11.638 -1.5077 -1.8468 -0.5700
 4491SOL    HW224936   3.757   1.396  11.522  2.7953 -2.0405  0.1302
 4492SOL     OW24937   3.528   0.817   7.976 -0.3433 -0.2443  0.0871
 4492SOL    HW124938   3.585   0.788   8.047  0.9809  2.8184  0.2549
 4492SOL    HW224939   3.465   0.876   8.018  0.6538  2.7649 -2.6272
 4493SOL     OW24940   2.763   1.021   9.075 -0.0249  0.3633 -0.1794
 4493SOL    HW124941   2.858   1.018   9.064  0.2029  1.1455  1.4937
 4493SOL    HW224942   2.722   0.987   8.996  2.0532 -3.0104  0.1857
 4494SOL     OW24943   2.158   3.434  12.540  0.0859 -0.0863  0.4458
 4494SOL    HW124944   2.153   3.529  12.531 -1.4301 -0.2839 -0.6808
 4494SOL    HW224945   2.102   3.417  12.616  0.8024  0.9717  1.2062
 4495SOL     OW24946   0.809   2.081   5.847  0.3138 -0.4692 -0.2205
 4495SOL    HW124947   0.838   1.992   5.866  1.2182  0.1423  1.2910
 4495SOL    HW224948   0.870   2.139   5.893  0.3478  1.4375 -2.6465
 4496SOL     OW24949   1.527   4.653   5.340  0.0514  0.0292 -0.0826
 4496SOL    HW124950   1.561   0.017   5.343  2.1473 -0.8573  2.1256
 4496SOL    HW224951   1.550   4.616   5.424  1.1814  0.1488 -0.3373
 4497SOL     OW24952   0.895   0.285   2.486  0.4768  0.3901 -0.4526
 4497SOL    HW124953   0.904   0.193   2.462  0.0297  0.4140 -0.7016
 4497SOL    HW224954   0.829   0.317   2.425 -0.2403 -0.6112 -0.2045
 4498SOL     OW24955   1.433   3.392   9.981 -0.6031 -0.2111  0.0356
 4498SOL    HW124956   1.436   3.487   9.992 -2.5632 -0.0217 -1.1051
 4498SOL    HW224957   1.489   3.383   9.905 -0.1343 -3.9547  0.8240
 4499SOL     OW24958   2.618   1.620   3.767 -0.0175  0.1008  0.4360
 4499SOL    HW124959   2.689   1.671   3.806  1.2535 -1.2730 -0.0741
 4499SOL    HW224960   2.611   1.668   3.685 -1.1087 -3.6282 -1.6068
 4500SOL     OW24961   0.709   4.538   3.803 -0.0131 -0.4061 -0.0515
 4500SOL    HW124962   0.711   4.446   3.832  1.5305 -0.4999 -0.4375
 4500SOL    HW224963   0.683   4.570   3.889 -0.7194  0.6884 -0.6708
 4501SOL     OW24964   2.562   3.605  13.855  0.1316  0.3945  0.1906
 4501SOL    HW124965   2.642   3.638  13.813  0.4339  0.5364  0.8863
 4501SOL    HW224966   2.597   3.566  13.935 -0.0966  1.7972  0.9819
 4502SOL     OW24967   1.737   3.702  14.638 -0.4451 -0.2645 -0.3545
 4502SOL    HW124968   1.755   3.631  14.577  3.1385  0.9440 -0.7121
 4502SOL    HW224969   1.697   3.656  14.712 -0.5203  0.6291  0.1609
 4503SOL     OW24970   4.451   3.457   9.233  0.1472  0.3258 -0.1557
 4503SOL    HW124971   4.454   3.520   9.304  1.0271 -0.4202  0.4638
 4503SOL    HW224972   4.422   3.507   9.156  0.5264  2.7508  1.3023
 4504SOL     OW24973   4.176   3.222   5.754 -0.3141  0.3124 -0.0015
 4504SOL    HW124974   4.119   3.148   5.736  0.1625 -0.1347  0.3249
 4504SOL    HW224975   4.252   3.197   5.701 -0.8277 -1.8264  0.2636
 4505SOL     OW24976   0.889   4.651   5.348 -0.0658  0.6460 -0.5657
 4505SOL    HW124977   0.882   4.578   5.287  0.2606  1.1911 -1.2557
 4505SOL    HW224978   0.908   4.611   5.433 -1.9618 -1.9005 -1.3482
 4506SOL     OW24979   3.491   4.223   8.821  0.5310 -0.0493 -0.4023
 4506SOL    HW124980   3.475   4.142   8.869 -1.7030  0.7352  0.1828
 4506SOL    HW224981   3.402   4.254   8.839  1.6579  1.8146  1.9188
 4507SOL     OW24982   1.200   3.487   9.760 -0.1905  0.4517  0.3949
 4507SOL    HW124983   1.243   3.568   9.787 -0.9481  0.0348  2.8793
 4507SOL    HW224984   1.225   3.420   9.823 -1.0162  0.1189  0.3726
 4508SOL     OW24985   3.950   0.840   7.251 -0.4884  0.1199 -0.1856
 4508SOL    HW124986   4.023   0.797   7.295  0.9830  2.6557 -0.1287
 4508SOL    HW224987   3.885   0.804   7.311  0.3280 -2.7492 -1.0085
 4509SOL     OW24988   1.363   2.746   6.278  0.3640 -0.0048  0.0180
 4509SOL    HW124989   1.351   2.652   6.292 -0.4783  0.2325  0.8614
 4509SOL    HW224990   1.296   2.788   6.333 -1.3347  2.3512 -3.8551
 4510SOL     OW24991   2.044   0.042  16.116  0.6601  0.1369  0.3544
 4510SOL    HW124992   2.080   0.006  16.197 -0.2129 -3.5352 -0.8544
 4510SOL    HW224993   2.032   4.688  16.063  1.5531  2.1540 -2.8532
 4511SOL     OW24994   2.296   3.122  15.641 -0.4063 -0.0493 -0.2788
 4511SOL    HW124995   2.374   3.079  15.606 -1.1711 -0.9259 -0.9134
 4511SOL    HW224996   2.281   3.201  15.589 -0.4609 -0.2627 -0.5882
 4512SOL     OW24997   3.237   2.426   5.839 -0.1621  0.0935 -0.7382
 4512SOL    HW124998   3.162   2.374   5.812 -0.1265 -0.4404  0.1891
 4512SOL    HW224999   3.303   2.419   5.770 -0.1695 -1.3500 -0.5953
 4513SOL     OW25000   1.289   0.374  13.846  1.0157 -0.2208  0.7921
 4513SOL    HW125001   1.219   0.416  13.795  2.8892  0.4286 -1.2630
 4513SOL    HW225002   1.249   0.317  13.911  0.3021  1.7441  2.0731
 4514SOL     OW25003   2.603   1.173   2.491  0.2295 -0.4357 -0.2837
 4514SOL    HW125004   2.624   1.253   2.444  0.9465  0.1098  0.9878
 4514SOL    HW225005   2.571   1.212   2.572 -0.2700 -0.0739 -0.6542
 4515SOL     OW25006   0.612   3.719  10.006 -0.3461 -0.2173 -0.9356
 4515SOL    HW125007   0.584   3.638  10.050  0.9084 -0.7083 -1.0344
 4515SOL    HW225008   0.703   3.701   9.984  0.3275  1.3338  0.5880
 4516SOL     OW25009   3.395   2.326   2.384  0.2131 -0.3746 -0.2763
 4516SOL    HW125010   3.356   2.351   2.467 -1.8038  1.4255 -1.7712
 4516SOL    HW225011   3.385   2.231   2.390  1.6807 -0.4337  1.3997
 4517SOL     OW25012   2.367   1.688   3.864  0.4724 -0.1896  0.2091
 4517SOL    HW125013   2.460   1.669   3.861  0.6822  0.5403  1.7997
 4517SOL    HW225014   2.337   1.664   3.776 -2.0298 -0.7409  1.1965
 4518SOL     OW25015   1.236   3.748   4.577 -0.0165 -0.0192  0.0380
 4518SOL    HW125016   1.184   3.781   4.651  0.8229 -1.0668  1.0913
 4518SOL    HW225017   1.186   3.672   4.550 -1.6449  1.1215 -0.1512
 4519SOL     OW25018   0.839   3.968   3.324  0.1888  0.1075  0.1414
 4519SOL    HW125019   0.812   3.985   3.414  1.8678 -1.7648  0.9899
 4519SOL    HW225020   0.905   3.902   3.343  0.7476  0.8916  0.9425
 4520SOL     OW25021   3.692   2.189   5.964  0.2088  0.9308  0.5678
 4520SOL    HW125022   3.725   2.161   6.049  0.0743 -1.1151 -0.0468
 4520SOL    HW225023   3.635   2.263   5.982  0.6037  0.9014  1.9210
 4521SOL     OW25024   3.732   1.153   2.831  0.0615  0.1038  0.4789
 4521SOL    HW125025   3.746   1.075   2.885 -1.3716 -0.3902  0.1325
 4521SOL    HW225026   3.661   1.120   2.777  0.0257  0.6112  0.2141
 4522SOL     OW25027   3.649   3.779   3.300 -0.0307  0.1268  0.1262
 4522SOL    HW125028   3.611   3.850   3.352 -2.4359 -0.1318 -1.2863
 4522SOL    HW225029   3.703   3.733   3.364 -0.0557 -2.2064 -1.5548
 4523SOL     OW25030   2.552   1.845  12.173  0.0812 -0.5019  0.0701
 4523SOL    HW125031   2.457   1.832  12.175 -0.0811  0.1774 -2.6216
 4523SOL    HW225032   2.572   1.879  12.259  2.2005  0.9717 -1.0230
 4524SOL     OW25033   0.645   0.572   6.866 -0.1373  0.4494  0.0825
 4524SOL    HW125034   0.652   0.495   6.811 -2.2048 -0.9200  1.7248
 4524SOL    HW225035   0.644   0.645   6.804 -1.7831  1.7586  1.6615
 4525SOL     OW25036   1.843   2.975  17.661 -0.4572 -0.5968 -0.7095
 4525SOL    HW125037   1.851   3.008  17.571 -0.5852 -1.0777 -0.8966
 4525SOL    HW225038   1.938   2.967  17.672 -0.3329  0.7510 -0.8275
 4526SOL     OW25039   4.679   2.260   4.587 -0.4790  0.0460  0.1087
 4526SOL    HW125040   4.594   2.242   4.548 -0.5717 -1.0910  0.8147
 4526SOL    HW225041   4.676   2.355   4.585  1.6482  0.1256  0.5273
 4527SOL     OW25042   0.834   0.962   4.316  0.2705  0.2477  0.1451
 4527SOL    HW125043   0.846   0.935   4.407 -1.9677 -0.6905  0.1635
 4527SOL    HW225044   0.741   0.944   4.306  0.3422 -0.9306  1.5278
 4528SOL     OW25045   2.880   4.107   7.231  0.6131  0.3089  0.1082
 4528SOL    HW125046   2.939   4.032   7.241 -0.1672 -0.7276 -3.0522
 4528SOL    HW225047   2.919   4.153   7.157 -0.2161  1.7628  0.5798
 4529SOL     OW25048   1.329   4.631  13.336  0.7621 -0.0529 -0.4151
 4529SOL    HW125049   1.314   4.723  13.314 -0.0615  0.2469  1.3798
 4529SOL    HW225050   1.315   4.592  13.250  1.9061 -0.1536 -0.5450
 4530SOL     OW25051   1.186   1.555   5.064  0.4421 -0.0744  0.2484
 4530SOL    HW125052   1.152   1.563   4.975  2.2355 -1.2504 -0.5247
 4530SOL    HW225053   1.113   1.596   5.111  0.6774 -0.1929  0.7194
 4531SOL     OW25054   3.363   0.603   8.975  0.3208 -0.0378 -0.0441
 4531SOL    HW125055   3.371   0.697   8.957  0.5361 -0.4430 -2.0779
 4531SOL    HW225056   3.340   0.606   9.068  0.7206 -0.0289  0.0519
 4532SOL     OW25057   1.932   0.437   9.554 -0.1384  0.0046 -0.0581
 4532SOL    HW125058   1.903   0.349   9.532  2.3134 -1.5797  3.1773
 4532SOL    HW225059   2.026   0.429   9.567  0.1095  0.7791 -1.3213
 4533SOL     OW25060   1.136   2.709   6.478 -0.1173  0.2350  0.1686
 4533SOL    HW125061   1.114   2.717   6.385 -1.4123  1.4232  0.5756
 4533SOL    HW225062   1.170   2.796   6.498  0.5853 -0.1529  0.6716
 4534SOL     OW25063   2.060   1.021  12.601  0.4334 -0.6288 -0.4004
 4534SOL    HW125064   2.115   0.960  12.650 -0.4643 -1.0035  0.1461
 4534SOL    HW225065   2.010   0.963  12.544 -0.4272 -0.4532  0.1641
 4535SOL     OW25066   1.711   3.248   8.503 -0.2013 -0.2399  0.4878
 4535SOL    HW125067   1.703   3.198   8.422  0.0313  1.2450 -0.4622
 4535SOL    HW225068   1.805   3.241   8.521 -0.8057 -0.2615  3.5150
 4536SOL     OW25069   4.483   0.852   7.387 -0.1672  0.5697  0.2047
 4536SOL    HW125070   4.486   0.935   7.340  0.3025 -0.1985 -1.1259
 4536SOL    HW225071   4.459   0.878   7.476 -2.0649  1.1246 -0.4821
 4537SOL     OW25072   3.108   1.107   7.737  0.4435 -0.4439  0.1140
 4537SOL    HW125073   3.088   1.113   7.830 -1.8921 -1.2083 -0.3366
 4537SOL    HW225074   3.175   1.038   7.733  0.7142 -0.2425  1.1662
 4538SOL     OW25075   1.059   4.071   4.709  0.3824  0.1320  0.1897
 4538SOL    HW125076   1.062   4.137   4.779 -0.6884  0.2691  0.1075
 4538SOL    HW225077   1.151   4.077   4.683  0.5102  1.1967  0.8649
 4539SOL     OW25078   1.395   3.256   5.261 -0.1225  0.2322  0.0570
 4539SOL    HW125079   1.338   3.243   5.185  0.2978 -1.1672 -0.0177
 4539SOL    HW225080   1.470   3.201   5.236 -0.5912  0.1130 -1.1156
 4540SOL     OW25081   4.447   2.232   3.251 -0.6303 -0.2078  0.5277
 4540SOL    HW125082   4.361   2.203   3.284 -0.1753  1.4115  3.1235
 4540SOL    HW225083   4.433   2.327   3.247 -0.4270 -0.2408 -1.2631
 4541SOL     OW25084   3.845   3.413  13.421 -0.1369  0.0053 -0.4745
 4541SOL    HW125085   3.783   3.422  13.494 -0.2839 -1.6910 -0.4092
 4541SOL    HW225086   3.860   3.319  13.418  0.5469  0.0603  1.3727
 4542SOL     OW25087   1.111   2.915  17.498  0.2075  0.0549  0.1835
 4542SOL    HW125088   1.172   2.965  17.553  2.3710 -2.7231  0.2712
 4542SOL    HW225089   1.166   2.915  17.420 -0.0614 -0.1489 -0.0062
 4543SOL     OW25090   2.594   1.371   1.521 -0.0991  0.1181 -0.5031
 4543SOL    HW125091   2.541   1.406   1.593 -1.2315 -1.1011 -0.7413
 4543SOL    HW225092   2.524   1.337   1.465 -0.0818 -2.5402  1.1239
 4544SOL     OW25093   1.223   1.575   1.951 -0.3484  0.1870 -0.1329
 4544SOL    HW125094   1.313   1.610   1.953 -1.3509  2.7451  0.2576
 4544SOL    HW225095   1.227   1.538   2.040 -0.4921  0.9633  0.1994
 4545SOL     OW25096   1.640   2.287   2.992 -0.1952  0.4725 -0.0828
 4545SOL    HW125097   1.702   2.244   2.932 -0.0653  1.3656 -0.5794
 4545SOL    HW225098   1.602   2.339   2.922 -0.4838  1.3056  0.6843
 4546SOL     OW25099   2.343   1.665  11.373 -0.2329  0.0408 -0.1171
 4546SOL    HW125100   2.387   1.741  11.335 -0.1080 -0.4965 -1.0609
 4546SOL    HW225101   2.365   1.663  11.466 -0.7157 -0.1931 -0.0052
 4547SOL     OW25102   2.979   4.493   4.162 -0.4404 -0.0241 -0.8884
 4547SOL    HW125103   2.950   4.584   4.166  0.8917  0.4040 -0.8798
 4547SOL    HW225104   2.893   4.451   4.169  0.0340 -0.8189  0.2422
 4548SOL     OW25105   0.329   3.265   8.579  0.0685  0.2813 -0.8882
 4548SOL    HW125106   0.408   3.307   8.545  0.8920  0.7561  1.5833
 4548SOL    HW225107   0.277   3.345   8.570 -1.0943 -0.1519  1.9030
 4549SOL     OW25108   3.460   2.746   4.178  0.2449  0.5175  0.1723
 4549SOL    HW125109   3.477   2.653   4.163  2.6904  1.1249 -0.7198
 4549SOL    HW225110   3.526   2.802   4.139  0.1453  0.1897 -0.4681
 4550SOL     OW25111   3.293   0.388   5.501  0.3635  0.1317 -0.5302
 4550SOL    HW125112   3.299   0.478   5.532  1.1687 -0.3605  0.7239
 4550SOL    HW225113   3.271   0.342   5.582  0.6122 -1.0367 -1.1265
 4551SOL     OW25114   0.676   4.417   1.427  0.1401 -0.0122  0.0864
 4551SOL    HW125115   0.732   4.403   1.350  0.2684  0.5404  0.0772
 4551SOL    HW225116   0.685   4.512   1.436 -0.0563 -0.0222  0.3804
 4552SOL     OW25117   3.631   2.607   9.667 -0.3635 -0.1447 -0.0774
 4552SOL    HW125118   3.711   2.559   9.684 -0.4759 -1.2827 -2.8593
 4552SOL    HW225119   3.566   2.537   9.676  0.6470 -1.1424 -0.6661
 4553SOL     OW25120   1.735   1.671  16.584 -0.1186 -0.4905  0.0250
 4553SOL    HW125121   1.699   1.726  16.514 -2.9974 -2.8756 -0.3839
 4553SOL    HW225122   1.815   1.636  16.545 -0.8371 -1.1761 -0.8403
 4554SOL     OW25123   0.488   2.235   5.754  0.6013  0.2587 -0.4742
 4554SOL    HW125124   0.499   2.326   5.780  0.6098 -0.4310  1.9403
 4554SOL    HW225125   0.560   2.213   5.694 -1.1273 -0.9730 -2.1297
 4555SOL     OW25126   2.849   1.067   3.570  0.3313 -0.2384  0.7644
 4555SOL    HW125127   2.800   1.010   3.510 -2.1368  0.2370  2.3460
 4555SOL    HW225128   2.804   1.062   3.654 -0.4584  1.1822  0.4211
 4556SOL     OW25129   1.150   1.046   7.422  0.6158 -0.1783  0.9949
 4556SOL    HW125130   1.093   1.121   7.406  0.7077  0.4853  3.6865
 4556SOL    HW225131   1.111   0.980   7.365  0.8609 -0.5845  1.2986
 4557SOL     OW25132   0.509   4.150  12.419 -0.1620 -0.2900  0.0093
 4557SOL    HW125133   0.432   4.117  12.374 -1.0147  1.6319  0.0486
 4557SOL    HW225134   0.524   4.234  12.374 -0.4544  0.1926  0.8045
 4558SOL     OW25135   2.906   1.620   7.897 -0.3157 -0.2071 -0.3555
 4558SOL    HW125136   2.903   1.528   7.922 -2.5198 -0.1363 -0.3312
 4558SOL    HW225137   2.997   1.619   7.925 -0.3317  2.1621 -0.1829
 4559SOL     OW25138   2.181   0.769  10.684  1.2023  0.3813  0.2240
 4559SOL    HW125139   2.253   0.787  10.624  1.9403 -1.9980  0.4195
 4559SOL    HW225140   2.232   0.731  10.755 -0.5281 -2.7624 -0.2026
 4560SOL     OW25141   3.588   3.280  15.953 -0.3255 -0.0129 -0.0185
 4560SOL    HW125142   3.589   3.358  16.009  2.3408  0.1791 -0.3580
 4560SOL    HW225143   3.617   3.214  16.016  1.1129  0.4481 -0.2004
 4561SOL     OW25144   2.687   4.644   8.646 -0.6336 -0.0471  0.1989
 4561SOL    HW125145   2.679   4.626   8.739  0.8973  1.5597  0.6313
 4561SOL    HW225146   2.781   4.633   8.630 -0.9360 -1.5050 -0.6042
 4562SOL     OW25147   0.525   1.840   3.269  0.0007 -0.4092 -0.5624
 4562SOL    HW125148   0.432   1.846   3.249 -0.4900  1.1565  2.2900
 4562SOL    HW225149   0.564   1.807   3.188 -0.4349 -1.2918 -0.4134
 4563SOL     OW25150   1.676   0.259   4.405 -0.0121  1.3053 -0.2413
 4563SOL    HW125151   1.714   0.289   4.322  1.6422 -2.8986 -0.9923
 4563SOL    HW225152   1.582   0.263   4.390 -0.0092 -1.0088 -0.9121
 4564SOL     OW25153   0.080   3.805   7.137  0.7446  0.3316 -0.2308
 4564SOL    HW125154   0.114   3.718   7.157  0.4473  0.6063  1.4784
 4564SOL    HW225155   0.064   3.802   7.042 -0.9004  3.2520 -0.0284
 4565SOL     OW25156   0.662   1.511   7.623 -0.6126 -1.0733 -0.5986
 4565SOL    HW125157   0.745   1.469   7.646 -0.0315  1.3109  1.6450
 4565SOL    HW225158   0.672   1.596   7.666  0.3857 -1.3561 -0.2653
 4566SOL     OW25159   1.385   2.520  12.454 -0.2660 -0.5865 -0.4162
 4566SOL    HW125160   1.370   2.464  12.530 -4.3067 -0.3585 -1.0234
 4566SOL    HW225161   1.460   2.563  12.494  0.3693 -2.9141  0.9100
 4567SOL     OW25162   3.950   0.171   9.262  0.0541 -0.1141 -0.4417
 4567SOL    HW125163   3.901   0.253   9.270 -0.3676 -0.2978 -1.0930
 4567SOL    HW225164   3.940   0.143   9.353  0.0416 -2.2306 -1.0894
 4568SOL     OW25165   3.999   3.211   2.597 -0.2739  0.1977 -0.3350
 4568SOL    HW125166   4.054   3.134   2.612  1.4805  1.6430  0.5853
 4568SOL    HW225167   3.999   3.254   2.682 -3.8858 -1.0501  0.3034
 4569SOL     OW25168   0.757   2.785  10.974 -0.1521  0.4192 -0.2923
 4569SOL    HW125169   0.728   2.717  11.034  1.6226  0.2095  0.3028
 4569SOL    HW225170   0.789   2.846  11.040  1.9924  0.3175 -1.2509
 4570SOL     OW25171   3.300   0.570   3.467 -0.2628  0.6222 -0.1216
 4570SOL    HW125172   3.241   0.540   3.398  1.2602 -1.3681 -0.5586
 4570SOL    HW225173   3.342   0.492   3.502 -1.4144 -0.5106 -1.2826
 4571SOL     OW25174   1.677   0.651   7.498  0.3995 -0.1055  0.2674
 4571SOL    HW125175   1.667   0.724   7.559 -2.6422  0.0971 -0.4752
 4571SOL    HW225176   1.593   0.641   7.454 -0.5850  1.5214  1.7628
 4572SOL     OW25177   0.715   0.239  11.292 -0.0438  0.1122  0.2526
 4572SOL    HW125178   0.743   0.317  11.341 -0.9650  0.0031  0.9702
 4572SOL    HW225179   0.795   0.187  11.292 -0.6653 -0.8232 -0.7822
 4573SOL     OW25180   0.974   3.723   3.287 -0.3016 -0.0419  0.5853
 4573SOL    HW125181   1.033   3.749   3.217 -1.5005 -0.2700 -0.5115
 4573SOL    HW225182   1.042   3.691   3.345 -1.5103  0.0722  2.0836
 4574SOL     OW25183   3.642   1.897   3.895 -0.5669  0.4511 -0.1685
 4574SOL    HW125184   3.590   1.874   3.818 -0.4264 -2.9000  0.7784
 4574SOL    HW225185   3.720   1.843   3.889 -2.3089 -2.1230  0.4135
 4575SOL     OW25186   1.361   2.867   7.483  0.4914  0.2615 -0.5772
 4575SOL    HW125187   1.348   2.773   7.489  1.1493  0.2126  0.0138
 4575SOL    HW225188   1.361   2.893   7.575 -0.6056  0.2682 -0.5819
 4576SOL     OW25189   0.942   0.343   5.900  0.0385 -0.3459  0.5838
 4576SOL    HW125190   0.969   0.435   5.899 -0.5642 -0.1633  1.5158
 4576SOL    HW225191   1.021   0.299   5.931  0.8897  0.2859 -0.6676
 4577SOL     OW25192   0.519   1.369  13.376  0.3050 -0.2289 -0.1943
 4577SOL    HW125193   0.496   1.393  13.286 -0.7871  2.1406  0.7325
 4577SOL    HW225194   0.451   1.407  13.431 -0.1987 -0.3702 -0.7256
 4578SOL     OW25195   1.318   3.044   8.034 -0.2035  0.3874  0.5223
 4578SOL    HW125196   1.366   3.125   8.022 -1.6384  1.2105  0.2978
 4578SOL    HW225197   1.226   3.070   8.027  0.3797  1.2360 -4.1703
 4579SOL     OW25198   3.590   2.761   0.975 -0.1835 -0.4109 -0.2854
 4579SOL    HW125199   3.628   2.695   1.032 -0.1018  0.6428  0.8855
 4579SOL    HW225200   3.500   2.728   0.969 -0.0583 -0.0112 -4.3428
 4580SOL     OW25201   3.433   2.770  15.078 -0.3351  0.4315 -0.6434
 4580SOL    HW125202   3.414   2.853  15.035 -0.1334  0.3451 -0.8933
 4580SOL    HW225203   3.526   2.781  15.097 -0.5794  1.4367 -0.0183
 4581SOL     OW25204   1.563   0.010   7.980  0.2763  0.4378 -0.1184
 4581SOL    HW125205   1.531   0.083   7.928 -3.6750 -1.0071  0.2965
 4581SOL    HW225206   1.539   4.653   7.938 -0.2483 -0.2293  1.4984
 4582SOL     OW25207   0.230   2.017  10.684  0.0528 -0.3448  0.3747
 4582SOL    HW125208   0.219   1.925  10.664  0.1154 -0.3795  0.5004
 4582SOL    HW225209   0.260   2.048  10.599  0.0707 -0.5431  0.3094
 4583SOL     OW25210   2.927   2.016   4.209  0.0781  0.0388 -0.2569
 4583SOL    HW125211   2.940   1.998   4.116 -3.9396  3.0652 -1.4416
 4583SOL    HW225212   3.006   1.982   4.250  0.8422 -1.0820 -2.6274
 4584SOL     OW25213   4.302   3.359   1.102 -0.2411 -0.0141  0.3277
 4584SOL    HW125214   4.291   3.294   1.171 -1.2086 -1.7280 -1.4472
 4584SOL    HW225215   4.270   3.441   1.140 -2.1691  0.3016 -1.9944
 4585SOL     OW25216   4.006   1.695   4.526  0.3067  0.5821 -0.0472
 4585SOL    HW125217   4.059   1.710   4.604 -0.1934 -0.2763  0.4495
 4585SOL    HW225218   4.080   1.657   4.478 -0.3901 -0.8497  0.0283
 4586SOL     OW25219   2.636   4.020   6.009  0.1330 -0.4038 -0.2461
 4586SOL    HW125220   2.633   4.035   6.103  2.3598  0.6472 -0.3450
 4586SOL    HW225221   2.570   3.951   5.998 -0.5661 -0.2161  2.8173
 4587SOL     OW25222   1.240   3.452  12.654 -0.0127  0.2971  0.1532
 4587SOL    HW125223   1.236   3.423  12.563  0.9677 -0.4198  0.3320
 4587SOL    HW225224   1.212   3.543  12.644  1.8885  0.7704 -1.0845
 4588SOL     OW25225   2.618   3.340  14.276 -1.2052 -0.1961 -0.0670
 4588SOL    HW125226   2.579   3.285  14.208  0.4790  1.2019 -2.1911
 4588SOL    HW225227   2.675   3.396  14.223 -1.3546 -1.5804 -1.6654
 4589SOL     OW25228   2.640   3.172  15.510 -0.4611 -0.1043  0.2668
 4589SOL    HW125229   2.592   3.248  15.478  0.9724  0.3341 -0.8237
 4589SOL    HW225230   2.661   3.134  15.425 -1.1191 -0.3432  0.2127
 4590SOL     OW25231   2.383   0.183   8.758  0.0207  0.2377 -0.2835
 4590SOL    HW125232   2.341   0.175   8.672 -2.0693 -0.1376  0.7809
 4590SOL    HW225233   2.377   0.093   8.789  0.9671  0.5849  0.9512
 4591SOL     OW25234   1.007   3.136   3.271 -0.0806 -0.2980 -0.7562
 4591SOL    HW125235   0.931   3.134   3.213 -0.0820  1.3290 -0.8219
 4591SOL    HW225236   1.077   3.107   3.213  1.0041  1.6007 -0.3989
 4592SOL     OW25237   2.628   3.075  16.305  0.0601  0.1982  0.2816
 4592SOL    HW125238   2.581   3.158  16.297  1.3430  0.9536  0.6059
 4592SOL    HW225239   2.560   3.007  16.308  0.8988 -0.7017 -1.5258
 4593SOL     OW25240   4.256   0.287   2.882  0.0104  0.0884 -0.5500
 4593SOL    HW125241   4.344   0.250   2.893 -0.3542  0.0726  2.3530
 4593SOL    HW225242   4.203   0.208   2.871  1.2447 -0.9713  1.0770
 4594SOL     OW25243   3.577   2.259   2.729 -0.4977  0.2535 -0.2881
 4594SOL    HW125244   3.541   2.186   2.680  1.9237 -1.8293  1.0586
 4594SOL    HW225245   3.501   2.297   2.773 -1.1275 -0.5828 -0.6563
 4595SOL     OW25246   2.220   0.978   5.512 -0.1302  0.1815 -0.1542
 4595SOL    HW125247   2.190   1.069   5.516  0.2342  0.2685  0.4702
 4595SOL    HW225248   2.158   0.942   5.448  0.6495  0.6149 -1.1588
 4596SOL     OW25249   3.114   0.814   0.841 -0.4254  0.6051 -0.4889
 4596SOL    HW125250   3.042   0.771   0.794 -1.9122  1.6578  0.8338
 4596SOL    HW225251   3.107   0.777   0.929 -0.0088  0.4850 -0.5086
 4597SOL     OW25252   1.604   3.367   3.922 -0.4737  0.6442  0.0095
 4597SOL    HW125253   1.658   3.366   4.001 -0.0270 -2.4563 -0.3525
 4597SOL    HW225254   1.532   3.423   3.952 -2.3487 -0.2971 -2.7722
 4598SOL     OW25255   3.242   0.470  14.967  0.3928 -0.2982 -0.5565
 4598SOL    HW125256   3.235   0.563  14.946  0.6021  0.4926  2.8819
 4598SOL    HW225257   3.307   0.467  15.037  0.3627 -0.0892 -0.5199
 4599SOL     OW25258   2.038   2.360   4.014 -0.4669 -0.6880 -0.0025
 4599SOL    HW125259   2.059   2.271   3.987  0.4934 -1.2312  2.5926
 4599SOL    HW225260   2.022   2.405   3.931 -3.5293  0.6704  1.2804
 4600SOL     OW25261   4.263   3.539   7.479  0.4526  0.2863  0.3142
 4600SOL    HW125262   4.270   3.626   7.441 -2.0266  0.5595  0.5288
 4600SOL    HW225263   4.190   3.550   7.540  0.6075 -2.2560  0.9478
 4601SOL     OW25264   2.763   2.531  12.208 -0.0538 -0.0256  0.1507
 4601SOL    HW125265   2.830   2.594  12.181  1.2467 -1.1452  0.7809
 4601SOL    HW225266   2.737   2.572  12.290 -0.3820 -1.8891  0.9929
 4602SOL     OW25267   2.587   0.064  14.311 -0.1702 -0.3355  0.2240
 4602SOL    HW125268   2.629   4.708  14.282 -1.9844 -0.5011 -1.8756
 4602SOL    HW225269   2.497   0.040  14.332 -0.8110  1.0386 -1.0256
 4603SOL     OW25270   3.466   0.088   3.546  0.0727 -0.2319 -0.3838
 4603SOL    HW125271   3.395   0.025   3.532  0.2824 -0.5096 -0.2194
 4603SOL    HW225272   3.539   0.052   3.495 -2.1256 -3.3943 -1.2748
 4604SOL     OW25273   1.315   4.228   8.993  0.4846  0.0387  0.1126
 4604SOL    HW125274   1.406   4.245   8.971  0.8521 -0.3507  1.3406
 4604SOL    HW225275   1.319   4.139   9.029  1.2783  0.1564  0.3210
 4605SOL     OW25276   3.534   2.730  11.824  0.3165  0.0327  0.7852
 4605SOL    HW125277   3.485   2.681  11.889 -1.7085  0.8751 -0.1030
 4605SOL    HW225278   3.615   2.758  11.867 -0.8671  0.9388  2.4108
 4606SOL     OW25279   1.189   1.096   2.169 -0.1796 -0.0489  0.1932
 4606SOL    HW125280   1.241   1.130   2.096  0.0598 -0.7554  0.0288
 4606SOL    HW225281   1.114   1.156   2.170 -1.3367 -1.4617 -0.9797
 4607SOL     OW25282   2.930   0.632  17.176  0.5910  0.1392  0.2477
 4607SOL    HW125283   3.001   0.631  17.240  0.1555  2.2929  0.7906
 4607SOL    HW225284   2.859   0.652  17.236  0.0270  1.3514 -0.7978
 4608SOL     OW25285   4.541   0.036   5.016  0.0252  0.1431 -0.4856
 4608SOL    HW125286   4.618   0.065   4.966  0.5316  0.4375  0.4571
 4608SOL    HW225287   4.573   4.680   5.056  1.2250  0.1851 -1.3552
 4609SOL     OW25288   3.844   3.678   3.108 -0.2027 -1.0328  0.3382
 4609SOL    HW125289   3.814   3.617   3.176 -0.2786 -1.6210 -0.2225
 4609SOL    HW225290   3.773   3.676   3.044 -1.8474 -0.8682  2.1534
 4610SOL     OW25291   1.719   4.084   3.182  0.0882 -0.2144  0.1581
 4610SOL    HW125292   1.717   4.020   3.111 -1.2715  0.0131  0.0011
 4610SOL    HW225293   1.783   4.146   3.147 -0.2597  1.3694  2.3784
 4611SOL     OW25294   0.974   0.730  10.870  0.6372 -0.4230  0.3207
 4611SOL    HW125295   1.057   0.683  10.862 -0.1091 -1.7353  0.4392
 4611SOL    HW225296   0.970   0.790  10.795  1.8988 -0.6761  0.0576
 4612SOL     OW25297   4.361   0.171   9.876  0.0731 -0.0525 -0.0474
 4612SOL    HW125298   4.409   0.158   9.795 -1.0732 -1.7992 -0.4361
 4612SOL    HW225299   4.436   0.183   9.935  0.1380 -0.5782 -0.0210
 4613SOL     OW25300   2.651   0.173  11.194  0.6191  0.4760 -0.4858
 4613SOL    HW125301   2.595   0.212  11.260  1.3248 -0.0933  0.4426
 4613SOL    HW225302   2.727   0.232  11.196 -0.3686  1.7130  0.2346
 4614SOL     OW25303   2.560   4.345  14.080 -0.1279 -0.1143  0.0131
 4614SOL    HW125304   2.574   4.399  14.002 -0.5480 -0.4974 -0.3304
 4614SOL    HW225305   2.524   4.262  14.049 -2.2141 -0.1136  2.4549
 4615SOL     OW25306   1.851   1.505   2.640  1.0231 -0.0725 -1.0716
 4615SOL    HW125307   1.785   1.574   2.631  2.6965  1.4207 -1.8373
 4615SOL    HW225308   1.810   1.447   2.575 -2.1012 -1.3745  2.0822
 4616SOL     OW25309   0.562   0.149   2.241  0.0807 -0.4699 -1.1008
 4616SOL    HW125310   0.633   0.214   2.243  1.4422 -2.0193  1.1428
 4616SOL    HW225311   0.482   0.201   2.246 -0.6191 -1.6659  0.1914
 4617SOL     OW25312   2.047   0.215   1.859  0.1454  0.2953  0.0482
 4617SOL    HW125313   2.079   0.283   1.800 -0.7961  1.1563  0.5159
 4617SOL    HW225314   2.030   0.143   1.798 -0.1929  0.6487 -0.2720
 4618SOL     OW25315   0.984   1.026   9.195  0.2488 -0.0603  0.1724
 4618SOL    HW125316   1.052   1.086   9.165  0.1144 -0.1947 -0.3951
 4618SOL    HW225317   0.953   1.050   9.283 -1.2970  0.6526 -0.5839
 4619SOL     OW25318   2.850   0.096   2.117  0.0011  0.7093  0.1984
 4619SOL    HW125319   2.912   0.026   2.135 -0.8709  0.0396  0.6452
 4619SOL    HW225320   2.900   0.151   2.057  0.9957 -0.5640 -0.1120
 4620SOL     OW25321   1.109   3.533  10.626 -0.4391 -0.4960 -0.6593
 4620SOL    HW125322   1.117   3.540  10.721 -1.2806  1.5951 -0.7385
 4620SOL    HW225323   1.062   3.451  10.617 -0.9012 -0.0478 -2.2517
 4621SOL     OW25324   4.106   4.087   4.264 -0.0864 -0.2414  0.1219
 4621SOL    HW125325   4.039   4.040   4.313  2.2001  1.4833  4.8420
 4621SOL    HW225326   4.056   4.168   4.259  0.6430  0.2989  1.9041
 4622SOL     OW25327   1.024   0.166   0.578 -0.1518  0.3640 -0.8661
 4622SOL    HW125328   1.033   0.071   0.589 -1.2964  0.4494  0.9157
 4622SOL    HW225329   1.010   0.180   0.485  2.7381  2.7166 -0.9422
 4623SOL     OW25330   1.673   0.169  12.424  0.2553  0.0731 -0.2189
 4623SOL    HW125331   1.756   0.216  12.430 -0.3295  0.7912  2.0303
 4623SOL    HW225332   1.695   0.105  12.355  1.2280  0.5949 -0.3944
 4624SOL     OW25333   2.683   3.903  10.244 -0.0031  0.3393  0.1859
 4624SOL    HW125334   2.697   3.968  10.175 -0.6234  0.5595  0.2660
 4624SOL    HW225335   2.759   3.926  10.296  0.4566 -1.8547  0.4927
 4625SOL     OW25336   2.062   0.997   3.900 -0.5914  0.4733 -0.1540
 4625SOL    HW125337   1.993   1.045   3.855 -1.1833 -0.1702  0.0788
 4625SOL    HW225338   2.092   0.948   3.823 -0.7602  0.5793 -0.2868
 4626SOL     OW25339   0.333   3.411   1.357 -0.7996  0.4416 -0.7360
 4626SOL    HW125340   0.334   3.323   1.395 -1.0256  1.0222  0.6127
 4626SOL    HW225341   0.405   3.392   1.297 -0.7830 -1.0139 -0.2541
 4627SOL     OW25342   4.248   0.323  13.619  0.0621  0.1695 -0.3172
 4627SOL    HW125343   4.284   0.238  13.594  0.5610  0.2455  0.1292
 4627SOL    HW225344   4.177   0.333  13.557 -0.4033  2.4113  0.5873
 4628SOL     OW25345   0.664   2.079   5.607  0.1355 -0.6164  0.1256
 4628SOL    HW125346   0.673   2.001   5.553 -1.1443 -2.6802  2.8635
 4628SOL    HW225347   0.699   2.046   5.690  1.3214 -1.4279 -0.6956
 4629SOL     OW25348   2.067   0.028   0.365  0.5073  0.1773 -0.4184
 4629SOL    HW125349   2.107   0.024   0.279  0.0910 -3.2183 -0.4454
 4629SOL    HW225350   1.975   0.048   0.346  0.1119 -0.0553  1.2284
 4630SOL     OW25351   3.227   2.686  15.229 -0.2222  0.1755  0.6404
 4630SOL    HW125352   3.208   2.616  15.167  1.0194 -0.9540  1.5296
 4630SOL    HW225353   3.312   2.717  15.195 -0.1658 -0.9694 -0.2771
 4631SOL     OW25354   2.844   2.981  16.688  0.4891 -0.5251  0.2045
 4631SOL    HW125355   2.804   3.067  16.678 -0.8299 -1.0792  0.7041
 4631SOL    HW225356   2.923   2.984  16.743 -0.7196 -0.7531  1.9747
 4632SOL     OW25357   1.680   1.181   7.562 -0.4770 -0.5494 -0.1167
 4632SOL    HW125358   1.610   1.245   7.570 -0.2214 -0.0408 -1.9064
 4632SOL    HW225359   1.746   1.241   7.597  0.5489 -1.3134 -0.7331
 4633SOL     OW25360   4.394   3.460  13.617 -0.2881 -0.1650  0.3216
 4633SOL    HW125361   4.392   3.555  13.609  2.6961 -0.1948 -0.6912
 4633SOL    HW225362   4.351   3.455  13.703  0.8253  1.0241  0.9369
 4634SOL     OW25363   4.302   2.905  16.285  0.3215  0.6116 -0.5892
 4634SOL    HW125364   4.289   3.000  16.286  1.0557  0.6703  2.4916
 4634SOL    HW225365   4.354   2.884  16.362 -0.3815 -1.3735 -0.6799
 4635SOL     OW25366   4.367   2.594   6.613  0.1210  0.4383 -0.3433
 4635SOL    HW125367   4.456   2.584   6.648  1.0420  1.6608 -2.3447
 4635SOL    HW225368   4.320   2.540   6.676  0.0613  1.1019  0.1756
 4636SOL     OW25369   4.373   2.812   9.782 -0.2845  0.3993  0.2195
 4636SOL    HW125370   4.447   2.771   9.829 -0.6661  0.2340  0.6835
 4636SOL    HW225371   4.410   2.899   9.770 -0.9686  0.6461 -0.0345
 4637SOL     OW25372   3.924   4.388   3.414 -0.2057 -0.5138 -0.4126
 4637SOL    HW125373   3.980   4.376   3.490 -1.9682 -0.2635  0.9336
 4637SOL    HW225374   3.851   4.431   3.459 -1.5787 -2.0052 -1.2299
 4638SOL     OW25375   2.334   0.708  17.701  0.1861 -0.1541 -0.1677
 4638SOL    HW125376   2.401   0.759   0.043  1.4453 -2.4207  0.5673
 4638SOL    HW225377   2.265   0.772  17.686 -0.8600 -0.9834  1.1098
 4639SOL     OW25378   3.638   2.397   4.425  0.0289 -0.0116 -0.1046
 4639SOL    HW125379   3.553   2.398   4.381 -1.2644 -2.3414  2.3770
 4639SOL    HW225380   3.612   2.363   4.511 -1.7663  0.4031 -0.4939
 4640SOL     OW25381   0.222   4.496   3.462 -1.0080  0.6745  1.0677
 4640SOL    HW125382   0.313   4.524   3.464 -0.8277  0.3714 -2.6716
 4640SOL    HW225383   0.231   4.454   3.547 -0.0256 -1.2656  0.0074
 4641SOL     OW25384   1.178   0.824   5.706  0.1482  0.1373  0.2542
 4641SOL    HW125385   1.226   0.774   5.772 -0.0863  0.4079  0.6296
 4641SOL    HW225386   1.093   0.779   5.714  0.9694 -1.0710  2.3120
 4642SOL     OW25387   3.242   1.330   7.897 -0.2133 -0.1956 -0.1743
 4642SOL    HW125388   3.200   1.327   7.811 -0.2121 -1.4508 -0.1440
 4642SOL    HW225389   3.243   1.422   7.921 -0.3544  0.1747 -1.5834
 4643SOL     OW25390   0.231   4.339   6.330  0.6985 -0.1301  0.4921
 4643SOL    HW125391   0.241   4.424   6.287  2.2152 -0.9730 -0.8182
 4643SOL    HW225392   0.208   4.376   6.415  0.3467  1.1553 -0.1588
 4644SOL     OW25393   0.991   4.491   9.189  0.4828 -0.2137 -0.6772
 4644SOL    HW125394   0.942   4.426   9.240  0.4957 -0.1290 -0.5549
 4644SOL    HW225395   0.960   4.576   9.219 -2.6915 -1.2100 -1.1939
 4645SOL     OW25396   3.562   0.391   6.952  0.3977 -1.1451 -0.2312
 4645SOL    HW125397   3.638   0.406   7.007  0.8653 -0.9728 -0.9261
 4645SOL    HW225398   3.509   0.469   6.965  0.8446 -0.6036 -1.6805
 4646SOL     OW25399   2.165   4.057  11.022  0.3338 -0.4301  0.5467
 4646SOL    HW125400   2.198   4.147  11.017  0.0153 -0.4801 -2.1141
 4646SOL    HW225401   2.246   4.008  11.013  0.5608 -0.1625  1.1340
 4647SOL     OW25402   1.927   2.717   6.333 -0.4337 -0.5253 -0.7188
 4647SOL    HW125403   1.884   2.800   6.351 -1.2232 -0.9338 -0.7310
 4647SOL    HW225404   1.865   2.651   6.362  0.1303 -0.9035 -0.3855
 4648SOL     OW25405   1.116   1.134   8.532 -0.4293 -0.3684 -0.2531
 4648SOL    HW125406   1.178   1.193   8.490  1.8205 -2.8106 -0.3274
 4648SOL    HW225407   1.163   1.052   8.544 -0.2619 -0.4569 -1.5347
 4649SOL     OW25408   0.764   0.201   7.537  0.5408 -0.2977  0.1063
 4649SOL    HW125409   0.733   0.262   7.603  0.1979 -1.4037  0.9711
 4649SOL    HW225410   0.794   0.130   7.594 -0.2228 -3.0988 -2.9532
 4650SOL     OW25411   0.120   0.488  15.930 -0.1105 -0.3201 -0.2448
 4650SOL    HW125412   0.050   0.545  15.899 -0.3340 -0.3638  0.1876
 4650SOL    HW225413   0.200   0.536  15.907  0.2846 -0.1462  1.5581
 4651SOL     OW25414   4.650   1.339   5.144 -0.4295  0.1704 -0.0856
 4651SOL    HW125415   4.579   1.336   5.081 -0.2757 -0.9159 -0.2131
 4651SOL    HW225416   4.676   1.247   5.134  1.7333  0.5885  1.4612
 4652SOL     OW25417   1.779   0.916   4.839  0.1444  0.2192 -0.2242
 4652SOL    HW125418   1.757   0.945   4.750  1.3578 -2.0947 -1.2893
 4652SOL    HW225419   1.697   0.869   4.854 -2.2425  4.4279 -0.0654
 4653SOL     OW25420   0.240   1.164   9.264  0.4310 -0.7029 -0.3762
 4653SOL    HW125421   0.225   1.254   9.237  0.8622  0.0246  1.7868
 4653SOL    HW225422   0.211   1.117   9.186  0.3503 -1.7018  0.2521
 4654SOL     OW25423   2.791   0.353   7.569  0.0949  0.5005 -0.3697
 4654SOL    HW125424   2.729   0.367   7.497 -2.4250 -0.4221  1.6401
 4654SOL    HW225425   2.758   0.423   7.624  1.2928 -0.1992  1.2491
 4655SOL     OW25426   1.222   1.981   3.084 -0.0008 -0.1004 -0.1927
 4655SOL    HW125427   1.286   2.005   3.150 -0.8028  0.6046  0.3357
 4655SOL    HW225428   1.277   1.923   3.032 -0.4178 -0.1374 -0.5965
 4656SOL     OW25429   2.300   2.951   0.643  0.0196 -0.0882  0.0502
 4656SOL    HW125430   2.233   2.935   0.576  1.8771 -0.9251 -1.5971
 4656SOL    HW225431   2.354   2.874   0.626  1.1911  0.4762  1.2245
 4657SOL     OW25432   4.487   3.382  13.362 -0.3159 -0.0049 -0.2018
 4657SOL    HW125433   4.442   3.381  13.446  2.3850  2.3522  1.2756
 4657SOL    HW225434   4.578   3.365  13.388  0.8765  1.0236 -3.7231
 4658SOL     OW25435   2.287   3.630   2.202  0.2609  0.0297 -0.0280
 4658SOL    HW125436   2.254   3.672   2.122 -0.6080 -0.9770 -0.1909
 4658SOL    HW225437   2.226   3.560   2.226  0.9135 -0.2924  0.6830
 4659SOL     OW25438   4.097   3.941   2.211 -0.1017  0.0253  1.0175
 4659SOL    HW125439   4.088   3.851   2.244 -0.6217  0.4289  1.9663
 4659SOL    HW225440   4.092   3.992   2.291 -0.5095 -0.6415  1.4198
 4660SOL     OW25441   4.700   4.549   7.182  0.5212 -0.1376 -0.0413
 4660SOL    HW125442   0.041   4.488   7.149  2.0002  1.0272  0.7880
 4660SOL    HW225443   4.634   4.539   7.113  0.0527 -0.1819  0.4195
 4661SOL     OW25444   2.174   0.291   9.062 -0.2653  0.2742 -0.2599
 4661SOL    HW125445   2.242   0.269   9.125 -0.6733  1.2616  0.5282
 4661SOL    HW225446   2.119   0.213   9.050  0.0899  0.1120 -0.8287
 4662SOL     OW25447   3.985   0.734   3.150  0.4793  0.1395 -0.2507
 4662SOL    HW125448   4.072   0.716   3.114 -0.1816 -2.3009 -0.6407
 4662SOL    HW225449   3.937   0.651   3.159 -1.9296  1.6411  0.6346
 4663SOL     OW25450   1.377   0.926   7.588  0.4907 -0.0341  0.4038
 4663SOL    HW125451   1.310   0.979   7.546  0.5693 -0.6933 -0.5643
 4663SOL    HW225452   1.327   0.845   7.600  2.0704 -0.9474  0.9463
 4664SOL     OW25453   2.638   3.945   7.474  0.0933  0.0123 -1.0253
 4664SOL    HW125454   2.611   3.873   7.531  1.2547  1.1834  1.0107
 4664SOL    HW225455   2.724   3.957   7.514 -1.0052  1.8543  0.7777
 4665SOL     OW25456   3.949   2.783   3.845  0.2351  0.1234 -0.3355
 4665SOL    HW125457   4.043   2.800   3.842  0.4542 -0.6874  2.1309
 4665SOL    HW225458   3.907   2.861   3.881  0.3365  1.0662 -2.2182
 4666SOL     OW25459   2.327   0.054   5.139  0.5408 -0.0812 -0.0577
 4666SOL    HW125460   2.382   4.703   5.154  0.6657  0.1034  0.4409
 4666SOL    HW225461   2.317   0.084   5.230  0.4420  2.7677 -0.9927
 4667SOL     OW25462   1.151   4.167  11.224  0.4925  0.3277  1.1496
 4667SOL    HW125463   1.085   4.227  11.258 -0.6606 -0.9126  1.1319
 4667SOL    HW225464   1.168   4.197  11.135 -1.2371  1.9638  1.3695
 4668SOL     OW25465   3.868   4.137   9.152 -0.5604 -1.0588  0.0282
 4668SOL    HW125466   3.814   4.175   9.083  0.9040  1.4624  0.2559
 4668SOL    HW225467   3.870   4.049   9.116 -1.7069 -0.2499 -2.0038
 4669SOL     OW25468   4.591   4.083  17.006 -0.0672 -0.3183  0.1794
 4669SOL    HW125469   4.584   4.091  17.101  1.6019 -0.4952  0.3259
 4669SOL    HW225470   4.607   4.172  16.974 -1.9025  0.6147  1.8607
 4670SOL     OW25471   1.665   0.249   7.108 -0.0334 -0.1530 -0.1919
 4670SOL    HW125472   1.729   0.320   7.111 -0.7473  0.4289  1.4543
 4670SOL    HW225473   1.723   0.173   7.099 -1.9022 -1.5348 -0.6075
 4671SOL     OW25474   3.193   3.710   6.962  0.1066 -0.3201  0.7678
 4671SOL    HW125475   3.180   3.637   7.022 -0.6845  0.3772  1.4452
 4671SOL    HW225476   3.238   3.770   7.021  1.1407  1.5532 -1.9232
 4672SOL     OW25477   3.359   2.486   6.645  0.5501 -0.1021 -0.1441
 4672SOL    HW125478   3.309   2.411   6.611 -1.8894  1.1533  0.7216
 4672SOL    HW225479   3.290   2.511   6.706 -0.9447  0.6576 -2.1407
 4673SOL     OW25480   0.086   3.422  12.807  0.3995 -0.3535 -0.3177
 4673SOL    HW125481   0.095   3.489  12.874  1.4985 -0.9361  0.1162
 4673SOL    HW225482   0.080   3.337  12.851  0.1246 -0.3237 -0.2998
 4674SOL     OW25483   2.685   3.956   1.187 -0.1710 -0.2893  0.3778
 4674SOL    HW125484   2.610   3.953   1.127 -0.5660 -1.5588  0.9474
 4674SOL    HW225485   2.647   4.011   1.256  0.1916 -2.3122  2.1755
 4675SOL     OW25486   0.353   4.205  12.966  0.1937 -0.1005  0.3755
 4675SOL    HW125487   0.401   4.233  12.888 -0.4901  0.7032  0.2413
 4675SOL    HW225488   0.265   4.243  12.963  0.7860  1.2207 -0.0883
 4676SOL     OW25489   0.795   0.172   2.005 -0.0671 -0.0423 -0.0861
 4676SOL    HW125490   0.704   0.202   2.003  1.2272  3.8367 -0.8070
 4676SOL    HW225491   0.823   0.198   1.917  3.8589 -0.6120  1.0079
 4677SOL     OW25492   0.163   3.585  16.603 -0.1513 -0.0792  0.0958
 4677SOL    HW125493   0.149   3.606  16.695 -0.9487  2.5518 -0.6057
 4677SOL    HW225494   0.238   3.527  16.616 -0.1032 -0.1668 -0.5575
 4678SOL     OW25495   0.916   4.062  10.620  0.0955 -0.0440 -0.1274
 4678SOL    HW125496   0.852   4.054  10.691 -1.0414 -1.0069 -1.2685
 4678SOL    HW225497   0.989   4.004  10.641 -0.9527 -1.8221 -1.4424
 4679SOL     OW25498   3.654   0.133   8.028  0.8492  0.0048 -0.3895
 4679SOL    HW125499   3.574   0.121   7.975  1.0653 -1.4272 -0.4053
 4679SOL    HW225500   3.719   0.101   7.966 -0.0008 -0.1411 -1.2187
 4680SOL     OW25501   1.276   0.281  17.489  0.5067  0.2268 -0.1253
 4680SOL    HW125502   1.365   0.312  17.505 -0.6390  3.3417  0.3110
 4680SOL    HW225503   1.238   0.359  17.531 -0.5903 -1.4233  1.9299
 4681SOL     OW25504   3.245   1.279   1.389  0.2709  0.4780  0.1833
 4681SOL    HW125505   3.281   1.351   1.337  0.2971 -0.6596 -1.3977
 4681SOL    HW225506   3.150   1.280   1.375  0.1950  0.5765  0.7041
 4682SOL     OW25507   3.881   1.313   3.483 -0.0267 -0.3955  0.3059
 4682SOL    HW125508   3.875   1.355   3.568  0.9720  1.2266 -0.4244
 4682SOL    HW225509   3.942   1.369   3.435 -1.8098  0.8091 -0.5315
 4683SOL     OW25510   2.435   4.283   2.641 -0.0175 -0.2145  0.0669
 4683SOL    HW125511   2.454   4.189   2.641 -2.6502 -0.7579  0.6711
 4683SOL    HW225512   2.373   4.291   2.714 -0.2178 -0.9801 -0.0195
 4684SOL     OW25513   2.166   2.746   8.648  0.2090  0.1559  0.6226
 4684SOL    HW125514   2.127   2.681   8.706 -0.0321  0.1934  0.5037
 4684SOL    HW225515   2.151   2.702   8.564 -0.9498  1.3250  0.2206
 4685SOL     OW25516   0.651   4.137   5.122  0.2547 -0.0153  0.3917
 4685SOL    HW125517   0.611   4.160   5.205 -0.2733 -0.7211  0.3291
 4685SOL    HW225518   0.650   4.224   5.080 -1.2249 -0.5290 -0.6307
 4686SOL     OW25519   0.263   3.709  16.361  0.4478  0.0145 -0.2543
 4686SOL    HW125520   0.223   3.671  16.439  1.6097  0.7055  0.6763
 4686SOL    HW225521   0.198   3.774  16.337  0.5993 -0.4982 -2.0450
 4687SOL     OW25522   0.870   2.773   5.229 -0.1551  0.3724  0.4025
 4687SOL    HW125523   0.945   2.752   5.284  0.8671 -1.4979 -1.7516
 4687SOL    HW225524   0.852   2.859   5.268  0.7860  0.3786  0.8208
 4688SOL     OW25525   4.247   2.769   7.399 -0.0836 -0.2974  0.7833
 4688SOL    HW125526   4.342   2.776   7.394 -0.2305  1.4531  0.6116
 4688SOL    HW225527   4.225   2.676   7.391 -2.1529  0.3914 -1.5244
 4689SOL     OW25528   0.481   3.888  14.090  0.5952 -0.6254 -0.2873
 4689SOL    HW125529   0.496   3.796  14.070 -2.7021 -1.8130  2.8575
 4689SOL    HW225530   0.567   3.930  14.078  1.8136 -2.8429  0.6328
 4690SOL     OW25531   1.042   1.760   6.267  0.1910 -0.6942 -0.1329
 4690SOL    HW125532   0.951   1.787   6.278  0.5337 -0.1834  1.4924
 4690SOL    HW225533   1.075   1.778   6.355 -1.9308  0.8247  0.3457
 4691SOL     OW25534   2.773   0.146  10.866 -0.0346  0.1166 -0.4155
 4691SOL    HW125535   2.855   0.106  10.894 -1.0310 -1.3537  0.4511
 4691SOL    HW225536   2.781   0.224  10.921 -0.3216  0.9212 -1.5110
 4692SOL     OW25537   3.974   2.211   8.418  0.3325  0.7293 -0.1018
 4692SOL    HW125538   4.011   2.297   8.398  2.5465 -0.1685  0.2128
 4692SOL    HW225539   3.980   2.208   8.514 -3.4767  1.4307  0.1663
 4693SOL     OW25540   2.441   3.635  11.843 -0.0168 -0.1383 -0.3869
 4693SOL    HW125541   2.468   3.640  11.751  2.9109 -1.2722  0.3914
 4693SOL    HW225542   2.449   3.728  11.865  0.9592 -0.1604 -0.6471
 4694SOL     OW25543   3.961   4.406   3.155 -0.2248  0.3594 -0.3154
 4694SOL    HW125544   3.975   4.311   3.152  1.6690  0.6107  0.3678
 4694SOL    HW225545   3.933   4.411   3.246  2.0936 -2.7546  0.5711
 4695SOL     OW25546   2.976   2.699  16.859  0.1456 -0.1038  0.5962
 4695SOL    HW125547   3.062   2.659  16.843 -0.4908 -0.2716 -2.4279
 4695SOL    HW225548   2.996   2.792  16.851  0.4232 -0.1171  1.1265
 4696SOL     OW25549   3.138   1.962   2.860  0.5902 -0.6481  0.6618
 4696SOL    HW125550   3.084   1.890   2.893 -0.8199 -0.3605 -1.0155
 4696SOL    HW225551   3.076   2.007   2.802  0.7353 -0.2396  0.8205
 4697SOL     OW25552   4.200   1.503   3.002  0.1430  0.0955 -0.4367
 4697SOL    HW125553   4.212   1.408   2.999 -0.1108  0.0618 -0.3354
 4697SOL    HW225554   4.185   1.520   2.909  1.1756 -3.6031 -1.2797
 4698SOL     OW25555   1.574   2.773  11.382 -0.3594  0.1144  0.9180
 4698SOL    HW125556   1.614   2.704  11.330 -0.3433  0.3430  0.6267
 4698SOL    HW225557   1.647   2.806  11.434 -0.4687  0.2099  1.0128
 4699SOL     OW25558   0.526   0.214   4.388 -0.2351 -0.2194 -0.1784
 4699SOL    HW125559   0.609   0.175   4.360  0.3407 -0.1835  1.5044
 4699SOL    HW225560   0.553   0.299   4.351 -0.1173 -1.2679 -2.5241
 4700SOL     OW25561   1.038   1.120   3.517  0.3581  0.0900 -0.3103
 4700SOL    HW125562   0.967   1.096   3.458  0.0901 -0.7979  0.3652
 4700SOL    HW225563   1.040   1.043   3.575  0.7158 -1.1674 -1.9777
 4701SOL     OW25564   1.899   4.591   8.358  0.6024 -0.3311  0.3178
 4701SOL    HW125565   1.865   4.609   8.271  0.0581 -1.5007  0.2837
 4701SOL    HW225566   1.962   4.520   8.344  0.5472 -0.7810  2.3805
 4702SOL     OW25567   4.024   3.273  15.359 -0.0511 -0.0343  0.4165
 4702SOL    HW125568   4.118   3.269  15.375  0.1824  0.9825 -0.7498
 4702SOL    HW225569   4.012   3.304  15.269  0.4936 -0.6326  0.1381
 4703SOL     OW25570   0.790   3.490   6.185 -0.2496 -0.4386 -0.2268
 4703SOL    HW125571   0.755   3.511   6.098  0.5658  1.3393 -0.1400
 4703SOL    HW225572   0.741   3.409   6.197  2.5733 -1.8279  1.8999
 4704SOL     OW25573   1.178   1.264  16.752  0.2027 -0.8034  0.1707
 4704SOL    HW125574   1.269   1.288  16.767  0.1920 -0.7492  0.1501
 4704SOL    HW225575   1.174   1.286  16.658  1.8856  0.1004  0.3115
 4705SOL     OW25576   0.586   2.987   7.088 -0.0730  0.5470 -0.1383
 4705SOL    HW125577   0.589   3.061   7.149  0.0241  0.8164 -0.4681
 4705SOL    HW225578   0.668   2.947   7.117  1.3961  2.6721 -1.3445
 4706SOL     OW25579   4.149   0.470  15.438  0.7025  0.2077 -0.8653
 4706SOL    HW125580   4.172   0.393  15.386  0.6113 -0.3794 -0.0182
 4706SOL    HW225581   4.189   0.439  15.519 -1.0464  0.2777  0.0295
 4707SOL     OW25582   2.820   0.433   2.704 -0.1438 -0.3885 -0.0068
 4707SOL    HW125583   2.824   0.403   2.614 -3.5954  0.2749 -0.4122
 4707SOL    HW225584   2.725   0.419   2.710  0.0753 -1.2072  1.7174
 4708SOL     OW25585   1.594   1.442  11.552 -0.4912  0.3153  0.4006
 4708SOL    HW125586   1.528   1.437  11.484 -1.6016  1.1028  1.4199
 4708SOL    HW225587   1.578   1.526  11.596 -0.6049  0.2349  0.5139
 4709SOL     OW25588   3.655   3.597  11.948  0.0598 -0.0357  0.3911
 4709SOL    HW125589   3.602   3.674  11.928  1.3628  0.4350 -1.2115
 4709SOL    HW225590   3.735   3.639  11.915 -0.3447 -1.3233 -2.2308
 4710SOL     OW25591   1.570   4.170   9.554 -0.0092 -0.3688 -0.2290
 4710SOL    HW125592   1.499   4.114   9.585  0.9859 -1.4274  0.1554
 4710SOL    HW225593   1.603   4.107   9.490  1.3672  0.5525 -0.4329
 4711SOL     OW25594   2.488   1.113   6.539 -0.5197  0.4385  0.0461
 4711SOL    HW125595   2.572   1.075   6.513 -0.7277 -0.1812  0.2674
 4711SOL    HW225596   2.514   1.154   6.622  1.0116  1.1897 -0.8197
 4712SOL     OW25597   0.867   0.345   9.151 -0.1263  0.3406 -0.1275
 4712SOL    HW125598   0.823   0.430   9.152  0.0216  0.4274 -0.8752
 4712SOL    HW225599   0.807   0.291   9.201 -0.5286 -0.2804 -1.2771
 4713SOL     OW25600   4.209   4.038  16.910  0.1733 -0.1544  0.0562
 4713SOL    HW125601   4.265   3.970  16.948 -0.0809  0.0288  0.7494
 4713SOL    HW225602   4.128   4.006  16.948 -0.5124 -0.7705 -1.8963
 4714SOL     OW25603   3.640   0.911   2.444 -0.0173  0.1156 -0.8986
 4714SOL    HW125604   3.636   0.815   2.442 -2.6638  0.1840  1.6993
 4714SOL    HW225605   3.735   0.921   2.434  0.0909 -0.4717 -0.4563
 4715SOL     OW25606   0.979   4.357  15.746 -0.1755 -0.3055  0.9218
 4715SOL    HW125607   0.920   4.428  15.774  0.6710  1.2229 -1.2023
 4715SOL    HW225608   0.946   4.289  15.805  1.3397 -3.1908 -1.5484
 4716SOL     OW25609   0.996   0.783  13.086  0.2474  0.3273  0.5814
 4716SOL    HW125610   1.084   0.819  13.082  1.3237 -2.1261  2.2210
 4716SOL    HW225611   0.999   0.718  13.016 -0.3946  1.0818 -0.1424
 4717SOL     OW25612   0.938   2.891   1.676  0.1313  0.4121 -0.1727
 4717SOL    HW125613   0.844   2.877   1.662  0.4270 -0.5677 -1.0913
 4717SOL    HW225614   0.937   2.937   1.760  1.9052  1.4827 -0.7486
 4718SOL     OW25615   2.269   2.477   1.943 -0.4221 -0.3861 -0.5605
 4718SOL    HW125616   2.258   2.409   1.877  0.5645 -0.2550 -0.8506
 4718SOL    HW225617   2.230   2.551   1.897 -1.2704 -0.1300  0.5608
 4719SOL     OW25618   3.694   1.290   6.832 -0.0009  0.5448 -0.0430
 4719SOL    HW125619   3.673   1.222   6.768 -1.0734 -0.2577  1.1432
 4719SOL    HW225620   3.651   1.249   6.907  0.3494  0.0484 -0.1150
 4720SOL     OW25621   3.946   1.271   4.356 -0.4509  0.0539  0.3708
 4720SOL    HW125622   3.949   1.306   4.445 -2.6811 -1.0959  0.8891
 4720SOL    HW225623   3.879   1.205   4.374 -0.3599  0.0248  0.5949
 4721SOL     OW25624   4.710   2.796   6.679 -0.3050  0.2356 -0.5175
 4721SOL    HW125625   0.023   2.830   6.598 -1.4381  1.3852 -0.5707
 4721SOL    HW225626   4.622   2.829   6.661 -1.6390 -1.3306  3.1625
 4722SOL     OW25627   4.645   4.099   2.407 -0.0762 -0.0208  0.1294
 4722SOL    HW125628   4.707   4.033   2.377  1.2018  0.7765  0.9793
 4722SOL    HW225629   4.561   4.068   2.374  1.0648 -2.3510 -0.5956
 4723SOL     OW25630   0.231   3.205   6.826 -0.3444  0.0326 -0.0266
 4723SOL    HW125631   0.277   3.227   6.908  1.3311 -1.2567 -0.6118
 4723SOL    HW225632   0.238   3.110   6.820 -1.8421 -0.1134  0.7119
 4724SOL     OW25633   0.567   1.399   3.604  0.1080  0.2445  0.2165
 4724SOL    HW125634   0.486   1.349   3.608  0.4489 -0.1642  2.3033
 4724SOL    HW225635   0.541   1.483   3.567 -1.3090  0.6365  2.0986
 4725SOL     OW25636   4.362   2.925  16.585 -0.5987  0.5718  0.4458
 4725SOL    HW125637   4.385   3.010  16.621  1.1173  0.2052  0.1975
 4725SOL    HW225638   4.430   2.865  16.616 -1.0977  0.7405  1.8761
 4726SOL     OW25639   4.641   4.069   2.103  0.0491  0.4642  0.6298
 4726SOL    HW125640   4.686   3.986   2.088  0.4454  0.6844  0.6028
 4726SOL    HW225641   4.552   4.035   2.111  0.3356 -0.1887  1.0141
 4727SOL     OW25642   1.611   0.243  11.605 -0.5195 -0.4597 -0.0709
 4727SOL    HW125643   1.544   0.177  11.591 -0.8225  0.2486 -2.0501
 4727SOL    HW225644   1.681   0.194  11.561 -0.7127 -0.1906 -0.6867
 4728SOL     OW25645   2.140   0.920   5.198 -0.3887  0.0065 -0.0948
 4728SOL    HW125646   2.198   0.974   5.144 -1.3055  1.3332  0.2709
 4728SOL    HW225647   2.057   0.959   5.173  1.5025  1.3859 -4.2366
 4729SOL     OW25648   0.900   4.418   8.107 -0.0723  0.4206 -0.0475
 4729SOL    HW125649   0.894   4.502   8.061  0.8155  0.5136  0.0223
 4729SOL    HW225650   0.828   4.372   8.063 -0.8540  1.7115 -0.1139
 4730SOL     OW25651   4.191   0.747  17.159  0.2299  0.0666  0.4383
 4730SOL    HW125652   4.214   0.654  17.148 -0.6218 -0.1301  0.3256
 4730SOL    HW225653   4.108   0.755  17.112  0.3500  0.7100  0.3364
 4731SOL     OW25654   3.078   0.465   2.103  0.2897 -0.0804 -0.4050
 4731SOL    HW125655   3.116   0.429   2.183  1.7744  0.2014 -0.9972
 4731SOL    HW225656   3.023   0.533   2.142 -0.1066 -0.3983 -0.4020
 4732SOL     OW25657   2.552   3.605  11.592 -0.4756 -0.2020  0.3504
 4732SOL    HW125658   2.476   3.547  11.595  0.3556 -1.3322 -0.7316
 4732SOL    HW225659   2.573   3.607  11.499 -1.3832 -0.7116  0.1370
 4733SOL     OW25660   1.240   4.601  10.206  0.6068 -0.2881 -0.3020
 4733SOL    HW125661   1.171   4.649  10.251  0.0690 -1.9485  0.6605
 4733SOL    HW225662   1.251   4.526  10.265  1.0789 -0.0456 -0.0771
 4734SOL     OW25663   4.508   0.104  12.940 -0.2329 -0.3001 -0.3422
 4734SOL    HW125664   4.588   0.098  12.889  0.9709  1.5972  1.2932
 4734SOL    HW225665   4.527   0.034  13.003  0.5090  0.5328  0.3623
 4735SOL     OW25666   3.642   1.101   8.135 -0.3882 -0.2855 -0.1504
 4735SOL    HW125667   3.568   1.119   8.077 -0.9591 -0.6071  0.4669
 4735SOL    HW225668   3.627   1.159   8.210 -3.3047  1.2410 -1.9168
 4736SOL     OW25669   2.222   1.666  17.213 -0.3294  0.1691 -0.2583
 4736SOL    HW125670   2.263   1.652  17.127 -0.7259 -0.1433 -0.3987
 4736SOL    HW225671   2.159   1.595  17.199  1.3596 -1.4927  0.7399
 4737SOL     OW25672   0.224   2.679   5.487  0.1581 -0.0838 -0.3969
 4737SOL    HW125673   0.141   2.641   5.457 -0.3988 -0.1835  1.2274
 4737SOL    HW225674   0.208   2.675   5.581  0.5492 -0.7690 -0.3586
 4738SOL     OW25675   2.468   4.318   8.314 -0.2844 -0.3761 -0.4620
 4738SOL    HW125676   2.416   4.383   8.266 -0.3626 -0.4773 -0.5144
 4738SOL    HW225677   2.398   4.266   8.354 -0.6801  0.8380  0.4334
 4739SOL     OW25678   1.086   2.547  12.780  0.6940 -0.7610 -0.0783
 4739SOL    HW125679   1.108   2.498  12.701  1.6345 -0.1148 -0.2174
 4739SOL    HW225680   1.012   2.599  12.749  0.5034 -1.8196 -1.3902
 4740SOL     OW25681   0.491   1.889   8.936  0.4299 -0.0090 -0.9303
 4740SOL    HW125682   0.535   1.970   8.909  2.4138 -0.8005 -0.0618
 4740SOL    HW225683   0.526   1.880   9.025 -0.5377 -0.3348 -0.5712
 4741SOL     OW25684   4.441   3.004   1.447 -0.0555 -0.3356  0.4997
 4741SOL    HW125685   4.469   3.038   1.532 -0.2927 -1.6089  1.0781
 4741SOL    HW225686   4.523   2.986   1.401  0.5936  0.9669  1.1558
 4742SOL     OW25687   1.691   0.299   3.710  0.1157 -0.0363 -0.5316
 4742SOL    HW125688   1.675   0.282   3.617 -0.1240 -0.7308 -0.3649
 4742SOL    HW225689   1.767   0.353   3.686  0.1482 -0.3907 -1.2388
 4743SOL     OW25690   0.356   1.434   0.951  0.2282 -0.5235 -0.2057
 4743SOL    HW125691   0.415   1.365   0.920  1.8694 -0.5556  2.9880
 4743SOL    HW225692   0.289   1.371   0.978 -0.2207 -0.4981 -1.2695
 4744SOL     OW25693   0.252   1.632   8.573 -0.2099  0.4964  0.2959
 4744SOL    HW125694   0.302   1.620   8.654 -0.4224  0.5262  0.4334
 4744SOL    HW225695   0.190   1.560   8.583  2.5788 -1.5421  2.6558
 4745SOL     OW25696   2.468   1.022   2.952 -0.2867  0.0473  0.2546
 4745SOL    HW125697   2.524   1.093   2.922 -3.1830  1.4901 -1.7219
 4745SOL    HW225698   2.414   0.990   2.880 -0.1672  0.1357  0.1261
 4746SOL     OW25699   4.210   2.534   4.829  0.3335  0.1899 -0.2963
 4746SOL    HW125700   4.266   2.609   4.812 -0.7425  0.9845 -0.3154
 4746SOL    HW225701   4.152   2.570   4.895 -0.2778  0.4694 -0.9955
 4747SOL     OW25702   1.825   4.055   6.642 -0.0700  0.1862 -0.1144
 4747SOL    HW125703   1.823   3.976   6.588 -0.7534 -0.8766  1.4815
 4747SOL    HW225704   1.863   4.119   6.582 -1.1279  1.4893  0.6170
 4748SOL     OW25705   1.461   0.646   3.958  0.1495 -0.0677 -0.2369
 4748SOL    HW125706   1.416   0.600   3.886  1.6483 -0.0049 -1.2139
 4748SOL    HW225707   1.385   0.682   4.003  0.3677 -0.4870  0.4725
 4749SOL     OW25708   4.657   1.925   2.763 -0.1129  0.4162 -0.8437
 4749SOL    HW125709   4.652   1.845   2.815  1.3412  0.0864 -1.2044
 4749SOL    HW225710   4.710   1.897   2.688  0.9198 -1.2234  0.5160
 4750SOL     OW25711   2.525   3.896   3.039  0.1087  0.0826  0.0944
 4750SOL    HW125712   2.467   3.827   3.072 -0.8046  0.6489 -0.3068
 4750SOL    HW225713   2.457   3.953   3.001  0.0446  0.5357  0.8886
 4751SOL     OW25714   2.930   4.381  11.919 -0.1716 -0.3816  0.2910
 4751SOL    HW125715   2.952   4.460  11.968  1.4382 -0.6293 -0.0573
 4751SOL    HW225716   2.988   4.313  11.953  0.7247 -0.6577 -1.8016
 4752SOL     OW25717   1.466   1.985  14.718  0.0938  0.3827  0.3447
 4752SOL    HW125718   1.405   2.056  14.698  0.1191  0.7251  1.4374
 4752SOL    HW225719   1.545   2.034  14.696 -0.5786  1.7775  0.9906
 4753SOL     OW25720   0.844   3.922   7.281  0.4605 -0.2971 -0.6088
 4753SOL    HW125721   0.827   4.010   7.247 -1.6787 -0.1530  0.8674
 4753SOL    HW225722   0.760   3.878   7.270  0.2687  0.7332 -3.3644
 4754SOL     OW25723   3.487   3.816  12.531  0.1220 -0.1345  0.4078
 4754SOL    HW125724   3.569   3.769  12.520 -0.7264 -1.5833  0.2860
 4754SOL    HW225725   3.438   3.759  12.590  0.4650 -2.1468 -1.2523
 4755SOL     OW25726   4.636   3.243   4.083  0.2980 -0.4143  0.1477
 4755SOL    HW125727   4.685   3.317   4.117 -0.6642 -0.2621  1.2324
 4755SOL    HW225728   4.568   3.284   4.030  0.7370 -0.5271 -0.4968
 4756SOL     OW25729   4.483   4.234   9.515  0.0757 -0.2508  0.4708
 4756SOL    HW125730   4.556   4.291   9.537 -0.4578  0.0062  1.5791
 4756SOL    HW225731   4.420   4.292   9.471  1.1226  1.0417  0.7011
 4757SOL     OW25732   2.080   2.421   8.354  0.0369 -0.1979  0.4493
 4757SOL    HW125733   2.051   2.365   8.281  1.2826  2.1649 -1.8441
 4757SOL    HW225734   2.016   2.490   8.341 -1.6942 -1.8791  0.0506
 4758SOL     OW25735   2.658   0.836   1.259 -0.0783  0.1154  0.1156
 4758SOL    HW125736   2.741   0.884   1.251  0.3115 -0.6944 -0.6721
 4758SOL    HW225737   2.636   0.850   1.351  2.5864  0.8626  0.6586
 4759SOL     OW25738   1.687   3.513   9.023 -0.1440  0.1592  0.2900
 4759SOL    HW125739   1.680   3.512   8.927 -1.7244  0.6393  0.4025
 4759SOL    HW225740   1.600   3.542   9.050 -0.4482 -0.4807  0.0091
 4760SOL     OW25741   1.264   1.100  10.112  0.6058 -0.0072 -0.0560
 4760SOL    HW125742   1.184   1.133  10.153  0.7487  1.4107 -0.9164
 4760SOL    HW225743   1.235   1.022  10.064  3.4859 -1.7145  0.9725
 4761SOL     OW25744   0.552   3.604  11.418  0.7658  0.3601  0.0557
 4761SOL    HW125745   0.635   3.648  11.400  1.8867 -1.4252  0.9122
 4761SOL    HW225746   0.491   3.677  11.429 -0.3175 -0.1957 -2.2301
 4762SOL     OW25747   4.271   0.123  12.826 -0.6899  0.0203 -0.5558
 4762SOL    HW125748   4.277   0.210  12.786  1.7484 -0.1805 -0.6634
 4762SOL    HW225749   4.345   0.114  12.886 -2.2936 -0.3359  1.3499
 4763SOL     OW25750   0.828   2.074   5.080  0.3139 -0.3297  0.1909
 4763SOL    HW125751   0.764   2.070   5.151 -0.3287 -1.3034 -0.4491
 4763SOL    HW225752   0.823   2.165   5.051  3.0762 -0.7543 -1.5844
 4764SOL     OW25753   4.144   3.994   4.575 -0.0463 -0.0966 -0.7031
 4764SOL    HW125754   4.165   3.902   4.559 -0.7764 -0.5476  0.9423
 4764SOL    HW225755   4.055   4.003   4.540 -0.3897 -0.4780  0.0875
 4765SOL     OW25756   2.022   2.195  17.665 -0.0680  0.4760 -0.3640
 4765SOL    HW125757   1.980   2.125  17.616 -0.6144  0.5005  0.0708
 4765SOL    HW225758   2.045   2.261  17.600  0.5700 -0.1059 -0.7215
 4766SOL     OW25759   2.960   1.073   5.933 -0.1492 -0.0031  0.5202
 4766SOL    HW125760   2.938   1.164   5.912 -2.2479 -0.4365  0.8475
 4766SOL    HW225761   2.927   1.038   5.851 -2.2391  0.4287  1.1753
 4767SOL     OW25762   1.236   4.032   4.090 -0.0495  0.0802  1.1975
 4767SOL    HW125763   1.176   4.078   4.031  0.2359 -1.0546  0.0144
 4767SOL    HW225764   1.185   3.961   4.129 -3.2757  2.1448  0.7307
 4768SOL     OW25765   2.468   2.916   4.518  0.5032  0.3542 -0.3293
 4768SOL    HW125766   2.444   2.930   4.426  0.9647 -1.2575 -0.6921
 4768SOL    HW225767   2.419   2.984   4.564 -0.3694 -0.1935 -0.4327
 4769SOL     OW25768   4.419   3.729   1.468  0.0464 -0.1917  0.0453
 4769SOL    HW125769   4.446   3.648   1.510  0.5824  0.0806  0.2182
 4769SOL    HW225770   4.413   3.792   1.540  1.4561 -1.5959  1.3797
 4770SOL     OW25771   1.020   3.657   8.620  0.5792  0.3960  0.2093
 4770SOL    HW125772   1.047   3.628   8.706  1.0037 -0.9941 -0.3982
 4770SOL    HW225773   1.107   3.659   8.580  1.3852 -1.6205  1.9008
 4771SOL     OW25774   1.576   3.356   6.734  0.9571 -0.5916  0.0590
 4771SOL    HW125775   1.489   3.354   6.693  0.2136  0.0551  1.6033
 4771SOL    HW225776   1.571   3.283   6.796  1.6894  0.7613  1.7139
 4772SOL     OW25777   3.615   0.003   9.908 -0.5916  0.2669  0.2678
 4772SOL    HW125778   3.685   0.062   9.936 -1.0079  1.4992 -1.2358
 4772SOL    HW225779   3.534   0.039   9.946  0.1453 -0.0477  2.1473
 4773SOL     OW25780   1.363   0.227   5.520 -0.9175  0.7443  0.5888
 4773SOL    HW125781   1.288   0.204   5.466  0.3358  0.6902 -1.1432
 4773SOL    HW225782   1.351   0.322   5.512 -1.4976  0.6106 -0.1082
 4774SOL     OW25783   4.027   0.468   4.593  0.0279  0.5044  0.1240
 4774SOL    HW125784   4.070   0.383   4.601  0.3006  0.5255 -1.1193
 4774SOL    HW225785   4.011   0.471   4.499 -1.7026  1.7958  0.4678
 4775SOL     OW25786   1.917   1.538   8.568 -0.2150 -0.0116 -0.2826
 4775SOL    HW125787   1.823   1.532   8.585 -0.2348  0.0218 -0.3872
 4775SOL    HW225788   1.926   1.626   8.532  2.1885  0.2539  0.9291
 4776SOL     OW25789   0.711   1.627   6.718 -0.4806 -0.0288  0.6415
 4776SOL    HW125790   0.646   1.677   6.768 -1.8360 -0.1457 -1.0018
 4776SOL    HW225791   0.686   1.535   6.730  1.0598 -0.1877  2.6157
 4777SOL     OW25792   1.685   2.208   7.485 -1.3964  0.0537 -0.4268
 4777SOL    HW125793   1.736   2.133   7.513 -0.5429  0.9343  0.3775
 4777SOL    HW225794   1.751   2.278   7.481 -1.5296  0.3511  2.7725
 4778SOL     OW25795   4.523   2.071   9.289  0.1152  0.1012 -0.1955
 4778SOL    HW125796   4.470   2.033   9.358  1.5776  1.5637  1.7364
 4778SOL    HW225797   4.556   1.989   9.252  3.0768 -0.1216  2.9475
 4779SOL     OW25798   2.413   4.657   8.366  0.5842  0.3655 -0.2740
 4779SOL    HW125799   2.342   4.721   8.365 -0.0656 -0.3701 -1.0938
 4779SOL    HW225800   2.437   4.667   8.274  0.4803 -0.2301 -0.3670
 4780SOL     OW25801   2.908   0.566   8.674 -0.1003 -0.0120 -0.4410
 4780SOL    HW125802   2.844   0.637   8.684  1.0285  1.0491 -0.8236
 4780SOL    HW225803   2.918   0.555   8.580  0.4458  2.1590 -0.6336
 4781SOL     OW25804   0.881   3.321   2.544 -0.0931  0.0696 -0.0954
 4781SOL    HW125805   0.945   3.257   2.513 -0.6535 -0.2006 -0.6959
 4781SOL    HW225806   0.797   3.294   2.507 -1.1664  0.9655  1.7248
 4782SOL     OW25807   0.654   2.996   6.429  0.7705  0.2603 -0.3435
 4782SOL    HW125808   0.590   2.967   6.364  0.1189 -0.2650  0.5129
 4782SOL    HW225809   0.594   2.993   6.504 -0.5998 -1.1959 -1.4926
 4783SOL     OW25810   4.260   1.421  16.996  0.4366  0.2167  0.3274
 4783SOL    HW125811   4.289   1.339  16.955  0.5009  0.9462 -1.0822
 4783SOL    HW225812   4.345   1.465  16.995  0.7633 -0.4106 -0.0808
 4784SOL     OW25813   0.449   1.658   3.532 -0.1876  0.0879  0.0905
 4784SOL    HW125814   0.441   1.679   3.625 -0.0126  0.0846  0.1057
 4784SOL    HW225815   0.539   1.686   3.516 -0.5354  2.1755  1.7965
 4785SOL     OW25816   0.909   4.130   8.579  0.7109  0.1331 -0.8657
 4785SOL    HW125817   0.937   4.043   8.552  0.0460 -0.6875  1.1233
 4785SOL    HW225818   0.872   4.170   8.501  0.6805  0.7433 -0.5398
 4786SOL     OW25819   3.028   4.453   0.383  0.0544  0.2786  0.6191
 4786SOL    HW125820   2.948   4.460   0.330 -0.5762 -1.6690  1.3437
 4786SOL    HW225821   3.047   4.540   0.417 -1.3502  1.1059 -0.6681
 4787SOL     OW25822   0.432   0.039  11.533 -0.1822  0.3550  0.5426
 4787SOL    HW125823   0.345   0.050  11.571 -1.0591 -0.5588 -1.1851
 4787SOL    HW225824   0.399   0.060  11.445  0.7574  1.5952  0.4879
 4788SOL     OW25825   0.334   4.364   1.454  0.4722 -0.0800 -0.0940
 4788SOL    HW125826   0.269   4.411   1.401 -2.0135 -2.0432  1.2238
 4788SOL    HW225827   0.394   4.338   1.384 -2.0956 -1.4850 -1.7892
 4789SOL     OW25828   4.401   1.675  11.856  0.3336  0.5413  0.0555
 4789SOL    HW125829   4.350   1.716  11.926 -1.8363  1.3946 -2.0349
 4789SOL    HW225830   4.473   1.738  11.850  0.8783  0.0926  1.7740
 4790SOL     OW25831   1.243   2.030  10.861 -0.1052  0.1850 -0.3942
 4790SOL    HW125832   1.202   1.992  10.783 -1.2479  1.0528 -0.2214
 4790SOL    HW225833   1.301   1.957  10.880 -0.2249  0.3953  0.7812
 4791SOL     OW25834   3.982   4.441   7.211  0.5294  0.0112 -0.0638
 4791SOL    HW125835   3.956   4.433   7.119  1.0212 -0.6021 -0.1456
 4791SOL    HW225836   3.904   4.472   7.257  0.8006 -0.1808  0.5258
 4792SOL     OW25837   0.790   2.242   2.625  0.0636  0.6271 -0.0843
 4792SOL    HW125838   0.698   2.216   2.633 -0.1339  1.0638 -0.9661
 4792SOL    HW225839   0.813   2.174   2.562  0.3699  1.3061 -0.7060
 4793SOL     OW25840   4.112   0.385   8.421  0.1364 -0.2532 -0.3784
 4793SOL    HW125841   4.029   0.359   8.382 -0.4408  1.6194 -0.4181
 4793SOL    HW225842   4.144   0.300   8.451 -1.6106 -0.8350 -0.1947
 4794SOL     OW25843   4.124   2.880   8.717 -0.3201  0.0825  0.0155
 4794SOL    HW125844   4.054   2.912   8.659  2.3535  3.0521 -1.5583
 4794SOL    HW225845   4.191   2.944   8.693  2.0837 -2.8606 -1.0499
 4795SOL     OW25846   0.254   4.198  14.051  0.4918 -0.0139 -0.4888
 4795SOL    HW125847   0.345   4.227  14.045  0.6912 -0.4272  0.4748
 4795SOL    HW225848   0.254   4.136  14.124  1.6068 -0.2072 -0.6516
 4796SOL     OW25849   0.227   0.488   6.883 -0.5758  0.2263  0.1779
 4796SOL    HW125850   0.286   0.505   6.956 -1.1995  0.3919  0.6401
 4796SOL    HW225851   0.139   0.510   6.914 -0.1735 -0.5325  1.8556
 4797SOL     OW25852   1.617   3.582   3.424  0.1128  0.1362 -0.0228
 4797SOL    HW125853   1.655   3.496   3.446  0.7438  0.1121 -1.1833
 4797SOL    HW225854   1.689   3.631   3.463  0.6021 -1.8950  1.6359
 4798SOL     OW25855   2.948   3.152  10.274  0.0023 -0.3484 -0.5182
 4798SOL    HW125856   2.939   3.180  10.366 -0.0746 -1.7143 -0.1080
 4798SOL    HW225857   2.897   3.072  10.271  1.7735 -1.5030  0.2189
 4799SOL     OW25858   1.628   1.876   0.565 -0.4810  0.2355 -0.1586
 4799SOL    HW125859   1.683   1.934   0.511  1.7217 -0.6903  1.0982
 4799SOL    HW225860   1.545   1.914   0.536 -0.3292 -0.3692 -1.3821
 4800SOL     OW25861   2.085   0.244   6.045 -0.7430 -0.0861 -0.0631
 4800SOL    HW125862   2.154   0.207   6.100 -1.7816 -0.2594  1.1315
 4800SOL    HW225863   2.094   0.335   6.073 -1.2506  0.2095 -0.8823
 4801SOL     OW25864   1.969   4.220   3.605 -0.1108 -0.3078 -0.1666
 4801SOL    HW125865   1.959   4.170   3.686 -0.9569  0.0980 -0.0250
 4801SOL    HW225866   1.891   4.208   3.551 -0.6914  1.5990  0.2363
 4802SOL     OW25867   1.974   4.684  10.606 -0.0951 -0.2138  0.1056
 4802SOL    HW125868   1.968   0.050  10.579  1.3955 -0.2156 -0.1984
 4802SOL    HW225869   1.946   4.701  10.696  1.5107 -0.3003  0.6092
 4803SOL     OW25870   2.216   3.788   2.499 -0.5517 -0.1107 -0.2215
 4803SOL    HW125871   2.165   3.761   2.422  0.3996  3.0722 -1.9615
 4803SOL    HW225872   2.146   3.847   2.524  0.0084  1.4085 -2.2181
 4804SOL     OW25873   1.958   4.128   8.976 -0.0557  0.6493 -0.7652
 4804SOL    HW125874   2.037   4.182   8.969  0.9308 -0.6569  0.1687
 4804SOL    HW225875   1.974   4.056   8.915  0.6812 -0.8963  1.2380
 4805SOL     OW25876   3.643   0.145   7.402  0.1887  0.5388  0.3463
 4805SOL    HW125877   3.601   0.100   7.329 -3.5317  1.4752  1.8999
 4805SOL    HW225878   3.735   0.141   7.375 -0.1601 -0.3534 -0.7214
 4806SOL     OW25879   4.296   1.615   9.816  0.0003  0.1667  0.1854
 4806SOL    HW125880   4.319   1.612   9.723  0.3703  1.8541  0.2256
 4806SOL    HW225881   4.340   1.533   9.839  3.5124  1.4846 -1.8467
 4807SOL     OW25882   0.200   3.113  15.436 -0.1588  0.9552  0.4288
 4807SOL    HW125883   0.272   3.068  15.479 -1.2533 -1.1395  0.0795
 4807SOL    HW225884   0.223   3.111  15.343  0.6170  2.3371  0.5909
 4808SOL     OW25885   1.394   4.233   5.983 -0.1207 -0.3176 -0.1501
 4808SOL    HW125886   1.451   4.307   5.964 -1.5644  0.9699  0.4868
 4808SOL    HW225887   1.394   4.248   6.077 -1.0593 -0.9162 -0.0544
 4809SOL     OW25888   3.073   0.475  16.895  0.1511 -0.4379  0.2266
 4809SOL    HW125889   3.152   0.442  16.852 -0.2619 -0.8041 -0.2493
 4809SOL    HW225890   3.006   0.445  16.835  0.2920  0.9907 -0.6403
 4810SOL     OW25891   4.620   0.819   0.938 -0.0098  0.1746  0.0800
 4810SOL    HW125892   4.645   0.727   0.928 -2.6094 -0.3615 -1.3370
 4810SOL    HW225893   4.545   0.833   0.880  0.7261  2.1710 -0.4110
 4811SOL     OW25894   2.172   0.845   8.351 -0.2971  0.3250  0.2381
 4811SOL    HW125895   2.123   0.924   8.329  1.1595  0.7969 -1.2701
 4811SOL    HW225896   2.150   0.843   8.444 -0.7537  0.2621  0.1266
 4812SOL     OW25897   1.657   4.525   3.179 -0.0619 -0.2943  0.1401
 4812SOL    HW125898   1.579   4.473   3.163 -0.5643 -0.1878  2.2919
 4812SOL    HW225899   1.706   4.499   3.101  0.5938 -1.0367  0.8012
 4813SOL     OW25900   3.897   1.309   2.479 -0.2867 -0.8943 -0.2753
 4813SOL    HW125901   3.894   1.321   2.574 -2.1843  0.2937 -0.4737
 4813SOL    HW225902   3.962   1.375   2.456 -0.8136 -0.3743 -0.2553
 4814SOL     OW25903   0.917   4.647   4.309  0.2457 -0.2000 -0.2577
 4814SOL    HW125904   0.934   4.639   4.215 -0.2349 -0.3781 -0.3308
 4814SOL    HW225905   0.962   4.570   4.344  0.7379  1.2065  2.1944
 4815SOL     OW25906   0.944   0.864   0.803  0.3126 -0.4312 -0.1209
 4815SOL    HW125907   0.955   0.909   0.719  2.7629  1.3541  1.1387
 4815SOL    HW225908   0.852   0.863   0.827  0.0865 -1.9030 -1.0894
 4816SOL     OW25909   1.367   4.124   3.812  0.1938  0.1547  0.2999
 4816SOL    HW125910   1.337   4.100   3.900  0.4675 -2.7619 -0.4154
 4816SOL    HW225911   1.399   4.214   3.821  4.0335 -1.1375 -0.1313
 4817SOL     OW25912   2.964   0.357  16.634 -0.0188  0.1537  0.2306
 4817SOL    HW125913   2.912   0.411  16.574 -0.0876 -0.0914  0.0693
 4817SOL    HW225914   3.007   0.294  16.576 -2.1873 -2.0741  1.0640
 4818SOL     OW25915   2.912   2.679   4.617 -0.2743 -0.2084 -0.1013
 4818SOL    HW125916   2.828   2.641   4.641 -1.7530  1.5790 -2.4226
 4818SOL    HW225917   2.952   2.599   4.583  1.3372  0.2211  0.7997
 4819SOL     OW25918   2.120   4.540  14.297  0.0029 -0.0379  0.2747
 4819SOL    HW125919   2.175   4.484  14.241  0.0131  0.0134  0.2334
 4819SOL    HW225920   2.061   4.574  14.229  0.2533 -0.5185 -0.1843
 4820SOL     OW25921   2.839   1.840  17.501 -0.1362  0.4912  0.0234
 4820SOL    HW125922   2.829   1.787  17.580  0.4242  0.1690 -0.1210
 4820SOL    HW225923   2.747   1.862  17.485 -0.6227 -3.0949 -1.9112
 4821SOL     OW25924   1.691   3.468   3.098 -0.0114  0.0718 -0.1069
 4821SOL    HW125925   1.746   3.396   3.130  0.4218  0.0064 -1.0037
 4821SOL    HW225926   1.603   3.434   3.111  0.1321 -0.9773 -1.8020
 4822SOL     OW25927   4.001   1.764   7.302  0.2500 -0.1429 -0.1947
 4822SOL    HW125928   4.010   1.722   7.217 -0.8994 -0.3779 -0.2074
 4822SOL    HW225929   3.905   1.757   7.311  0.2003  0.5690 -0.1831
 4823SOL     OW25930   2.914   2.714   8.791 -0.3904  0.4533 -0.2521
 4823SOL    HW125931   2.972   2.784   8.763  0.9578 -0.0530  1.2636
 4823SOL    HW225932   2.902   2.728   8.885  1.0253  0.8346 -0.1255
 4824SOL     OW25933   2.509   2.531  14.829  0.5209 -0.0120  0.1763
 4824SOL    HW125934   2.483   2.453  14.778  0.0117 -0.1148  0.5932
 4824SOL    HW225935   2.453   2.521  14.906 -0.7386 -0.3986 -0.7836
 4825SOL     OW25936   0.031   1.071  16.139  0.3540 -0.2555 -0.6266
 4825SOL    HW125937   0.016   1.156  16.097 -0.3833 -0.2243 -0.3106
 4825SOL    HW225938   0.067   1.017  16.068 -2.0879 -1.0114 -1.3197
 4826SOL     OW25939   0.152   1.437   9.186 -0.4154  0.0928  0.3037
 4826SOL    HW125940   0.106   1.456   9.104  1.0581 -0.7041 -0.7120
 4826SOL    HW225941   0.083   1.444   9.252 -1.5302 -1.1435 -0.7431
 4827SOL     OW25942   4.062   1.786   2.273 -0.2862  0.2211  0.5975
 4827SOL    HW125943   3.971   1.813   2.266 -0.7533 -2.1262 -2.3636
 4827SOL    HW225944   4.062   1.710   2.214  0.6723  2.1620 -1.9045
 4828SOL     OW25945   2.108   3.310   2.954 -0.4568 -0.3804 -0.0534
 4828SOL    HW125946   2.197   3.346   2.950 -0.9011  0.7301  0.1608
 4828SOL    HW225947   2.116   3.232   3.009 -0.2663 -1.4340 -1.5455
 4829SOL     OW25948   0.669   3.300  15.582 -0.4530  0.0614 -0.3414
 4829SOL    HW125949   0.749   3.264  15.545 -0.1621  1.2307 -0.8396
 4829SOL    HW225950   0.602   3.264  15.524  1.3439  1.0395 -3.0226
 4830SOL     OW25951   4.275   1.724  14.961 -0.1298  0.0043 -0.0086
 4830SOL    HW125952   4.208   1.657  14.973  1.4169 -1.6145 -0.6033
 4830SOL    HW225953   4.238   1.801  15.005  0.3042  0.5847 -0.6623
 4831SOL     OW25954   2.380   1.476  15.224 -0.7157  0.6128 -0.2824
 4831SOL    HW125955   2.338   1.464  15.309 -0.3852 -1.4634 -0.4323
 4831SOL    HW225956   2.330   1.415  15.170 -1.1049  0.8779 -0.2241
 4832SOL     OW25957   4.295   0.330  16.808  0.1251  0.7666  0.8327
 4832SOL    HW125958   4.213   0.338  16.761  0.3001 -2.4238 -0.0065
 4832SOL    HW225959   4.271   0.312  16.899  0.2110 -0.1781  0.6686
 4833SOL     OW25960   4.018   0.434   8.052 -0.2176 -0.0220 -0.5876
 4833SOL    HW125961   4.024   0.358   8.109  0.1610  0.1913 -0.3418
 4833SOL    HW225962   3.965   0.496   8.102 -0.5821 -1.2894  0.5983
 4834SOL     OW25963   1.808   3.918  16.102 -1.1918 -0.6100 -0.0163
 4834SOL    HW125964   1.772   3.987  16.046  0.1585 -1.8176 -2.3818
 4834SOL    HW225965   1.790   3.943  16.193 -0.7996 -1.4421  0.2887
 4835SOL     OW25966   1.839   1.007   1.806  0.5790  0.0063  0.0936
 4835SOL    HW125967   1.770   1.061   1.767 -0.1093 -2.6916 -2.4293
 4835SOL    HW225968   1.853   0.937   1.742  2.1482 -0.2624  0.7285
 4836SOL     OW25969   1.389   1.771   3.959  0.2437 -0.5036  0.1181
 4836SOL    HW125970   1.377   1.861   3.929 -0.1676 -0.6068 -0.0152
 4836SOL    HW225971   1.378   1.730   3.874  0.6355  0.7693 -0.5527
 4837SOL     OW25972   3.745   2.301   2.503  0.8173  0.2496  0.7422
 4837SOL    HW125973   3.692   2.368   2.461  1.9331  1.2805  0.9748
 4837SOL    HW225974   3.695   2.275   2.581  2.0445 -0.8209  1.1825
 4838SOL     OW25975   2.904   4.290   9.128  0.4855 -0.6939 -0.1385
 4838SOL    HW125976   2.920   4.367   9.182 -0.1063 -0.1656 -0.7197
 4838SOL    HW225977   2.918   4.212   9.181 -1.2355 -0.6818  0.3190
 4839SOL     OW25978   1.505   3.754   5.068  0.6602  0.2790  0.5558
 4839SOL    HW125979   1.531   3.744   4.976 -2.9525 -0.4354 -0.3820
 4839SOL    HW225980   1.523   3.846   5.086 -1.5794  0.5652  1.3589
 4840SOL     OW25981   2.959   0.716   2.171 -0.4651  0.1245 -0.7603
 4840SOL    HW125982   2.973   0.807   2.144  0.5749  0.4921  0.9901
 4840SOL    HW225983   2.872   0.735   2.205  0.3062 -0.8531  1.8126
 4841SOL     OW25984   4.326   1.939  14.544 -0.0025  0.2646  0.5105
 4841SOL    HW125985   4.233   1.913  14.542  0.3368 -0.9515  0.6932
 4841SOL    HW225986   4.329   2.008  14.479 -1.9278  0.3982  0.5594
 4842SOL     OW25987   2.621   1.923   3.523  0.3152 -0.2585  0.4436
 4842SOL    HW125988   2.705   1.963   3.542  0.8755 -1.0656 -0.3286
 4842SOL    HW225989   2.576   1.985   3.466 -1.1098 -0.8791  0.8938
 4843SOL     OW25990   1.671   4.105  11.807  0.4750  0.5100 -0.1001
 4843SOL    HW125991   1.700   4.047  11.878  2.7260 -1.7651 -2.8536
 4843SOL    HW225992   1.754   4.142  11.776  0.7681  0.8521  1.0963
 4844SOL     OW25993   0.265   2.458   3.739 -0.1047  0.1329 -0.4537
 4844SOL    HW125994   0.240   2.446   3.648  1.3284  1.7110 -1.0499
 4844SOL    HW225995   0.198   2.521   3.767 -0.5496 -1.0521  1.1590
 4845SOL     OW25996   4.531   0.876   1.210 -0.2147  0.1880  0.6922
 4845SOL    HW125997   4.557   0.836   1.127 -0.3623  0.3400  0.5736
 4845SOL    HW225998   4.542   0.813   1.281  0.9444 -1.5679 -1.0073
 4846SOL     OW25999   1.765   0.359   3.150  0.2115 -0.7433  0.1628
 4846SOL    HW126000   1.683   0.361   3.101  0.1363 -0.5598  0.2932
 4846SOL    HW226001   1.835   0.362   3.085 -0.7043  0.4112 -0.7777
 4847SOL     OW26002   1.937   3.537  10.144 -0.0571  0.2461  0.1720
 4847SOL    HW126003   2.000   3.575  10.083 -1.1174  0.6267 -0.6894
 4847SOL    HW226004   1.982   3.471  10.196 -0.4322  0.2095  0.4512
 4848SOL     OW26005   0.745   2.974   5.529 -1.4970 -0.6158 -0.9949
 4848SOL    HW126006   0.726   3.062   5.496  1.6584 -0.3177 -2.0888
 4848SOL    HW226007   0.690   2.928   5.466  0.0731 -0.0182 -2.8036
 4849SOL     OW26008   2.796   0.548   5.952  0.4107  0.0878  0.0618
 4849SOL    HW126009   2.737   0.473   5.939 -0.1740  0.4973  0.3466
 4849SOL    HW226010   2.733   0.620   5.942  0.7225  0.1846 -1.1621
 4850SOL     OW26011   2.560   3.725   7.672 -0.0589  0.7497 -0.4208
 4850SOL    HW126012   2.572   3.688   7.585 -0.5560  2.0578 -1.0412
 4850SOL    HW226013   2.597   3.649   7.718  0.5865  1.7557  0.7355
 4851SOL     OW26014   1.693   1.243   5.513  0.8235  0.3953 -0.0866
 4851SOL    HW126015   1.701   1.152   5.483  1.1539 -0.0589  1.3789
 4851SOL    HW226016   1.602   1.261   5.492  0.2146 -1.0944  1.2565
 4852SOL     OW26017   0.476   4.152   5.338 -0.2146  0.1912 -0.3368
 4852SOL    HW126018   0.425   4.075   5.313 -0.0073 -0.8963  2.5800
 4852SOL    HW226019   0.418   4.200   5.398 -1.0746  0.2298 -1.2105
 4853SOL     OW26020   4.128   1.654  13.777  0.3404  0.4726 -0.0904
 4853SOL    HW126021   4.046   1.641  13.824  1.1720  1.8091  1.7313
 4853SOL    HW226022   4.104   1.659  13.684  1.5848  0.6775 -0.4062
 4854SOL     OW26023   1.829   1.333   5.929 -0.1433 -0.5335 -0.2341
 4854SOL    HW126024   1.887   1.333   6.005 -0.7390  2.9462  0.2390
 4854SOL    HW226025   1.745   1.332   5.976  0.0178  1.0582  0.1122
 4855SOL     OW26026   4.361   1.332   8.990  0.0189  0.5111  0.2448
 4855SOL    HW126027   4.324   1.413   9.024  0.1531  2.1051 -3.4266
 4855SOL    HW226028   4.306   1.318   8.913  0.2053 -0.4944  0.2926
 4856SOL     OW26029   3.606   2.344   8.963 -0.0926 -0.3964 -0.3022
 4856SOL    HW126030   3.628   2.312   9.051 -0.6096  1.1953  0.4059
 4856SOL    HW226031   3.613   2.272   8.901  0.0031 -0.7955  0.1687
 4857SOL     OW26032   0.663   0.706  14.952  0.2268 -0.7139  0.8781
 4857SOL    HW126033   0.690   0.791  14.986  3.9679 -1.0705 -1.1359
 4857SOL    HW226034   0.751   0.674  14.931 -0.1444 -1.6822  0.7914
 4858SOL     OW26035   2.046   0.675   8.589  0.3429  0.3655  0.3072
 4858SOL    HW126036   1.980   0.742   8.609  2.4176  3.2101 -2.1585
 4858SOL    HW226037   2.097   0.678   8.669  0.4649 -1.0664  0.2813
 4859SOL     OW26038   1.997   1.106   6.623  0.5944  0.0496 -0.2377
 4859SOL    HW126039   2.029   1.069   6.705 -1.6624  0.1679  0.7095
 4859SOL    HW226040   1.916   1.146   6.656  0.0971 -0.5143 -0.7622
 4860SOL     OW26041   0.285   0.367   6.116 -0.1741  0.5384 -0.1025
 4860SOL    HW126042   0.373   0.379   6.153  0.1668 -0.3465 -0.6192
 4860SOL    HW226043   0.263   0.460   6.121 -0.3349  0.5388 -0.7801
 4861SOL     OW26044   1.467   2.465   4.081  0.3338 -0.4077  0.3637
 4861SOL    HW126045   1.372   2.474   4.081  0.4437  0.7479 -3.1025
 4861SOL    HW226046   1.480   2.371   4.084 -1.5759 -0.6529  0.6696
 4862SOL     OW26047   3.477   2.408   5.987 -0.5569 -0.3780 -0.3790
 4862SOL    HW126048   3.430   2.336   6.028  0.1338  0.6274  2.1528
 4862SOL    HW226049   3.411   2.446   5.929  0.2165 -0.2715 -1.1928
 4863SOL     OW26050   1.236   2.773   2.194  0.2965 -0.3627 -0.1942
 4863SOL    HW126051   1.243   2.789   2.288 -1.4283 -0.7969  0.0064
 4863SOL    HW226052   1.155   2.722   2.193 -0.2047  0.4480 -1.0284
 4864SOL     OW26053   3.825   3.675   9.363 -0.0775 -0.0859  0.0100
 4864SOL    HW126054   3.768   3.747   9.337 -0.3469 -1.3031 -2.7865
 4864SOL    HW226055   3.865   3.652   9.279  1.1689  1.5862  0.1444
 4865SOL     OW26056   2.186   1.997   8.269 -0.3902  0.3938  0.5397
 4865SOL    HW126057   2.116   2.041   8.220 -0.5850 -0.7450 -0.2167
 4865SOL    HW226058   2.206   2.061   8.337 -0.6350  2.7325 -1.5462
 4866SOL     OW26059   3.628   1.748  17.436 -0.1873 -0.1823  0.0928
 4866SOL    HW126060   3.597   1.788  17.354 -1.2230 -0.0986  0.5264
 4866SOL    HW226061   3.685   1.679  17.403  0.0320 -0.2176  0.5497
 4867SOL     OW26062   2.763   1.601  16.942  0.2031  0.0050  0.5456
 4867SOL    HW126063   2.744   1.693  16.954 -1.3690 -0.1370 -0.9586
 4867SOL    HW226064   2.737   1.583  16.851  3.0181 -1.0145 -0.0725
 4868SOL     OW26065   1.937   3.180   1.901  0.1696 -0.4313 -0.6946
 4868SOL    HW126066   2.012   3.220   1.945 -0.1657  0.6925 -1.1701
 4868SOL    HW226067   1.866   3.200   1.962 -1.6884 -0.3572 -2.8937
 4869SOL     OW26068   3.482   0.772   4.593 -0.3309  0.4881  0.5371
 4869SOL    HW126069   3.450   0.844   4.538 -2.7831  0.2808  1.6713
 4869SOL    HW226070   3.575   0.767   4.572  0.0671 -3.5133  3.3946
 4870SOL     OW26071   3.574   4.643   3.312  0.3755 -0.7503  0.5409
 4870SOL    HW126072   3.538   4.636   3.223 -2.9819 -3.4370  2.1706
 4870SOL    HW226073   3.667   4.646   3.287  0.0809 -2.3133 -0.7585
 4871SOL     OW26074   2.077   4.033   5.994 -0.1321 -0.3373 -0.0505
 4871SOL    HW126075   2.149   4.013   6.053  0.2753  1.5007  0.0952
 4871SOL    HW226076   2.116   3.998   5.914  0.3112  0.3444 -0.1355
 4872SOL     OW26077   2.762   3.065   4.244 -0.4057 -0.3369 -0.4068
 4872SOL    HW126078   2.717   3.147   4.223 -0.9664 -0.0926  1.7624
 4872SOL    HW226079   2.853   3.096   4.243 -0.4934 -0.1599 -1.8823
 4873SOL     OW26080   3.873   2.359   9.738 -0.3064 -0.3439 -0.1608
 4873SOL    HW126081   3.825   2.380   9.818 -1.0235 -0.9913 -0.4244
 4873SOL    HW226082   3.913   2.446   9.729 -0.1719 -0.4303 -0.3977
 4874SOL     OW26083   0.428   2.589  10.306 -0.3477 -0.1392 -0.2920
 4874SOL    HW126084   0.477   2.562  10.384 -2.3663  2.1709  1.7638
 4874SOL    HW226085   0.339   2.614  10.330 -0.1734 -0.0435  0.2473
 4875SOL     OW26086   3.663   1.652   8.970 -0.6345  0.5858  0.1576
 4875SOL    HW126087   3.617   1.611   9.043  0.1737 -1.8765 -0.7235
 4875SOL    HW226088   3.592   1.707   8.937  2.1639  3.3500 -1.2022
 4876SOL     OW26089   3.109   3.139  13.532  0.2084  0.0941 -0.1045
 4876SOL    HW126090   3.043   3.091  13.581 -1.2364  0.5299 -1.6032
 4876SOL    HW226091   3.184   3.116  13.586  0.1440  1.4573  0.5672
 4877SOL     OW26092   3.162   3.959   9.377 -0.0273  0.3583  0.0727
 4877SOL    HW126093   3.102   4.034   9.385 -0.8975 -0.5339  1.9521
 4877SOL    HW226094   3.132   3.903   9.448  0.0546  0.9605  0.5876
 4878SOL     OW26095   4.585   1.421   7.033  0.0234 -0.9853  0.0467
 4878SOL    HW126096   4.652   1.374   7.082 -0.4241 -1.5862  0.0782
 4878SOL    HW226097   4.566   1.344   6.979 -0.2414 -0.8366 -0.0756
 4879SOL     OW26098   1.032   2.392   2.470  0.4219 -0.0421 -0.0976
 4879SOL    HW126099   0.957   2.344   2.504 -0.5322  1.4376 -0.1181
 4879SOL    HW226100   1.087   2.384   2.547  1.1547 -0.3479 -0.6537
 4880SOL     OW26101   2.376   2.310   2.763 -0.2471  0.3968 -0.2400
 4880SOL    HW126102   2.382   2.244   2.693  1.8127  0.7416 -0.3803
 4880SOL    HW226103   2.469   2.312   2.785  0.0496  1.8996 -1.7002
 4881SOL     OW26104   4.015   3.914   2.924 -0.3517 -0.2878 -0.2712
 4881SOL    HW126105   3.956   3.948   2.856 -1.2376 -0.4472  0.4139
 4881SOL    HW226106   4.091   3.909   2.866 -0.8303  0.3408 -0.9659
 4882SOL     OW26107   3.349   4.132   6.174 -0.6084  1.1354  0.6444
 4882SOL    HW126108   3.286   4.060   6.165  2.5319 -1.9388  3.2809
 4882SOL    HW226109   3.291   4.207   6.184 -1.5902  0.6673 -1.4636
 4883SOL     OW26110   4.188   0.323  15.688 -0.7960  0.0430 -0.5448
 4883SOL    HW126111   4.200   0.319  15.783  3.9944 -0.1318 -1.1901
 4883SOL    HW226112   4.140   0.405  15.675 -1.2165  0.0023  0.7510
 4884SOL     OW26113   4.426   3.066   6.019 -0.0178  0.1257  0.2502
 4884SOL    HW126114   4.449   3.151   5.982  0.5104 -0.5280 -0.9419
 4884SOL    HW226115   4.365   3.083   6.090 -0.4672  0.5585 -0.2420
 4885SOL     OW26116   4.531   2.874   7.931 -0.0891  0.0432  0.3543
 4885SOL    HW126117   4.497   2.933   7.864 -0.5495 -0.7822 -0.1441
 4885SOL    HW226118   4.623   2.896   7.921  0.5166 -2.2895  0.8653
 4886SOL     OW26119   0.039   0.864   7.337  0.2652 -0.2319  0.0550
 4886SOL    HW126120   4.673   0.842   7.355  0.1277 -1.6763 -2.3349
 4886SOL    HW226121   0.058   0.944   7.385 -0.9182  0.5674 -0.8122
 4887SOL     OW26122   2.015   3.885   8.544  0.1218  0.2463  1.0853
 4887SOL    HW126123   2.109   3.892   8.524  0.6414 -0.4910  3.3495
 4887SOL    HW226124   2.008   3.950   8.613  0.0199  1.9917 -0.5478
 4888SOL     OW26125   0.770   1.649   1.717 -0.3508  0.3365  0.2495
 4888SOL    HW126126   0.774   1.558   1.744 -1.3045  0.7343  1.7326
 4888SOL    HW226127   0.725   1.694   1.789 -1.1304 -1.7438  1.0756
 4889SOL     OW26128   4.498   0.564  15.648  0.4910  0.7452  0.5435
 4889SOL    HW126129   4.448   0.490  15.681 -1.0841 -0.1500 -3.8703
 4889SOL    HW226130   4.568   0.577  15.713  1.8313 -2.0849 -0.3157
 4890SOL     OW26131   4.483   3.564   6.715 -0.4509 -0.9759  0.1387
 4890SOL    HW126132   4.396   3.596   6.693  0.4130  1.3074 -0.0415
 4890SOL    HW226133   4.527   3.649   6.715  0.3350 -1.3818  0.0661
 4891SOL     OW26134   4.676   1.657  13.698 -0.2235  0.0035  0.0687
 4891SOL    HW126135   4.645   1.611  13.776  1.9353  0.9766  1.4846
 4891SOL    HW226136   4.610   1.726  13.704  1.9574  2.1754 -0.9889
 4892SOL     OW26137   4.272   3.541  13.265 -0.2122 -0.3610  0.1019
 4892SOL    HW126138   4.364   3.526  13.241 -0.6480 -0.6933 -1.3367
 4892SOL    HW226139   4.241   3.564  13.177  1.2537  0.7560 -0.1405
 4893SOL     OW26140   3.068   2.551  10.531  0.1307 -0.3391 -0.5329
 4893SOL    HW126141   3.024   2.539  10.447  0.6379 -0.2632 -0.8051
 4893SOL    HW226142   3.006   2.507  10.589 -1.1176 -0.7222 -2.1587
 4894SOL     OW26143   3.932   0.718  13.250 -0.7287  0.2737  0.1849
 4894SOL    HW126144   3.978   0.749  13.172 -0.5451 -0.1904  0.1103
 4894SOL    HW226145   3.845   0.725  13.211 -0.4842 -1.6233 -0.6852
 4895SOL     OW26146   0.896   1.361   7.080  0.0492 -0.1043 -0.4601
 4895SOL    HW126147   0.802   1.346   7.074  0.1848 -0.8160 -0.8359
 4895SOL    HW226148   0.932   1.274   7.095 -2.2167 -0.6538  1.7082
 4896SOL     OW26149   2.836   3.116   5.558 -0.8532 -0.0026  0.3446
 4896SOL    HW126150   2.868   3.160   5.637 -1.7829 -1.6336  1.6489
 4896SOL    HW226151   2.924   3.121   5.520 -1.4533 -0.9825 -1.1534
 4897SOL     OW26152   2.163   0.152  10.801 -0.0994  0.4907  0.2175
 4897SOL    HW126153   2.126   0.154  10.889 -0.4464  0.6005  0.0674
 4897SOL    HW226154   2.095   0.171  10.737 -0.3804  2.2291  1.0345
 4898SOL     OW26155   4.293   2.434   8.951  0.2692  0.1532  0.0984
 4898SOL    HW126156   4.220   2.385   8.989  1.8502 -0.0917  2.8370
 4898SOL    HW226157   4.270   2.523   8.979  1.8861  0.7841 -0.5890
 4899SOL     OW26158   4.539   2.758   6.927 -0.1684  0.0710 -0.5144
 4899SOL    HW126159   4.593   2.740   6.851  0.4442  2.7455 -0.7119
 4899SOL    HW226160   4.607   2.763   6.994  0.9965 -1.1387 -1.6071
 4900SOL     OW26161   2.302   3.672  11.283  0.0279 -0.2212 -0.4392
 4900SOL    HW126162   2.294   3.726  11.362 -0.2600  0.1033 -0.6927
 4900SOL    HW226163   2.387   3.631  11.296 -0.9127 -1.6675  1.1084
 4901SOL     OW26164   2.397   1.145  17.585 -0.5089  0.4056 -0.4143
 4901SOL    HW126165   2.318   1.141  17.531 -0.2264  0.3563 -0.8237
 4901SOL    HW226166   2.464   1.110  17.527 -0.2387  0.0535  0.1080
 4902SOL     OW26167   2.746   2.521  14.694 -0.3630  0.4740  0.3099
 4902SOL    HW126168   2.658   2.527  14.732 -1.5276  1.5478 -2.5198
 4902SOL    HW226169   2.782   2.455  14.753 -1.0773 -1.6847 -1.6371
 4903SOL     OW26170   3.833   4.115   3.359  0.2284  0.2604 -0.5217
 4903SOL    HW126171   3.898   4.185   3.372 -2.1692  2.0975  1.4859
 4903SOL    HW226172   3.884   4.054   3.305  2.2964  0.6970  0.9007
 4904SOL     OW26173   1.559   3.587   2.239 -0.0240 -0.5569 -0.0715
 4904SOL    HW126174   1.482   3.629   2.278 -1.0320 -0.2131 -2.4776
 4904SOL    HW226175   1.542   3.498   2.270 -1.2341  0.6405  2.7169
 4905SOL     OW26176   2.442   4.234   1.162 -0.2560  0.0445 -0.4613
 4905SOL    HW126177   2.460   4.285   1.083  2.2785  0.6825  0.5386
 4905SOL    HW226178   2.400   4.303   1.213  0.8444  0.3983 -0.0463
 4906SOL     OW26179   0.082   1.337   7.157 -0.4231  0.2060  0.2223
 4906SOL    HW126180   0.083   1.241   7.166 -0.2281  0.3279  1.4387
 4906SOL    HW226181   0.139   1.351   7.232 -0.1104 -1.8736  0.3684
 4907SOL     OW26182   0.295   1.458  14.083 -0.3418 -0.2039  0.0748
 4907SOL    HW126183   0.234   1.530  14.069  0.1111 -0.5365 -3.4701
 4907SOL    HW226184   0.284   1.457  14.178  0.8864 -1.2379  0.2163
 4908SOL     OW26185   0.069   1.797   5.159 -0.5408  0.6544 -0.5660
 4908SOL    HW126186   0.099   1.709   5.135  0.4108  0.7477  0.3029
 4908SOL    HW226187   0.074   1.837   5.072 -2.4932  0.3049 -0.8415
 4909SOL     OW26188   3.060   1.045  13.352 -0.4677 -0.6267  0.1786
 4909SOL    HW126189   3.107   1.122  13.322 -0.2225 -1.3057 -1.1564
 4909SOL    HW226190   3.062   0.996  13.270 -0.4541 -1.0503  0.4295
 4910SOL     OW26191   0.099   4.713   7.945  0.0567  0.5155  0.8114
 4910SOL    HW126192   0.102   4.657   7.868  0.6359 -1.3498  2.1939
 4910SOL    HW226193   0.089   0.077   7.913  0.2606  1.0923  2.3450
 4911SOL     OW26194   1.475   2.972   6.007 -0.4044 -0.0863 -0.5881
 4911SOL    HW126195   1.402   2.925   5.968  0.5576 -0.3589 -2.0396
 4911SOL    HW226196   1.463   3.052   5.957  0.5100  1.1361  1.1287
 4912SOL     OW26197   1.027   2.194  16.833 -0.3535  0.3192  0.5654
 4912SOL    HW126198   1.036   2.182  16.739 -1.9952  0.1747  0.4222
 4912SOL    HW226199   1.038   2.289  16.837 -0.0357  0.2362  1.6637
 4913SOL     OW26200   3.588   1.926   6.189 -0.4628  0.4950  0.8387
 4913SOL    HW126201   3.639   1.905   6.112 -1.5739  0.7314  0.0361
 4913SOL    HW226202   3.593   1.851   6.248 -1.1717 -0.2650 -0.0749
 4914SOL     OW26203   0.423   3.899  16.034 -0.0845  0.2563 -0.2015
 4914SOL    HW126204   0.401   3.926  15.945 -0.5273  1.0683  0.1606
 4914SOL    HW226205   0.470   3.979  16.058 -0.2858  0.3016  0.0333
 4915SOL     OW26206   3.147   4.512  10.740  0.3134  0.6062 -0.2955
 4915SOL    HW126207   3.171   4.420  10.733  1.8457  0.8545  1.7273
 4915SOL    HW226208   3.225   4.549  10.783  0.3490  2.1451 -1.6487
 4916SOL     OW26209   1.561   4.684   9.021  0.1164 -0.6292 -0.3194
 4916SOL    HW126210   1.529   0.049   9.026  0.3277 -0.5100 -1.0385
 4916SOL    HW226211   1.488   4.636   8.982  1.6635 -1.8763 -1.7226
 4917SOL     OW26212   0.953   0.465   4.673  0.3842  0.1828  0.1103
 4917SOL    HW126213   0.914   0.432   4.754  1.3011  2.2274  1.4005
 4917SOL    HW226214   1.043   0.444   4.698  0.0277 -0.1219  1.1141
 4918SOL     OW26215   4.441   0.799  12.180 -0.1876  0.6322 -0.0382
 4918SOL    HW126216   4.415   0.832  12.094  1.0420 -0.3852 -0.8135
 4918SOL    HW226217   4.373   0.830  12.240 -1.2398 -2.9753  0.6600
 4919SOL     OW26218   4.244   3.413  15.615  0.6300 -0.0370 -0.2952
 4919SOL    HW126219   4.267   3.321  15.615  0.4561 -0.0806 -0.5793
 4919SOL    HW226220   4.298   3.454  15.683  1.4496 -2.0442  0.2596
 4920SOL     OW26221   1.686   0.952  11.504 -0.1539 -0.3112  0.3921
 4920SOL    HW126222   1.703   1.038  11.541 -0.0691  1.1080 -2.9692
 4920SOL    HW226223   1.771   0.946  11.461 -0.8330  0.9417 -1.1176
 4921SOL     OW26224   2.995   1.583   0.469 -0.1597 -0.4775 -0.2389
 4921SOL    HW126225   2.966   1.652   0.410 -1.1278 -0.5048  0.2024
 4921SOL    HW226226   3.023   1.635   0.544  0.1733  0.4092 -0.9833
 4922SOL     OW26227   0.996   3.254  10.624  0.0660 -0.5933  0.4049
 4922SOL    HW126228   1.059   3.258  10.552 -2.0092  3.2788 -1.2168
 4922SOL    HW226229   0.920   3.210  10.584 -0.3444  1.0758 -0.6859
 4923SOL     OW26230   4.412   4.333   8.351 -0.0730  0.2277 -0.1199
 4923SOL    HW126231   4.333   4.278   8.355 -0.0218  0.1871  0.3153
 4923SOL    HW226232   4.373   4.386   8.282 -0.2579  0.5100  0.2087
 4924SOL     OW26233   1.777   3.259   7.168  0.1269  0.0091  0.1721
 4924SOL    HW126234   1.835   3.235   7.095 -1.9156  0.3093 -1.5365
 4924SOL    HW226235   1.691   3.248   7.129 -0.5890 -0.5154  1.9204
 4925SOL     OW26236   2.163   2.266   4.488 -0.3386 -0.3828 -0.1787
 4925SOL    HW126237   2.255   2.267   4.512  0.2226 -1.2553 -2.3763
 4925SOL    HW226238   2.119   2.270   4.573  1.1378 -1.7529  0.6462
 4926SOL     OW26239   1.966   3.422   5.238 -0.1183  0.7682  0.1991
 4926SOL    HW126240   1.952   3.358   5.168  3.0304 -0.7419  0.9331
 4926SOL    HW226241   1.882   3.462   5.260 -0.8525  0.1013 -1.4055
 4927SOL     OW26242   1.407   1.273  15.569 -0.4578  0.4364 -0.0994
 4927SOL    HW126243   1.328   1.263  15.516 -0.1738  1.2840 -0.6816
 4927SOL    HW226244   1.425   1.367  15.562  0.2352  0.1409 -2.5328
 4928SOL     OW26245   4.089   3.325   9.403  0.3702 -0.0665  0.3872
 4928SOL    HW126246   4.109   3.416   9.383 -1.0658  0.4868  1.4574
 4928SOL    HW226247   4.166   3.303   9.455  2.5700  2.4258 -1.8393
 4929SOL     OW26248   4.232   1.075  12.978  0.5498  0.0046 -0.0494
 4929SOL    HW126249   4.302   1.103  12.918 -0.9191 -1.0456 -2.2821
 4929SOL    HW226250   4.215   1.164  13.009  1.3117 -0.5398  1.9183
 4930SOL     OW26251   3.757   0.718   7.389 -0.0978 -0.0521 -0.2830
 4930SOL    HW126252   3.683   0.714   7.329  0.6020 -1.0135 -1.0764
 4930SOL    HW226253   3.720   0.678   7.468  0.5114 -1.2105 -0.5903
 4931SOL     OW26254   3.395   2.018   8.746  0.3010 -0.9722 -0.3409
 4931SOL    HW126255   3.350   2.038   8.664 -0.9840  0.8707  0.8053
 4931SOL    HW226256   3.350   2.084   8.799  3.6967 -0.0689  1.3924
 4932SOL     OW26257   2.092   3.040   5.185  0.3031 -0.4446 -0.1079
 4932SOL    HW126258   2.156   2.968   5.186  0.1262 -0.5538  1.8695
 4932SOL    HW226259   2.023   3.001   5.238  1.0757 -2.4655 -0.5866
 4933SOL     OW26260   4.068   0.204   5.812  0.0331 -0.2086  0.0082
 4933SOL    HW126261   4.110   0.276   5.764  0.6724 -1.0537 -0.6868
 4933SOL    HW226262   3.982   0.245   5.828  0.6951  0.9620  0.6001
 4934SOL     OW26263   4.574   1.825   9.143  0.0310 -0.3742  0.2199
 4934SOL    HW126264   4.666   1.832   9.167 -0.0310  3.0840 -0.5033
 4934SOL    HW226265   4.584   1.786   9.057 -1.2626 -1.4484  0.5666
 4935SOL     OW26266   1.547   0.520   4.280 -0.0168  0.1532  0.0824
 4935SOL    HW126267   1.593   0.498   4.199 -0.7885 -0.5750 -0.1445
 4935SOL    HW226268   1.456   0.513   4.251  0.5232 -1.9202 -1.0611
 4936SOL     OW26269   1.324   3.371   6.615 -0.4686 -0.2996 -0.2492
 4936SOL    HW126270   1.247   3.427   6.621 -1.2599 -1.0707 -3.4636
 4936SOL    HW226271   1.280   3.303   6.566  0.0942 -1.1101  0.3661
 4937SOL     OW26272   4.459   2.291   1.399 -0.4793  0.0276  0.6244
 4937SOL    HW126273   4.438   2.317   1.309 -1.6980 -3.3160 -0.0883
 4937SOL    HW226274   4.545   2.257   1.373  0.0633  2.6130 -0.9376
 4938SOL     OW26275   0.304   1.026   5.931 -0.4171 -0.1895  0.5671
 4938SOL    HW126276   0.267   1.114   5.918 -2.5315 -1.0590  0.7962
 4938SOL    HW226277   0.246   0.975   5.874 -0.3029  2.2238 -1.7088
 4939SOL     OW26278   2.313   2.131   6.322 -0.1430  0.0570 -0.5544
 4939SOL    HW126279   2.318   2.051   6.373  0.6351  0.5941  0.2131
 4939SOL    HW226280   2.390   2.182   6.347 -0.0768 -0.0227 -0.5967
 4940SOL     OW26281   4.439   2.325   9.805 -0.6564 -0.1625 -0.3686
 4940SOL    HW126282   4.393   2.390   9.753 -0.2515  1.5119  1.3816
 4940SOL    HW226283   4.370   2.301   9.867 -0.1008 -0.4613  0.1393
 4941SOL     OW26284   1.619   1.167   3.199 -0.5989 -0.5718  0.0403
 4941SOL    HW126285   1.617   1.105   3.273  2.1785 -2.7879 -1.7683
 4941SOL    HW226286   1.581   1.245   3.240  1.8277 -0.0591  1.2857
 4942SOL     OW26287   2.885   0.523   8.384 -0.4643  0.1761  0.4720
 4942SOL    HW126288   2.818   0.561   8.327 -0.3534 -1.8390 -1.0018
 4942SOL    HW226289   2.906   0.443   8.335  0.7232 -0.7498  2.4670
 4943SOL     OW26290   4.408   0.626  17.392 -0.2190 -0.2019  0.5094
 4943SOL    HW126291   4.425   0.566  17.320  1.7700  1.1707 -0.1475
 4943SOL    HW226292   4.347   0.683  17.345  1.6768  1.8308  0.5384
 4944SOL     OW26293   1.249   3.427   0.001  0.5847  0.2315 -0.3547
 4944SOL    HW126294   1.264   3.348   0.053  0.7778  0.4235 -0.1203
 4944SOL    HW226295   1.163   3.448   0.037  0.7128 -1.0768  0.7086
 4945SOL     OW26296   1.312   3.726   8.644  0.5625  0.5005  0.0733
 4945SOL    HW126297   1.312   3.739   8.739  1.5642  2.3332 -0.1775
 4945SOL    HW226298   1.405   3.723   8.623  0.1299  1.7256 -1.9554
 4946SOL     OW26299   2.948   0.057  17.001  0.0215  0.5187  0.9384
 4946SOL    HW126300   2.954   0.127  17.067  2.7992  2.7294 -1.6414
 4946SOL    HW226301   2.978   0.097  16.919 -2.2144 -1.3386 -0.7722
 4947SOL     OW26302   3.184   0.566   4.368  0.7437  0.1228 -0.3842
 4947SOL    HW126303   3.211   0.658   4.368 -0.8045  0.5805 -0.4032
 4947SOL    HW226304   3.214   0.538   4.454  1.9515  0.0636 -0.8260
 4948SOL     OW26305   1.793   2.880   3.881  1.2309 -0.3174  0.4594
 4948SOL    HW126306   1.846   2.801   3.891 -0.2915 -1.3039  0.8159
 4948SOL    HW226307   1.821   2.901   3.792  0.5404 -1.3779 -0.0053
 4949SOL     OW26308   2.492   3.563   8.595 -0.2598 -0.0801  0.1005
 4949SOL    HW126309   2.432   3.620   8.548  0.7708  0.6304 -0.3538
 4949SOL    HW226310   2.501   3.618   8.673  1.3465  1.0192 -0.8521
 4950SOL     OW26311   3.885   3.940  12.628  0.2609 -0.2139  0.2084
 4950SOL    HW126312   3.948   3.946  12.699 -0.7529 -0.7055  1.1452
 4950SOL    HW226313   3.842   4.026  12.632 -1.2478 -0.9799  0.3883
 4951SOL     OW26314   2.521   3.109   0.754 -0.5396 -0.0205  0.4819
 4951SOL    HW126315   2.445   3.051   0.747  0.9237 -1.6398 -1.7453
 4951SOL    HW226316   2.512   3.128   0.848 -0.6889  0.1827  0.4272
 4952SOL     OW26317   3.144   4.021   3.321  1.0679 -0.5930  0.4488
 4952SOL    HW126318   3.107   3.932   3.321  1.1287 -0.6366 -1.5767
 4952SOL    HW226319   3.128   4.056   3.408  0.9913 -1.4454  0.7849
 4953SOL     OW26320   4.121   4.613  13.413 -0.1600 -0.3062 -0.1223
 4953SOL    HW126321   4.211   4.617  13.445 -0.8144 -0.0229  1.6867
 4953SOL    HW226322   4.128   4.546  13.344  0.2624 -0.2117 -0.1672
 4954SOL     OW26323   3.428   2.881   7.744 -0.5043 -0.1202 -0.1066
 4954SOL    HW126324   3.442   2.955   7.804  1.5817  0.7024 -1.6094
 4954SOL    HW226325   3.432   2.799   7.794  0.8218 -0.0370 -0.0633
 4955SOL     OW26326   2.171   0.628   4.195  0.3727  0.1003 -0.8675
 4955SOL    HW126327   2.224   0.707   4.196 -1.7580  1.5525 -1.3547
 4955SOL    HW226328   2.091   0.665   4.233  1.3808 -0.8339  2.1162
 4956SOL     OW26329   1.936   4.198   8.683 -0.3101 -0.2752  0.0386
 4956SOL    HW126330   1.851   4.229   8.713 -0.0591 -1.3136  1.8655
 4956SOL    HW226331   1.992   4.240   8.749  1.3070  0.5666 -1.8672
 4957SOL     OW26332   0.402   0.854   3.312  0.7598 -0.3938  1.1464
 4957SOL    HW126333   0.472   0.887   3.256  1.0771  0.1250  1.8519
 4957SOL    HW226334   0.350   0.802   3.250  0.2627 -1.3095  2.3349
 4958SOL     OW26335   1.053   4.276   0.419 -0.2316  0.1556  0.1501
 4958SOL    HW126336   0.975   4.301   0.370 -0.7836 -1.5694  0.1415
 4958SOL    HW226337   1.031   4.193   0.462  1.5328  0.0875  0.9285
 4959SOL     OW26338   3.705   3.685   6.722 -0.4723 -0.2106  0.1874
 4959SOL    HW126339   3.776   3.661   6.782  0.2425 -0.1769 -0.6386
 4959SOL    HW226340   3.637   3.626   6.754  0.1751 -0.7528  0.5695
 4960SOL     OW26341   0.963   0.221  13.360  0.0632 -0.1666 -0.2831
 4960SOL    HW126342   0.937   0.179  13.442 -0.8239  0.4459 -0.2476
 4960SOL    HW226343   1.050   0.183  13.345  1.4165  2.4739  0.8777
 4961SOL     OW26344   0.827   3.069  15.286 -0.2758  0.5556 -0.1629
 4961SOL    HW126345   0.818   2.981  15.249 -0.0217 -0.1849  1.5059
 4961SOL    HW226346   0.746   3.113  15.259 -1.4834  0.0925  2.6301
 4962SOL     OW26347   0.112   3.855   5.983 -0.4779 -0.0635  0.2520
 4962SOL    HW126348   0.118   3.789   5.914 -0.0836  0.2207  0.0104
 4962SOL    HW226349   0.165   3.813   6.050 -0.4126  1.1845  0.9950
 4963SOL     OW26350   4.050   4.336   6.652  0.3041  0.0636  0.5388
 4963SOL    HW126351   3.962   4.361   6.624  0.7677  0.5966 -0.4419
 4963SOL    HW226352   4.054   4.241   6.638  0.9312  0.6710 -3.3488
 4964SOL     OW26353   2.025   1.386  12.661 -0.1446  0.0143 -0.2034
 4964SOL    HW126354   1.982   1.447  12.720 -0.2114 -0.1838 -0.0466
 4964SOL    HW226355   2.055   1.439  12.588 -1.0056 -0.8337 -1.1812
 4965SOL     OW26356   4.201   3.271   1.625 -0.0209  0.5270 -0.4956
 4965SOL    HW126357   4.228   3.209   1.694  0.3325  2.9835  1.5825
 4965SOL    HW226358   4.276   3.265   1.565  0.6087 -0.2088  0.3528
 4966SOL     OW26359   2.767   1.957   7.872  0.3341 -0.1156 -0.4924
 4966SOL    HW126360   2.721   1.891   7.924 -1.1965  0.4241 -1.1737
 4966SOL    HW226361   2.800   2.006   7.948  0.8284 -1.0912 -0.0719
 4967SOL     OW26362   3.958   1.897   3.523  0.7400 -0.1412 -0.5417
 4967SOL    HW126363   3.989   1.824   3.576  0.3006  0.2198  0.2047
 4967SOL    HW226364   3.905   1.945   3.587  0.6394 -1.3985  0.3105
 4968SOL     OW26365   2.257   0.895  16.955  0.7617  0.2730  0.0455
 4968SOL    HW126366   2.216   0.841  17.023 -0.0758  1.5835  0.5833
 4968SOL    HW226367   2.236   0.847  16.876  0.8154  1.5195 -0.7291
 4969SOL     OW26368   1.203   1.225   1.159 -0.1941  0.0123  0.5302
 4969SOL    HW126369   1.223   1.204   1.068 -1.8830  1.0844 -0.0883
 4969SOL    HW226370   1.271   1.175   1.203 -0.0203  1.1813  1.5987
 4970SOL     OW26371   4.330   0.898  11.955 -0.2146 -0.1712  0.4508
 4970SOL    HW126372   4.365   0.982  11.925  0.3344 -1.3452 -2.1982
 4970SOL    HW226373   4.253   0.886  11.899  0.0577 -0.1412  0.0684
 4971SOL     OW26374   0.599   2.381   8.058  0.0938  0.0303 -0.0939
 4971SOL    HW126375   0.615   2.291   8.030  1.6012  0.9007 -1.9978
 4971SOL    HW226376   0.666   2.382   8.127 -1.2227  2.6570  1.1605
 4972SOL     OW26377   2.321   0.899   3.969  0.8041  0.1405  0.7160
 4972SOL    HW126378   2.234   0.939   3.962 -0.0861 -1.9727 -0.3141
 4972SOL    HW226379   2.376   0.968   3.932  0.2235  0.1716 -0.0920
 4973SOL     OW26380   3.249   0.208   5.708  0.1267 -0.0739  0.3099
 4973SOL    HW126381   3.339   0.208   5.740  0.7109  0.3855 -1.3125
 4973SOL    HW226382   3.221   0.120   5.736  2.6236 -0.3360  1.9577
 4974SOL     OW26383   1.940   3.084  13.974 -0.3971  0.3926  0.4182
 4974SOL    HW126384   1.893   3.082  14.058 -1.3781  2.1472 -0.0848
 4974SOL    HW226385   1.972   3.174  13.979 -0.9646  0.7625 -2.9516
 4975SOL     OW26386   4.183   4.169  13.643  0.3230  0.1410 -0.3118
 4975SOL    HW126387   4.236   4.248  13.643  2.4639 -1.3241  2.7046
 4975SOL    HW226388   4.171   4.150  13.736  2.0686 -0.8387 -0.2888
 4976SOL     OW26389   1.249   0.451   6.247 -0.6357 -0.0217  0.1714
 4976SOL    HW126390   1.331   0.402   6.251 -0.5263  0.1509  0.0549
 4976SOL    HW226391   1.198   0.388   6.297 -1.8618  0.4745 -0.4568
 4977SOL     OW26392   4.271   4.360   7.564  0.2943 -0.8777 -0.1876
 4977SOL    HW126393   4.357   4.398   7.544 -1.1732  2.6227  0.1444
 4977SOL    HW226394   4.269   4.368   7.659 -2.8739  2.6767 -0.5627
 4978SOL     OW26395   2.665   0.790  10.838  0.0390 -0.6801 -0.0850
 4978SOL    HW126396   2.677   0.772  10.745 -0.9484 -0.1732 -0.3186
 4978SOL    HW226397   2.681   0.884  10.844 -0.3250 -0.4944 -1.9811
 4979SOL     OW26398   2.852   2.581   9.252  0.6536  0.4215 -0.0330
 4979SOL    HW126399   2.832   2.642   9.182 -3.5265 -0.8340  0.0781
 4979SOL    HW226400   2.878   2.502   9.204  0.6311  0.2154  0.2923
 4980SOL     OW26401   0.264   4.168   9.568  0.2600  0.7243  0.1438
 4980SOL    HW126402   0.189   4.222   9.594  0.6802  1.2049  0.3528
 4980SOL    HW226403   0.325   4.232   9.533  2.1013 -1.6418 -0.9819
 4981SOL     OW26404   0.784   1.791   6.317 -0.0858  0.1705 -0.0410
 4981SOL    HW126405   0.751   1.834   6.396  0.1326 -0.2907  0.3006
 4981SOL    HW226406   0.732   1.832   6.248 -0.0873 -0.4742 -0.4185
 4982SOL     OW26407   0.747   1.291   2.607 -0.3833 -0.2310  0.2699
 4982SOL    HW126408   0.810   1.353   2.570  1.1594 -1.5418  0.7010
 4982SOL    HW226409   0.675   1.353   2.623 -1.9523 -1.8722 -0.4580
 4983SOL     OW26410   1.495   4.651   7.303  0.4455 -0.4195 -0.3799
 4983SOL    HW126411   1.535   4.621   7.221  1.6883  0.7877 -0.2108
 4983SOL    HW226412   1.449   0.006   7.279  0.5320 -0.7553 -1.6429
 4984SOL     OW26413   1.399   0.547   5.150 -0.2068  0.0812  0.3898
 4984SOL    HW126414   1.492   0.566   5.145  0.0671 -1.0296  1.1909
 4984SOL    HW226415   1.376   0.566   5.241  0.1732 -3.8409  1.2897
 4985SOL     OW26416   1.245   4.239   6.806 -0.2471 -0.1890 -0.4630
 4985SOL    HW126417   1.189   4.168   6.837  0.9874 -0.6679  0.6453
 4985SOL    HW226418   1.264   4.203   6.719 -0.4637 -1.9885  0.2429
 4986SOL     OW26419   2.936   4.282   2.030 -0.9590  0.2398 -0.3824
 4986SOL    HW126420   2.894   4.209   2.076 -1.6603 -0.0071 -1.4078
 4986SOL    HW226421   2.866   4.336   1.994  0.6209  2.9610  0.7085
 4987SOL     OW26422   0.948   0.246   5.453  0.7896 -0.0994 -0.5793
 4987SOL    HW126423   1.035   0.210   5.469  0.9603  0.2157 -0.8087
 4987SOL    HW226424   0.941   0.310   5.524  0.0699  0.1141 -0.8478
 4988SOL     OW26425   2.441   1.866  11.215 -0.3023 -0.7153 -0.3766
 4988SOL    HW126426   2.503   1.938  11.199 -2.4364  1.6186  1.7515
 4988SOL    HW226427   2.454   1.810  11.139 -0.5189 -1.6108  0.2546
 4989SOL     OW26428   3.896   2.753   5.566 -0.1019 -0.0012  0.9540
 4989SOL    HW126429   3.902   2.727   5.474 -0.8832  1.8229  0.3931
 4989SOL    HW226430   3.802   2.767   5.570 -0.1623 -0.0958 -0.3331
 4990SOL     OW26431   4.520   0.075   3.663 -0.6595 -0.4464  0.6983
 4990SOL    HW126432   4.453   0.125   3.616  1.6975 -0.9187 -3.1820
 4990SOL    HW226433   4.585   0.078   3.592 -0.0727 -1.0506  1.2101
 4991SOL     OW26434   2.386   4.058  13.200 -0.0886  0.1261  0.3058
 4991SOL    HW126435   2.295   4.086  13.194 -0.4805 -1.5047 -1.2460
 4991SOL    HW226436   2.377   3.968  13.171 -2.1684  1.0187 -1.7661
 4992SOL     OW26437   2.344   1.475   0.573  0.2371  0.4623  0.2845
 4992SOL    HW126438   2.275   1.514   0.518 -0.3534 -1.4406 -0.3123
 4992SOL    HW226439   2.350   1.545   0.638  0.2031 -1.4559  2.3388
 4993SOL     OW26440   0.031   3.927   4.712 -0.1520  0.1054 -0.0651
 4993SOL    HW126441   4.712   3.953   4.632 -0.9669  2.1248  1.0548
 4993SOL    HW226442   0.036   4.011   4.758 -3.2284  1.7938 -2.8774
 4994SOL     OW26443   2.728   3.742   2.831  0.7752  0.5301  0.0685
 4994SOL    HW126444   2.717   3.731   2.737 -2.7790  1.0783  0.4050
 4994SOL    HW226445   2.652   3.797   2.853  0.9582  0.3607  1.1365
 4995SOL     OW26446   4.715   2.724  10.803 -0.5310  0.2874  0.0234
 4995SOL    HW126447   0.056   2.793  10.807 -1.4833  1.2704 -1.2718
 4995SOL    HW226448   4.686   2.716  10.712  0.7080 -2.8515 -0.0734
 4996SOL     OW26449   0.804   1.613   9.015  0.2821 -0.2144 -0.0325
 4996SOL    HW126450   0.780   1.536   8.963  0.6811  0.6593 -1.5118
 4996SOL    HW226451   0.838   1.571   9.093 -0.7127 -2.0842 -0.6111
 4997SOL     OW26452   4.430   4.403   4.018 -0.1451  0.2405  0.0511
 4997SOL    HW126453   4.429   4.472   3.952  0.3405 -0.4227 -0.6518
 4997SOL    HW226454   4.356   4.350   3.990  0.1197  1.0884 -2.2098
 4998SOL     OW26455   4.271   2.364   6.750  0.3639  0.1619  0.0823
 4998SOL    HW126456   4.292   2.334   6.838 -1.3053  0.6010  0.6304
 4998SOL    HW226457   4.223   2.288   6.717 -0.7615 -0.0224  2.1447
 4999SOL     OW26458   3.983   3.382  15.121  0.2827  0.2815 -0.6722
 4999SOL    HW126459   4.060   3.430  15.092  0.6058  2.1063  3.2894
 4999SOL    HW226460   3.926   3.458  15.132 -0.3702 -0.5133  1.4833
 5000SOL     OW26461   1.415   0.225   9.050 -0.4521 -0.3608 -0.0698
 5000SOL    HW126462   1.425   0.188   9.138  0.3863 -1.7742 -0.7593
 5000SOL    HW226463   1.335   0.278   9.053 -0.9123 -0.9863 -1.3838
 5001SOL     OW26464   3.667   4.653  10.452 -0.6141 -0.0839 -0.2916
 5001SOL    HW126465   3.674   4.684  10.362 -1.8828  1.0899  0.0200
 5001SOL    HW226466   3.761   4.656  10.465 -0.3681 -0.6199 -1.9032
 5002SOL     OW26467   4.485   0.491   4.030  0.3668 -0.1826  0.1232
 5002SOL    HW126468   4.478   0.429   3.958  1.2107 -0.1086 -0.0257
 5002SOL    HW226469   4.506   0.569   3.979 -1.0613  2.0851  3.0195
 5003SOL     OW26470   2.527   2.755  12.548 -0.2628 -0.3705  0.2289
 5003SOL    HW126471   2.589   2.684  12.563 -0.4944 -0.4900  0.6163
 5003SOL    HW226472   2.515   2.738  12.454  0.5179 -1.0002  0.2383
 5004SOL     OW26473   2.275   0.683   2.421 -0.0355  0.1919 -0.0236
 5004SOL    HW126474   2.333   0.618   2.381  1.5714  0.8910  1.1692
 5004SOL    HW226475   2.325   0.728   2.489 -1.9576 -0.2226  1.6574
 5005SOL     OW26476   3.983   3.313   3.810  0.1629 -0.3778  0.1861
 5005SOL    HW126477   3.979   3.312   3.714 -3.1451 -0.8226  0.3371
 5005SOL    HW226478   3.990   3.408   3.821  1.0456 -0.3507 -0.5741
 5006SOL     OW26479   1.164   1.580  14.579 -0.0875  0.5046  0.0269
 5006SOL    HW126480   1.124   1.506  14.534  1.6254  0.7715 -1.9298
 5006SOL    HW226481   1.245   1.536  14.606  0.3789  1.4268  0.1315
 5007SOL     OW26482   0.994   1.555   7.855  0.0177 -0.3858 -0.4285
 5007SOL    HW126483   0.963   1.645   7.856  0.9504 -0.0720  0.3734
 5007SOL    HW226484   1.081   1.571   7.818  0.4512  1.2512  1.2963
 5008SOL     OW26485   0.029   3.760  14.159 -0.3880  0.0496 -0.1627
 5008SOL    HW126486   0.073   3.708  14.091 -1.5715  1.4279 -1.9895
 5008SOL    HW226487   4.662   3.736  14.152 -0.0794 -0.6249 -1.9324
 5009SOL     OW26488   1.938   0.063   3.442 -0.1700  0.2231 -0.0773
 5009SOL    HW126489   1.961   0.045   3.351  0.0003  1.8986 -0.3668
 5009SOL    HW226490   1.848   0.032   3.428 -1.4444  3.8376  0.1127
 5010SOL     OW26491   2.960   1.437   2.118  0.2355  0.4474  0.1592
 5010SOL    HW126492   3.003   1.354   2.100 -0.0683  0.2693  0.2488
 5010SOL    HW226493   2.879   1.418   2.070  0.2671 -0.0449  0.3060
 5011SOL     OW26494   3.567   2.918   3.954 -0.3598  0.4454  0.0835
 5011SOL    HW126495   3.617   2.962   3.885  3.6376 -0.8770  2.1006
 5011SOL    HW226496   3.635   2.902   4.020  0.0938 -2.5456 -1.0921
 5012SOL     OW26497   3.108   4.180  11.964  0.1791 -0.2409  0.3887
 5012SOL    HW126498   3.112   4.103  11.907  0.4668  0.6196 -0.7568
 5012SOL    HW226499   3.057   4.136  12.032 -2.4365 -0.1551 -1.5538
 5013SOL     OW26500   3.713   0.275   4.749  0.0600 -0.2201  0.1093
 5013SOL    HW126501   3.660   0.354   4.742  4.0493  2.4149 -0.4966
 5013SOL    HW226502   3.657   0.212   4.795 -2.1521  1.0812 -0.8221
 5014SOL     OW26503   1.431   0.379  11.429  0.3110  0.0961  0.4652
 5014SOL    HW126504   1.469   0.463  11.405 -2.9932  1.0230 -1.3944
 5014SOL    HW226505   1.498   0.342  11.487 -0.3102 -1.0151  0.4813
 5015SOL     OW26506   1.124   3.816   6.054 -0.2363 -0.1384 -0.1632
 5015SOL    HW126507   1.167   3.893   6.017  0.4203 -0.7502 -0.6787
 5015SOL    HW226508   1.196   3.752   6.051 -0.9197 -0.8754 -0.8530
 5016SOL     OW26509   0.007   4.095   5.159 -0.2864 -0.0110  0.3106
 5016SOL    HW126510   0.013   4.001   5.139  1.1114  0.3899 -1.2075
 5016SOL    HW226511   4.649   4.104   5.113 -1.2008 -0.3577  1.8932
 5017SOL     OW26512   3.519   4.690   6.116 -0.0034  0.2719 -0.4050
 5017SOL    HW126513   3.558   4.603   6.113 -1.0896 -0.2773  0.9971
 5017SOL    HW226514   3.504   4.708   6.024 -1.7757  0.5901 -0.0609
 5018SOL     OW26515   1.205   0.591   8.995  0.2448 -0.1567  0.0462
 5018SOL    HW126516   1.249   0.590   9.079  0.4178  0.5950 -0.0358
 5018SOL    HW226517   1.285   0.600   8.944  0.6281  2.0000  1.0120
 5019SOL     OW26518   1.724   2.543  16.138  0.3019  0.1630  0.2493
 5019SOL    HW126519   1.736   2.579  16.226  2.1513  1.7127 -0.6399
 5019SOL    HW226520   1.812   2.547  16.101 -0.0795 -0.5975 -0.7250
 5020SOL     OW26521   0.461   2.776   8.455  0.7556  0.1448  1.2186
 5020SOL    HW126522   0.405   2.853   8.458 -1.3450 -1.4241  1.7110
 5020SOL    HW226523   0.405   2.703   8.430  1.9972 -0.6024  0.5907
 5021SOL     OW26524   4.339   4.308  17.118  0.1472  0.2901 -0.1060
 5021SOL    HW126525   4.288   4.387  17.138 -0.6634  0.1980 -1.8552
 5021SOL    HW226526   4.315   4.259  17.196 -1.5737 -0.8581 -1.3753
 5022SOL     OW26527   0.352   2.206   8.595 -0.3029 -0.4422 -0.9684
 5022SOL    HW126528   0.358   2.232   8.687  2.2663 -2.1067 -0.6717
 5022SOL    HW226529   0.318   2.291   8.569  1.5477  0.7413  0.4585
 5023SOL     OW26530   3.997   2.316  10.179 -0.1294 -1.2714  0.1400
 5023SOL    HW126531   4.044   2.236  10.155  0.6058 -0.7287 -0.2392
 5023SOL    HW226532   3.908   2.284  10.194 -0.4047  0.2140  1.6825
 5024SOL     OW26533   2.713   3.123   1.678 -0.0586  0.0201  0.3600
 5024SOL    HW126534   2.721   3.042   1.728 -0.6895 -0.4318 -0.2633
 5024SOL    HW226535   2.759   3.189   1.730  0.6473  0.9610 -1.4669
 5025SOL     OW26536   3.952   3.078   6.187  0.2248 -1.0453 -0.0946
 5025SOL    HW126537   3.884   3.141   6.162 -0.1496 -1.1687  0.5937
 5025SOL    HW226538   3.982   3.120   6.268 -0.2482 -0.3946 -0.2584
 5026SOL     OW26539   2.518   0.583   2.814  0.3470  0.4182  0.0039
 5026SOL    HW126540   2.603   0.623   2.801  1.1836 -1.6283 -0.7356
 5026SOL    HW226541   2.473   0.608   2.733  1.7568  1.5892 -0.4117
 5027SOL     OW26542   4.718   1.524   8.072 -0.0317 -0.5972  0.4691
 5027SOL    HW126543   0.005   1.459   8.142 -2.6366 -0.8622  0.6771
 5027SOL    HW226544   0.005   1.604   8.123 -3.0507  0.6300 -0.7271
 5028SOL     OW26545   3.120   2.643   3.017  0.0637 -0.0497 -0.3589
 5028SOL    HW126546   3.171   2.641   2.936  1.3013 -0.0524  0.4348
 5028SOL    HW226547   3.039   2.685   2.987  0.2278 -0.1103 -0.8843
 5029SOL     OW26548   0.509   1.289  17.622  0.2188 -0.0349  0.5777
 5029SOL    HW126549   0.441   1.341  17.666  0.6620  1.0509 -0.0150
 5029SOL    HW226550   0.526   1.220  17.686  0.2078 -0.0679  0.5443
 5030SOL     OW26551   3.795   2.267  14.827 -0.3556 -0.2465  0.6107
 5030SOL    HW126552   3.733   2.195  14.832 -0.8668  0.1061 -0.5342
 5030SOL    HW226553   3.874   2.214  14.832  0.2448  0.5493 -0.3028
 5031SOL     OW26554   2.119   1.686   7.643  0.0489  0.4836 -0.0635
 5031SOL    HW126555   2.178   1.613   7.660 -1.7584 -0.7415  0.9661
 5031SOL    HW226556   2.037   1.659   7.684 -1.3909  1.5696 -2.1762
 5032SOL     OW26557   0.955   3.952  11.271 -0.2486 -0.2507  0.0910
 5032SOL    HW126558   1.000   3.876  11.235 -0.7563 -2.1233  3.3620
 5032SOL    HW226559   0.914   3.988  11.193  0.1720 -0.3902 -0.1943
 5033SOL     OW26560   2.902   2.273   3.354 -0.0572  0.5456  0.3721
 5033SOL    HW126561   2.850   2.350   3.330 -0.1800 -0.4499 -2.5112
 5033SOL    HW226562   2.904   2.228   3.270  1.2094  2.4081 -0.6060
 5034SOL     OW26563   1.488   3.816  12.847 -0.2511 -0.9808  0.2711
 5034SOL    HW126564   1.468   3.744  12.907 -1.3614 -0.4581  0.5247
 5034SOL    HW226565   1.564   3.851  12.894 -0.5983  0.5869 -0.3364
 5035SOL     OW26566   3.256   3.838   4.762  0.0088 -0.1536 -0.0875
 5035SOL    HW126567   3.197   3.873   4.829  0.6872 -0.2077  0.5427
 5035SOL    HW226568   3.200   3.767   4.730  1.4171 -0.8721 -0.9584
 5036SOL     OW26569   1.633   0.636   0.643 -0.4678  0.0996 -0.2738
 5036SOL    HW126570   1.639   0.716   0.591  1.7369 -0.3770 -0.7618
 5036SOL    HW226571   1.610   0.574   0.574  0.2206 -1.7624  1.1256
 5037SOL     OW26572   0.184   3.455   5.996 -0.2106  0.1755 -0.1536
 5037SOL    HW126573   0.268   3.410   5.993  1.1854  2.6683  1.2436
 5037SOL    HW226574   0.118   3.387   5.983 -0.0313  0.0494 -0.4015
 5038SOL     OW26575   0.105   1.937   4.934  0.3594 -0.2368 -0.4819
 5038SOL    HW126576   0.159   1.921   4.857 -0.3213 -2.4562 -0.5191
 5038SOL    HW226577   0.041   1.996   4.894  0.4452  1.0866  1.3562
 5039SOL     OW26578   0.415   1.456   4.806 -0.6135 -0.2327 -0.3563
 5039SOL    HW126579   0.329   1.450   4.765  0.0457 -0.6832 -1.6639
 5039SOL    HW226580   0.410   1.377   4.861  0.6575  0.0316  0.1396
 5040SOL     OW26581   0.779   2.765  17.232 -0.2229  0.3588 -0.6542
 5040SOL    HW126582   0.757   2.757  17.139 -1.4822  0.3600 -0.3558
 5040SOL    HW226583   0.743   2.853  17.247  0.8290  0.8290 -0.9357
 5041SOL     OW26584   3.513   2.158   3.901 -0.0947  0.2932 -0.8906
 5041SOL    HW126585   3.581   2.187   3.841 -0.1125  0.1536 -0.9785
 5041SOL    HW226586   3.501   2.068   3.871 -0.2419  0.4150 -1.2017
 5042SOL     OW26587   3.688   2.432  10.983  0.1233  0.1451 -0.0905
 5042SOL    HW126588   3.756   2.369  11.008 -0.1138  0.5317  1.4804
 5042SOL    HW226589   3.622   2.378  10.940 -0.5660 -0.0792  1.2631
 5043SOL     OW26590   1.076   3.041  15.162  0.2232 -0.1370 -0.2218
 5043SOL    HW126591   1.124   3.053  15.244  1.0917  0.4813 -0.8362
 5043SOL    HW226592   0.984   3.040  15.189  0.8024 -2.3430  1.7311
 5044SOL     OW26593   3.522   3.984   8.167  0.3361  0.6740 -0.2429
 5044SOL    HW126594   3.457   3.927   8.209  0.6098  0.7173  0.2421
 5044SOL    HW226595   3.553   4.036   8.241  0.8526  0.0504 -0.0180
 5045SOL     OW26596   1.350   2.112   2.660  0.2907  0.1122 -0.0513
 5045SOL    HW126597   1.304   2.105   2.577  1.9011 -0.9998 -0.8544
 5045SOL    HW226598   1.362   2.206   2.673 -0.4174  0.1024  0.6226
 5046SOL     OW26599   4.188   3.536  15.037 -0.0969  0.2010  0.2732
 5046SOL    HW126600   4.200   3.562  15.128 -1.1176 -0.0426  0.4814
 5046SOL    HW226601   4.270   3.488  15.028 -0.4857 -0.4948  0.4423
 5047SOL     OW26602   1.395   2.455   6.143  0.1215 -0.2457  0.3984
 5047SOL    HW126603   1.419   2.373   6.099 -2.4807 -1.2752  0.8938
 5047SOL    HW226604   1.399   2.527   6.080 -1.2289 -1.0480 -0.5803
 5048SOL     OW26605   3.506   3.710  16.571  0.2583 -0.0089 -0.1195
 5048SOL    HW126606   3.541   3.622  16.584 -0.4134 -0.4017 -0.9772
 5048SOL    HW226607   3.435   3.684  16.513  2.1479  1.0482 -2.9341
 5049SOL     OW26608   1.400   1.793  15.611  0.0813 -0.2630  0.1882
 5049SOL    HW126609   1.412   1.839  15.528  0.5199  0.2565  0.5355
 5049SOL    HW226610   1.313   1.817  15.642 -0.1687  0.2535 -0.9055
 5050SOL     OW26611   2.137   4.607   5.469  0.3059 -0.2364 -0.5168
 5050SOL    HW126612   2.135   4.695   5.432 -0.8714 -1.1317 -2.5850
 5050SOL    HW226613   2.097   4.553   5.400  2.0367  0.5535 -2.1428
 5051SOL     OW26614   0.455   4.255   8.121 -0.4790  0.0839 -0.8595
 5051SOL    HW126615   0.360   4.240   8.121 -0.5561  0.6195  2.1114
 5051SOL    HW226616   0.473   4.210   8.204  0.7651  0.9457 -0.6654
 5052SOL     OW26617   1.064   1.477   2.896  0.3173 -0.5660  0.1366
 5052SOL    HW126618   1.054   1.421   2.819 -1.2850  1.0209 -0.8068
 5052SOL    HW226619   1.038   1.420   2.968  2.9295  1.5847  2.7960
 5053SOL     OW26620   0.623   2.704   9.584 -0.0459  0.5447  0.5821
 5053SOL    HW126621   0.651   2.642   9.516  0.9778  1.2358  0.3640
 5053SOL    HW226622   0.608   2.781   9.529 -0.9099 -0.9343 -1.2617
 5054SOL     OW26623   2.582   1.567   6.798  0.6081  0.3299  0.4689
 5054SOL    HW126624   2.654   1.629   6.810  1.8561 -0.5979 -2.0914
 5054SOL    HW226625   2.560   1.568   6.704  1.0619  2.1386  0.3698
 5055SOL     OW26626   3.330   1.792   5.255  0.0950  0.1537 -0.0020
 5055SOL    HW126627   3.352   1.805   5.347  0.6986  0.5772 -0.2137
 5055SOL    HW226628   3.396   1.845   5.211  0.0201  0.7405  0.5904
 5056SOL     OW26629   3.070   1.176   2.686 -0.2646 -0.4793 -0.2508
 5056SOL    HW126630   3.041   1.255   2.639 -1.3871 -1.4063 -1.1343
 5056SOL    HW226631   3.162   1.197   2.700 -0.0307 -0.0394 -2.3709
 5057SOL     OW26632   0.712   3.651   1.472 -0.1411  0.7494 -0.2500
 5057SOL    HW126633   0.775   3.693   1.413 -2.0208  3.1798 -0.5181
 5057SOL    HW226634   0.712   3.560   1.443  0.4537  0.2568  1.2747
 5058SOL     OW26635   3.410   0.110  16.242  0.2330  0.0964  0.0880
 5058SOL    HW126636   3.369   0.173  16.183  0.4824  0.4131  0.2534
 5058SOL    HW226637   3.489   0.077  16.199 -0.5703 -2.2778  0.4044
 5059SOL     OW26638   1.758   4.113  15.882  0.0135  0.0132  0.0843
 5059SOL    HW126639   1.731   4.058  15.808 -0.1623 -1.4909  1.2716
 5059SOL    HW226640   1.714   4.196  15.859 -0.5478 -0.0565  0.9140
 5060SOL     OW26641   0.913   2.657  15.030  0.3409  0.3716  0.1281
 5060SOL    HW126642   0.885   2.639  14.941 -0.9000  0.5666  0.4819
 5060SOL    HW226643   0.968   2.582  15.055  1.6456  1.0408 -0.7199
 5061SOL     OW26644   1.081   1.657   4.836 -0.3072 -0.0202  0.3840
 5061SOL    HW126645   1.120   1.663   4.748 -1.6850 -1.3469 -0.3152
 5061SOL    HW226646   1.053   1.747   4.847  2.0292  0.3108  3.6592
 5062SOL     OW26647   2.108   2.161  16.846  0.0207  0.8131  0.0502
 5062SOL    HW126648   2.152   2.236  16.807  0.9527  0.9626  1.4015
 5062SOL    HW226649   2.027   2.169  16.795  0.6581 -0.5467 -1.1704
 5063SOL     OW26650   1.060   4.186   3.948  0.0369  0.5601 -0.3760
 5063SOL    HW126651   0.981   4.183   4.002 -1.3577  0.1263 -2.4298
 5063SOL    HW226652   1.110   4.260   3.982 -1.1602  0.9425  0.5328
 5064SOL     OW26653   4.111   0.135  11.242  0.6206 -0.6819  0.1613
 5064SOL    HW126654   4.146   0.216  11.279  3.5616 -2.0335  0.3283
 5064SOL    HW226655   4.187   0.077  11.250  1.4944  0.3165 -1.0209
 5065SOL     OW26656   2.649   2.669  14.279  0.1352  0.0542  0.1267
 5065SOL    HW126657   2.723   2.676  14.339  1.5952  0.1085 -1.6540
 5065SOL    HW226658   2.575   2.701  14.330 -0.3128 -0.8014  0.0203
 5066SOL     OW26659   3.079   2.877   4.789 -0.2649 -0.6993 -0.5150
 5066SOL    HW126660   3.062   2.848   4.878  0.9168  0.4475  0.0751
 5066SOL    HW226661   3.151   2.816   4.772  3.0710  2.5292  2.1100
 5067SOL     OW26662   2.100   0.211   2.113  0.7606  0.5610  0.7743
 5067SOL    HW126663   2.046   0.135   2.133 -3.1288  2.6704 -1.7508
 5067SOL    HW226664   2.095   0.219   2.018  1.9611  0.6231  0.7047
 5068SOL     OW26665   3.726   2.888   3.000 -0.2623  0.1235  0.6907
 5068SOL    HW126666   3.753   2.935   3.080 -0.9457  1.8886 -0.1198
 5068SOL    HW226667   3.643   2.923   2.968 -0.1139 -0.7885 -0.6923
 5069SOL     OW26668   0.040   1.765   3.348 -0.0571 -0.4110  0.9351
 5069SOL    HW126669   0.103   1.733   3.412  0.2963 -0.8739  0.3566
 5069SOL    HW226670   4.718   1.683   3.334 -1.1694  0.7124 -1.8753
 5070SOL     OW26671   4.364   4.424  15.965  0.0332  0.3525  0.8381
 5070SOL    HW126672   4.279   4.396  15.999  0.7343 -1.5852  1.0157
 5070SOL    HW226673   4.384   4.361  15.896 -2.2156  1.6195 -0.9668
 5071SOL     OW26674   4.317   0.902   8.528 -0.4539 -0.4212 -0.4259
 5071SOL    HW126675   4.249   0.836   8.540 -0.9808  0.3602  0.8671
 5071SOL    HW226676   4.311   0.921   8.434 -0.6175 -0.0192 -0.3334
 5072SOL     OW26677   1.493   2.197   4.163 -0.2484  0.1534 -0.2662
 5072SOL    HW126678   1.561   2.169   4.224 -2.3010  0.4648  2.1615
 5072SOL    HW226679   1.429   2.125   4.168  0.0785 -0.1016  0.1798
 5073SOL     OW26680   0.728   2.805   8.345  0.1459 -0.2610  0.1165
 5073SOL    HW126681   0.725   2.779   8.253  2.2076  0.5899 -0.1822
 5073SOL    HW226682   0.639   2.775   8.366 -0.4345 -0.4610 -2.7380
 5074SOL     OW26683   1.951   0.525   7.888  0.0058  0.0943 -0.1397
 5074SOL    HW126684   1.963   0.614   7.854  0.3132  0.0094 -0.2535
 5074SOL    HW226685   1.914   0.480   7.812 -0.1714 -0.4004  0.2386
 5075SOL     OW26686   1.789   1.478   6.579 -0.3892 -0.4361 -0.9655
 5075SOL    HW126687   1.884   1.477   6.563 -0.1372  1.0084  0.5108
 5075SOL    HW226688   1.768   1.388   6.606  2.9444 -0.6004  1.1154
 5076SOL     OW26689   2.692   2.033   4.396 -0.0978 -0.3464  0.2950
 5076SOL    HW126690   2.603   2.029   4.359 -0.0086 -0.3990  0.0844
 5076SOL    HW226691   2.742   2.012   4.317  0.6403 -1.4101  1.0432
 5077SOL     OW26692   2.397   0.992   1.528  0.2485  0.2947 -0.1121
 5077SOL    HW126693   2.353   1.071   1.561  1.4617  0.4863  1.0263
 5077SOL    HW226694   2.359   0.995   1.440 -1.1259  1.7540  0.5231
 5078SOL     OW26695   4.700   2.318   8.383 -0.8381 -0.0896  0.0198
 5078SOL    HW126696   4.677   2.401   8.342  2.8060  0.3086 -1.2407
 5078SOL    HW226697   4.611   2.296   8.409 -2.6314  3.8418 -2.7416
 5079SOL     OW26698   0.858   3.538   4.784  0.3748 -0.6333 -0.1488
 5079SOL    HW126699   0.827   3.625   4.759 -0.5486 -0.4210  1.7448
 5079SOL    HW226700   0.901   3.525   4.699 -1.3376 -1.8856 -0.8116
 5080SOL     OW26701   4.033   2.687   4.380  0.3864 -0.4279 -0.1211
 5080SOL    HW126702   3.969   2.626   4.344 -1.5624  0.3433  2.1188
 5080SOL    HW226703   4.115   2.639   4.368 -0.6834 -1.6176 -2.5431
 5081SOL     OW26704   1.957   2.835  15.318  0.6871 -0.8974  0.1835
 5081SOL    HW126705   2.023   2.903  15.333  0.2610 -0.6390  0.9077
 5081SOL    HW226706   1.963   2.775  15.392 -0.4996 -0.2226  0.8341
 5082SOL     OW26707   4.181   2.117   6.663  0.5743  0.1532 -0.0547
 5082SOL    HW126708   4.275   2.104   6.679 -0.0921 -0.0606  3.6430
 5082SOL    HW226709   4.168   2.147   6.574  1.6539 -1.4306 -0.7558
 5083SOL     OW26710   0.427   4.259   7.849  0.2995 -0.0876  0.3263
 5083SOL    HW126711   0.438   4.354   7.844  0.6371  0.0153  2.9832
 5083SOL    HW226712   0.466   4.248   7.936 -0.3967  1.3460  0.8181
 5084SOL     OW26713   1.973   1.710   4.621 -0.0527 -0.1722  0.0212
 5084SOL    HW126714   2.000   1.788   4.571  0.7631  0.9651  2.2129
 5084SOL    HW226715   1.970   1.752   4.707  0.3174  0.4908 -0.2905
 5085SOL     OW26716   0.337   0.002  13.750  0.2353  0.1203 -0.3503
 5085SOL    HW126717   0.356   4.712  13.843 -1.2683 -0.7243 -0.1891
 5085SOL    HW226718   0.412   0.047  13.710  0.0289  1.1075  0.3763
 5086SOL     OW26719   3.055   2.206   7.186  0.2059  0.1520 -0.0623
 5086SOL    HW126720   3.090   2.128   7.229  0.5371 -0.6254 -1.7331
 5086SOL    HW226721   2.960   2.200   7.198 -0.0386  1.6046 -1.2648
 5087SOL     OW26722   0.274   3.010   8.478 -0.3659 -0.2258  0.2451
 5087SOL    HW126723   0.241   3.061   8.405  2.5403 -0.5911 -1.3476
 5087SOL    HW226724   0.292   3.077   8.545 -0.0078 -1.1133  1.0425
 5088SOL     OW26725   0.740   0.815  13.193 -0.4739 -0.1522  0.4738
 5088SOL    HW126726   0.828   0.823  13.155 -0.3101 -1.4509  0.5786
 5088SOL    HW226727   0.738   0.719  13.199  1.3466 -0.2547 -0.5571
 5089SOL     OW26728   0.179   0.431  11.466  0.2281 -0.2539  0.2644
 5089SOL    HW126729   0.270   0.422  11.438  0.1981 -0.6376  0.2956
 5089SOL    HW226730   0.162   0.341  11.492 -0.8850 -0.7961 -2.3579
 5090SOL     OW26731   2.390   4.172  13.491 -0.2096  0.0436 -0.0882
 5090SOL    HW126732   2.355   4.103  13.548 -0.2859  0.0643 -0.1095
 5090SOL    HW226733   2.318   4.174  13.428 -0.7110  0.3521  0.4949
 5091SOL     OW26734   2.016   1.322  17.648  0.6362 -0.0537  0.0760
 5091SOL    HW126735   1.925   1.332  17.620  1.0620  1.7562 -0.6975
 5091SOL    HW226736   2.025   1.229  17.668  1.8605  0.2658  1.0107
 5092SOL     OW26737   0.497   3.019   6.680  0.3255  0.2499  0.9884
 5092SOL    HW126738   0.465   3.108   6.670  0.7297  0.3081  0.2128
 5092SOL    HW226739   0.420   2.971   6.709  0.0290  0.3478  0.3670
 5093SOL     OW26740   0.219   4.363   4.859 -0.1276 -0.0374  0.0988
 5093SOL    HW126741   0.255   4.289   4.907 -0.2223  1.0433  1.8140
 5093SOL    HW226742   0.285   4.431   4.868  0.9757 -0.8350 -2.0491
 5094SOL     OW26743   3.765   2.354   6.517 -0.0745  0.1984 -0.4562
 5094SOL    HW126744   3.859   2.365   6.501 -0.4476  0.6692 -2.3971
 5094SOL    HW226745   3.742   2.284   6.456 -0.6296 -3.2799  3.8138
 5095SOL     OW26746   3.874   3.647  17.020  0.2218  0.0991 -0.5626
 5095SOL    HW126747   3.808   3.651  16.951 -1.8802 -2.4732  1.3110
 5095SOL    HW226748   3.908   3.737  17.012 -1.6478  0.9722  1.2365
 5096SOL     OW26749   1.255   2.831  10.865 -0.8170  0.1443  0.3959
 5096SOL    HW126750   1.181   2.893  10.870 -1.0075 -0.0286 -0.2581
 5096SOL    HW226751   1.291   2.825  10.953 -1.0334  0.4711  0.5091
 5097SOL     OW26752   2.203   1.970   6.930  0.2143 -0.2498 -0.2219
 5097SOL    HW126753   2.291   1.943   6.901  1.3968  0.3119  2.8213
 5097SOL    HW226754   2.179   1.891   6.978  2.4588 -0.0729  1.2186
 5098SOL     OW26755   4.382   2.442   0.046  0.7573  0.0539 -0.1787
 5098SOL    HW126756   4.355   2.358   0.081  2.8998 -0.5001  0.1205
 5098SOL    HW226757   4.358   2.434  17.656  1.3821 -0.0705 -0.3293
 5099SOL     OW26758   1.244   2.893  16.299  0.4402  0.8337  0.7118
 5099SOL    HW126759   1.204   2.976  16.324  1.8035  1.4848  0.7397
 5099SOL    HW226760   1.206   2.896  16.211 -0.6647 -0.6473  1.1364
 5100SOL     OW26761   2.433   0.387   7.737 -0.1856  0.2701  0.6829
 5100SOL    HW126762   2.461   0.395   7.828  3.0501  0.7319 -0.3496
 5100SOL    HW226763   2.338   0.378   7.737 -0.1529 -0.0822  0.5144
 5101SOL     OW26764   0.473   4.448   6.664  0.0540  0.4271  0.4203
 5101SOL    HW126765   0.432   4.527   6.629 -0.8198  1.7144  4.3652
 5101SOL    HW226766   0.407   4.411   6.722  0.4200  0.8803  1.1255
 5102SOL     OW26767   3.442   2.461   7.596 -0.0035  0.1496  0.0340
 5102SOL    HW126768   3.366   2.515   7.572 -0.5215  0.0315  1.4254
 5102SOL    HW226769   3.505   2.531   7.579 -0.0398  0.1658 -0.0358
 5103SOL     OW26770   3.051   2.412   9.042 -0.0607 -0.3199 -0.2502
 5103SOL    HW126771   3.106   2.451   8.975  1.8032  1.1980  2.1798
 5103SOL    HW226772   3.053   2.323   9.007  1.7596 -0.8248  1.1241
 5104SOL     OW26773   1.346   2.838   1.737  0.0582  0.1944 -0.7345
 5104SOL    HW126774   1.345   2.743   1.742  3.7418  0.1104 -1.2695
 5104SOL    HW226775   1.425   2.867   1.691 -0.0835  0.2601 -0.9364
 5105SOL     OW26776   4.197   1.060   3.768  0.0617  0.0879 -0.5117
 5105SOL    HW126777   4.221   1.104   3.686  0.3928 -0.0342 -0.4822
 5105SOL    HW226778   4.242   0.977   3.752 -0.4879 -0.9374  3.3470
 5106SOL     OW26779   3.477   0.095   3.822  0.4957  0.2615  0.1540
 5106SOL    HW126780   3.389   0.131   3.817 -0.2574 -1.2305  2.6093
 5106SOL    HW226781   3.502   0.117   3.732 -3.1208  1.8525 -0.4489
 5107SOL     OW26782   0.197   2.294   9.045 -0.4424  0.1928  0.7878
 5107SOL    HW126783   0.233   2.372   9.086 -1.0837  0.9339 -0.0720
 5107SOL    HW226784   0.218   2.239   9.120  2.2779 -2.6340 -2.0402
 5108SOL     OW26785   2.009   2.543   2.975  0.4740  0.3219  0.3781
 5108SOL    HW126786   1.963   2.613   2.927  0.5715  0.3313  0.2995
 5108SOL    HW226787   2.077   2.524   2.911 -0.2938 -2.5406  0.3849
 5109SOL     OW26788   3.979   2.729   1.969  0.4572 -0.0344  0.7170
 5109SOL    HW126789   4.001   2.693   1.883  0.2836 -0.3917  0.8235
 5109SOL    HW226790   3.941   2.649   2.006 -0.7194 -0.6783 -1.8834
 5110SOL     OW26791   1.767   4.366   6.899  0.3959 -0.0191 -0.6644
 5110SOL    HW126792   1.704   4.294   6.899 -0.2368  0.5218 -3.1632
 5110SOL    HW226793   1.821   4.341   6.974  1.0306 -0.2604 -1.2032
 5111SOL     OW26794   2.507   0.449   0.830 -0.2159 -0.2333 -0.9902
 5111SOL    HW126795   2.480   0.539   0.811  3.7025  1.4890  1.5773
 5111SOL    HW226796   2.519   0.424   0.738  2.5822 -0.8416 -0.4591
 5112SOL     OW26797   4.373   4.231  16.858  0.0593  0.1544  0.1952
 5112SOL    HW126798   4.367   4.279  16.941  0.8311  0.5721  0.0107
 5112SOL    HW226799   4.324   4.151  16.875 -2.4595  1.3264 -1.6170
 5113SOL     OW26800   0.939   2.955   6.351  0.0530  0.7533 -0.7310
 5113SOL    HW126801   0.976   3.039   6.325 -0.9753  1.4757  0.0971
 5113SOL    HW226802   0.866   2.971   6.412 -2.1478 -1.1048 -2.8548
 5114SOL     OW26803   3.009   2.153   5.197  0.7136 -0.1496  0.3120
 5114SOL    HW126804   2.955   2.218   5.151 -1.4009 -1.8053  0.4011
 5114SOL    HW226805   3.094   2.195   5.190  1.0656 -1.4939 -3.4790
 5115SOL     OW26806   4.501   3.717  16.665  0.2240  0.0309 -0.3528
 5115SOL    HW126807   4.494   3.784  16.733  2.1237 -0.1788  0.0534
 5115SOL    HW226808   4.536   3.645  16.717 -2.6796  0.2666  1.9280
 5116SOL     OW26809   2.014   1.072   1.507 -0.4202 -0.1096  0.4748
 5116SOL    HW126810   2.011   0.976   1.502  2.7699 -0.1878 -0.3394
 5116SOL    HW226811   2.085   1.077   1.571  2.2769 -0.5081 -2.4634
 5117SOL     OW26812   0.355   2.644   4.195 -0.2239  0.2157 -0.3340
 5117SOL    HW126813   0.423   2.585   4.163  1.0560  1.1807  0.6576
 5117SOL    HW226814   0.295   2.578   4.230  0.5418  0.5941  1.6765
 5118SOL     OW26815   2.244   3.854   3.560  0.0709 -0.2318  0.3160
 5118SOL    HW126816   2.245   3.948   3.580  0.4135 -0.4827  1.4821
 5118SOL    HW226817   2.261   3.861   3.467 -0.4896 -1.4904  0.1273
 5119SOL     OW26818   2.296   3.676   9.522  0.4211  0.1045 -0.1543
 5119SOL    HW126819   2.218   3.713   9.483 -1.0720 -0.8898  1.8960
 5119SOL    HW226820   2.259   3.659   9.609  0.0917  1.0178 -0.1237
 5120SOL     OW26821   3.189   2.565   2.605  0.5668  0.3695 -0.2444
 5120SOL    HW126822   3.188   2.470   2.595  1.1796  0.7253 -3.7672
 5120SOL    HW226823   3.157   2.588   2.518 -3.1352 -0.5371  0.8828
 5121SOL     OW26824   3.965   3.192   6.721  0.0653 -0.0220 -0.3602
 5121SOL    HW126825   4.020   3.114   6.735 -1.8832 -1.6878 -2.0287
 5121SOL    HW226826   3.957   3.235   6.806  1.8733 -2.6788  1.1560
 5122SOL     OW26827   2.560   0.706  11.734  0.3501  0.6381  0.5745
 5122SOL    HW126828   2.529   0.650  11.663 -0.3537  1.1480  0.4802
 5122SOL    HW226829   2.536   0.646  11.805  1.9373 -2.0827 -1.2043
 5123SOL     OW26830   1.891   1.581   7.825  0.6464 -0.1748  0.6703
 5123SOL    HW126831   1.908   1.601   7.917  0.6246  0.8259  0.4501
 5123SOL    HW226832   1.803   1.611   7.803  0.6547 -1.0237 -0.5376
 5124SOL     OW26833   2.930   0.509   5.149 -0.5188 -0.2556 -0.6935
 5124SOL    HW126834   2.927   0.498   5.054  1.1673 -0.5378 -0.7242
 5124SOL    HW226835   2.878   0.590   5.156 -1.1968 -0.7367 -0.2415
 5125SOL     OW26836   1.454   1.277  16.081  0.3774  0.5533  0.0149
 5125SOL    HW126837   1.420   1.292  15.993 -1.5212 -2.1336  0.2795
 5125SOL    HW226838   1.459   1.370  16.102  0.0644 -0.1196  3.1202
 5126SOL     OW26839   2.041   3.719   7.289 -0.1414  0.2719 -0.0978
 5126SOL    HW126840   2.020   3.709   7.381 -0.8148  1.6796 -0.0978
 5126SOL    HW226841   2.083   3.636   7.264  2.0321  1.4018 -0.2634
 5127SOL     OW26842   2.856   1.186   0.420 -0.0136 -0.1388  0.0650
 5127SOL    HW126843   2.824   1.254   0.480 -0.8510 -0.6876  0.2355
 5127SOL    HW226844   2.819   1.219   0.338  2.6144  1.8302 -0.3387
 5128SOL     OW26845   0.165   1.251   2.929  0.0787  0.0612 -0.2578
 5128SOL    HW126846   0.125   1.172   2.894  0.7012  0.1292 -1.1260
 5128SOL    HW226847   0.094   1.273   2.989  0.1490 -2.1172  0.6546
 5129SOL     OW26848   1.905   2.029   8.036 -0.6338 -0.5983  0.0548
 5129SOL    HW126849   1.950   2.092   7.979  1.1400 -0.0684  2.0381
 5129SOL    HW226850   1.825   2.029   7.983 -1.1696 -0.0331  0.8631
 5130SOL     OW26851   1.833   0.109   0.241 -0.0623 -0.0944 -0.4103
 5130SOL    HW126852   1.754   0.130   0.290 -0.4050 -1.3192 -0.4621
 5130SOL    HW226853   1.847   0.187   0.187 -1.6823  1.0232  0.7713
 5131SOL     OW26854   1.314   2.132   6.532 -0.3416 -0.1239  1.0949
 5131SOL    HW126855   1.324   2.221   6.498  0.3259 -0.5179  0.2588
 5131SOL    HW226856   1.404   2.108   6.555  0.4190  0.4387 -1.3264
 5132SOL     OW26857   0.961   3.178   0.905  0.2719  0.4196 -0.1641
 5132SOL    HW126858   0.908   3.175   0.825 -0.9800 -0.0036  0.6708
 5132SOL    HW226859   1.049   3.166   0.868 -0.2225 -0.1887 -1.1415
 5133SOL     OW26860   3.178   3.388   7.688 -0.1303  0.6225 -0.2426
 5133SOL    HW126861   3.253   3.446   7.702  0.2677 -0.2789  1.2701
 5133SOL    HW226862   3.224   3.320   7.639  0.7840  0.5390  0.7228
 5134SOL     OW26863   3.151   2.532   4.295  0.0503 -0.2144  0.2506
 5134SOL    HW126864   3.085   2.497   4.355 -0.5912  0.4783 -0.0508
 5134SOL    HW226865   3.203   2.589   4.352  1.0784  1.5814 -2.4779
 5135SOL     OW26866   3.546   4.355   9.506 -0.4466  0.1750 -0.1848
 5135SOL    HW126867   3.629   4.311   9.485 -0.3308  1.4706 -2.4187
 5135SOL    HW226868   3.581   4.433   9.549  1.2065  0.0071 -1.2099
 5136SOL     OW26869   2.845   1.981  15.008  0.3816  0.2226  0.0392
 5136SOL    HW126870   2.848   2.054  15.070 -3.5120  0.9344 -0.5774
 5136SOL    HW226871   2.880   1.920  15.073  0.9293 -0.2344 -0.6853
 5137SOL     OW26872   3.527   0.235  14.630 -0.4974  0.1539  0.5818
 5137SOL    HW126873   3.534   0.203  14.719 -1.1842 -0.7578  0.3043
 5137SOL    HW226874   3.573   0.169  14.579 -0.5742  1.6113 -1.3951
 5138SOL     OW26875   2.457   4.267   5.067  0.2444  0.2169  0.2661
 5138SOL    HW126876   2.463   4.176   5.040 -2.2388 -0.1996  1.1144
 5138SOL    HW226877   2.516   4.270   5.143  1.0516 -2.7776 -0.2719
 5139SOL     OW26878   0.445   0.548   7.038  0.3968  0.1199  0.0682
 5139SOL    HW126879   0.519   0.542   6.979 -0.1219  0.4446 -0.6156
 5139SOL    HW226880   0.474   0.487   7.105 -3.8138 -1.4058  0.5124
 5140SOL     OW26881   1.109   2.306   2.866 -0.1199 -0.4621 -0.2706
 5140SOL    HW126882   1.040   2.350   2.817 -1.3173  0.0832  1.9062
 5140SOL    HW226883   1.105   2.233   2.805 -1.1684 -1.2864  0.7847
 5141SOL     OW26884   3.246   1.282   4.630 -0.4708 -0.0104 -0.2548
 5141SOL    HW126885   3.151   1.281   4.620 -0.3764  0.3077 -1.1766
 5141SOL    HW226886   3.265   1.363   4.583  2.2139 -0.3718  0.2048
 5142SOL     OW26887   4.416   3.697   8.170 -0.1905 -0.8092 -0.1643
 5142SOL    HW126888   4.431   3.681   8.263  0.2367  1.7200  0.1806
 5142SOL    HW226889   4.461   3.781   8.169 -0.1017 -0.8554  0.0063
 5143SOL     OW26890   1.230   3.026   4.362 -0.1623  0.3711  0.2975
 5143SOL    HW126891   1.224   2.968   4.285 -1.2061 -1.1722  1.5360
 5143SOL    HW226892   1.310   2.986   4.396  0.3945 -1.2070 -2.8348
 5144SOL     OW26893   0.081   4.176   3.723 -0.0985 -0.2203  0.3901
 5144SOL    HW126894   0.072   4.106   3.658 -0.6997 -0.7997  1.1053
 5144SOL    HW226895   0.086   4.259   3.674 -0.9878  1.0284  2.4284
 5145SOL     OW26896   3.247   4.436  13.091  0.0230  0.1591  0.2097
 5145SOL    HW126897   3.153   4.430  13.105 -0.2092 -2.5117 -2.4091
 5145SOL    HW226898   3.246   4.513  13.034 -2.2116 -1.0157 -1.3258
 5146SOL     OW26899   1.779   4.216   9.980  0.0267 -0.1246  0.0665
 5146SOL    HW126900   1.872   4.236   9.980  0.0494 -0.2627 -2.5555
 5146SOL    HW226901   1.755   4.258   9.898  0.5858 -0.6071 -0.3432
 5147SOL     OW26902   0.421   1.030   7.841  1.0323 -0.0733 -0.0191
 5147SOL    HW126903   0.393   1.107   7.790  0.7405  0.3767  0.8188
 5147SOL    HW226904   0.516   1.037   7.843  1.0255 -0.1307  0.5402
 5148SOL     OW26905   4.405   3.603   3.814 -0.3504 -0.2781  0.5311
 5148SOL    HW126906   4.379   3.515   3.785 -0.6332  0.2376 -0.7949
 5148SOL    HW226907   4.483   3.600   3.869  0.1903  2.7338 -0.0921
 5149SOL     OW26908   4.704   2.903   9.688  0.0749 -0.2310  0.0462
 5149SOL    HW126909   4.622   2.944   9.661  1.0074  2.8526  1.8570
 5149SOL    HW226910   4.722   2.843   9.616  2.1715  1.0089 -0.4623
 5150SOL     OW26911   2.486   4.023  17.192  0.3916 -0.5195  0.1174
 5150SOL    HW126912   2.440   3.939  17.179  2.0697 -1.2491 -1.0997
 5150SOL    HW226913   2.488   4.057  17.103 -0.1769 -1.7316 -0.3649
 5151SOL     OW26914   1.706   0.260   1.586  0.5718 -0.5596  0.5214
 5151SOL    HW126915   1.625   0.254   1.636 -0.5467  0.4256 -1.1812
 5151SOL    HW226916   1.671   0.259   1.497  1.8726 -1.9338  0.0155
 5152SOL     OW26917   4.277   4.056   9.463  0.0255  0.1774 -0.1612
 5152SOL    HW126918   4.223   4.100   9.528  1.8946  0.3588  1.2573
 5152SOL    HW226919   4.328   4.129   9.428  0.7965 -0.3181 -0.0867
 5153SOL     OW26920   4.117   2.912  11.259  0.7076 -0.2105  0.3281
 5153SOL    HW126921   4.199   2.878  11.223  1.3081  0.6453  0.8645
 5153SOL    HW226922   4.134   2.916  11.354 -0.7984 -0.2432  0.5946
 5154SOL     OW26923   2.035   3.221   6.365  0.0928  0.2928  0.1013
 5154SOL    HW126924   2.119   3.177   6.376  0.1824 -0.0732 -2.0067
 5154SOL    HW226925   2.072   3.280   6.299  2.0673 -1.2527 -0.1830
 5155SOL     OW26926   4.224   2.268   4.920  0.5802  0.6925  0.2040
 5155SOL    HW126927   4.195   2.358   4.905  0.7905  0.4933 -1.3735
 5155SOL    HW226928   4.291   2.282   4.987  0.3974  0.4874  0.4339
 5156SOL     OW26929   3.145   1.624   3.282 -0.4806 -0.2596 -0.1425
 5156SOL    HW126930   3.050   1.614   3.286 -0.2252 -2.8406 -0.5018
 5156SOL    HW226931   3.168   1.537   3.315 -1.1093 -0.5728 -0.5193
 5157SOL     OW26932   0.912   1.228   5.492  0.4981  0.0629 -0.6870
 5157SOL    HW126933   0.824   1.260   5.471 -0.4095 -1.9479  0.0821
 5157SOL    HW226934   0.906   1.208   5.585 -1.7943 -2.0016 -1.2828
 5158SOL     OW26935   4.516   1.224   3.894  0.3898  0.6019  0.0791
 5158SOL    HW126936   4.441   1.206   3.951 -0.6729  2.6460 -0.6658
 5158SOL    HW226937   4.550   1.305   3.932 -1.7074  0.7583  1.6272
 5159SOL     OW26938   0.285   0.921   8.295 -0.8822  0.1828 -0.0602
 5159SOL    HW126939   0.361   0.863   8.295 -0.1350  1.1652  0.6099
 5159SOL    HW226940   0.271   0.942   8.203  0.8775  0.0250 -0.3645
 5160SOL     OW26941   0.871   2.430   5.495 -0.5046  0.2194  0.1661
 5160SOL    HW126942   0.782   2.442   5.526 -0.4177  0.0715  0.4712
 5160SOL    HW226943   0.886   2.355   5.552  1.9041 -1.2391 -2.3871
 5161SOL     OW26944   0.960   0.524   1.120 -0.8661  0.0300 -0.1671
 5161SOL    HW126945   1.002   0.527   1.206  0.4334  2.6850 -0.8896
 5161SOL    HW226946   0.892   0.591   1.133 -0.8534  0.1317 -0.6254
 5162SOL     OW26947   3.583   2.855  11.350  0.6343  0.0433  0.1704
 5162SOL    HW126948   3.551   2.866  11.439 -0.8987 -0.6618 -0.2885
 5162SOL    HW226949   3.528   2.924  11.311  0.7017  0.3708  0.6547
 5163SOL     OW26950   1.981   0.709   9.093 -0.4399  0.2228  0.3721
 5163SOL    HW126951   1.934   0.641   9.141  0.3140 -0.6525 -0.1546
 5163SOL    HW226952   2.021   0.656   9.024 -2.0953 -1.2409  0.5388
 5164SOL     OW26953   0.405   0.258   1.488 -0.6885  0.0411  0.0492
 5164SOL    HW126954   0.385   0.276   1.580 -1.0911 -0.8814  0.1387
 5164SOL    HW226955   0.492   0.297   1.477 -1.8289  2.2695 -0.9560
 5165SOL     OW26956   1.990   2.203   6.437  0.1005 -0.0798 -0.7439
 5165SOL    HW126957   1.964   2.113   6.418 -0.4356 -0.1882  0.5156
 5165SOL    HW226958   1.921   2.223   6.501  1.1636  1.3239 -0.0476
 5166SOL     OW26959   0.723   3.472   7.019  0.5806  0.2454 -0.7745
 5166SOL    HW126960   0.684   3.456   7.105  0.7050 -2.0262 -1.1276
 5166SOL    HW226961   0.790   3.537   7.038  0.9476 -1.2264  2.8555
 5167SOL     OW26962   0.358   0.261   4.151 -0.7125 -0.1458  0.5116
 5167SOL    HW126963   0.416   0.198   4.110 -0.3955  1.1494 -1.0318
 5167SOL    HW226964   0.399   0.255   4.237 -0.0995  0.4297  0.2531
 5168SOL     OW26965   2.795   0.089   7.078 -0.2241  1.3446 -0.3157
 5168SOL    HW126966   2.831   0.098   7.166 -2.0052  0.0577  0.5447
 5168SOL    HW226967   2.720   0.148   7.088 -2.2376 -1.3139  0.4931
 5169SOL     OW26968   1.992   0.432  14.022  0.3880 -0.4472  0.3017
 5169SOL    HW126969   1.905   0.407  13.992  0.0440 -0.0919  1.0056
 5169SOL    HW226970   2.039   0.348  14.015 -0.8046 -1.1662  0.8077
 5170SOL     OW26971   0.419   4.557  13.991  0.2742 -0.3493 -0.2189
 5170SOL    HW126972   0.498   4.591  14.031  0.9060  0.4610 -2.1389
 5170SOL    HW226973   0.429   4.465  14.018  1.0748 -0.4622 -0.9122
 5171SOL     OW26974   2.454   4.370   0.237 -0.1926  0.8429  0.4381
 5171SOL    HW126975   2.408   4.286   0.243 -0.2214  0.7679 -0.8480
 5171SOL    HW226976   2.489   4.365   0.148  2.3398 -1.9079  1.5645
 5172SOL     OW26977   0.315   1.019  10.426 -0.1674  0.3081  0.1357
 5172SOL    HW126978   0.406   1.005  10.398  0.0385  1.9408 -0.0124
 5172SOL    HW226979   0.299   1.084  10.358 -2.3423  0.8802  1.1907
 5173SOL     OW26980   1.014   0.342   8.448  0.1111 -0.3331  0.6012
 5173SOL    HW126981   0.944   0.277   8.451  1.7720 -2.1018  0.7591
 5173SOL    HW226982   0.997   0.396   8.525  0.1717  1.3381 -0.5619
 5174SOL     OW26983   1.539   1.003  10.968 -0.4868 -0.1355  0.3832
 5174SOL    HW126984   1.525   1.093  10.997 -0.0890 -0.0104  0.1874
 5174SOL    HW226985   1.478   1.019  10.896 -0.2103 -0.1672  0.1434
 5175SOL     OW26986   1.908   2.953   4.628 -0.0272 -0.2727 -0.3235
 5175SOL    HW126987   1.915   2.886   4.697  0.8780  1.4850  1.2903
 5175SOL    HW226988   1.823   2.932   4.589 -1.0887  1.4733  1.0664
 5176SOL     OW26989   3.140   4.511   0.819 -0.0478 -0.3678  0.3000
 5176SOL    HW126990   3.187   4.447   0.766  0.9140  0.8289 -0.2762
 5176SOL    HW226991   3.069   4.455   0.852  0.7532 -1.7101 -0.2187
 5177SOL     OW26992   2.316   2.836   0.967 -0.2483 -0.0961  0.2477
 5177SOL    HW126993   2.251   2.883   0.915 -0.1847 -2.9337 -2.3808
 5177SOL    HW226994   2.280   2.751   0.991  0.0533 -0.4707 -0.6367
 5178SOL     OW26995   4.527   2.576  10.440 -0.0689 -0.1302 -0.0687
 5178SOL    HW126996   4.584   2.651  10.421 -0.7082  0.8435  1.8433
 5178SOL    HW226997   4.567   2.513  10.380  0.4306  1.1732 -1.1095
 5179SOL     OW26998   3.406   3.702   8.140 -0.4164  0.2099 -0.2072
 5179SOL    HW126999   3.477   3.672   8.084  0.5288  0.5275  0.8179
 5179SOL    HW227000   3.407   3.631   8.205 -0.0102  1.9388  1.6879
 5180SOL     OW27001   4.524   0.359   7.881  0.1733  0.2399 -0.0878
 5180SOL    HW127002   4.521   0.273   7.922 -0.8722  0.6685  0.7325
 5180SOL    HW227003   4.567   0.410   7.950  1.2282 -1.0231  0.1727
 5181SOL     OW27004   4.565   4.693  12.036 -0.0141  0.4736  0.7856
 5181SOL    HW127005   4.518   4.665  11.957  2.7981 -1.6647 -0.1022
 5181SOL    HW227006   4.512   4.642  12.097  0.6588 -0.1559  0.8387
 5182SOL     OW27007   1.984   0.468   8.937  0.5990 -0.5749 -0.0231
 5182SOL    HW127008   2.027   0.402   8.992  0.2552 -0.2865  0.5902
 5182SOL    HW227009   1.909   0.427   8.895 -1.8208  1.7310  2.1004
 5183SOL     OW27010   3.041   4.627   4.505  0.9697 -0.2560 -0.1908
 5183SOL    HW127011   3.068   4.701   4.560  1.3972  0.4180 -1.3265
 5183SOL    HW227012   3.114   4.565   4.512  0.0406 -1.2699  0.5240
 5184SOL     OW27013   2.380   0.802   0.250 -0.0494  0.2057 -0.2689
 5184SOL    HW127014   2.455   0.861   0.254  1.2068 -1.4217 -0.0746
 5184SOL    HW227015   2.325   0.852   0.311  0.4354  0.0018  0.3306
 5185SOL     OW27016   3.938   1.630  10.229 -0.0690  0.6449 -0.0665
 5185SOL    HW127017   3.963   1.593  10.314  3.3659  0.8508 -0.9991
 5185SOL    HW227018   3.870   1.567  10.206  1.1811 -1.6463  2.5015
 5186SOL     OW27019   2.903   0.980   5.396  0.3197 -0.6917 -0.4449
 5186SOL    HW127020   2.853   0.966   5.316 -1.6134  1.4055  0.3872
 5186SOL    HW227021   2.901   1.076   5.406  0.0489 -1.0103  2.5195
 5187SOL     OW27022   2.641   2.758  10.607 -0.0150 -0.1002 -0.9318
 5187SOL    HW127023   2.587   2.739  10.684  0.2272 -0.6104 -0.8863
 5187SOL    HW227024   2.590   2.836  10.584 -0.2878 -0.1393 -0.4641
 5188SOL     OW27025   1.023   2.695   5.859  0.2111 -0.1095  0.1463
 5188SOL    HW127026   1.093   2.699   5.923  1.7648  2.4335 -1.6983
 5188SOL    HW227027   1.051   2.756   5.790 -0.2120 -1.4800 -1.2462
 5189SOL     OW27028   1.745   4.618   7.430 -0.2273 -0.2004  0.6073
 5189SOL    HW127029   1.658   4.618   7.391  0.0529  0.9080 -0.0559
 5189SOL    HW227030   1.713   4.646   7.515 -1.2318  0.2151  0.1023
 5190SOL     OW27031   3.513   0.331  11.907 -0.6814  0.7301 -0.2319
 5190SOL    HW127032   3.602   0.361  11.924 -0.7211  0.1650  0.9989
 5190SOL    HW227033   3.526   0.237  11.895  0.9952  0.2911  4.8721
 5191SOL     OW27034   0.865   0.281   4.108  0.3367 -0.5978  0.0528
 5191SOL    HW127035   0.909   0.335   4.172  0.7517  0.2486 -0.9428
 5191SOL    HW227036   0.947   0.258   4.063  0.7055  1.6850 -0.4479
 5192SOL     OW27037   2.917   1.346   7.943  0.2950 -0.1575  0.3342
 5192SOL    HW127038   2.971   1.275   7.977 -0.1145 -0.3912  0.4956
 5192SOL    HW227039   2.848   1.343   8.009 -0.8200  0.9151 -0.7678
 5193SOL     OW27040   2.887   0.254   9.238  0.6716 -0.5586 -0.3386
 5193SOL    HW127041   2.944   0.274   9.312 -0.3095  0.9150  0.0161
 5193SOL    HW227042   2.951   0.268   9.167  0.6848  0.3708 -0.1334
 5194SOL     OW27043   4.487   3.737  14.136  0.3854  0.3974  0.2493
 5194SOL    HW127044   4.451   3.805  14.080 -1.2359 -0.1088  0.6807
 5194SOL    HW227045   4.417   3.722  14.200  2.1338  2.8255  2.7157
 5195SOL     OW27046   1.732   0.332   0.847 -0.9371 -0.4649  0.2457
 5195SOL    HW127047   1.785   0.318   0.769 -1.2986 -0.9193  0.0800
 5195SOL    HW227048   1.680   0.411   0.830 -1.2080 -0.4622  1.0657
 5196SOL     OW27049   3.742   4.199   9.393 -0.4567  0.1881 -0.0568
 5196SOL    HW127050   3.827   4.238   9.415  1.1781 -1.0178 -4.1099
 5196SOL    HW227051   3.764   4.178   9.302 -2.2644  3.1920 -1.2116
 5197SOL     OW27052   4.161   1.574   5.481 -0.3397 -0.4086 -0.5434
 5197SOL    HW127053   4.222   1.524   5.535 -0.7470  0.5887  0.8531
 5197SOL    HW227054   4.198   1.573   5.393 -0.0770 -1.5968 -0.4107
 5198SOL     OW27055   2.508   1.599   3.028 -0.1845 -0.0695 -0.7302
 5198SOL    HW127056   2.487   1.520   3.077 -0.3032 -0.0136 -0.6888
 5198SOL    HW227057   2.601   1.576   3.026 -0.7974 -2.3607 -2.8869
 5199SOL     OW27058   4.199   4.512   3.365 -0.4495 -0.3721 -0.8157
 5199SOL    HW127059   4.193   4.469   3.450 -0.1512 -1.2932 -1.2575
 5199SOL    HW227060   4.107   4.492   3.344 -0.6920  0.9208 -0.9774
 5200SOL     OW27061   1.811   0.964  11.143  0.1153 -0.3890 -0.1433
 5200SOL    HW127062   1.769   1.042  11.179  1.6461  0.6564 -0.6380
 5200SOL    HW227063   1.854   0.940  11.225 -1.6065 -1.7908  0.3629
 5201SOL     OW27064   1.257   2.541   1.613 -0.6300  0.0560  0.6395
 5201SOL    HW127065   1.298   2.461   1.581 -1.3824 -0.4111  0.8183
 5201SOL    HW227066   1.329   2.603   1.602  1.7513 -3.1366 -1.5126
 5202SOL     OW27067   0.346   4.088   2.483 -0.0840 -0.0703 -0.1340
 5202SOL    HW127068   0.320   4.174   2.448  2.4418 -0.2923 -2.6038
 5202SOL    HW227069   0.265   4.061   2.524 -0.1940  0.2062 -0.1664
 5203SOL     OW27070   0.418   3.302  11.122 -0.6938 -0.9556  0.2898
 5203SOL    HW127071   0.393   3.311  11.214  1.8616  0.8563  0.8219
 5203SOL    HW227072   0.513   3.301  11.131 -0.6041  1.6858 -0.2927
 5204SOL     OW27073   0.142   3.368   3.327  0.0486  0.4985 -0.4090
 5204SOL    HW127074   0.120   3.304   3.259  0.7182 -0.4643  0.2833
 5204SOL    HW227075   0.097   3.446   3.293  0.2196  1.3919  1.3975
 5205SOL     OW27076   3.240   0.685   1.845  0.1224 -0.4289  0.5707
 5205SOL    HW127077   3.265   0.626   1.917  0.2169  2.4431  2.8934
 5205SOL    HW227078   3.146   0.669   1.837  0.1837  0.2204 -1.4980
 5206SOL     OW27079   0.620   1.341   7.007  0.2817  0.5992  0.0674
 5206SOL    HW127080   0.579   1.412   7.057 -0.4499 -0.2906  0.7282
 5206SOL    HW227081   0.547   1.279   7.013 -0.4879  1.3655 -1.5557
 5207SOL     OW27082   0.682   2.370  16.994 -0.1077 -0.1535 -0.0510
 5207SOL    HW127083   0.621   2.421  17.047 -1.8774 -1.9276 -0.4021
 5207SOL    HW227084   0.762   2.405  17.033 -0.4009  0.4874 -0.0195
 5208SOL     OW27085   3.538   3.488   4.758 -0.6046 -0.7881  0.7475
 5208SOL    HW127086   3.626   3.484   4.718 -2.1473 -0.5337 -2.7046
 5208SOL    HW227087   3.564   3.509   4.847 -0.0511  2.7419 -0.2724
 5209SOL     OW27088   3.468   4.599   2.629 -0.5746  0.2558 -0.1099
 5209SOL    HW127089   3.403   4.623   2.695  0.0671  0.7266  0.3472
 5209SOL    HW227090   3.411   4.538   2.582 -1.0669  0.1470  0.6349
 5210SOL     OW27091   1.489   4.332   2.821 -0.1431 -0.0196 -0.2759
 5210SOL    HW127092   1.418   4.284   2.863  1.2431 -0.3726  1.6509
 5210SOL    HW227093   1.482   4.423   2.850  0.5517 -0.6958  1.9812
 5211SOL     OW27094   1.866   4.264   8.099  0.5773 -0.2311 -0.1403
 5211SOL    HW127095   1.922   4.193   8.068 -0.3559 -0.6646 -0.8288
 5211SOL    HW227096   1.836   4.299   8.015  0.4249  0.0181  0.0177
 5212SOL     OW27097   2.591   3.741   2.592 -0.2005  0.0154  0.0904
 5212SOL    HW127098   2.535   3.667   2.616  2.0140 -1.6812  0.0642
 5212SOL    HW227099   2.626   3.711   2.508 -0.6153 -4.4935  1.5281
 5213SOL     OW27100   3.255   2.044  15.346  0.1470 -0.1352  0.0701
 5213SOL    HW127101   3.197   2.078  15.278  1.5016 -1.9839 -1.9750
 5213SOL    HW227102   3.189   2.054  15.416  3.1749 -0.0105  2.9078
 5214SOL     OW27103   1.015   4.385   3.549 -0.0591 -0.0244 -0.2857
 5214SOL    HW127104   1.021   4.311   3.488 -0.8626 -0.2438 -0.0966
 5214SOL    HW227105   0.976   4.333   3.619 -1.1929  2.4534  0.9059
 5215SOL     OW27106   4.683   3.310   2.386  0.3363 -0.7368 -0.1018
 5215SOL    HW127107   0.022   3.240   2.398  2.4690  1.0459 -1.2115
 5215SOL    HW227108   4.716   3.349   2.306  2.0013 -3.0404 -0.5419
 5216SOL     OW27109   1.608   4.020   7.967 -0.0565 -0.1338  0.1831
 5216SOL    HW127110   1.628   4.052   8.055 -1.0059  1.5335 -0.2250
 5216SOL    HW227111   1.519   3.987   7.983  0.2034 -0.2920  1.3778
 5217SOL     OW27112   4.268   3.283   6.278 -0.7670  1.0224  0.0327
 5217SOL    HW127113   4.180   3.275   6.314 -1.3762  1.0019 -1.4331
 5217SOL    HW227114   4.256   3.290   6.183  0.4371 -0.4649 -0.2243
 5218SOL     OW27115   4.270   1.549   4.088 -0.0726 -0.9094 -0.6119
 5218SOL    HW127116   4.248   1.496   4.165  0.8410 -0.3230  0.0426
 5218SOL    HW227117   4.342   1.496   4.053 -1.3813 -1.0880 -3.0351
 5219SOL     OW27118   4.335   0.472   3.570  0.1357 -0.4948  0.4280
 5219SOL    HW127119   4.285   0.495   3.649  1.3826  1.1665  0.7388
 5219SOL    HW227120   4.316   0.549   3.517 -2.6033 -1.9895 -0.7118
 5220SOL     OW27121   3.233   4.164   3.871 -0.1561  0.0061 -0.8032
 5220SOL    HW127122   3.195   4.093   3.924 -1.3025  1.4799  0.3480
 5220SOL    HW227123   3.170   4.233   3.888  2.0277  1.5816  0.9402
 5221SOL     OW27124   0.450   0.627   5.813  0.1060 -0.6572  0.1043
 5221SOL    HW127125   0.364   0.589   5.831  0.1164  0.2280  2.0133
 5221SOL    HW227126   0.449   0.708   5.863  2.0593 -0.3182 -0.4296
 5222SOL     OW27127   4.288   2.351   8.231 -0.0598  0.3544 -0.0444
 5222SOL    HW127128   4.328   2.295   8.165 -1.9137  1.7244 -2.3579
 5222SOL    HW227129   4.304   2.324   8.322  2.1195  1.4248 -0.1116
 5223SOL     OW27130   1.627   0.908   6.767  0.2824 -0.2067  0.5089
 5223SOL    HW127131   1.662   0.919   6.855  0.3503 -1.2627  0.6118
 5223SOL    HW227132   1.554   0.970   6.761 -0.6201 -1.2596  0.4932
 5224SOL     OW27133   2.368   3.726  10.175  0.2928 -0.0063  0.3097
 5224SOL    HW127134   2.375   3.821  10.185 -0.2644  0.1688 -0.9092
 5224SOL    HW227135   2.275   3.708  10.156  0.7897 -0.0488 -2.1201
 5225SOL     OW27136   4.277   4.081   6.788 -0.4104  0.2809 -0.6182
 5225SOL    HW127137   4.265   4.098   6.695  0.4580  0.9980 -0.5947
 5225SOL    HW227138   4.225   4.002   6.806 -1.6186  1.3152  0.3929
 5226SOL     OW27139   0.062   0.364   2.040 -0.1205 -0.0538  0.6538
 5226SOL    HW127140   0.090   0.274   2.021  0.3899 -0.1642  1.9113
 5226SOL    HW227141   4.704   0.366   1.994  0.1157 -0.5656  0.1942
 5227SOL     OW27142   3.226   2.316   6.982 -0.1887  0.5242 -0.1539
 5227SOL    HW127143   3.304   2.261   6.992  0.9828  2.8912  3.8479
 5227SOL    HW227144   3.159   2.278   7.039 -0.1106  1.2978  0.4479
 5228SOL     OW27145   1.831   0.298   5.179  0.2126  0.2310 -0.1778
 5228SOL    HW127146   1.795   0.217   5.217  0.9317  0.8343  1.8078
 5228SOL    HW227147   1.890   0.331   5.247  2.2351 -2.5032 -0.5977
 5229SOL     OW27148   0.689   4.213  14.892  0.0605  0.0289  0.5005
 5229SOL    HW127149   0.776   4.242  14.865 -0.5908  1.2298 -0.3149
 5229SOL    HW227150   0.687   4.239  14.984 -1.2960  0.8914  0.2190
 5230SOL     OW27151   4.556   2.069  13.031 -0.0394 -0.0065  0.0678
 5230SOL    HW127152   4.637   2.115  13.009 -0.2475  1.3665  2.1284
 5230SOL    HW227153   4.510   2.137  13.081  0.0944 -0.5921  0.9692
 5231SOL     OW27154   0.853   0.877  10.638  0.6652 -0.2575  0.2963
 5231SOL    HW127155   0.913   0.951  10.630 -0.8683  1.1349  1.6391
 5231SOL    HW227156   0.901   0.822  10.576  0.6188 -2.0742  1.8676
 5232SOL     OW27157   1.106   3.197   4.556 -0.8510 -0.2907  0.1194
 5232SOL    HW127158   1.144   3.190   4.469  0.9755 -0.8680  0.9627
 5232SOL    HW227159   1.042   3.126   4.545 -0.1151 -0.8374 -0.5990
 5233SOL     OW27160   1.188   3.160   4.809  0.1432  0.5195  0.7520
 5233SOL    HW127161   1.171   3.068   4.789 -0.7109  1.1694 -1.5390
 5233SOL    HW227162   1.153   3.189   4.724  0.8981 -0.9364 -0.0569
 5234SOL     OW27163   2.451   1.809   4.983  0.3253 -0.0654  0.1355
 5234SOL    HW127164   2.498   1.799   4.900  0.7825 -3.1460  0.7489
 5234SOL    HW227165   2.520   1.836   5.044 -0.0217  1.4589 -0.1680
 5235SOL     OW27166   4.556   2.804   2.124 -0.0839 -0.1164 -0.8465
 5235SOL    HW127167   4.574   2.710   2.129 -0.8863 -0.1934  0.5284
 5235SOL    HW227168   4.502   2.818   2.202 -0.3923 -0.4810 -0.9953
 5236SOL     OW27169   3.862   2.506   4.290 -0.2914  0.2621  0.1895
 5236SOL    HW127170   3.792   2.465   4.340 -0.9281 -1.4224 -2.0715
 5236SOL    HW227171   3.872   2.438   4.223 -2.1453  1.1495 -0.9939
 5237SOL     OW27172   2.017   2.225   5.915 -0.1793 -0.2945 -0.6036
 5237SOL    HW127173   1.976   2.147   5.953  0.2415  0.2640  0.9967
 5237SOL    HW227174   2.106   2.219   5.948 -0.3263  0.4001 -0.0933
 5238SOL     OW27175   4.243   2.685   9.115  0.0668  0.0829 -0.0255
 5238SOL    HW127176   4.163   2.658   9.070  1.6920 -1.2376 -2.1407
 5238SOL    HW227177   4.244   2.781   9.113 -1.4059  0.0619 -1.1171
 5239SOL     OW27178   0.652   3.601  16.362  0.2539 -0.0090 -0.2347
 5239SOL    HW127179   0.656   3.660  16.437 -0.8901  1.1575 -1.0979
 5239SOL    HW227180   0.574   3.622  16.312  0.3554 -1.3238 -0.9241
 5240SOL     OW27181   4.054   0.802   7.931 -0.1022  0.0299 -0.4190
 5240SOL    HW127182   4.103   0.880   7.957 -1.3106 -0.1699  2.4663
 5240SOL    HW227183   4.058   0.745   8.008  2.9745  0.2879 -0.3885
 5241SOL     OW27184   1.429   3.625   7.882 -0.1170  0.5361  0.6902
 5241SOL    HW127185   1.440   3.696   7.820  0.0416 -0.5834 -0.5585
 5241SOL    HW227186   1.333   3.625   7.885 -0.2152  1.2820 -2.6522
 5242SOL     OW27187   3.275   3.125   0.981 -0.1829  0.4921  0.0357
 5242SOL    HW127188   3.244   3.040   1.012 -1.4122  0.2945 -1.7408
 5242SOL    HW227189   3.234   3.133   0.895  0.4548  2.8910 -0.0545
 5243SOL     OW27190   2.378   0.564   5.703  0.1841  0.2796 -0.2781
 5243SOL    HW127191   2.418   0.544   5.618 -1.8937  1.3525 -1.4831
 5243SOL    HW227192   2.438   0.616   5.756 -0.3962  0.6903 -0.0303
 5244SOL     OW27193   3.357   0.844   9.122  0.3928 -0.4562  0.2012
 5244SOL    HW127194   3.378   0.887   9.205 -3.5315 -0.9202  1.4507
 5244SOL    HW227195   3.378   0.916   9.063 -1.1635  2.0222  2.6755
 5245SOL     OW27196   0.182   0.046   1.068  0.3151 -0.2571 -0.2203
 5245SOL    HW127197   0.212   4.681   1.074 -0.0213 -0.3124  0.5806
 5245SOL    HW227198   0.106   0.041   1.126 -0.2404 -2.6130 -1.1796
 5246SOL     OW27199   3.346   4.586   0.313 -0.1870 -0.0365  0.0656
 5246SOL    HW127200   3.313   4.598   0.402 -1.9672 -0.3032 -0.5609
 5246SOL    HW227201   3.354   4.491   0.309 -1.9513 -0.1996  0.4961
 5247SOL     OW27202   0.924   1.961  11.698  0.2588  0.2107 -0.0661
 5247SOL    HW127203   0.851   1.904  11.720  0.5046  0.1848  0.6846
 5247SOL    HW227204   0.885   2.028  11.642  1.4167  3.4994  3.0727
 5248SOL     OW27205   1.376   3.496   4.774  0.1073 -0.9538 -0.3174
 5248SOL    HW127206   1.411   3.422   4.822  1.5565  0.0225  0.1367
 5248SOL    HW227207   1.287   3.505   4.809 -0.0935  0.7250 -1.2051
 5249SOL     OW27208   1.309   3.545  14.165  0.0974  0.6662  0.2131
 5249SOL    HW127209   1.234   3.587  14.206 -0.7107 -0.5561 -0.0063
 5249SOL    HW227210   1.373   3.555  14.235  0.0488 -2.1260  0.6842
 5250SOL     OW27211   0.850   2.118   7.692  0.0830  0.0003 -0.1244
 5250SOL    HW127212   0.776   2.122   7.632 -0.4324  1.0713  0.5685
 5250SOL    HW227213   0.886   2.035   7.661 -2.3636  0.1340 -3.3241
 5251SOL     OW27214   3.389   1.043  10.660 -0.1693  0.1096  0.0170
 5251SOL    HW127215   3.329   1.069  10.730  1.1890 -0.9243  1.5609
 5251SOL    HW227216   3.384   1.123  10.607  1.5704 -0.3974 -0.9209
 5252SOL     OW27217   1.632   2.151  11.928  0.3731  0.5307 -0.1823
 5252SOL    HW127218   1.718   2.141  11.889  0.1712  1.4558 -0.8638
 5252SOL    HW227219   1.608   2.234  11.887 -1.1830 -0.5890 -1.5306
 5253SOL     OW27220   1.580   3.903   5.784 -0.0837  0.6737  0.1567
 5253SOL    HW127221   1.675   3.913   5.784  0.3003 -2.8309 -2.6719
 5253SOL    HW227222   1.559   3.831   5.724 -0.3008  0.2700  0.7164
 5254SOL     OW27223   2.607   2.489   7.322  0.5478  0.4541 -0.0199
 5254SOL    HW127224   2.533   2.519   7.269  0.4597 -0.5135 -0.4512
 5254SOL    HW227225   2.681   2.531   7.278  0.9492  0.7672  0.9707
 5255SOL     OW27226   0.972   3.103   2.412  0.3648 -0.3566  0.2960
 5255SOL    HW127227   0.915   3.032   2.443 -1.8127  1.9172  1.5203
 5255SOL    HW227228   0.965   3.090   2.318 -1.5979  0.1235  0.3844
 5256SOL     OW27229   1.175   1.503   3.803  0.1043  0.0834 -0.3338
 5256SOL    HW127230   1.178   1.469   3.892 -0.6843  0.7026 -0.0699
 5256SOL    HW227231   1.148   1.438   3.738 -2.5149 -0.3827  1.2211
 5257SOL     OW27232   0.333   1.863   5.337  0.2311 -0.0031 -0.1914
 5257SOL    HW127233   0.324   1.831   5.247 -0.1402  0.7207 -0.4111
 5257SOL    HW227234   0.427   1.878   5.337 -0.2106  2.7502 -0.5725
 5258SOL     OW27235   0.404   1.507   2.601 -0.4289  0.0340 -0.2824
 5258SOL    HW127236   0.438   1.451   2.532  0.6821  0.2436  0.0891
 5258SOL    HW227237   0.311   1.496   2.582 -0.7818  0.2888  1.2252
 5259SOL     OW27238   3.236   2.490  13.845 -0.0026 -0.2006 -0.1064
 5259SOL    HW127239   3.152   2.477  13.889 -0.5334 -0.5176 -1.2257
 5259SOL    HW227240   3.230   2.419  13.781  0.5578 -1.5477  1.2991
 5260SOL     OW27241   0.752   4.310   2.105  0.2899  0.0668  0.1175
 5260SOL    HW127242   0.682   4.246   2.120  1.0504 -0.8861 -0.4579
 5260SOL    HW227243   0.824   4.249   2.093  0.3632  0.0241  0.7979
 5261SOL     OW27244   3.206   4.339   4.905  0.5415 -0.1232 -0.0727
 5261SOL    HW127245   3.161   4.411   4.860 -0.1966  0.3718  1.4455
 5261SOL    HW227246   3.199   4.274   4.835 -0.1924  0.2204 -0.3246
 5262SOL     OW27247   4.200   4.398   4.837  0.0252  0.5807  0.3062
 5262SOL    HW127248   4.156   4.458   4.777 -0.4046 -1.3114 -1.2773
 5262SOL    HW227249   4.251   4.455   4.895  3.3942  1.8220 -3.9359
 5263SOL     OW27250   4.154   1.425   2.466  0.1954 -0.1704 -0.5422
 5263SOL    HW127251   4.164   1.459   2.377  0.1389  0.4171 -0.3253
 5263SOL    HW227252   4.227   1.363   2.480  0.9673  0.6876 -0.7723
 5264SOL     OW27253   2.370   1.768  16.231  0.2447 -0.1560  0.0537
 5264SOL    HW127254   2.364   1.675  16.207  1.5446  0.0865 -1.2158
 5264SOL    HW227255   2.381   1.764  16.326  2.7093 -2.0180 -0.2897
 5265SOL     OW27256   4.512   0.954   4.002  0.2100  0.2235  0.2986
 5265SOL    HW127257   4.431   0.988   4.040 -0.0019 -0.0143  0.0574
 5265SOL    HW227258   4.547   1.027   3.951  0.8014  0.9560  1.7528
 5266SOL     OW27259   2.971   0.967   0.545  0.6322  0.2151 -0.4691
 5266SOL    HW127260   2.956   1.042   0.487  1.0357 -0.2845 -1.2150
 5266SOL    HW227261   3.049   1.004   0.587  0.9244 -1.9046  0.8787
 5267SOL     OW27262   4.034   1.805  12.715  0.3254  0.0424  0.5856
 5267SOL    HW127263   3.954   1.754  12.725 -0.3750  1.0383  0.0943
 5267SOL    HW227264   4.073   1.749  12.648 -0.7865 -0.3413  0.2587
 5268SOL     OW27265   4.482   3.392   8.887 -0.2835 -0.1730 -0.1194
 5268SOL    HW127266   4.511   3.305   8.862  2.8024  0.5399  0.9284
 5268SOL    HW227267   4.552   3.412   8.949  1.0671 -1.9268 -1.0915
 5269SOL     OW27268   1.865   2.906   8.621 -0.0539  0.1059 -0.5072
 5269SOL    HW127269   1.773   2.880   8.613  0.6311 -1.2598 -4.0092
 5269SOL    HW227270   1.915   2.825   8.609 -1.2480 -0.5110 -1.4390
 5270SOL     OW27271   4.384   0.417   2.619 -0.2554  0.4332  0.3418
 5270SOL    HW127272   4.365   0.427   2.525 -0.8596  0.9629  0.5171
 5270SOL    HW227273   4.318   0.349   2.638 -1.2845  0.1334 -4.1368
 5271SOL     OW27274   1.566   2.535   2.018  0.0499  0.3104 -0.3078
 5271SOL    HW127275   1.558   2.461   2.079  0.9904 -0.5665 -1.2459
 5271SOL    HW227276   1.656   2.560   2.038  0.2181  0.1970 -0.9223
 5272SOL     OW27277   3.918   1.679   7.013 -0.1143 -0.2294 -0.0533
 5272SOL    HW127278   4.009   1.674   6.984  0.8446  0.8467  2.8557
 5272SOL    HW227279   3.880   1.594   6.990 -0.1741  0.1063 -1.2258
 5273SOL     OW27280   3.273   3.255   3.792 -0.1628  0.1644 -0.1756
 5273SOL    HW127281   3.302   3.186   3.851 -0.3677 -1.1663 -1.6343
 5273SOL    HW227282   3.282   3.211   3.708  0.9566  1.1551 -0.5778
 5274SOL     OW27283   4.080   3.569   3.000  0.3347 -0.5544  0.0490
 5274SOL    HW127284   4.101   3.527   3.084 -2.1557  1.2367  1.5772
 5274SOL    HW227285   3.993   3.602   3.023 -0.1562 -1.1602 -0.9200
 5275SOL     OW27286   3.790   4.679   4.743  0.7433 -0.7568  0.0297
 5275SOL    HW127287   3.734   0.019   4.784  1.4119 -1.4265  2.0074
 5275SOL    HW227288   3.728   4.622   4.698  0.6482 -0.7502  0.1521
 5276SOL     OW27289   1.054   1.092   8.054  0.0457  0.3516  0.0300
 5276SOL    HW127290   1.016   1.096   8.142 -0.0082  0.9696 -0.0210
 5276SOL    HW227291   1.147   1.113   8.065 -0.3206  1.6760  0.5971
 5277SOL     OW27292   2.138   0.770  11.943 -1.0181  0.0673 -0.4693
 5277SOL    HW127293   2.198   0.717  11.995 -1.0162 -0.4192 -0.9609
 5277SOL    HW227294   2.174   0.856  11.962  2.3375 -1.5205  0.2927
 5278SOL     OW27295   0.725   3.910  10.231 -0.5417 -0.1388 -0.4314
 5278SOL    HW127296   0.650   3.863  10.193 -0.4703  0.3986 -1.2283
 5278SOL    HW227297   0.681   3.993  10.251 -0.6631 -0.7265  1.7680
 5279SOL     OW27298   1.037   0.006   7.354  0.4949  0.4266 -0.3827
 5279SOL    HW127299   1.099   4.682   7.408 -1.5836 -0.1605  1.4708
 5279SOL    HW227300   0.954   4.708   7.395  0.5336  1.0092  0.0336
 5280SOL     OW27301   0.518   3.084   9.282 -0.1839 -0.4278  0.3961
 5280SOL    HW127302   0.491   3.176   9.283  0.7048 -0.1423 -1.2432
 5280SOL    HW227303   0.516   3.056   9.374  1.1493  1.8225  1.1290
 5281SOL     OW27304   0.401   3.700   8.782  0.2953 -0.6670 -0.2878
 5281SOL    HW127305   0.373   3.771   8.840  1.5144 -2.5541  2.6396
 5281SOL    HW227306   0.486   3.733   8.753 -0.0883  1.5815  1.1489
 5282SOL     OW27307   2.793   1.774   6.855 -0.0744 -0.3866 -0.7274
 5282SOL    HW127308   2.864   1.757   6.793  1.5129 -0.4956  1.1426
 5282SOL    HW227309   2.851   1.796   6.927 -0.4382 -0.2784 -0.4659
 5283SOL     OW27310   1.384   1.175   1.962  0.2661  0.4508 -0.0240
 5283SOL    HW127311   1.413   1.195   1.873  1.9668 -0.8432  0.2495
 5283SOL    HW227312   1.454   1.225   2.003 -0.5176  0.1544  1.6429
 5284SOL     OW27313   3.235   4.087   4.469 -0.3004 -0.5303 -1.2482
 5284SOL    HW127314   3.173   4.152   4.435  1.5668  0.4203 -2.7936
 5284SOL    HW227315   3.227   4.018   4.403  0.1546 -2.0896  0.3407
 5285SOL     OW27316   4.662   3.995  10.269  0.6454  0.2876  0.0044
 5285SOL    HW127317   0.011   3.987  10.330  0.0407 -0.0024  0.7114
 5285SOL    HW227318   4.594   4.017  10.333 -1.0888 -0.4689 -1.6019
 5286SOL     OW27319   3.190   2.556   6.850  0.1832  0.2059  0.0015
 5286SOL    HW127320   3.221   2.473   6.887 -3.4565 -0.8371  0.7152
 5286SOL    HW227321   3.100   2.549   6.882  0.3170  1.2729  0.6077
 5287SOL     OW27322   0.714   4.288   6.736 -0.0617 -0.1981  0.2051
 5287SOL    HW127323   0.720   4.272   6.830  1.1312  0.9448  0.3063
 5287SOL    HW227324   0.643   4.349   6.716 -0.6402 -1.1303 -0.6301
 5288SOL     OW27325   4.448   2.545  10.689  0.0725 -0.3956 -0.6076
 5288SOL    HW127326   4.364   2.590  10.699  0.6085  0.5093 -0.1815
 5288SOL    HW227327   4.475   2.577  10.603 -1.0701  0.7079 -0.5489
 5289SOL     OW27328   3.514   0.046   2.914  0.4788  0.2412  0.7716
 5289SOL    HW127329   3.498   0.140   2.907 -2.9404 -0.3607  0.8324
 5289SOL    HW227330   3.610   0.044   2.914  0.4919  1.4331  0.2661
 5290SOL     OW27331   2.398   4.436  12.437 -0.0832 -0.0091 -0.6784
 5290SOL    HW127332   2.348   4.369  12.391  1.4650 -1.4074 -0.2937
 5290SOL    HW227333   2.363   4.513  12.391 -2.3682 -0.5224  0.2207
 5291SOL     OW27334   3.701   1.015   6.717 -0.4509  0.4001 -0.7527
 5291SOL    HW127335   3.722   0.927   6.749 -1.4007  0.3260 -0.3447
 5291SOL    HW227336   3.787   1.024   6.676  0.0656 -0.8100  0.0739
 5292SOL     OW27337   0.522   1.220  15.302 -0.1822 -0.0216  0.2168
 5292SOL    HW127338   0.559   1.302  15.334  2.0989 -1.1237  0.4357
 5292SOL    HW227339   0.436   1.245  15.270  0.2263  1.1650  0.0332
 5293SOL     OW27340   2.239   1.756   5.861  1.1641  0.8260 -0.2634
 5293SOL    HW127341   2.239   1.665   5.832  2.0718  0.5905  0.4733
 5293SOL    HW227342   2.330   1.783   5.874  1.6025 -1.1625  0.9344
 5294SOL     OW27343   1.888   1.774   8.440 -0.0228  0.1512  0.5551
 5294SOL    HW127344   1.952   1.840   8.469  1.4775 -1.1163  0.1480
 5294SOL    HW227345   1.843   1.831   8.378  0.9863 -1.7601 -1.9176
 5295SOL     OW27346   1.107   1.067   0.278 -0.1559 -0.0323  0.2294
 5295SOL    HW127347   1.141   0.988   0.320  2.8682  1.2451  0.1457
 5295SOL    HW227348   1.082   1.113   0.359 -0.8680  1.2813 -0.7378
 5296SOL     OW27349   4.293   2.405  17.492  0.5223  0.2685 -0.1757
 5296SOL    HW127350   4.317   2.453  17.413  0.5967  0.1564 -0.2213
 5296SOL    HW227351   4.306   2.321  17.449 -1.1781  0.4607 -1.0776
 5297SOL     OW27352   1.215   0.135  13.290 -0.0765  0.7511 -0.3835
 5297SOL    HW127353   1.194   0.184  13.211  0.8405  0.0549 -1.0507
 5297SOL    HW227354   1.275   0.191  13.339  0.9161  0.1803 -0.9444
 5298SOL     OW27355   0.237   4.365  15.319 -0.1804 -0.1572 -0.4811
 5298SOL    HW127356   0.289   4.383  15.397  0.1932  1.4976 -1.1341
 5298SOL    HW227357   0.296   4.411  15.259  1.0816 -2.3781 -0.9677
 5299SOL     OW27358   4.670   3.271   5.685 -0.0317  0.0303 -0.0621
 5299SOL    HW127359   4.670   3.244   5.777 -1.4460  2.0713  0.5253
 5299SOL    HW227360   0.023   3.224   5.657  0.8906  1.3808  0.2391
 5300SOL     OW27361   2.443   4.141  14.978 -0.2932  0.2204  0.6747
 5300SOL    HW127362   2.358   4.175  14.950 -1.6624 -2.2679  1.7796
 5300SOL    HW227363   2.463   4.210  15.041 -0.4124  0.3905  0.5268
 5301SOL     OW27364   2.598   4.641   9.724  0.4124 -0.0062 -0.1622
 5301SOL    HW127365   2.628   4.723   9.683 -0.1735  0.3450  0.1000
 5301SOL    HW227366   2.656   4.649   9.800  0.4793 -2.1627  0.0045
 5302SOL     OW27367   3.495   4.424  15.475  0.1101 -0.5142  0.3052
 5302SOL    HW127368   3.565   4.362  15.455  0.1379 -0.0992 -0.8962
 5302SOL    HW227369   3.438   4.424  15.398 -0.3558  1.1647  0.6428
 5303SOL     OW27370   4.156   3.509  16.025 -0.2401  0.0645  0.2797
 5303SOL    HW127371   4.222   3.574  16.001  0.1330 -0.1485  0.7203
 5303SOL    HW227372   4.119   3.549  16.103  1.1246  0.7110  0.5949
 5304SOL     OW27373   4.167   3.555  16.850  0.5859 -0.3567 -0.1888
 5304SOL    HW127374   4.111   3.480  16.833  0.4984  0.5185 -3.6514
 5304SOL    HW227375   4.146   3.610  16.774 -0.5067  0.6039  0.8011
 5305SOL     OW27376   1.633   2.812  10.291  0.0988 -0.4121  0.0410
 5305SOL    HW127377   1.662   2.781  10.205  1.1439  0.1413  0.1846
 5305SOL    HW227378   1.663   2.738  10.344 -3.2822 -0.6131  1.6281
 5306SOL     OW27379   3.915   4.519   5.483  0.6411  0.3961 -0.4403
 5306SOL    HW127380   3.843   4.531   5.421  1.6656  0.9278 -1.5129
 5306SOL    HW227381   3.944   4.609   5.493 -0.2825  0.5585  0.8735
 5307SOL     OW27382   0.022   4.565   3.066 -0.7769 -0.5093 -0.2089
 5307SOL    HW127383   4.713   4.620   2.995  0.4163 -0.2779 -0.6142
 5307SOL    HW227384   0.057   4.490   3.019 -0.8057 -0.9178  0.4251
 5308SOL     OW27385   2.003   1.016   1.102 -0.1462 -0.4376  0.1715
 5308SOL    HW127386   2.045   1.099   1.079 -1.6544  0.3206  0.1792
 5308SOL    HW227387   1.936   1.050   1.161 -0.3949  0.8634 -0.8375
 5309SOL     OW27388   3.931   1.840   8.709 -0.0118  0.7042  0.3567
 5309SOL    HW127389   3.861   1.853   8.645  1.7543 -0.0141 -1.7091
 5309SOL    HW227390   3.950   1.747   8.701  0.8664  0.8777  0.3838
 5310SOL     OW27391   1.537   0.064  12.073  0.1625  0.1583 -0.5768
 5310SOL    HW127392   1.608   0.055  12.137 -0.1158  0.8142 -0.1686
 5310SOL    HW227393   1.464   0.015  12.111  1.6414  0.1144  2.1875
 5311SOL     OW27394   0.651   2.782   1.892 -0.0005 -0.6859  0.1429
 5311SOL    HW127395   0.678   2.825   1.810 -2.1240 -0.0817 -0.2483
 5311SOL    HW227396   0.633   2.695   1.857  1.4014 -0.8820 -0.0775
 5312SOL     OW27397   3.402   2.811   8.169  0.4083  0.0606 -0.3920
 5312SOL    HW127398   3.342   2.741   8.146  1.3724 -1.7211  2.5763
 5312SOL    HW227399   3.460   2.760   8.225 -1.3006  0.0414  1.3597
 5313SOL     OW27400   2.845   1.720   2.170 -0.4165  0.3451  0.3462
 5313SOL    HW127401   2.928   1.767   2.158 -0.1853 -0.4143 -0.9993
 5313SOL    HW227402   2.875   1.637   2.134 -1.2654 -0.1135  0.6830
 5314SOL     OW27403   0.684   1.661  17.692  0.2803 -0.2318  0.1751
 5314SOL    HW127404   0.732   1.717  17.632 -0.2215  1.7248  1.6214
 5314SOL    HW227405   0.749   1.624   0.049 -0.6153 -0.8081  0.7941
 5315SOL     OW27406   2.865   1.596  14.473  0.0096 -0.3101  0.1466
 5315SOL    HW127407   2.929   1.572  14.405 -0.2215 -2.4681  0.6880
 5315SOL    HW227408   2.916   1.655  14.528  1.4662 -0.0327 -1.4927
 5316SOL     OW27409   2.322   1.573   1.053 -0.1175 -0.5510 -0.1596
 5316SOL    HW127410   2.252   1.522   1.095 -0.6501 -0.7172 -1.2502
 5316SOL    HW227411   2.349   1.605   1.139  0.2332 -0.9783 -0.1085
 5317SOL     OW27412   3.565   2.681   4.463 -0.7164 -0.7596  0.2483
 5317SOL    HW127413   3.596   2.591   4.462  0.5511 -0.3379  1.1778
 5317SOL    HW227414   3.599   2.713   4.379 -1.3707 -0.2167  0.1896
 5318SOL     OW27415   0.356   2.921   9.118 -0.5413  0.9141 -0.0864
 5318SOL    HW127416   0.402   2.984   9.174  0.0424 -0.3812  0.8864
 5318SOL    HW227417   0.284   2.893   9.175 -0.9842 -0.4561 -1.3159
 5319SOL     OW27418   3.113   3.411  13.124  0.4551  0.5315  0.3141
 5319SOL    HW127419   3.073   3.345  13.068 -0.0211 -0.4448  1.8160
 5319SOL    HW227420   3.037   3.466  13.140 -0.7197 -1.0567  0.1472
 5320SOL     OW27421   3.275   1.748   2.092  0.3302 -0.4903 -0.2350
 5320SOL    HW127422   3.368   1.770   2.084  0.0735 -0.9683 -4.4351
 5320SOL    HW227423   3.280   1.691   2.015 -1.3437  0.5832 -1.1394
 5321SOL     OW27424   3.946   2.822   9.195 -0.1972 -0.2482 -0.1460
 5321SOL    HW127425   3.939   2.887   9.125 -2.2096  0.7017  0.9316
 5321SOL    HW227426   3.955   2.870   9.277  0.6510 -2.0621  0.8244
 5322SOL     OW27427   3.934   0.726   3.477 -0.2191 -0.1899 -0.1952
 5322SOL    HW127428   3.855   0.674   3.464 -0.6054  0.1120  0.8843
 5322SOL    HW227429   3.915   0.800   3.420  0.5549  1.1679  1.2841
 5323SOL     OW27430   0.695   3.727   3.718  0.6028 -0.9082 -0.4176
 5323SOL    HW127431   0.627   3.660   3.712  1.3922 -1.8030  0.6375
 5323SOL    HW227432   0.738   3.686   3.643 -1.2593  1.0601 -2.5588
 5324SOL     OW27433   0.995   0.540   9.669  0.3238 -0.2808  0.6152
 5324SOL    HW127434   1.007   0.634   9.657  0.1517 -0.4322 -0.7037
 5324SOL    HW227435   1.082   0.510   9.699  0.5267  0.6398  0.9349
 5325SOL     OW27436   2.043   4.529   9.094 -0.0034 -0.9094  0.0658
 5325SOL    HW127437   1.981   4.489   9.156  2.6818 -1.8986  2.1109
 5325SOL    HW227438   2.129   4.515   9.134 -0.3386  3.6584  2.4104
 5326SOL     OW27439   1.523   0.020  10.189  0.0057 -0.5959  0.2999
 5326SOL    HW127440   1.606   0.006  10.235  1.2170  2.1384 -1.0276
 5326SOL    HW227441   1.465   4.714  10.259  1.1676 -0.9704  1.0882
 5327SOL     OW27442   2.303   3.165  12.497  0.0187  0.7255 -0.2359
 5327SOL    HW127443   2.284   3.096  12.561 -0.0965 -0.4517 -1.5328
 5327SOL    HW227444   2.249   3.237  12.526 -2.1590 -0.5780 -1.0819
 5328SOL     OW27445   2.381   3.031   2.784  0.2122 -0.0094  0.0632
 5328SOL    HW127446   2.336   3.097   2.731 -0.3647 -1.1900 -0.9327
 5328SOL    HW227447   2.441   3.085   2.835 -0.6585  1.4261 -0.4195
 5329SOL     OW27448   0.254   3.533   4.305  0.3087 -0.1201 -0.0687
 5329SOL    HW127449   0.189   3.590   4.348  0.0296  0.6209 -1.4498
 5329SOL    HW227450   0.192   3.477   4.258  2.6733 -1.5364 -1.5009
 5330SOL     OW27451   1.238   1.652   5.939  0.2499 -0.0061 -0.0275
 5330SOL    HW127452   1.189   1.688   5.865 -0.3525 -2.6238 -0.9033
 5330SOL    HW227453   1.327   1.654   5.905  0.1248  2.6087 -0.2522
 5331SOL     OW27454   4.536   3.023   3.864 -0.1195 -0.0992 -0.2444
 5331SOL    HW127455   4.625   2.996   3.885 -1.1574 -0.7303  3.2646
 5331SOL    HW227456   4.561   3.108   3.827  0.6148 -0.2339 -0.0564
 5332SOL     OW27457   3.484   3.852  17.235  0.3102 -0.0274 -0.0907
 5332SOL    HW127458   3.455   3.770  17.195 -0.0471 -0.2027  0.5310
 5332SOL    HW227459   3.412   3.879  17.292 -0.5931 -0.5223 -1.0191
 5333SOL     OW27460   2.159   3.777  13.751  0.0575  0.0143  0.4209
 5333SOL    HW127461   2.217   3.702  13.768  2.2527  1.3361 -1.2992
 5333SOL    HW227462   2.090   3.728  13.707  0.8605 -1.1310  0.4238
 5334SOL     OW27463   2.618   1.952   5.780  1.0418  0.1822 -0.4547
 5334SOL    HW127464   2.560   1.947   5.704 -0.1735 -1.2398  0.5765
 5334SOL    HW227465   2.702   1.956   5.735  0.8409  0.2596 -0.8243
 5335SOL     OW27466   4.519   4.591   6.060 -0.3462 -0.2821  0.1113
 5335SOL    HW127467   4.567   4.618   5.981 -0.8688  0.0580 -0.0888
 5335SOL    HW227468   4.538   4.653   6.130 -1.5863 -0.6714  0.7920
 5336SOL     OW27469   3.657   2.201  12.631  1.1699 -0.0204  0.0922
 5336SOL    HW127470   3.577   2.180  12.680  1.3269 -1.5438 -0.2825
 5336SOL    HW227471   3.690   2.114  12.606  1.2580  0.3029 -0.9367
 5337SOL     OW27472   0.936   4.559  10.977 -0.4385 -0.0099  0.3435
 5337SOL    HW127473   0.890   4.615  11.039  2.0266  0.7496  1.4861
 5337SOL    HW227474   0.856   4.536  10.930 -0.7941 -0.4148  1.1563
 5338SOL     OW27475   4.309   3.279  15.251  0.2334  0.0844  0.0148
 5338SOL    HW127476   4.385   3.228  15.224 -0.5721 -0.2442 -1.6773
 5338SOL    HW227477   4.234   3.230  15.216  0.2740 -1.2249  1.7542
 5339SOL     OW27478   1.192   4.344  15.547  0.3670  0.1761  0.0653
 5339SOL    HW127479   1.134   4.420  15.548 -1.4736 -1.2034 -0.9660
 5339SOL    HW227480   1.146   4.285  15.607 -1.1190  0.7317 -0.5065
 5340SOL     OW27481   4.389   3.284   4.361 -0.3775  0.5891  0.0333
 5340SOL    HW127482   4.297   3.257   4.359  0.2937 -1.6449 -0.0191
 5340SOL    HW227483   4.417   3.267   4.451 -1.7804  0.2849  0.4110
 5341SOL     OW27484   0.754   3.186   4.553  0.4726  0.3788  0.4404
 5341SOL    HW127485   0.769   3.233   4.471  0.3035 -1.9156 -0.8703
 5341SOL    HW227486   0.823   3.121   4.543 -1.2929 -1.5745  1.1289
 5342SOL     OW27487   1.013   2.714   6.214 -0.2398  0.0809 -0.2935
 5342SOL    HW127488   0.980   2.801   6.235 -0.3871  0.3991 -1.9103
 5342SOL    HW227489   1.051   2.724   6.127  0.2849 -0.6934 -0.1574
 5343SOL     OW27490   3.910   1.195   8.186  0.4484 -0.6166 -0.0896
 5343SOL    HW127491   3.916   1.237   8.100  1.3136 -0.1914  0.1796
 5343SOL    HW227492   3.837   1.137   8.167 -0.6558  0.3981  1.0199
 5344SOL     OW27493   1.349   0.995  16.424 -0.7481  0.1234 -0.5499
 5344SOL    HW127494   1.418   0.987  16.357  0.1522  3.4391 -0.0239
 5344SOL    HW227495   1.399   1.018  16.502  1.5213 -2.7951 -1.1614
 5345SOL     OW27496   4.077   0.347   4.892 -0.3591  0.2529 -0.0381
 5345SOL    HW127497   4.007   0.341   4.826  0.5588 -2.3359 -0.7574
 5345SOL    HW227498   4.033   0.305   4.966 -0.0491 -0.4478 -0.2591
 5346SOL     OW27499   2.151   0.681   0.680 -0.4048  0.5321 -0.5805
 5346SOL    HW127500   2.154   0.609   0.616 -1.5100 -1.3223  1.4906
 5346SOL    HW227501   2.056   0.686   0.687 -0.1152  3.6936  1.0821
 5347SOL     OW27502   1.310   2.883   4.134 -0.6211  0.3555  0.2663
 5347SOL    HW127503   1.259   2.947   4.084 -0.7496 -0.2062 -0.3149
 5347SOL    HW227504   1.398   2.873   4.098 -0.6230  2.1153 -0.2281
 5348SOL     OW27505   3.721   3.654   5.917  0.3461  0.1890 -0.5634
 5348SOL    HW127506   3.640   3.623   5.958 -0.7319  0.0052 -2.8234
 5348SOL    HW227507   3.779   3.637   5.991  0.0015  0.6344 -0.1841
 5349SOL     OW27508   0.594   0.316   8.962  0.4871 -0.2542 -0.1534
 5349SOL    HW127509   0.611   0.290   9.052  0.2150 -0.3979 -0.1441
 5349SOL    HW227510   0.601   0.411   8.977  1.7801 -0.1386 -1.3880
 5350SOL     OW27511   2.301   4.003   2.929  0.0685  0.4984 -0.5560
 5350SOL    HW127512   2.262   4.070   2.986 -0.1301 -1.5058  1.6693
 5350SOL    HW227513   2.225   3.946   2.923 -0.0779  0.5916  0.3753
 5351SOL     OW27514   0.485   3.022   1.854  0.2532  0.2389 -0.4500
 5351SOL    HW127515   0.528   3.060   1.777 -0.8277 -0.5074 -1.4336
 5351SOL    HW227516   0.524   2.937   1.874 -2.5346 -0.7862  0.6254
 5352SOL     OW27517   1.779   1.971   8.293 -0.4078  0.1589  0.0463
 5352SOL    HW127518   1.688   1.970   8.263 -0.7581  0.4327  1.1108
 5352SOL    HW227519   1.822   1.984   8.208  0.5311  0.9828  0.6542
 5353SOL     OW27520   2.110   3.828   7.014  0.2570  0.2335 -0.5501
 5353SOL    HW127521   2.041   3.893   7.005 -1.8965 -2.1408 -1.2896
 5353SOL    HW227522   2.086   3.775   7.090  1.1529 -0.2262 -0.5785
 5354SOL     OW27523   4.288   1.685   3.811  0.1886  0.0608  0.4396
 5354SOL    HW127524   4.289   1.644   3.898  0.3782 -0.7613  0.0544
 5354SOL    HW227525   4.200   1.660   3.785 -1.0618  3.3193  1.6138
 5355SOL     OW27526   3.197   2.647   9.166 -0.5266 -0.9763 -0.0620
 5355SOL    HW127527   3.271   2.585   9.162  1.3608  1.1279  2.0991
 5355SOL    HW227528   3.129   2.600   9.120 -2.0359  0.9234  0.2284
 5356SOL     OW27529   2.257   1.518   8.508  0.1278  0.0896  0.6167
 5356SOL    HW127530   2.317   1.593   8.505 -0.5148  0.6525  1.6290
 5356SOL    HW227531   2.178   1.556   8.468  1.9007  2.5009 -0.5354
 5357SOL     OW27532   1.102   4.612   8.870 -0.5837  0.1625 -0.2951
 5357SOL    HW127533   1.187   4.601   8.828  1.2981  1.6195  3.1483
 5357SOL    HW227534   1.082   4.706   8.866 -1.5564  0.0747  2.4672
 5358SOL     OW27535   1.696   1.256   7.298  0.3661 -0.1371 -0.1435
 5358SOL    HW127536   1.776   1.237   7.248 -0.0537 -2.9153  0.2622
 5358SOL    HW227537   1.693   1.192   7.369  2.4444  1.0918  1.0482
 5359SOL     OW27538   1.931   3.692  17.105  0.2731  0.6364 -0.2153
 5359SOL    HW127539   1.863   3.652  17.050  0.7933  0.6934 -0.9000
 5359SOL    HW227540   1.878   3.741  17.168  0.8226 -0.1461  0.8648
 5360SOL     OW27541   2.636   0.387   7.363  0.1210  0.7824  0.3848
 5360SOL    HW127542   2.623   0.327   7.290 -1.8796  0.8799  0.6566
 5360SOL    HW227543   2.557   0.439   7.348 -0.5617 -0.2150  0.5278
 5361SOL     OW27544   0.778   0.210   6.302  0.1246  0.1103 -0.1615
 5361SOL    HW127545   0.847   0.155   6.265 -0.0432  0.5249 -1.0844
 5361SOL    HW227546   0.792   0.287   6.247 -1.1784  0.9428  0.6819
 5362SOL     OW27547   3.579   2.334   4.970  0.3437 -0.1621 -0.1054
 5362SOL    HW127548   3.576   2.284   5.051  0.7755  1.6306  1.0369
 5362SOL    HW227549   3.649   2.395   4.994  1.7321 -1.2976 -1.2971
 5363SOL     OW27550   2.469   0.873   7.905 -0.1273  0.0434 -0.4995
 5363SOL    HW127551   2.455   0.952   7.854  0.0436  0.4412  0.0645
 5363SOL    HW227552   2.427   0.897   7.988  0.4092  0.0562 -0.2283
 5364SOL     OW27553   2.458   0.786  13.741  0.3164  0.0501 -0.1960
 5364SOL    HW127554   2.363   0.771  13.743  0.7177 -2.0057  1.8647
 5364SOL    HW227555   2.472   0.746  13.655 -0.6971 -1.3517  0.3053
 5365SOL     OW27556   4.440   0.964   6.252 -0.1745  0.3781 -0.1199
 5365SOL    HW127557   4.346   0.982   6.245 -0.6458 -1.1925  1.9974
 5365SOL    HW227558   4.490   1.034   6.212 -0.7315  0.1077 -1.2925
 5366SOL     OW27559   4.003   0.895   4.259  0.1726  0.3553  0.4341
 5366SOL    HW127560   4.056   0.844   4.321 -1.4046 -0.5175  1.0670
 5366SOL    HW227561   3.999   0.847   4.177 -0.7818  1.7177 -0.3159
 5367SOL     OW27562   4.461   0.196  13.239 -0.3683 -0.4398  0.5811
 5367SOL    HW127563   4.437   0.219  13.149  2.7850  0.6449  0.0337
 5367SOL    HW227564   4.554   0.216  13.235 -0.2029 -0.4200  4.4869
 5368SOL     OW27565   1.693   1.401   4.238  0.0669 -0.5141  0.1729
 5368SOL    HW127566   1.650   1.325   4.198 -0.8344 -0.0921  0.3467
 5368SOL    HW227567   1.671   1.473   4.180  0.8257  0.9718  1.7289
 5369SOL     OW27568   0.399   3.346  15.337  0.0514  0.0628  0.3380
 5369SOL    HW127569   0.359   3.316  15.418 -1.7720  1.1177 -0.1681
 5369SOL    HW227570   0.363   3.434  15.323  1.7633  0.8868  1.0531
 5370SOL     OW27571   4.398   3.623   2.569  0.1051  0.0554 -0.4037
 5370SOL    HW127572   4.378   3.584   2.654  3.3205 -0.1365  0.2640
 5370SOL    HW227573   4.412   3.542   2.519 -1.0568 -0.2047 -0.3120
 5371SOL     OW27574   1.949   1.056   6.093  0.4752 -0.8270  0.1567
 5371SOL    HW127575   1.893   1.001   6.149 -1.5225  0.0029 -1.0493
 5371SOL    HW227576   1.908   1.037   6.009 -0.0184 -1.7601  0.5994
 5372SOL     OW27577   0.056   3.199   4.439 -0.1866  0.1217 -0.3104
 5372SOL    HW127578   0.056   3.222   4.532  2.1081 -1.8423  0.1703
 5372SOL    HW227579   0.020   3.281   4.404 -3.6467 -1.2726 -0.0189
 5373SOL     OW27580   0.459   2.508   4.767 -0.1019  0.2457  0.4279
 5373SOL    HW127581   0.425   2.507   4.857 -1.5247  1.4285 -0.0920
 5373SOL    HW227582   0.544   2.465   4.781  1.0194  2.6499  1.1071
 5374SOL     OW27583   0.921   2.959   6.051  0.2270 -0.2144 -0.1648
 5374SOL    HW127584   0.904   3.052   6.065 -1.6756 -0.4835 -0.5614
 5374SOL    HW227585   0.857   2.944   5.981  0.3476  0.0066 -0.3228
 5375SOL     OW27586   1.120   2.504   9.268  0.4357  0.1935 -0.3058
 5375SOL    HW127587   1.084   2.415   9.272  3.5543 -0.9839  1.3289
 5375SOL    HW227588   1.085   2.538   9.186 -2.8579  0.0983  1.0742
 5376SOL     OW27589   0.743   2.092  15.523  0.0850  0.0917 -0.5160
 5376SOL    HW127590   0.817   2.143  15.490 -0.4517  0.5910 -0.9304
 5376SOL    HW227591   0.770   2.083  15.614 -0.9329 -0.5177 -0.2685
 5377SOL     OW27592   3.571   3.631   2.484  0.1716  0.2486 -0.4821
 5377SOL    HW127593   3.545   3.596   2.399 -0.4538 -0.6701  0.0763
 5377SOL    HW227594   3.538   3.719   2.468  0.7857  0.8184  1.3666
 5378SOL     OW27595   1.876   1.923   9.048 -0.0102 -0.3168  0.0590
 5378SOL    HW127596   1.954   1.975   9.027  0.6863 -0.6971  1.6563
 5378SOL    HW227597   1.877   1.917   9.144 -2.0771  1.2422  0.1684
 5379SOL     OW27598   4.207   2.444   4.559 -0.2780  0.5057  0.5767
 5379SOL    HW127599   4.194   2.486   4.645  0.5305  1.9870 -0.0182
 5379SOL    HW227600   4.265   2.509   4.519 -3.0076  1.0019 -2.4770
 5380SOL     OW27601   0.642   1.812   5.511  0.0647 -0.0368  0.0921
 5380SOL    HW127602   0.682   1.803   5.425 -0.3253 -2.7393  0.1921
 5380SOL    HW227603   0.706   1.760   5.559  1.1204 -0.6209 -1.9707
 5381SOL     OW27604   1.972   1.085   8.454  0.3033 -0.3598 -0.2396
 5381SOL    HW127605   2.031   1.156   8.482 -1.2331  1.1965 -0.9702
 5381SOL    HW227606   1.983   1.039   8.538  0.2935 -3.5827 -2.0172
 5382SOL     OW27607   1.749   1.720   1.988 -0.0387 -0.5463  0.4059
 5382SOL    HW127608   1.781   1.765   2.066  1.1729  2.1758 -1.6839
 5382SOL    HW227609   1.812   1.654   1.960  1.3196  1.5648 -1.5052
 5383SOL     OW27610   0.798   3.738   6.586 -0.7871  0.3705 -0.2012
 5383SOL    HW127611   0.836   3.655   6.613 -4.2694 -0.9910  0.4041
 5383SOL    HW227612   0.802   3.730   6.491 -0.2420  3.1424 -0.4278
 5384SOL     OW27613   1.076   3.647   1.620 -0.2191  0.1623 -0.0743
 5384SOL    HW127614   1.129   3.568   1.624 -2.9112 -1.5596  1.8014
 5384SOL    HW227615   1.046   3.653   1.529 -0.4981  0.2755  0.0234
 5385SOL     OW27616   3.293   0.797   8.215  0.5941  0.4519 -0.0475
 5385SOL    HW127617   3.214   0.784   8.267  0.6069 -1.5279 -0.5289
 5385SOL    HW227618   3.305   0.892   8.221  1.1730  0.2790  1.3344
 5386SOL     OW27619   0.939   3.427  16.027  0.2832 -0.0276  0.9229
 5386SOL    HW127620   0.910   3.462  16.112  1.0683  1.4573  0.5835
 5386SOL    HW227621   0.860   3.435  15.974  1.0431 -1.1613 -0.3594
 5387SOL     OW27622   1.749   1.625   6.064  0.2517  0.5462 -0.5561
 5387SOL    HW127623   1.663   1.582   6.061  0.0366  0.8203  1.1938
 5387SOL    HW227624   1.778   1.603   5.976  1.2812  1.4506 -0.4357
 5388SOL     OW27625   2.242   3.842   5.458  0.0102  0.1747 -0.4653
 5388SOL    HW127626   2.178   3.776   5.430 -0.0154  0.3412 -0.7904
 5388SOL    HW227627   2.286   3.786   5.523  0.6123  0.9912 -0.1770
 5389SOL     OW27628   3.369   1.103   7.963 -0.2941  0.2289  1.1811
 5389SOL    HW127629   3.439   1.153   7.922 -0.3673  0.0181  0.7994
 5389SOL    HW227630   3.303   1.172   7.959 -1.4808 -1.0017 -0.6944
 5390SOL     OW27631   2.447   1.023  16.764  0.4472  0.2638  0.1633
 5390SOL    HW127632   2.362   0.982  16.781  0.0824  0.1058 -2.1231
 5390SOL    HW227633   2.490   0.977  16.836  1.1149  1.5526  0.5795
 5391SOL     OW27634   2.150   0.995  13.640  0.0871  0.0978  0.8528
 5391SOL    HW127635   2.193   1.077  13.614  0.1088  0.0418  0.7129
 5391SOL    HW227636   2.065   1.024  13.673  0.0025  0.4412  0.3269
 5392SOL     OW27637   2.024   3.562   3.127  0.0194 -0.2064  0.3810
 5392SOL    HW127638   1.934   3.592   3.115  0.0684  0.5288  1.7853
 5392SOL    HW227639   2.018   3.471   3.098  0.0786 -0.4348  1.0930
 5393SOL     OW27640   3.412   3.220   4.133  0.3110  0.0698  0.0652
 5393SOL    HW127641   3.363   3.185   4.059  1.2167 -0.1292 -0.4414
 5393SOL    HW227642   3.403   3.156   4.204 -1.5448  0.7882  0.4578
 5394SOL     OW27643   4.377   3.253   4.870 -0.4926  0.0410 -0.2577
 5394SOL    HW127644   4.286   3.239   4.845 -0.5334  0.9081 -0.6154
 5394SOL    HW227645   4.361   3.287   4.958  1.5183  2.4128 -0.8126
 5395SOL     OW27646   3.336   4.504  10.059 -0.0768 -0.0241  0.1546
 5395SOL    HW127647   3.371   4.563   9.992 -0.9406  0.0840 -0.2049
 5395SOL    HW227648   3.401   4.527  10.124 -1.3877  0.3004  1.3413
 5396SOL     OW27649   3.484   1.631  12.031  0.2375 -0.1697  0.4241
 5396SOL    HW127650   3.421   1.657  11.964  3.6690  2.2703 -1.8735
 5396SOL    HW227651   3.417   1.626  12.099  1.0075  0.4132  1.2340
 5397SOL     OW27652   2.203   4.425  10.191 -0.3576  0.1845  0.5753
 5397SOL    HW127653   2.182   4.465  10.275  0.2532  1.7753 -0.0236
 5397SOL    HW227654   2.231   4.339  10.221 -1.0186  0.1303  1.0471
 5398SOL     OW27655   2.190   3.995   6.719  0.3957 -0.4647  0.0827
 5398SOL    HW127656   2.190   3.995   6.814  2.8679 -2.0211  0.0735
 5398SOL    HW227657   2.117   3.937   6.696  0.3571 -0.5948  0.5490
 5399SOL     OW27658   0.136   2.882   0.347  0.1038 -0.1883 -0.0126
 5399SOL    HW127659   0.118   2.898   0.440 -0.0194  1.7664 -0.3765
 5399SOL    HW227660   0.148   2.975   0.329 -1.4198  0.0404  0.1680
 5400SOL     OW27661   1.942   1.510   6.219 -0.8472  0.3025  0.5766
 5400SOL    HW127662   1.860   1.550   6.190 -0.8998  0.1309  0.4928
 5400SOL    HW227663   1.992   1.588   6.242  1.1479 -1.1233  1.0449
 5401SOL     OW27664   1.551   3.064   4.451 -0.5510 -0.1005 -0.5593
 5401SOL    HW127665   1.572   3.117   4.374  1.4108  0.6670  0.5307
 5401SOL    HW227666   1.508   3.127   4.508  0.8397  0.9778 -0.7110
 5402SOL     OW27667   1.146   4.635   3.559 -0.0150  0.0553 -0.0074
 5402SOL    HW127668   1.213   4.573   3.531 -1.0468 -1.6485  1.2479
 5402SOL    HW227669   1.066   4.582   3.555 -1.2433  1.9605 -0.5394
 5403SOL     OW27670   0.536   3.051  13.764  0.0286 -0.5303  0.2315
 5403SOL    HW127671   0.571   2.968  13.796  0.9900 -0.2559 -0.0773
 5403SOL    HW227672   0.445   3.027  13.778 -0.0751  0.0856  0.5964
 5404SOL     OW27673   1.852   0.036   5.284  0.0914  0.1568 -0.4613
 5404SOL    HW127674   1.836   0.040   5.378 -1.6722 -0.7139 -0.7232
 5404SOL    HW227675   1.948   0.036   5.282  0.0771  1.5475 -0.8790
 5405SOL     OW27676   2.314   4.633  10.892  0.0466  0.2996  0.1309
 5405SOL    HW127677   2.400   4.594  10.906 -0.3296 -0.1749  1.0515
 5405SOL    HW227678   2.270   4.567  10.839 -0.0340 -0.1591  0.7731
 5406SOL     OW27679   4.367   2.957   7.051 -0.0258  0.7403 -0.2446
 5406SOL    HW127680   4.437   2.914   7.002  1.0277 -0.1275  2.0234
 5406SOL    HW227681   4.401   2.952   7.140 -0.6435  2.0795  0.0708
 5407SOL     OW27682   1.527   3.124   6.887  0.5392 -0.0852  0.3744
 5407SOL    HW127683   1.527   3.135   6.982 -1.2826  1.2337  0.2188
 5407SOL    HW227684   1.444   3.076   6.884 -0.2248  1.2023  1.2627
 5408SOL     OW27685   4.620   1.235  16.460 -0.1222 -0.4690  0.1985
 5408SOL    HW127686   4.596   1.157  16.411  0.8477 -0.2082 -0.6762
 5408SOL    HW227687   4.685   1.267  16.398 -2.2490  3.1917 -0.1912
 5409SOL     OW27688   3.050   2.276   3.799  0.0766  0.4577  0.0792
 5409SOL    HW127689   2.964   2.235   3.807  0.3571  0.2616  2.1930
 5409SOL    HW227690   3.073   2.269   3.892  1.9679  2.4550 -0.2401
 5410SOL     OW27691   4.191   4.210   9.669  0.5418 -0.2542  0.1680
 5410SOL    HW127692   4.136   4.168   9.735  1.3330  1.5623  1.9619
 5410SOL    HW227693   4.235   4.277   9.722 -2.4797  1.3123  0.6946
 5411SOL     OW27694   3.327   3.470   1.329 -0.1350 -0.2213  0.7758
 5411SOL    HW127695   3.270   3.535   1.287  0.7691 -2.1138 -3.3313
 5411SOL    HW227696   3.334   3.401   1.263 -2.1134  0.4384 -0.1403
 5412SOL     OW27697   2.383   3.466  15.128  0.0896  0.0867  0.5181
 5412SOL    HW127698   2.425   3.519  15.195  0.4531  1.9570 -1.1828
 5412SOL    HW227699   2.365   3.521  15.052  0.3335  0.8521  1.0183
 5413SOL     OW27700   3.630   4.503   7.242 -0.2766 -0.3691 -0.1591
 5413SOL    HW127701   3.671   4.532   7.323 -0.0387  2.2103 -1.2009
 5413SOL    HW227702   3.602   4.586   7.203  0.3496 -0.3886 -0.6553
 5414SOL     OW27703   2.789   1.512   1.383  0.5506 -0.4591 -0.3457
 5414SOL    HW127704   2.767   1.515   1.290  0.7749 -0.8919 -0.4121
 5414SOL    HW227705   2.707   1.496   1.429  0.4458  0.5370 -0.1940
 5415SOL     OW27706   1.062   1.964  11.940 -0.0776 -0.0909  0.0353
 5415SOL    HW127707   1.014   1.989  11.861  0.5530  0.6133 -0.1218
 5415SOL    HW227708   1.115   2.039  11.966 -0.3427  0.3415 -0.6715
 5416SOL     OW27709   0.668   0.441   7.196 -0.5017  0.4846  0.6416
 5416SOL    HW127710   0.580   0.417   7.225  0.1124 -1.3419  1.0091
 5416SOL    HW227711   0.692   0.384   7.123 -0.1475 -0.3165  1.3740
 5417SOL     OW27712   0.925   2.962   8.447  0.9854  0.0248 -0.4429
 5417SOL    HW127713   0.920   2.915   8.530  0.0265 -2.8750 -2.1501
 5417SOL    HW227714   0.846   2.932   8.402  0.6433 -0.9842  0.8164
 5418SOL     OW27715   3.851   1.000   5.150 -0.0995 -0.0942  0.3776
 5418SOL    HW127716   3.927   0.985   5.093  1.1699  1.2150  1.6987
 5418SOL    HW227717   3.801   0.918   5.155 -0.8602  0.3452 -0.1384
 5419SOL     OW27718   1.509   0.144   6.447 -0.0306  0.0148  0.1724
 5419SOL    HW127719   1.504   0.172   6.538  0.2547 -1.0997  0.5389
 5419SOL    HW227720   1.458   0.063   6.450 -1.2693  0.8829  2.5240
 5420SOL     OW27721   4.104   3.583   9.413 -1.4053  0.0761 -0.2008
 5420SOL    HW127722   4.023   3.632   9.422  0.3979  2.9689  0.0287
 5420SOL    HW227723   4.163   3.656   9.431 -1.0212 -0.4358  0.6241
 5421SOL     OW27724   2.958   1.183   1.629  0.4050 -0.0870  0.0148
 5421SOL    HW127725   2.883   1.129   1.603  0.6562  0.2673 -1.4936
 5421SOL    HW227726   2.937   1.195   1.721  0.5546  0.3396 -0.0069
 5422SOL     OW27727   0.156   3.396   6.368 -0.4367 -0.2023 -0.3960
 5422SOL    HW127728   0.138   3.332   6.437 -1.5060 -1.0692 -1.4683
 5422SOL    HW227729   0.119   3.478   6.399 -2.3491 -2.3354  2.9182
 5423SOL     OW27730   2.943   3.311  11.225  0.2444  0.1063 -0.3817
 5423SOL    HW127731   2.932   3.240  11.163  0.8297 -0.8999  0.6721
 5423SOL    HW227732   2.865   3.297  11.279  1.5632  0.3488  1.5882
 5424SOL     OW27733   3.235   2.773   3.792  0.0153  0.6883 -0.5054
 5424SOL    HW127734   3.162   2.830   3.769 -0.8721 -0.7747 -1.3736
 5424SOL    HW227735   3.182   2.716   3.849  1.1224  1.4737  1.3136
 5425SOL     OW27736   4.406   4.657   3.037 -0.0972  0.8482 -0.4025
 5425SOL    HW127737   4.453   4.621   2.961  0.2367 -1.5856  0.9459
 5425SOL    HW227738   4.406   0.021   3.004  1.7275  0.0717 -2.5446
 5426SOL     OW27739   2.782   2.221   7.160  0.0684 -1.1059  0.0592
 5426SOL    HW127740   2.699   2.248   7.200  0.3797  0.0798 -0.0984
 5426SOL    HW227741   2.764   2.193   7.071  0.8445 -0.4110 -0.3170
 5427SOL     OW27742   1.851   1.845   2.192  0.5679 -0.3664 -0.5512
 5427SOL    HW127743   1.872   1.778   2.257 -0.7485 -2.5227 -2.3631
 5427SOL    HW227744   1.919   1.907   2.218 -1.9106  0.9590  2.7629
 5428SOL     OW27745   4.250   1.407   8.554 -0.4068 -0.7138  0.6991
 5428SOL    HW127746   4.305   1.367   8.488  0.4022 -0.6262  1.3252
 5428SOL    HW227747   4.212   1.480   8.505 -0.6652 -0.2727  1.5343
 5429SOL     OW27748   3.250   2.872   5.631  0.3781 -0.0908  0.2605
 5429SOL    HW127749   3.235   2.933   5.703 -0.3029  0.7321 -0.5801
 5429SOL    HW227750   3.345   2.858   5.638  0.8622  1.8986 -2.2054
 5430SOL     OW27751   2.523   2.464   9.131 -0.6371 -0.2284 -0.2452
 5430SOL    HW127752   2.521   2.554   9.164 -1.9366  0.1199 -1.2842
 5430SOL    HW227753   2.523   2.414   9.212 -0.2412  1.2699  0.6906
 5431SOL     OW27754   2.109   3.794  12.545  0.0835  0.5304  0.0450
 5431SOL    HW127755   2.041   3.761  12.486  1.3438 -0.7547 -0.6711
 5431SOL    HW227756   2.060   3.790  12.628 -1.1430  0.8770 -0.6581
 5432SOL     OW27757   4.152   1.448   3.749 -0.3418 -0.0002 -0.0464
 5432SOL    HW127758   4.214   1.389   3.707  1.1454  0.9892  0.7897
 5432SOL    HW227759   4.110   1.393   3.815  1.2147 -1.1391 -0.0034
 5433SOL     OW27760   1.011   1.240  10.142  0.7753 -0.6389 -0.1155
 5433SOL    HW127761   0.991   1.225  10.234 -3.0832  1.4826 -0.6138
 5433SOL    HW227762   0.932   1.209  10.098  2.2594 -1.3191 -2.3202
 5434SOL     OW27763   3.208   4.289  10.014 -0.2499 -0.1091  0.0118
 5434SOL    HW127764   3.262   4.357  10.054  0.3329 -0.5985  0.0612
 5434SOL    HW227765   3.271   4.251   9.952  1.1200  2.2959 -0.0875
 5435SOL     OW27766   3.938   3.263   4.232  0.4567  0.2179 -0.0413
 5435SOL    HW127767   3.885   3.287   4.156  0.0633 -2.3382 -0.5547
 5435SOL    HW227768   4.016   3.314   4.206  1.7274 -1.4322  0.5360
 5436SOL     OW27769   0.345   1.511  13.521  0.3404  0.2497  0.1123
 5436SOL    HW127770   0.273   1.555  13.477  1.0810 -0.8063 -2.1774
 5436SOL    HW227771   0.331   1.554  13.605  0.7410 -0.1470  0.3836
 5437SOL     OW27772   1.891   0.471   3.616  0.4931  0.2550 -0.7638
 5437SOL    HW127773   1.952   0.409   3.575  0.6880  1.8580 -2.9005
 5437SOL    HW227774   1.910   0.544   3.557  1.2721 -0.6508 -1.6354
 5438SOL     OW27775   3.160   3.397  17.029 -0.3771  0.4107  0.2021
 5438SOL    HW127776   3.087   3.389  16.968  0.6581 -0.0556 -1.0040
 5438SOL    HW227777   3.233   3.392  16.967 -0.5932  0.0259 -0.0197
 5439SOL     OW27778   0.157   0.909   7.085 -0.4884 -0.4327  0.7413
 5439SOL    HW127779   0.245   0.872   7.075 -0.4281 -1.0794  3.8415
 5439SOL    HW227780   0.127   0.878   7.170 -1.4699 -0.4378  0.3973
 5440SOL     OW27781   4.379   2.174   0.117  0.7643 -0.3865  0.1566
 5440SOL    HW127782   4.355   2.083   0.131  1.2407 -0.4389  0.6336
 5440SOL    HW227783   4.464   2.177   0.161  1.1059 -2.4979 -0.3958
 5441SOL     OW27784   2.883   1.512   4.946  0.1441 -0.2076  0.3911
 5441SOL    HW127785   2.937   1.479   5.019  1.5827 -0.5458 -0.8321
 5441SOL    HW227786   2.822   1.442   4.922 -0.5597  0.9845 -1.2446
 5442SOL     OW27787   1.594   2.376  14.890  0.3261 -0.1172 -0.5148
 5442SOL    HW127788   1.618   2.355  14.980 -0.1592 -0.9076 -0.5716
 5442SOL    HW227789   1.661   2.434  14.854  0.2423  0.3539  0.0837
 5443SOL     OW27790   0.202   0.331   7.546  0.2819 -0.5768 -0.5530
 5443SOL    HW127791   0.200   0.423   7.522 -2.0559 -0.5670 -0.2815
 5443SOL    HW227792   0.111   0.318   7.574  0.2039 -1.5319 -1.2264
 5444SOL     OW27793   2.661   3.852   5.499  0.4582 -0.3390 -0.4313
 5444SOL    HW127794   2.574   3.885   5.477  0.1098 -0.9548  0.0177
 5444SOL    HW227795   2.701   3.856   5.412 -0.5593  0.6425 -0.8545
 5445SOL     OW27796   2.124   3.563  12.827  0.0690  0.3742  0.3501
 5445SOL    HW127797   2.087   3.651  12.834 -1.9371 -0.3012 -1.7736
 5445SOL    HW227798   2.049   3.508  12.850 -0.0090 -0.4603 -1.9909
 5446SOL     OW27799   2.283   0.689   7.838 -0.0900 -0.3317  0.3225
 5446SOL    HW127800   2.228   0.690   7.916 -0.4336  0.7648  0.0631
 5446SOL    HW227801   2.332   0.771   7.841  1.2005 -1.1188  0.6268
 5447SOL     OW27802   0.997   2.050   0.782  0.0693  0.1448  0.1355
 5447SOL    HW127803   0.982   2.129   0.730  0.0345 -0.2501 -0.4475
 5447SOL    HW227804   1.031   2.086   0.864  1.5597 -2.9726  0.9042
 5448SOL     OW27805   2.634   2.263   5.657 -0.1163  0.5137  0.3859
 5448SOL    HW127806   2.590   2.187   5.694 -1.8511 -0.0006 -2.7435
 5448SOL    HW227807   2.564   2.328   5.663  0.1672  0.7671  0.9128
 5449SOL     OW27808   1.983   3.985  17.251  0.1981 -0.0752  0.3295
 5449SOL    HW127809   2.069   4.022  17.230 -0.1513 -0.8930 -2.6027
 5449SOL    HW227810   1.991   3.915  17.186  1.7172  0.2989  0.1187
 5450SOL     OW27811   1.141   1.943  15.207  0.4942  0.3340  0.1927
 5450SOL    HW127812   1.152   1.963  15.300 -3.7979 -1.8428  1.1513
 5450SOL    HW227813   1.230   1.924  15.177 -0.0888 -0.9182 -0.7293
 5451SOL     OW27814   1.097   0.158   7.958 -0.0003 -0.5376  0.4031
 5451SOL    HW127815   1.116   0.072   7.922  4.2957  0.4728  0.1827
 5451SOL    HW227816   1.176   0.168   8.012  0.1631 -1.7221  0.3926
 5452SOL     OW27817   4.687   2.470  15.833  0.2647 -0.5643  0.0622
 5452SOL    HW127818   0.004   2.402  15.781 -0.7422 -0.0132 -1.5104
 5452SOL    HW227819   0.019   2.538  15.796  0.3915 -0.6928  0.0220
 5453SOL     OW27820   0.033   0.824  15.582 -0.1504 -0.4533 -0.1884
 5453SOL    HW127821   0.003   0.766  15.513  2.3756  0.6810 -2.2308
 5453SOL    HW227822   4.711   0.907  15.578  2.3596  1.0204  0.1560
 5454SOL     OW27823   1.767   1.197  11.586 -0.3852  0.2907  0.3346
 5454SOL    HW127824   1.723   1.268  11.540 -1.7206 -0.7248  0.0316
 5454SOL    HW227825   1.733   1.212  11.674  1.5978 -0.5494  1.2456
 5455SOL     OW27826   3.674   1.356   2.299  0.1755  0.3534  0.0613
 5455SOL    HW127827   3.705   1.404   2.375  0.9891  0.3086 -0.2498
 5455SOL    HW227828   3.639   1.427   2.244  1.1727  1.7292  1.2122
 5456SOL     OW27829   3.895   3.621   4.861  0.3471 -0.0879  0.4914
 5456SOL    HW127830   3.963   3.592   4.923  0.3391 -2.1950 -0.5034
 5456SOL    HW227831   3.813   3.607   4.909  0.2665  1.3664  0.7849
 5457SOL     OW27832   3.342   2.961   2.325  0.1447 -0.2912  0.2454
 5457SOL    HW127833   3.416   2.981   2.267 -2.1801  0.2869 -2.4682
 5457SOL    HW227834   3.312   2.880   2.283 -0.3941  0.4263 -0.7450
 5458SOL     OW27835   0.243   4.300  16.343 -0.1793 -0.4381 -0.4299
 5458SOL    HW127836   0.237   4.283  16.437  2.1721 -0.4989 -0.2875
 5458SOL    HW227837   0.321   4.354  16.335 -0.9005  0.9119  1.4789
 5459SOL     OW27838   4.417   0.016   1.976 -0.2756  0.1473  0.5327
 5459SOL    HW127839   4.498   0.039   2.022 -0.1733 -0.4169  0.6442
 5459SOL    HW227840   4.362   0.022   2.054  0.4014  1.4738  0.9165
 5460SOL     OW27841   2.695   2.819   2.906  0.2152  0.0750  0.6199
 5460SOL    HW127842   2.717   2.912   2.906 -0.7237  0.2979  1.3842
 5460SOL    HW227843   2.715   2.805   2.999  1.5342  0.6203  0.4168
 5461SOL     OW27844   2.733   0.243   8.112 -0.1395  0.3620  0.4038
 5461SOL    HW127845   2.702   0.287   8.192 -0.6256 -0.3114  0.5885
 5461SOL    HW227846   2.708   0.156   8.143 -1.0611  0.8218  0.9401
 5462SOL     OW27847   1.737   0.224  11.870 -0.3807 -0.4279  0.1961
 5462SOL    HW127848   1.768   0.133  11.874  0.1721 -0.2561 -0.1281
 5462SOL    HW227849   1.712   0.231  11.777 -0.7196  0.0715  0.3239
 5463SOL     OW27850   1.180   3.803  11.221  0.0903 -0.0026  0.0587
 5463SOL    HW127851   1.177   3.724  11.275 -0.3976 -0.7947 -1.1356
 5463SOL    HW227852   1.220   3.767  11.142 -1.7559 -1.9585  0.0148
 5464SOL     OW27853   2.109   4.599   6.936  0.2185  0.0916 -0.0290
 5464SOL    HW127854   2.063   4.658   6.876  1.2880 -0.5312 -1.4816
 5464SOL    HW227855   2.064   4.516   6.920 -1.0133  1.0373 -1.4209
 5465SOL     OW27856   0.821   3.089   2.159 -1.0928  0.2332 -0.1261
 5465SOL    HW127857   0.740   3.139   2.167 -0.6463  1.2270 -1.9000
 5465SOL    HW227858   0.782   3.003   2.145 -0.2449 -0.0288 -0.8599
 5466SOL     OW27859   4.602   1.815  13.954 -0.3933  0.1708 -0.0162
 5466SOL    HW127860   4.623   1.902  13.920  1.7395 -0.6418 -0.7504
 5466SOL    HW227861   4.507   1.811  13.945 -0.3895  1.3196 -0.4801
 5467SOL     OW27862   2.188   3.000  12.012  0.2078 -0.5542  0.7622
 5467SOL    HW127863   2.105   2.952  12.006 -0.2719  0.2220  1.1950
 5467SOL    HW227864   2.228   2.969  12.093 -0.6424  0.3119  1.5204
 5468SOL     OW27865   0.578   1.207   8.075  0.3728 -0.5240  0.2266
 5468SOL    HW127866   0.643   1.237   8.139 -0.4502 -1.6443  1.5928
 5468SOL    HW227867   0.532   1.148   8.135  1.0584 -0.4571  0.8173
 5469SOL     OW27868   0.055   3.306   0.494 -0.0833 -0.1540 -0.1472
 5469SOL    HW127869   0.042   3.254   0.572  1.6777  1.2193  1.0611
 5469SOL    HW227870   0.117   3.247   0.451  1.0387 -0.2108  1.5776
 5470SOL     OW27871   0.732   0.998   6.737 -0.3541 -0.4782 -0.1977
 5470SOL    HW127872   0.639   1.013   6.718  0.0267  0.8633 -0.9362
 5470SOL    HW227873   0.733   1.014   6.831 -0.2213 -1.1668 -0.0770
 5471SOL     OW27874   0.561   2.468   2.309 -0.0203  0.1998  0.6114
 5471SOL    HW127875   0.655   2.489   2.308 -0.1693  0.6634 -1.9116
 5471SOL    HW227876   0.559   2.410   2.234 -3.8086  0.7524  0.2876
 5472SOL     OW27877   2.308   1.475   2.848 -0.0215 -0.7869  0.5805
 5472SOL    HW127878   2.272   1.525   2.774 -0.2244 -2.4578 -0.4578
 5472SOL    HW227879   2.352   1.537   2.906  0.6621 -0.3774 -0.3767
 5473SOL     OW27880   1.659   2.030   7.882 -0.1860 -0.4947  0.8429
 5473SOL    HW127881   1.588   1.966   7.889 -2.2136  1.9024  2.1066
 5473SOL    HW227882   1.631   2.085   7.809  0.0010  0.6681  1.6482
 5474SOL     OW27883   1.944   3.260  15.457  0.2008 -0.1923 -0.1935
 5474SOL    HW127884   1.927   3.224  15.370  0.5233 -2.2189  0.5834
 5474SOL    HW227885   1.957   3.180  15.508 -1.5817 -1.4345 -1.6690
 5475SOL     OW27886   2.484   2.231   3.883  0.3339  0.8512  0.1621
 5475SOL    HW127887   2.409   2.261   3.935 -0.1657  0.1409 -0.1499
 5475SOL    HW227888   2.425   2.203   3.813 -0.5523 -0.5977  1.4693
 5476SOL     OW27889   2.377   2.401   4.771  0.5108  0.1214  0.1043
 5476SOL    HW127890   2.408   2.338   4.707 -1.0068 -1.3374  0.8168
 5476SOL    HW227891   2.284   2.378   4.776  0.4225  0.3934 -0.2686
 5477SOL     OW27892   3.273   3.610   9.429  0.1594 -0.3366 -0.2299
 5477SOL    HW127893   3.313   3.527   9.458 -0.3598 -0.7384 -0.6577
 5477SOL    HW227894   3.287   3.664   9.506 -0.6403 -0.4523 -0.0115
 5478SOL     OW27895   4.288   2.548   4.286 -0.4510  0.4264  0.4200
 5478SOL    HW127896   4.237   2.522   4.209  2.3243 -0.7003 -1.0645
 5478SOL    HW227897   4.339   2.622   4.255  2.7947 -1.8541  0.3040
 5479SOL     OW27898   2.830   4.144   7.895  0.0315  0.2443  0.0849
 5479SOL    HW127899   2.848   4.237   7.891 -0.1353  0.2652 -0.1660
 5479SOL    HW227900   2.747   4.145   7.848  0.2652  0.5625 -0.3185
 5480SOL     OW27901   2.095   3.827   2.885 -0.1737 -0.2115  0.0328
 5480SOL    HW127902   2.153   3.770   2.834 -0.6363 -0.9532  0.3444
 5480SOL    HW227903   2.012   3.798   2.846 -0.2936  1.8131 -1.2235
 5481SOL     OW27904   3.434   1.088   4.239 -0.3277 -0.0753  0.4095
 5481SOL    HW127905   3.486   1.106   4.317 -1.8061 -2.0012  1.8398
 5481SOL    HW227906   3.400   1.176   4.223 -1.0618 -0.5684 -0.7791
 5482SOL     OW27907   0.739   4.179   7.266  0.0848  0.0335 -0.2116
 5482SOL    HW127908   0.678   4.183   7.339  4.0120  1.0052  3.0328
 5482SOL    HW227909   0.788   4.257   7.292 -1.1403  0.9897 -0.7975
 5483SOL     OW27910   1.234   0.250   8.567 -0.3814 -0.7919  0.5129
 5483SOL    HW127911   1.175   0.271   8.495 -0.2242 -0.5908  0.4426
 5483SOL    HW227912   1.169   0.193   8.608 -2.8789  1.6249 -0.1151
 5484SOL     OW27913   3.127   0.136   2.619  0.0916 -0.0741 -0.3487
 5484SOL    HW127914   3.220   0.161   2.617 -0.4838  2.1170 -0.4010
 5484SOL    HW227915   3.126   0.043   2.638 -0.3832 -0.3832 -1.9750
 5485SOL     OW27916   0.252   1.331   7.361 -0.3694 -0.1964  0.4058
 5485SOL    HW127917   0.218   1.408   7.406  0.3913  0.7162 -0.6006
 5485SOL    HW227918   0.344   1.340   7.386  0.6790  0.0585 -3.6106
 5486SOL     OW27919   4.074   1.893  12.144  0.6134 -0.1608 -0.1798
 5486SOL    HW127920   4.074   1.899  12.240  1.3946  0.8978 -0.2389
 5486SOL    HW227921   4.033   1.976  12.121  0.7566 -0.0870 -0.1747
 5487SOL     OW27922   1.904   1.954   5.495  0.1801 -0.6178  0.5038
 5487SOL    HW127923   1.908   1.905   5.578 -1.2197 -1.1602  0.2352
 5487SOL    HW227924   1.972   1.917   5.438 -0.1306  0.7295 -0.7343
 5488SOL     OW27925   0.393   2.177  14.446  0.2814 -0.0732  0.7068
 5488SOL    HW127926   0.484   2.147  14.449  0.7543  1.2575 -0.0179
 5488SOL    HW227927   0.390   2.260  14.398  0.4325  0.4503  1.6074
 5489SOL     OW27928   3.616   2.985   5.584  0.0117 -0.0568  0.2023
 5489SOL    HW127929   3.586   2.924   5.652  0.6363  1.1961  1.6177
 5489SOL    HW227930   3.604   2.917   5.518  1.9167  1.1166 -1.3264
 5490SOL     OW27931   3.955   1.403   8.338  0.3188 -0.0721  0.0437
 5490SOL    HW127932   3.925   1.359   8.418 -0.8106 -1.4178 -1.1242
 5490SOL    HW227933   3.937   1.336   8.273  1.0407  3.6083 -3.9285
 5491SOL     OW27934   4.126   3.252  13.133  0.3513  0.0689  0.0515
 5491SOL    HW127935   4.134   3.285  13.223 -0.5241 -1.2310  0.6053
 5491SOL    HW227936   4.051   3.304  13.104 -0.4833 -1.3059 -0.2745
 5492SOL     OW27937   2.948   3.112   3.522  0.4491 -0.1359  0.3841
 5492SOL    HW127938   2.875   3.167   3.551  1.1657  1.1213 -0.2176
 5492SOL    HW227939   2.928   3.075   3.436 -0.9622 -0.2009  0.7340
 5493SOL     OW27940   2.110   1.249   5.483 -0.3972 -0.1928  0.2506
 5493SOL    HW127941   2.049   1.259   5.556  0.9791 -0.5952  1.4329
 5493SOL    HW227942   2.080   1.320   5.426 -2.8037 -1.2304  0.1989
 5494SOL     OW27943   2.818   1.109   8.561 -0.0250  0.0748  0.4394
 5494SOL    HW127944   2.844   1.125   8.652  0.2516 -0.1118  0.3918
 5494SOL    HW227945   2.873   1.033   8.543  1.8382  1.3290  0.8535
 5495SOL     OW27946   3.715   2.858   4.667  0.2151 -0.6388 -0.2390
 5495SOL    HW127947   3.727   2.775   4.621 -0.2799  0.0975 -1.6997
 5495SOL    HW227948   3.805   2.890   4.661  0.5228 -2.0113 -2.6021
 5496SOL     OW27949   1.945   1.584   5.155  0.3708 -0.0914 -0.4182
 5496SOL    HW127950   1.959   1.540   5.239 -1.0192  1.9320  0.8984
 5496SOL    HW227951   1.909   1.520   5.094  2.2130 -1.1762 -0.3335
 5497SOL     OW27952   2.500   4.021  15.301  0.5496 -0.0577  0.2062
 5497SOL    HW127953   2.532   4.108  15.277  0.9025 -0.8595 -2.1933
 5497SOL    HW227954   2.514   4.028  15.396 -0.8739 -2.6036  0.6050
 5498SOL     OW27955   3.111   2.185  15.148 -0.2459  0.2389  0.0593
 5498SOL    HW127956   3.135   2.179  15.055 -0.9513 -1.9778  0.0304
 5498SOL    HW227957   3.022   2.150  15.152  1.4396 -4.2222 -1.1175
 5499SOL     OW27958   3.561   2.136   8.173 -0.6578  0.1117  0.3411
 5499SOL    HW127959   3.590   2.118   8.084 -1.3152 -1.0743  0.3704
 5499SOL    HW227960   3.470   2.107   8.166 -0.7844 -0.0755  2.5823
 5500SOL     OW27961   1.270   1.572  16.868 -0.2257 -0.2789  0.0409
 5500SOL    HW127962   1.267   1.492  16.814 -0.7453 -1.1887  1.4162
 5500SOL    HW227963   1.290   1.534  16.954  1.5217 -2.4227 -1.2919
 5501SOL     OW27964   2.155   0.470   0.530  0.4078  0.2570  0.2852
 5501SOL    HW127965   2.118   0.510   0.452  3.2695  1.2517 -0.5710
 5501SOL    HW227966   2.201   0.400   0.483  1.9461  0.7206  1.0834
 5502SOL     OW27967   3.196   4.277   7.858  0.2203  0.1655  0.1457
 5502SOL    HW127968   3.171   4.319   7.940 -1.3349 -1.7151  0.6300
 5502SOL    HW227969   3.203   4.185   7.884  5.1585  0.1162 -1.3972
 5503SOL     OW27970   3.444   4.267  13.006 -0.0671  0.0084  0.4063
 5503SOL    HW127971   3.513   4.333  13.008  0.2452 -0.3503  1.4877
 5503SOL    HW227972   3.372   4.308  13.053  0.4912  1.0096  0.3853
 5504SOL     OW27973   4.583   0.557   3.511  0.2516  0.1299 -0.3043
 5504SOL    HW127974   4.508   0.501   3.530  1.8773 -1.6586  0.8556
 5504SOL    HW227975   4.625   0.504   3.444 -0.4548  0.1924 -0.7963
 5505SOL     OW27976   3.523   0.933   0.637  0.4253  0.1350  0.2251
 5505SOL    HW127977   3.600   0.892   0.676  0.4554  1.3822  1.4999
 5505SOL    HW227978   3.451   0.886   0.679  0.2127  0.8689  0.6883
 5506SOL     OW27979   3.920   1.528   3.116  0.0062  0.2577  0.3972
 5506SOL    HW127980   4.001   1.490   3.084  0.4022  0.2271  1.4260
 5506SOL    HW227981   3.877   1.568   3.041  0.5726  0.8161  0.3678
 5507SOL     OW27982   1.010   1.035   3.191  0.0475  0.0699 -0.5798
 5507SOL    HW127983   0.930   1.027   3.243 -0.6499 -0.8981 -1.7875
 5507SOL    HW227984   0.967   1.083   3.121 -1.5851 -0.2280  0.2181
 5508SOL     OW27985   1.814   0.059   9.673 -0.0068  0.0233 -0.1061
 5508SOL    HW127986   1.872   0.020   9.608 -0.7595 -1.3831  0.0525
 5508SOL    HW227987   1.826   4.725   9.747  1.2140 -1.0131 -1.1341
 5509SOL     OW27988   2.301   2.504  16.400 -0.0731  0.4155  0.1057
 5509SOL    HW127989   2.387   2.472  16.373 -0.0441  1.9014 -1.6379
 5509SOL    HW227990   2.288   2.430  16.458  0.0878 -1.4408 -2.2159
 5510SOL     OW27991   1.469   1.601   1.233  0.2215  0.5003  0.2461
 5510SOL    HW127992   1.418   1.523   1.211  0.1536  0.7797 -0.6097
 5510SOL    HW227993   1.558   1.566   1.234  0.3366  0.7289 -1.9646
 5511SOL     OW27994   0.730   0.835   6.321  0.1798 -0.0339  0.3794
 5511SOL    HW127995   0.677   0.837   6.241 -0.9983 -0.9928  1.1385
 5511SOL    HW227996   0.741   0.929   6.334 -2.5496  0.2274  0.8643
 5512SOL     OW27997   2.062   1.374   3.964  0.3827  0.1079  0.8000
 5512SOL    HW127998   2.110   1.352   3.885  1.2082 -1.4073  1.7167
 5512SOL    HW227999   1.982   1.328   3.938  0.9559 -1.3540  1.6169
 5513SOL     OW28000   3.066   4.698   6.660 -0.0137  0.1590 -0.2069
 5513SOL    HW128001   3.011   4.620   6.666 -1.2168  0.9982 -0.2195
 5513SOL    HW228002   3.059   0.011   6.748 -1.6645 -0.5353 -0.0339
 5514SOL     OW28003   2.149   1.529  11.192  0.2933  0.0552  0.2755
 5514SOL    HW128004   2.218   1.560  11.251  0.2793 -1.9607  1.3343
 5514SOL    HW228005   2.154   1.591  11.119 -4.6789  0.4065  0.2318
 5515SOL     OW28006   0.511   0.255   1.959 -0.1105 -0.5334 -0.2982
 5515SOL    HW128007   0.469   0.170   1.974  0.4124 -0.5069  1.3213
 5515SOL    HW228008   0.466   0.284   1.880  0.5139  0.5835 -0.2422
 5516SOL     OW28009   2.183   1.405   3.118  0.4963  0.4918  0.7681
 5516SOL    HW128010   2.176   1.467   3.191  1.4029 -0.8291  1.9652
 5516SOL    HW228011   2.278   1.400   3.126  0.2227 -2.3631  2.1037
 5517SOL     OW28012   0.104   3.855   6.848 -0.3300 -0.0437  0.1024
 5517SOL    HW128013   0.170   3.802   6.892 -1.6142 -1.1654  0.6689
 5517SOL    HW228014   0.157   3.877   6.771  0.9206  1.3041  1.3379
 5518SOL     OW28015   2.821   2.778   2.444 -0.5627  0.8693  0.7896
 5518SOL    HW128016   2.736   2.821   2.444 -0.5741  0.8739  2.7662
 5518SOL    HW228017   2.877   2.849   2.475  1.3336 -0.1072 -0.4156
 5519SOL     OW28018   0.604   3.369  14.547 -0.3468  0.3015 -0.2052
 5519SOL    HW128019   0.678   3.385  14.606 -0.8867 -2.5821  1.2592
 5519SOL    HW228020   0.606   3.274  14.560 -0.2373  0.1795 -1.1291
 5520SOL     OW28021   4.406   2.943  14.242 -0.6379  0.7514  0.2307
 5520SOL    HW128022   4.407   2.869  14.181  1.3579  0.9891 -0.0417
 5520SOL    HW228023   4.323   2.983  14.218 -1.6370 -0.9751  0.8023
 5521SOL     OW28024   3.710   0.512   3.891  0.1500  0.3000 -0.1553
 5521SOL    HW128025   3.781   0.448   3.882 -0.0201  0.1094 -0.1365
 5521SOL    HW228026   3.686   0.528   3.799 -0.6073  1.1742  0.2018
 5522SOL     OW28027   0.696   3.677   9.045 -0.1549  0.0742  0.3264
 5522SOL    HW128028   0.628   3.630   8.998 -0.1274  0.2169  0.1405
 5522SOL    HW228029   0.659   3.728   9.116  1.5023  0.0108  1.2358
 5523SOL     OW28030   4.494   3.316   6.819  0.2443  0.5233  0.3266
 5523SOL    HW128031   4.482   3.270   6.736  0.5334  1.7199 -0.3885
 5523SOL    HW228032   4.478   3.404   6.784  3.2866  0.6010 -0.9064
 5524SOL     OW28033   2.691   4.024   2.731  0.2328  0.3919  0.0566
 5524SOL    HW128034   2.713   4.001   2.641  0.3705 -2.5065  0.8399
 5524SOL    HW228035   2.599   3.998   2.734  0.4608 -0.2784  1.1274
 5525SOL     OW28036   3.120   2.337   8.432 -0.1060 -0.3085  0.1963
 5525SOL    HW128037   3.176   2.412   8.449  1.2305 -1.5723  1.4229
 5525SOL    HW228038   3.067   2.340   8.512 -0.8769 -1.6890 -0.2639
 5526SOL     OW28039   1.391   1.883   1.401 -0.2158 -0.1327  0.1099
 5526SOL    HW128040   1.385   1.908   1.309  0.2939 -0.1633  0.0656
 5526SOL    HW228041   1.443   1.803   1.390  0.5898  0.5094 -0.7912
 5527SOL     OW28042   1.669   1.970   0.008 -0.2657  0.5561 -0.0697
 5527SOL    HW128043   1.660   2.000  17.620 -0.3949 -1.2831 -0.6733
 5527SOL    HW228044   1.740   1.907   0.002  1.1058  2.1229 -0.3812
 5528SOL     OW28045   0.482   1.231   1.142  0.0609 -0.1399  0.0636
 5528SOL    HW128046   0.429   1.293   1.192 -1.3471  0.7891 -2.5832
 5528SOL    HW228047   0.430   1.152   1.152 -0.7253  0.1950 -1.3300
 5529SOL     OW28048   0.708   2.249   9.550 -0.1190 -0.1206  0.4959
 5529SOL    HW128049   0.734   2.164   9.515  2.2728  0.3508  1.1343
 5529SOL    HW228050   0.743   2.313   9.488 -1.2846  1.8579  1.8540
 5530SOL     OW28051   4.540   4.444   7.361  0.1099  0.1767 -0.5600
 5530SOL    HW128052   4.496   4.528   7.371 -0.9127 -0.3494 -0.6360
 5530SOL    HW228053   4.598   4.465   7.288  0.4120  1.5658  0.0753
 5531SOL     OW28054   2.763   3.563  11.964  0.4773 -0.0607  0.1400
 5531SOL    HW128055   2.682   3.515  11.975 -0.5900  2.0666  1.7005
 5531SOL    HW228056   2.827   3.505  12.005  1.1475 -0.3186 -1.2528
 5532SOL     OW28057   0.946   1.184   5.797 -0.2413 -0.3610 -0.3240
 5532SOL    HW128058   0.956   1.273   5.831 -1.4121 -0.5912  0.6063
 5532SOL    HW228059   1.006   1.143   5.860  0.7852 -0.5856 -1.4464
 5533SOL     OW28060   2.525   0.552   7.925 -0.7020  0.2986 -0.1523
 5533SOL    HW128061   2.465   0.594   7.863 -1.6035  0.7136  1.0233
 5533SOL    HW228062   2.469   0.523   7.996 -1.1101  0.7514 -0.2879
 5534SOL     OW28063   4.224   3.238   7.649  0.1400 -0.0958  0.0834
 5534SOL    HW128064   4.142   3.268   7.689  0.9835  0.2787  1.5556
 5534SOL    HW228065   4.246   3.304   7.583  0.2675 -1.4208 -1.1765
 5535SOL     OW28066   0.763   4.245   7.926  0.4351  0.0647  0.1051
 5535SOL    HW128067   0.832   4.193   7.968  0.7311  0.3392 -0.0414
 5535SOL    HW228068   0.746   4.183   7.855 -3.0502  2.1443 -0.8429
 5536SOL     OW28069   1.074   4.494   1.574 -0.5966 -0.3243  0.0460
 5536SOL    HW128070   0.993   4.445   1.586 -1.8802  1.2718 -1.9807
 5536SOL    HW228071   1.029   4.577   1.586  0.1574  0.0735  0.1578
 5537SOL     OW28072   3.780   4.071  11.231 -0.1334  0.3439 -0.0962
 5537SOL    HW128073   3.845   4.057  11.163 -2.1525  1.7417 -2.3243
 5537SOL    HW228074   3.788   4.164  11.254  0.5327  0.1472  0.4639
 5538SOL     OW28075   4.085   0.623   2.129  0.2860  0.7333 -0.3918
 5538SOL    HW128076   4.128   0.619   2.044  0.0506 -3.9308 -0.2753
 5538SOL    HW228077   4.109   0.711   2.159  1.5686  0.6715 -1.2512
 5539SOL     OW28078   1.809   4.469   2.959  0.6739  0.2406  0.3446
 5539SOL    HW128079   1.784   4.468   2.867  2.6101  0.7091 -0.1801
 5539SOL    HW228080   1.899   4.442   2.942  0.7620  0.6510  0.1844
 5540SOL     OW28081   4.281   2.594   2.460 -0.1686 -0.3608  0.0377
 5540SOL    HW128082   4.197   2.552   2.443  0.6162 -2.4824  1.3372
 5540SOL    HW228083   4.334   2.520   2.490 -1.5974 -2.4117 -2.6181
 5541SOL     OW28084   1.628   4.084   7.521 -0.2015  0.5775 -0.1783
 5541SOL    HW128085   1.651   4.109   7.431  1.6278  1.9808  0.6729
 5541SOL    HW228086   1.551   4.029   7.507  0.3331 -0.2960  0.3884
 5542SOL     OW28087   4.724   0.270  13.206 -0.0088 -0.0972 -0.3245
 5542SOL    HW128088   0.093   0.260  13.194 -0.4531 -2.1995 -2.0500
 5542SOL    HW228089   4.699   0.316  13.125 -1.3283 -2.1504 -1.0751
 5543SOL     OW28090   3.209   4.119   5.302 -0.4740  0.3255 -0.4865
 5543SOL    HW128091   3.228   4.029   5.326 -2.4661 -0.0756 -0.4741
 5543SOL    HW228092   3.260   4.170   5.365  1.5345 -0.6806 -1.2628
 5544SOL     OW28093   4.622   0.068   3.970 -0.8960 -0.6263  0.0500
 5544SOL    HW128094   4.639   0.110   3.886 -0.1284 -0.0237  0.5037
 5544SOL    HW228095   4.665   0.127   4.033  0.5242 -1.4862 -0.1072
 5545SOL     OW28096   2.769   3.648   6.833 -0.0671  0.4641  0.3854
 5545SOL    HW128097   2.716   3.671   6.757  2.0071  0.3936 -1.1168
 5545SOL    HW228098   2.759   3.723   6.891  1.4236  2.0122 -1.3434
 5546SOL     OW28099   4.630   3.725  14.796 -0.4182  0.1816  0.3732
 5546SOL    HW128100   4.713   3.678  14.798 -0.5580 -0.1897 -2.1234
 5546SOL    HW228101   4.614   3.712  14.702  1.4366 -0.3055  0.1407
 5547SOL     OW28102   0.797   0.605  14.063  0.0773 -0.2234  0.0412
 5547SOL    HW128103   0.815   0.696  14.041  0.6240  0.0232  1.5086
 5547SOL    HW228104   0.883   0.585  14.100 -0.0335  2.0919  1.5533
 5548SOL     OW28105   2.053   3.214   7.780  0.4482  0.1804  0.7281
 5548SOL    HW128106   2.051   3.309   7.775 -0.2838  0.0258 -1.7869
 5548SOL    HW228107   2.135   3.192   7.736 -0.6746  1.0727 -1.8007
 5549SOL     OW28108   4.165   0.572  16.909  0.1079 -0.0081 -0.3729
 5549SOL    HW128109   4.218   0.519  16.850  1.2552  0.2268  0.4538
 5549SOL    HW228110   4.191   0.662  16.892 -0.4808  0.1326 -0.5411
 5550SOL     OW28111   1.536   0.063  13.193  0.3682  0.2390 -0.1377
 5550SOL    HW128112   1.555   0.009  13.116 -0.2154  0.4342 -0.4168
 5550SOL    HW228113   1.541   0.005  13.268 -1.5542 -1.0206 -0.9970
 5551SOL     OW28114   0.667   4.039   9.004 -0.0945 -0.1769 -0.8498
 5551SOL    HW128115   0.704   4.092   9.075 -1.0395 -2.2780  1.2336
 5551SOL    HW228116   0.705   4.082   8.928 -0.7467  1.3233 -0.3177
 5552SOL     OW28117   2.139   3.648  15.425  0.0822  0.2638 -0.0946
 5552SOL    HW128118   2.148   3.578  15.360  0.1070  2.4195 -2.4416
 5552SOL    HW228119   2.219   3.693  15.397  1.3049 -1.7202  0.2317
 5553SOL     OW28120   1.688   2.077  13.750  0.2910 -0.2755 -0.0410
 5553SOL    HW128121   1.781   2.070  13.731  0.1637 -1.4562 -0.2446
 5553SOL    HW228122   1.691   2.061  13.845  2.0440 -1.4925 -0.3118
 5554SOL     OW28123   1.649   3.591   3.742  0.0654 -0.2714 -0.5792
 5554SOL    HW128124   1.630   3.502   3.770  0.8167  0.1594  1.3354
 5554SOL    HW228125   1.742   3.600   3.720 -0.1731 -1.9416 -2.2674
 5555SOL     OW28126   0.197   1.181   8.254  0.1202 -0.1770 -0.1322
 5555SOL    HW128127   0.151   1.258   8.288 -1.9708 -2.3181  1.8363
 5555SOL    HW228128   0.277   1.173   8.306 -0.6874  2.4482  1.5089
 5556SOL     OW28129   1.454   4.154  11.093 -0.3174  0.3874 -0.3884
 5556SOL    HW128130   1.434   4.225  11.155  0.0975  1.5662 -1.5966
 5556SOL    HW228131   1.426   4.076  11.141 -0.5240 -0.1811 -1.4501
 5557SOL     OW28132   0.520   2.319   1.340  0.0679  0.2430  0.3513
 5557SOL    HW128133   0.532   2.241   1.287  0.9674  0.4316  0.2743
 5557SOL    HW228134   0.507   2.390   1.276 -1.8502 -1.0981 -0.7311
 5558SOL     OW28135   1.653   0.458   4.023 -0.1886 -0.1669  0.1514
 5558SOL    HW128136   1.725   0.517   3.999  1.2533 -2.3401 -0.8979
 5558SOL    HW228137   1.582   0.512   3.990  0.2601  0.3227 -0.0142
 5559SOL     OW28138   3.390   3.225   5.789 -0.3156  0.2189  0.2150
 5559SOL    HW128139   3.446   3.169   5.844  0.8351 -0.7774 -1.9841
 5559SOL    HW228140   3.381   3.176   5.707 -3.5905 -0.7170  1.0879
 5560SOL     OW28141   2.949   0.648   1.043 -0.3663 -0.3537  0.0432
 5560SOL    HW128142   2.939   0.575   0.982  1.3913  0.2187 -0.9378
 5560SOL    HW228143   2.856   0.657   1.064 -0.0895  1.4998  0.4058
 5561SOL     OW28144   4.015   0.243   5.119 -0.8372 -0.4062  0.1288
 5561SOL    HW128145   3.937   0.279   5.162  0.7187  1.7580  1.1881
 5561SOL    HW228146   4.085   0.286   5.168 -1.5022 -0.7589  1.3847
 5562SOL     OW28147   1.775   3.222   6.496 -0.4425 -0.1450 -0.2322
 5562SOL    HW128148   1.818   3.153   6.445  2.1236  0.9971  0.4034
 5562SOL    HW228149   1.845   3.284   6.514 -0.4298  0.1030 -1.1239
 5563SOL     OW28150   1.814   0.306  12.134  0.0302  0.0481  0.4205
 5563SOL    HW128151   1.847   0.290  12.223  0.9402 -1.1452 -0.1263
 5563SOL    HW228152   1.789   0.398  12.127 -0.6188 -0.1323  0.4173
 5564SOL     OW28153   1.840   1.677   3.892  0.0609  0.4540  0.2329
 5564SOL    HW128154   1.901   1.609   3.863 -1.7048 -0.1693 -2.0166
 5564SOL    HW228155   1.870   1.755   3.845 -1.8452  0.6330 -0.6769
 5565SOL     OW28156   1.634   1.517   8.608 -0.5517  0.4335 -0.1178
 5565SOL    HW128157   1.557   1.549   8.655 -0.3438  1.2480 -0.3324
 5565SOL    HW228158   1.624   1.424   8.627 -2.2684  0.3198 -1.6796
 5566SOL     OW28159   0.250   0.439   4.823  0.5175  0.7421  0.4246
 5566SOL    HW128160   0.270   0.384   4.748  1.9450  0.6871  0.8563
 5566SOL    HW228161   0.200   0.514   4.791  2.7890  2.3062  0.5489
 5567SOL     OW28162   2.433   1.562  11.117  0.2401 -0.0667 -0.2016
 5567SOL    HW128163   2.359   1.579  11.059  1.2870  1.8775 -0.9542
 5567SOL    HW228164   2.395   1.574  11.204  1.6949  0.7649  0.3243
 5568SOL     OW28165   3.565   3.027   1.055 -0.1098  0.0579 -0.9269
 5568SOL    HW128166   3.555   2.940   1.016  2.4508 -0.5850 -0.1775
 5568SOL    HW228167   3.482   3.065   1.028  0.2648  2.1392  0.8516
 5569SOL     OW28168   4.604   2.628   3.984 -0.3608 -0.7570  0.1633
 5569SOL    HW128169   4.567   2.674   4.059  1.9027  0.2415  0.6867
 5569SOL    HW228170   4.531   2.637   3.923 -0.5738  1.3653  0.7524
 5570SOL     OW28171   3.584   2.386  16.159  0.4022 -0.1760  0.0377
 5570SOL    HW128172   3.581   2.422  16.248 -0.6054  1.3936 -0.6319
 5570SOL    HW228173   3.509   2.435  16.125  0.5847  0.6951  0.8938
 5571SOL     OW28174   3.607   2.036   5.735 -0.2442  0.3881 -0.2605
 5571SOL    HW128175   3.515   2.029   5.760 -0.1944  2.3723  0.4825
 5571SOL    HW228176   3.645   2.065   5.818 -0.7671  2.5957 -0.7958
 5572SOL     OW28177   4.671   2.210   1.297 -0.5998  0.0508  0.8602
 5572SOL    HW128178   0.024   2.214   1.352  1.5705 -1.1124 -2.1094
 5572SOL    HW228179   4.713   2.216   1.211 -3.9328  0.6239 -0.7124
 5573SOL     OW28180   0.138   2.657   3.867  0.0821 -0.3519  0.0542
 5573SOL    HW128181   0.143   2.752   3.856 -0.7331 -0.1704  1.2544
 5573SOL    HW228182   0.046   2.646   3.890  0.3250 -1.5400  0.4518
 5574SOL     OW28183   2.915   0.785   6.452  0.3923  0.1687  0.5379
 5574SOL    HW128184   2.902   0.715   6.388  4.9204 -1.3743  1.3780
 5574SOL    HW228185   3.008   0.798   6.438 -0.1433  2.1747 -1.2049
 5575SOL     OW28186   2.258   0.385   0.925 -0.2858 -0.0752 -0.1395
 5575SOL    HW128187   2.245   0.474   0.958  0.3014  0.1481 -0.5007
 5575SOL    HW228188   2.342   0.400   0.881 -1.0505  1.8451 -0.9254
 5576SOL     OW28189   3.120   3.450   8.498  0.0466 -1.5503 -0.0947
 5576SOL    HW128190   3.125   3.539   8.534  0.3674 -1.6325  0.0665
 5576SOL    HW228191   3.037   3.466   8.452 -0.1245  1.7222  1.3266
 5577SOL     OW28192   2.265   3.051   5.896  0.2772 -0.1364  0.3427
 5577SOL    HW128193   2.217   3.047   5.979  0.5880  0.1798  0.5422
 5577SOL    HW228194   2.219   2.992   5.837  1.8358  0.3700 -1.3652
 5578SOL     OW28195   3.557   4.679   9.554 -0.3186  0.5185 -0.7893
 5578SOL    HW128196   3.622   4.622   9.595 -1.4241 -0.0910  0.1370
 5578SOL    HW228197   3.529   0.004   9.631  0.2787  0.0480 -0.2611
 5579SOL     OW28198   0.077   3.599   3.617  0.0801 -0.4007 -0.2934
 5579SOL    HW128199   0.108   3.513   3.647 -0.7532 -0.0307  1.6196
 5579SOL    HW228200   0.115   3.603   3.529  1.5760 -2.6507  0.2314
 5580SOL     OW28201   2.180   4.289  13.768  0.3014  0.0822  0.2017
 5580SOL    HW128202   2.234   4.348  13.715  0.4051 -0.2638 -0.0744
 5580SOL    HW228203   2.209   4.203  13.739 -1.2334 -0.7269  1.0996
 5581SOL     OW28204   2.256   3.258   2.677 -0.0159 -0.5871  0.1689
 5581SOL    HW128205   2.193   3.268   2.749  0.2817 -0.6823  0.4442
 5581SOL    HW228206   2.325   3.324   2.689 -0.7885 -0.3057  3.1984
 5582SOL     OW28207   0.090   4.098   1.762  0.8781  0.3257  0.3325
 5582SOL    HW128208   0.038   4.104   1.681  0.1436  0.7422  0.8363
 5582SOL    HW228209   0.113   4.005   1.762  0.4022  0.2104  1.2422
 5583SOL     OW28210   3.347   1.922  11.679 -0.4438  0.2764  0.3236
 5583SOL    HW128211   3.417   1.859  11.699  1.9035  2.4091 -1.0976
 5583SOL    HW228212   3.298   1.865  11.620  1.2191 -0.1341 -0.6496
 5584SOL     OW28213   0.482   4.722   5.440 -0.1154 -1.1006 -0.3805
 5584SOL    HW128214   0.538   0.044   5.378  1.4213 -1.4271  0.7594
 5584SOL    HW228215   0.521   0.007   5.526 -1.2553 -1.8699  0.2202
 5585SOL     OW28216   3.914   0.652   5.235  0.3261  0.1841 -0.2213
 5585SOL    HW128217   3.892   0.614   5.320 -1.2927  0.5748 -0.4482
 5585SOL    HW228218   3.983   0.709   5.270 -0.4812  0.9543  0.1302
 5586SOL     OW28219   0.041   0.154  12.840  0.0169  0.0523 -0.5595
 5586SOL    HW128220   0.121   0.116  12.878 -1.4479 -0.9878  1.4507
 5586SOL    HW228221   0.055   0.240  12.802 -1.8177  1.0976  1.1318
 5587SOL     OW28222   0.551   4.064   2.834  0.0256  0.0304 -0.0423
 5587SOL    HW128223   0.469   4.112   2.828  0.3580  0.7148  0.9488
 5587SOL    HW228224   0.571   4.038   2.743 -0.0660 -0.8060  0.1762
 5588SOL     OW28225   2.268   1.688   5.183  0.5076 -0.2543 -0.2690
 5588SOL    HW128226   2.249   1.681   5.090  1.4449 -0.7013 -0.4281
 5588SOL    HW228227   2.337   1.754   5.184 -0.0742  0.3778 -1.8607
 5589SOL     OW28228   0.491   4.541   3.461 -0.0124  0.4855 -0.2324
 5589SOL    HW128229   0.533   4.600   3.524  1.1515  1.7403 -2.1698
 5589SOL    HW228230   0.563   4.514   3.404  0.0277 -0.2948  0.1856
 5590SOL     OW28231   2.507   1.350   3.929  0.2671  0.1464  0.1187
 5590SOL    HW128232   2.537   1.422   3.872 -3.0153  1.2719 -0.1747
 5590SOL    HW228233   2.578   1.344   3.993 -0.1784 -0.4258  0.5515
 5591SOL     OW28234   0.484   3.088  17.611  0.0166  0.4160 -0.4829
 5591SOL    HW128235   0.573   3.056  17.596 -0.5644 -1.2965 -0.3088
 5591SOL    HW228236   0.433   3.078  17.531 -0.0289  1.6954 -0.6151
 5592SOL     OW28237   0.134   2.096   8.848  0.1394  0.4099 -0.4689
 5592SOL    HW128238   0.121   2.169   8.909 -0.6777 -1.4242  1.5448
 5592SOL    HW228239   0.072   2.125   8.781  0.3345  0.9742 -0.4120
 5593SOL     OW28240   2.495   0.518   4.513  0.1207 -0.0797 -0.1557
 5593SOL    HW128241   2.409   0.494   4.480  0.0305  0.9983 -0.7280
 5593SOL    HW228242   2.495   0.505   4.608 -2.3907 -2.3556 -0.4672
 5594SOL     OW28243   4.077   1.026  15.296 -0.3124  0.2693 -0.8283
 5594SOL    HW128244   4.066   0.931  15.303 -0.8171  0.2757 -1.5764
 5594SOL    HW228245   3.996   1.059  15.257 -0.9082 -0.5460 -0.2899
 5595SOL     OW28246   2.729   2.485   7.557 -0.0934  0.1718 -0.4276
 5595SOL    HW128247   2.680   2.468   7.477  0.3093  0.3315 -0.7039
 5595SOL    HW228248   2.680   2.562   7.584  0.0330 -0.2004  0.9028
 5596SOL     OW28249   1.497   4.537  15.538  0.1277  0.4498  0.8990
 5596SOL    HW128250   1.412   4.544  15.582 -0.9416 -0.7628 -0.9702
 5596SOL    HW228251   1.477   4.551  15.446  1.3488 -0.4465  0.4953
 5597SOL     OW28252   4.210   1.538   9.115  0.3576 -0.5208 -0.0185
 5597SOL    HW128253   4.205   1.634   9.116 -0.9272 -0.5743 -0.9694
 5597SOL    HW228254   4.292   1.528   9.164 -0.2634 -1.1134  0.8967
 5598SOL     OW28255   3.377   4.212   0.539 -0.4122 -0.1832  0.1692
 5598SOL    HW128256   3.443   4.277   0.514  0.5437 -1.4543 -0.5937
 5598SOL    HW228257   3.355   4.246   0.626 -1.4371 -2.2462  0.7121
 5599SOL     OW28258   2.388   0.682  10.835 -0.2934  0.3428 -0.2011
 5599SOL    HW128259   2.474   0.720  10.857 -0.4664  1.3482 -1.2296
 5599SOL    HW228260   2.389   0.614  10.902 -0.2605 -1.1481 -1.7110
 5600SOL     OW28261   2.733   3.340   6.835 -0.0043  0.6496  0.1026
 5600SOL    HW128262   2.684   3.317   6.914 -1.8078 -0.6229 -1.3941
 5600SOL    HW228263   2.744   3.435   6.838 -0.0295  0.6407  0.5889
 5601SOL     OW28264   1.282   0.437   5.755  0.3356 -0.0075 -0.4776
 5601SOL    HW128265   1.223   0.495   5.802  1.9250  0.5563  0.8373
 5601SOL    HW228266   1.241   0.436   5.669 -1.6074  0.4730  0.4549
 5602SOL     OW28267   2.310   2.382  14.990 -0.1959 -0.8772  0.0895
 5602SOL    HW128268   2.373   2.339  15.048 -1.2743 -0.4730  1.5908
 5602SOL    HW228269   2.266   2.301  14.964  0.7718 -1.2752 -0.2892
 5603SOL     OW28270   3.844   3.410  13.111  0.5480 -0.0858  0.2514
 5603SOL    HW128271   3.759   3.433  13.073  1.9497  2.1532 -1.5425
 5603SOL    HW228272   3.824   3.421  13.204 -0.0834 -0.3155  0.1410
 5604SOL     OW28273   0.387   3.573   3.192  0.0260 -1.5531 -0.5356
 5604SOL    HW128274   0.475   3.581   3.156 -0.5028 -0.1053 -1.5041
 5604SOL    HW228275   0.337   3.639   3.146  1.2920 -0.4224 -0.2867
 5605SOL     OW28276   2.764   4.104   8.249  0.2763 -0.2115  0.6713
 5605SOL    HW128277   2.807   4.041   8.307 -1.0851 -1.4018  0.3984
 5605SOL    HW228278   2.675   4.069   8.245 -0.6120  2.0472  0.9743
 5606SOL     OW28279   3.396   1.584   8.669  0.1608 -0.0447 -0.0213
 5606SOL    HW128280   3.417   1.516   8.733 -1.0012  1.5798  2.0785
 5606SOL    HW228281   3.448   1.659   8.697  0.6504 -0.1172 -0.7324
 5607SOL     OW28282   3.839   1.800   2.690 -0.2000 -0.1442 -0.1616
 5607SOL    HW128283   3.795   1.879   2.657  1.1134  0.0724 -1.3401
 5607SOL    HW228284   3.924   1.829   2.723 -0.2239  0.6038 -0.7693
 5608SOL     OW28285   2.319   1.389   6.644 -0.4544 -0.0728 -0.3547
 5608SOL    HW128286   2.388   1.345   6.693  0.5146  3.3907  1.4208
 5608SOL    HW228287   2.375   1.453   6.602  0.2616 -0.7990 -0.5065
 5609SOL     OW28288   4.315   3.672   2.061  0.2121 -0.0091  0.5251
 5609SOL    HW128289   4.249   3.729   2.022  0.6150  2.6906  3.8411
 5609SOL    HW228290   4.289   3.672   2.153 -1.1197  2.7969  0.1325
 5610SOL     OW28291   3.926   1.663   3.937  0.3837  0.4818  0.4220
 5610SOL    HW128292   3.965   1.740   3.976  0.8405  1.3002 -1.6291
 5610SOL    HW228293   3.943   1.599   4.006 -2.3792  0.2710  0.8948
 5611SOL     OW28294   3.728   1.421   3.693  0.0703  0.2541  0.1209
 5611SOL    HW128295   3.681   1.338   3.701  0.7023 -0.4318 -3.4461
 5611SOL    HW228296   3.738   1.439   3.787 -0.2455 -1.9687  0.5734
 5612SOL     OW28297   4.703   4.042   0.734 -0.0522 -0.0713 -0.1729
 5612SOL    HW128298   4.659   4.110   0.785  0.7969  0.7616 -0.5682
 5612SOL    HW228299   4.646   4.026   0.659 -1.8490 -1.5381  1.4793
 5613SOL     OW28300   3.721   3.996   7.161  0.1749 -0.3070 -0.0084
 5613SOL    HW128301   3.696   4.084   7.189 -0.8101 -1.0237  1.3943
 5613SOL    HW228302   3.645   3.984   7.104  1.4581 -1.0207 -1.5586
 5614SOL     OW28303   0.971   0.799  17.646  0.0851  0.3793  0.2138
 5614SOL    HW128304   0.879   0.808  17.670 -0.3812 -0.0355 -1.4465
 5614SOL    HW228305   1.000   0.890  17.658  0.8591  0.0414  0.8840
 5615SOL     OW28306   0.078   1.992   2.111 -0.3818  0.0229 -0.6124
 5615SOL    HW128307   0.038   2.036   2.185  0.7824 -1.8570  1.1363
 5615SOL    HW228308   0.172   1.979   2.120 -0.2903  2.4926  1.8190
 5616SOL     OW28309   4.065   2.792  14.299 -0.2813 -0.2347  0.0581
 5616SOL    HW128310   4.029   2.716  14.345 -0.2842 -0.1386  0.2109
 5616SOL    HW228311   4.151   2.797  14.341  0.9127 -0.0096 -2.3802
 5617SOL     OW28312   3.631   4.573  10.715  0.4864  0.2510  0.3005
 5617SOL    HW128313   3.584   4.637  10.770  1.0065  0.2577  0.7316
 5617SOL    HW228314   3.663   4.631  10.645  0.1397  0.2690  0.1531
 5618SOL     OW28315   2.624   0.247  12.037  0.0529  0.0128  0.1024
 5618SOL    HW128316   2.556   0.180  12.045 -0.4617  0.4856 -0.2972
 5618SOL    HW228317   2.691   0.195  11.994 -2.1364 -4.3769  2.0181
 5619SOL     OW28318   1.830   3.436   6.656  0.0707  0.0115 -0.3823
 5619SOL    HW128319   1.768   3.411   6.724  0.5736  0.1998  0.1483
 5619SOL    HW228320   1.906   3.396   6.698  0.2480  0.3656 -0.3653
 5620SOL     OW28321   0.147   3.609  10.444 -0.2984  0.0697 -0.2080
 5620SOL    HW128322   0.114   3.698  10.437 -1.6806 -0.3372  1.1955
 5620SOL    HW228323   0.221   3.624  10.503 -0.9439  1.9936  0.1083
 5621SOL     OW28324   1.636   2.533   3.417 -0.3126 -0.8037 -0.5678
 5621SOL    HW128325   1.713   2.589   3.404 -0.9342  0.0975 -0.3293
 5621SOL    HW228326   1.627   2.477   3.340  3.2469  0.1880 -1.7161
 5622SOL     OW28327   3.777   3.718   4.462 -0.1374  0.0129  0.1711
 5622SOL    HW128328   3.777   3.756   4.550  0.6916  2.7816 -1.0163
 5622SOL    HW228329   3.741   3.632   4.486 -0.3980 -0.2099 -1.0256
 5623SOL     OW28330   3.373   3.246   6.545  0.1674  0.0892  0.4042
 5623SOL    HW128331   3.451   3.235   6.490  0.5118  1.8482  0.5164
 5623SOL    HW228332   3.369   3.164   6.594 -0.3876  0.0254  0.2467
 5624SOL     OW28333   1.809   1.950  14.253 -0.2105 -0.0129 -0.4214
 5624SOL    HW128334   1.752   1.886  14.295  2.1339 -0.2474  2.4313
 5624SOL    HW228335   1.835   2.016  14.317  0.3816  0.0787 -0.7524
 5625SOL     OW28336   2.623   0.445   8.579 -0.2768 -0.6353  0.2993
 5625SOL    HW128337   2.628   0.420   8.487  1.9182 -1.5987  0.6870
 5625SOL    HW228338   2.665   0.369   8.619 -0.9225 -1.6122 -0.8864
 5626SOL     OW28339   4.423   3.568   8.683 -0.0531 -0.3241 -0.2548
 5626SOL    HW128340   4.498   3.627   8.686 -0.4233  0.0815  1.2401
 5626SOL    HW228341   4.436   3.520   8.765 -0.3556  1.4412  0.8479
 5627SOL     OW28342   3.413   3.550  11.419  0.1025  0.3492  0.1241
 5627SOL    HW128343   3.362   3.488  11.472 -0.3741 -0.4961 -1.3136
 5627SOL    HW228344   3.471   3.595  11.480  0.1742 -0.9374  1.0188
 5628SOL     OW28345   0.966   1.768  15.904 -0.0821 -0.3088  0.0597
 5628SOL    HW128346   0.920   1.743  15.824 -1.2519  2.1938 -0.0485
 5628SOL    HW228347   0.914   1.837  15.944  0.9508  1.5357 -1.8061
 5629SOL     OW28348   3.218   4.215   9.098  0.0299 -0.1550  0.0935
 5629SOL    HW128349   3.292   4.250   9.147  0.4212  1.3269 -1.5749
 5629SOL    HW228350   3.234   4.121   9.088 -0.6121 -0.3226  0.6744
 5630SOL     OW28351   3.274   0.082  12.573  0.2640  0.3411 -0.4672
 5630SOL    HW128352   3.321   0.143  12.629  0.2246 -0.7032  0.7035
 5630SOL    HW228353   3.253   0.128  12.491 -3.4869  0.1808  0.4097
 5631SOL     OW28354   0.010   2.583   8.244  0.3023  0.4037  0.3765
 5631SOL    HW128355   4.717   2.628   8.326 -1.1433 -3.6578  2.2639
 5631SOL    HW228356   4.666   2.625   8.193 -0.9496 -1.6321  0.3982
 5632SOL     OW28357   1.888   4.051   3.850  0.2306  0.1230  0.2520
 5632SOL    HW128358   1.865   3.981   3.789 -1.9631  0.5050  0.6394
 5632SOL    HW228359   1.923   3.997   3.921 -0.9806  1.8646  2.1716
 5633SOL     OW28360   1.469   3.854   7.431  0.1453  0.1947  0.0023
 5633SOL    HW128361   1.402   3.877   7.367  0.2464  2.3238  0.6584
 5633SOL    HW228362   1.449   3.762   7.444  0.3565 -0.1884 -2.4053
 5634SOL     OW28363   3.426   1.663   3.553 -0.3411  0.0537  0.1410
 5634SOL    HW128364   3.397   1.571   3.556 -1.5116  0.4504  1.5395
 5634SOL    HW228365   3.517   1.643   3.531 -0.1855  1.8298 -0.8429
 5635SOL     OW28366   1.785   0.759   2.277  0.2314  0.5090  0.5011
 5635SOL    HW128367   1.812   0.798   2.194 -1.7583  1.1279  0.1321
 5635SOL    HW228368   1.868   0.736   2.319 -1.0607 -2.1594  1.6571
 5636SOL     OW28369   0.742   0.376   5.217 -0.5902 -0.1779 -0.1751
 5636SOL    HW128370   0.705   0.294   5.252  1.9197 -1.7352 -1.1722
 5636SOL    HW228371   0.771   0.345   5.131  0.9148 -2.8143  1.2785
 5637SOL     OW28372   0.752   2.439   8.734 -0.1586 -0.0316 -0.2080
 5637SOL    HW128373   0.772   2.403   8.820  0.7418 -0.8972 -0.7849
 5637SOL    HW228374   0.677   2.497   8.749 -1.0197 -1.8236  2.2185
 5638SOL     OW28375   0.823   3.915  17.212 -0.1608 -0.4727  0.2941
 5638SOL    HW128376   0.819   3.903  17.117 -0.7021 -0.0411  0.2667
 5638SOL    HW228377   0.833   3.823  17.237  0.8545 -0.9204 -1.7111
 5639SOL     OW28378   2.365   1.294   1.378 -0.1652  0.1636  0.2511
 5639SOL    HW128379   2.285   1.284   1.430  0.2668 -1.1640  0.6406
 5639SOL    HW228380   2.359   1.267   1.287 -0.1534  1.2720 -0.0832
 5640SOL     OW28381   1.288   4.512   2.390  0.4714 -0.1160  0.2194
 5640SOL    HW128382   1.345   4.456   2.336 -1.8112 -1.3764 -0.8994
 5640SOL    HW228383   1.315   4.499   2.480  0.9030 -0.4862  0.0377
 5641SOL     OW28384   2.666   1.839  15.573  0.2351  0.0807 -0.2054
 5641SOL    HW128385   2.694   1.748  15.587 -0.8272 -0.1710  0.3214
 5641SOL    HW228386   2.618   1.863  15.652 -0.2324  1.7732 -1.0133
 5642SOL     OW28387   1.581   2.889   8.544 -0.1365 -0.4791 -0.2308
 5642SOL    HW128388   1.531   2.807   8.537 -1.2920  0.3824 -2.1843
 5642SOL    HW228389   1.506   2.948   8.538  1.2858  1.3003 -0.4823
 5643SOL     OW28390   4.692   2.850  15.795 -0.1449  0.3768  0.0804
 5643SOL    HW128391   0.010   2.775  15.755  1.0087  1.3726 -0.5136
 5643SOL    HW228392   4.671   2.895  15.714  2.3479 -0.2602 -0.9093
 5644SOL     OW28393   0.528   2.756   2.367  0.5624 -0.3072  0.5615
 5644SOL    HW128394   0.524   2.661   2.357 -0.8428 -0.2536  0.6318
 5644SOL    HW228395   0.442   2.763   2.407  1.4958 -1.0415  2.7304
 5645SOL     OW28396   0.150   2.375   0.223  0.1704 -0.4119 -0.0134
 5645SOL    HW128397   0.190   2.439   0.282 -2.1031  1.3984 -0.4441
 5645SOL    HW228398   0.131   2.432   0.148  0.1420 -4.2198 -2.8507
 5646SOL     OW28399   3.959   0.886   8.332  0.0523 -0.2853  0.1034
 5646SOL    HW128400   4.030   0.944   8.357 -0.9509  0.7630  0.5125
 5646SOL    HW228401   3.943   0.840   8.414  0.3102 -2.0287 -0.8233
 5647SOL     OW28402   1.402   0.705   5.407  0.1102 -0.5854 -0.1346
 5647SOL    HW128403   1.399   0.801   5.406 -1.9881 -0.6296  1.2568
 5647SOL    HW228404   1.455   0.679   5.482  1.5455  0.9966 -0.6033
 5648SOL     OW28405   0.471   2.653   6.086 -0.0220  0.3217  0.3357
 5648SOL    HW128406   0.543   2.695   6.132  0.3329  1.2632 -1.0669
 5648SOL    HW228407   0.504   2.612   6.005 -0.3688 -0.2118  0.4695
 5649SOL     OW28408   1.245   2.448   8.153  0.3944 -0.5753  0.5766
 5649SOL    HW128409   1.245   2.467   8.247  0.1660  1.1077  0.2468
 5649SOL    HW228410   1.207   2.528   8.115  3.0061  0.1084 -0.6508
 5650SOL     OW28411   3.610   1.896   1.249  0.0563  0.4691 -0.0391
 5650SOL    HW128412   3.538   1.901   1.187  0.1896 -1.3608 -0.3626
 5650SOL    HW228413   3.641   1.810   1.218 -0.7436  0.1925 -0.0660
 5651SOL     OW28414   2.102   1.201   4.236  0.4809 -0.1428 -0.4146
 5651SOL    HW128415   2.163   1.248   4.180 -0.6928 -0.0855 -1.6273
 5651SOL    HW228416   2.041   1.267   4.268  0.2396 -0.9130  0.7210
 5652SOL     OW28417   1.097   1.212  12.068 -0.2721  0.1473 -0.7101
 5652SOL    HW128418   1.154   1.289  12.063 -0.3628  0.0777 -2.8545
 5652SOL    HW228419   1.157   1.149  12.110 -0.4855  2.0399  2.3975
 5653SOL     OW28420   1.224   1.232  11.213  0.1578 -0.0351  0.2422
 5653SOL    HW128421   1.231   1.136  11.211 -1.0841 -0.0875 -1.3320
 5653SOL    HW228422   1.160   1.251  11.145 -0.8211 -0.9934  0.8933
 5654SOL     OW28423   4.555   2.503   1.212 -0.6680 -0.5635  0.1439
 5654SOL    HW128424   4.566   2.474   1.121  0.2314  0.7433 -0.1688
 5654SOL    HW228425   4.468   2.542   1.211 -0.1787  0.5430  0.7950
 5655SOL     OW28426   3.374   1.723   3.071  0.2929 -0.0008 -0.1182
 5655SOL    HW128427   3.356   1.803   3.023  1.1135  0.5900  0.5497
 5655SOL    HW228428   3.365   1.763   3.157  0.7748 -1.2709  0.5301
 5656SOL     OW28429   4.271   3.665   7.812 -0.2406  0.9901  0.1374
 5656SOL    HW128430   4.225   3.719   7.876 -0.4949  0.9054  0.0223
 5656SOL    HW228431   4.347   3.628   7.858 -0.7749  1.2777  1.2574
 5657SOL     OW28432   3.430   3.014  17.536  0.4103 -0.3527 -0.1806
 5657SOL    HW128433   3.471   3.036  17.452  0.8717  1.3821  0.4968
 5657SOL    HW228434   3.349   3.065  17.527  0.7257  0.1560 -0.1089
 5658SOL     OW28435   1.295   4.166   8.280  0.5691 -0.4775  0.0676
 5658SOL    HW128436   1.244   4.246   8.270  3.3227  1.0879 -1.5902
 5658SOL    HW228437   1.312   4.154   8.373 -1.8888  1.1837  0.7165
 5659SOL     OW28438   0.667   4.062   8.358  0.1487 -0.2192 -0.4313
 5659SOL    HW128439   0.676   3.982   8.409 -2.5343 -0.7694 -0.8297
 5659SOL    HW228440   0.740   4.043   8.299 -0.6901  0.5865 -1.7279
 5660SOL     OW28441   4.703   2.338   9.382 -0.4407 -0.5155 -0.1695
 5660SOL    HW128442   4.676   2.249   9.357 -0.4487 -0.3142 -0.8548
 5660SOL    HW228443   4.631   2.399   9.367  0.6038 -0.0284 -3.0982
 5661SOL     OW28444   4.643   3.505  10.365 -0.6694  0.1208 -0.1303
 5661SOL    HW128445   4.622   3.454  10.443  1.8228 -2.9323 -1.4692
 5661SOL    HW228446   4.722   3.548  10.397  0.8886 -1.7710 -1.3866
 5662SOL     OW28447   3.310   2.677  10.909  0.7211 -0.1800 -0.4599
 5662SOL    HW128448   3.232   2.700  10.859  0.5171 -2.1213 -1.0159
 5662SOL    HW228449   3.374   2.741  10.875  0.7862 -0.3067 -0.5731
 5663SOL     OW28450   4.265   4.080   2.947  0.3105 -0.1462 -0.1846
 5663SOL    HW128451   4.212   4.010   2.985  1.6981 -1.2751 -0.3748
 5663SOL    HW228452   4.313   4.117   3.021  0.2879  0.7225 -0.5919
 5664SOL     OW28453   3.322   0.684  12.139  0.6315  0.5555  0.6092
 5664SOL    HW128454   3.335   0.662  12.231 -0.2738 -0.3582  0.5104
 5664SOL    HW228455   3.253   0.749  12.155 -1.7721 -1.3890 -2.0163
 5665SOL     OW28456   0.796   2.445   4.769 -0.5280  0.2423 -0.5367
 5665SOL    HW128457   0.779   2.371   4.827  2.0763  0.4779  0.5218
 5665SOL    HW228458   0.833   2.392   4.699  0.8648 -2.1139  1.9445
 5666SOL     OW28459   4.505   3.508   6.311  0.2104  0.5079 -0.6077
 5666SOL    HW128460   4.506   3.517   6.216 -3.6161 -0.7688 -0.7509
 5666SOL    HW228461   4.414   3.527   6.334  0.8740  1.6205  1.1425
 5667SOL     OW28462   1.769   4.464   1.206 -0.6395  0.0300 -0.1017
 5667SOL    HW128463   1.720   4.451   1.287 -0.5466 -0.0382 -0.0561
 5667SOL    HW228464   1.730   4.395   1.152 -1.4261 -0.1209  0.6539
 5668SOL     OW28465   2.247   0.535  14.081  0.2176  0.0319  0.3276
 5668SOL    HW128466   2.300   0.468  14.124  2.1568  1.3385 -0.0179
 5668SOL    HW228467   2.177   0.483  14.041 -0.1103  2.9143 -2.8195
 5669SOL     OW28468   1.639   1.158  15.260  0.0924 -0.4518  0.6941
 5669SOL    HW128469   1.665   1.250  15.264 -1.6609  0.1152 -0.3965
 5669SOL    HW228470   1.566   1.159  15.197  1.2696  0.6371 -0.6596
 5670SOL     OW28471   0.141   2.222   3.581  0.3874  0.3536  0.3821
 5670SOL    HW128472   0.154   2.143   3.528 -1.2775 -1.2550  2.3346
 5670SOL    HW228473   0.147   2.292   3.516 -0.6325 -2.3347 -2.6119
 5671SOL     OW28474   1.413   4.067   1.932 -0.0846  0.2775  0.1743
 5671SOL    HW128475   1.472   4.139   1.908 -2.8242  2.3228 -0.4663
 5671SOL    HW228476   1.340   4.086   1.873  0.2559 -1.2008 -0.7227
 5672SOL     OW28477   3.032   0.298  15.045 -0.3545 -0.1744 -0.1809
 5672SOL    HW128478   3.094   0.357  15.004  1.1441 -1.3815  0.3309
 5672SOL    HW228479   2.953   0.350  15.039 -0.1164  0.7064  3.7742
 5673SOL     OW28480   1.873   3.646   6.091 -0.0650  0.2540 -0.0533
 5673SOL    HW128481   1.847   3.556   6.113 -2.4594  0.9238 -0.1854
 5673SOL    HW228482   1.912   3.635   6.004  0.9160 -0.3048  0.4487
 5674SOL     OW28483   1.411   1.495   2.311  0.5528 -0.2159 -0.1366
 5674SOL    HW128484   1.338   1.452   2.268  0.1778 -0.7422  1.0404
 5674SOL    HW228485   1.394   1.587   2.291 -0.9235 -0.7232 -1.1920
 5675SOL     OW28486   4.676   3.425   2.878  0.4060 -0.4581 -0.1517
 5675SOL    HW128487   4.724   3.504   2.904 -0.3870  0.2914 -0.9747
 5675SOL    HW228488   4.591   3.459   2.906 -0.1000 -0.1798 -2.0457
 5676SOL     OW28489   1.838   3.134   6.083 -0.3253 -0.0299 -0.2904
 5676SOL    HW128490   1.849   3.190   6.006 -0.5020  0.3529 -0.0391
 5676SOL    HW228491   1.903   3.068   6.060 -1.0438 -0.6079 -0.6572
 5677SOL     OW28492   2.480   3.462   2.639  0.2845  0.1581 -0.1817
 5677SOL    HW128493   2.565   3.460   2.684  0.7752  1.6372 -1.0592
 5677SOL    HW228494   2.508   3.428   2.554  0.5010  0.1134 -0.0948
 5678SOL     OW28495   1.610   0.981   5.306 -0.5275 -0.5605 -0.0420
 5678SOL    HW128496   1.535   0.979   5.364 -0.8997 -0.8740 -0.5333
 5678SOL    HW228497   1.565   0.933   5.237 -1.0317  3.1450 -2.3454
 5679SOL     OW28498   1.788   3.687   6.899  0.4980  0.3455 -0.1920
 5679SOL    HW128499   1.801   3.649   6.812 -1.5620 -0.3781 -0.1881
 5679SOL    HW228500   1.835   3.634   6.963  1.3703  0.3402 -0.8440
 5680SOL     OW28501   4.023   2.294  13.022 -0.5428  0.4914 -0.4252
 5680SOL    HW128502   4.001   2.234  13.093  1.8236  0.4325  0.2621
 5680SOL    HW228503   4.093   2.253  12.972  1.8070  2.5924  1.1870
 5681SOL     OW28504   2.128   1.851  16.647  0.2659  0.0713  0.6637
 5681SOL    HW128505   2.191   1.831  16.578  2.2031  0.2832  2.3322
 5681SOL    HW228506   2.039   1.835  16.617  0.8168 -0.4360 -0.6646
 5682SOL     OW28507   3.964   3.973   8.475  0.0774  0.0118 -0.1365
 5682SOL    HW128508   4.002   4.046   8.523  1.6666 -0.8228 -0.1230
 5682SOL    HW228509   4.041   3.943   8.426  1.0025  1.7315  0.2844
 5683SOL     OW28510   0.781   2.511   9.467  0.2005  0.0950  0.1751
 5683SOL    HW128511   0.872   2.531   9.485 -0.2415 -0.2836  2.8251
 5683SOL    HW228512   0.763   2.556   9.384 -0.2447 -1.2482 -0.4530
 5684SOL     OW28513   2.345   4.589   0.353  0.3350 -0.8221 -0.2065
 5684SOL    HW128514   2.258   4.558   0.378 -0.4307  0.0130 -1.8926
 5684SOL    HW228515   2.383   4.503   0.332  1.9965  0.0174 -0.6542
 5685SOL     OW28516   3.841   3.036   3.877  0.3918 -0.4071  0.0435
 5685SOL    HW128517   3.759   3.066   3.839  0.9633  0.3693 -0.5838
 5685SOL    HW228518   3.899   3.112   3.885  0.3782 -0.3754 -0.1704
 5686SOL     OW28519   3.900   1.305   8.571  0.7431 -0.0673 -0.3479
 5686SOL    HW128520   3.875   1.379   8.627 -0.3626 -1.2542  0.7236
 5686SOL    HW228521   3.928   1.242   8.637 -1.2739  2.5531  2.9937
 5687SOL     OW28522   0.423   3.896   0.631 -0.1135  0.6513  0.6427
 5687SOL    HW128523   0.343   3.944   0.655 -1.1585 -2.0525  2.6646
 5687SOL    HW228524   0.490   3.963   0.644  1.0145 -0.4335  0.3867
 5688SOL     OW28525   3.537   0.527   5.052  0.7342 -0.2259  0.2864
 5688SOL    HW128526   3.533   0.479   4.969  1.6751  0.9445 -0.4362
 5688SOL    HW228527   3.566   0.614   5.025 -1.2664  0.8325  1.5294
 5689SOL     OW28528   2.831   1.928  11.609  0.1004  0.0169 -0.3116
 5689SOL    HW128529   2.781   1.953  11.532  0.4399 -1.5902 -1.0562
 5689SOL    HW228530   2.866   1.843  11.581  0.1099  0.2899 -1.1235
 5690SOL     OW28531   3.383   1.586  15.238  0.0203 -0.2730  0.0780
 5690SOL    HW128532   3.354   1.677  15.233 -1.2370 -0.7688 -1.6778
 5690SOL    HW228533   3.475   1.597  15.263  0.2520 -0.3346 -0.7318
 5691SOL     OW28534   3.291   1.887   7.017  0.1545 -0.4332  0.1021
 5691SOL    HW128535   3.302   1.934   6.934  2.2703 -0.8132  0.1542
 5691SOL    HW228536   3.242   1.812   6.983  1.1416 -0.7642 -0.6162
 5692SOL     OW28537   3.191   0.815  15.364  0.0554  0.4673  0.0100
 5692SOL    HW128538   3.236   0.878  15.309  0.3199  0.0669 -0.2313
 5692SOL    HW228539   3.111   0.864  15.383  0.8502  2.5795 -2.2523
 5693SOL     OW28540   2.956   3.863   5.578 -0.3483 -0.0230 -0.2631
 5693SOL    HW128541   2.933   3.898   5.664  0.5930 -0.2350  0.0683
 5693SOL    HW228542   2.898   3.911   5.519  1.4756 -0.1794 -2.1634
 5694SOL     OW28543   1.198   2.973   5.955  0.7051 -0.2783  0.0141
 5694SOL    HW128544   1.161   2.991   5.868 -0.9328 -0.0962  0.7594
 5694SOL    HW228545   1.127   2.923   5.994  0.5163 -0.0009  0.0306
 5695SOL     OW28546   0.744   3.397   5.267 -0.3546  0.3346 -0.4858
 5695SOL    HW128547   0.834   3.410   5.236 -0.8222 -0.6550 -2.2767
 5695SOL    HW228548   0.699   3.450   5.202 -0.9834 -1.0606 -1.1846
 5696SOL     OW28549   1.539   3.192  15.910  0.5778  0.1247  0.6957
 5696SOL    HW128550   1.544   3.098  15.893 -0.1370 -0.0809  1.6636
 5696SOL    HW228551   1.449   3.214  15.887  1.0784  1.5834  0.1113
 5697SOL     OW28552   1.958   1.564  12.865 -0.0871  0.4714  0.2493
 5697SOL    HW128553   1.884   1.526  12.914  0.5551 -2.5313 -1.0585
 5697SOL    HW228554   1.991   1.632  12.922  2.4618  0.9636 -1.8341
 5698SOL     OW28555   0.407   0.663   0.484 -0.4828 -0.0383  0.1865
 5698SOL    HW128556   0.351   0.683   0.409 -0.3486 -0.2687  0.0223
 5698SOL    HW228557   0.363   0.719   0.547  0.7813  0.4114  0.6744
 5699SOL     OW28558   1.421   0.307   3.723  0.4676 -0.0620  0.3956
 5699SOL    HW128559   1.512   0.297   3.750  0.5537  0.0674  0.1526
 5699SOL    HW228560   1.409   0.399   3.700 -0.6051 -0.3501 -0.1721
 5700SOL     OW28561   4.136   2.876  11.536  0.0790  0.4220  0.0080
 5700SOL    HW128562   4.151   2.885  11.630  0.8333 -1.0818  0.0269
 5700SOL    HW228563   4.057   2.822  11.540 -0.2106  0.6605 -2.5621
 5701SOL     OW28564   0.370   0.507   7.729 -0.4985 -0.1411  0.2992
 5701SOL    HW128565   0.290   0.502   7.781 -0.2207 -2.5935  0.4887
 5701SOL    HW228566   0.403   0.595   7.746 -0.4232  0.4311 -2.8401
 5702SOL     OW28567   0.460   4.210   8.433 -0.2163 -0.0327 -0.2214
 5702SOL    HW128568   0.493   4.291   8.472  1.1223  0.2127 -1.8657
 5702SOL    HW228569   0.545   4.166   8.438  0.3217  1.2136  1.5590
 5703SOL     OW28570   2.127   2.059   4.907  0.4405  0.0227  0.3719
 5703SOL    HW128571   2.102   2.087   4.819  0.1410 -0.1842  0.3910
 5703SOL    HW228572   2.071   1.982   4.917  0.9208 -0.3386  0.2603
 5704SOL     OW28573   4.561   0.109   0.170 -0.0039 -0.6034  0.2013
 5704SOL    HW128574   4.507   0.065   0.236  1.9514 -2.1424  0.7922
 5704SOL    HW228575   4.504   0.169   0.123 -0.1911  1.1495  2.6661
 5705SOL     OW28576   2.590   1.454   8.015 -0.0782  0.6915 -0.1061
 5705SOL    HW128577   2.604   1.366   8.050 -1.2886  0.6562  0.2797
 5705SOL    HW228578   2.565   1.492   8.099 -1.5585 -0.6983  0.0855
 5706SOL     OW28579   3.542   3.453   7.554 -0.0059 -0.1565 -0.4607
 5706SOL    HW128580   3.504   3.492   7.633 -0.9083  0.8373 -1.3780
 5706SOL    HW228581   3.573   3.370   7.590 -0.7999  0.1705  0.9581
 5707SOL     OW28582   1.126   0.985  14.830 -0.2147 -0.1289  0.1079
 5707SOL    HW128583   1.174   0.981  14.912 -0.9185  2.0342  0.6251
 5707SOL    HW228584   1.196   0.954  14.773  0.4953  0.6843  0.5381
 5708SOL     OW28585   2.677   2.012   4.831  0.0509 -0.3359  0.0615
 5708SOL    HW128586   2.713   2.019   4.743 -0.7903  0.2809 -0.2352
 5708SOL    HW228587   2.693   1.920   4.849  0.2474 -0.2617  0.2695
 5709SOL     OW28588   3.619   1.417  11.156 -0.1731  0.1877  0.2266
 5709SOL    HW128589   3.535   1.376  11.137  0.3561 -0.5887 -0.5036
 5709SOL    HW228590   3.650   1.444  11.069  0.1577 -0.7543  0.0483
 5710SOL     OW28591   1.324   4.162   6.549  0.2779 -0.5591 -0.2049
 5710SOL    HW128592   1.322   4.099   6.478 -0.9827 -1.7872  0.9317
 5710SOL    HW228593   1.411   4.198   6.529  0.0748  0.6179  1.0356
 5711SOL     OW28594   2.430   2.483  16.923  0.6245  0.1882  0.4555
 5711SOL    HW128595   2.508   2.429  16.910  0.2828  0.3953 -2.5566
 5711SOL    HW228596   2.478   2.565  16.926 -0.4266  0.8094  0.4640
 5712SOL     OW28597   1.872   3.058  12.335 -0.3782 -0.3972 -0.5620
 5712SOL    HW128598   1.856   3.016  12.419  3.3049  0.8509  0.7354
 5712SOL    HW228599   1.892   2.984  12.279  0.4674  0.1246 -0.9466
 5713SOL     OW28600   1.273   2.933  10.270  0.1155 -0.2774  0.2025
 5713SOL    HW128601   1.212   2.860  10.285 -2.2091  1.4489 -0.9270
 5713SOL    HW228602   1.310   2.888  10.194  2.6524  0.4281  1.0361
 5714SOL     OW28603   0.319   1.041  12.649 -0.2127  0.1147 -0.1354
 5714SOL    HW128604   0.398   1.062  12.698  0.6365 -1.3880 -0.8433
 5714SOL    HW228605   0.268   1.119  12.670 -1.5909 -0.4435 -1.4024
 5715SOL     OW28606   3.302   4.586  16.371  0.7278 -0.0204 -0.3919
 5715SOL    HW128607   3.323   4.665  16.322 -0.4526 -0.3643 -1.4466
 5715SOL    HW228608   3.272   4.623  16.454 -0.8404 -0.3061 -0.8314
 5716SOL     OW28609   2.720   4.241   3.185 -0.7976  0.4546  0.4103
 5716SOL    HW128610   2.724   4.146   3.184  2.1676  0.5595  2.3129
 5716SOL    HW228611   2.718   4.264   3.092 -1.9752  1.3084  0.6417
 5717SOL     OW28612   3.234   3.586   6.710 -0.1795  0.4053 -0.0281
 5717SOL    HW128613   3.144   3.562   6.691  0.0175  0.4633 -1.0202
 5717SOL    HW228614   3.220   3.637   6.790  1.6740 -0.0745  0.6136
 5718SOL     OW28615   3.521   4.089  13.176  0.3875 -0.2788 -0.4348
 5718SOL    HW128616   3.482   4.159  13.124 -0.7193 -1.5261 -1.2750
 5718SOL    HW228617   3.615   4.101  13.163  0.3259 -0.0895 -0.6928
 5719SOL     OW28618   4.173   0.152  15.458 -1.0186  0.0741  0.0915
 5719SOL    HW128619   4.083   0.123  15.447 -0.7417 -0.1760 -1.4966
 5719SOL    HW228620   4.169   0.187  15.547 -0.9479  0.9916 -0.2661
 5720SOL     OW28621   0.761   2.584   4.376  0.4797 -0.0654  0.1128
 5720SOL    HW128622   0.689   2.566   4.436  1.5239 -0.2404  1.3332
 5720SOL    HW228623   0.818   2.643   4.425 -0.2975 -0.6474  1.7316
 5721SOL     OW28624   1.583   1.253   7.904  0.2474  0.0015 -0.2314
 5721SOL    HW128625   1.580   1.316   7.832 -0.5462  0.0067 -0.1976
 5721SOL    HW228626   1.677   1.245   7.918 -0.5502 -1.4163  4.4694
 5722SOL     OW28627   2.386   0.286   2.746  0.3934 -0.1022 -1.1727
 5722SOL    HW128628   2.448   0.247   2.807 -1.4254  0.2393  0.9359
 5722SOL    HW228629   2.309   0.279   2.803 -0.6251 -0.5602 -2.6080
 5723SOL     OW28630   0.679   2.411   6.719 -0.0401  0.2640 -0.2613
 5723SOL    HW128631   0.769   2.435   6.738 -0.0337 -1.2373  1.5980
 5723SOL    HW228632   0.639   2.490   6.683 -1.4023 -0.9040 -1.3375
 5724SOL     OW28633   0.482   3.516   4.427  0.4675 -0.4978  0.7025
 5724SOL    HW128634   0.393   3.518   4.393  1.0729  1.1407 -0.7708
 5724SOL    HW228635   0.487   3.423   4.451  0.9855 -0.4390  0.8270
 5725SOL     OW28636   2.566   0.633  14.772  0.0342  0.1823 -0.0799
 5725SOL    HW128637   2.479   0.657  14.741  0.2176  0.7487 -0.1590
 5725SOL    HW228638   2.578   0.550  14.726 -1.2817  0.7910 -1.5162
 5726SOL     OW28639   1.275   1.265   3.624 -0.3246  0.0665 -0.2782
 5726SOL    HW128640   1.266   1.322   3.548 -0.0407 -0.1379 -0.4637
 5726SOL    HW228641   1.196   1.214   3.607 -0.9337  1.0993 -0.5802
 5727SOL     OW28642   3.086   0.243   7.722  0.1091  0.4427 -0.6838
 5727SOL    HW128643   3.015   0.306   7.733 -1.1273 -0.9941 -0.4037
 5727SOL    HW228644   3.022   0.175   7.704  0.6784  0.2896 -2.1447
 5728SOL     OW28645   1.528   1.443   7.403 -0.0984  0.1295 -0.1690
 5728SOL    HW128646   1.577   1.361   7.392 -0.1086 -0.0335  1.0444
 5728SOL    HW228647   1.516   1.468   7.311 -0.4006  1.9483  0.3653
 5729SOL     OW28648   0.375   0.580   1.406 -0.1844  0.1323  0.5323
 5729SOL    HW128649   0.291   0.535   1.400  0.3500 -0.4054 -2.9841
 5729SOL    HW228650   0.356   0.637   1.480  1.8559  0.0435  1.1479
 5730SOL     OW28651   1.823   0.961   8.009  0.1082 -0.1196 -0.0177
 5730SOL    HW128652   1.822   0.869   8.035  0.3360  0.0776  0.6943
 5730SOL    HW228653   1.741   0.973   7.962 -0.8019  2.0409  2.0896
 5731SOL     OW28654   2.608   4.130   7.733 -0.3086  0.4672  0.2886
 5731SOL    HW128655   2.538   4.070   7.709  0.1328 -0.1161  0.4492
 5731SOL    HW228656   2.596   4.209   7.679  0.4702  1.2627  1.2706
 5732SOL     OW28657   3.714   4.690   0.464 -0.5288  0.2422 -0.6024
 5732SOL    HW128658   3.659   4.708   0.388  0.5156  2.4122 -0.8206
 5732SOL    HW228659   3.790   4.653   0.419 -0.6795  1.9569 -2.2565
 5733SOL     OW28660   4.063   0.632   7.376  0.7296  0.3594  0.0278
 5733SOL    HW128661   4.087   0.544   7.405  2.3507  0.3841 -1.2072
 5733SOL    HW228662   3.979   0.652   7.418 -0.8379 -1.4391 -2.2037
 5734SOL     OW28663   2.344   4.705  16.510  0.3557  0.2492  0.2405
 5734SOL    HW128664   2.412   4.689  16.576 -0.1765 -1.0547  0.4780
 5734SOL    HW228665   2.274   0.010  16.569  0.3355  0.0165  0.3373
 5735SOL     OW28666   1.905   0.689  14.106  0.0193 -0.0790 -0.3334
 5735SOL    HW128667   1.964   0.748  14.059  0.3930 -0.9041 -0.9011
 5735SOL    HW228668   1.932   0.604  14.073  0.7632 -0.5446  1.5376
 5736SOL     OW28669   3.883   3.893   6.877  0.1234  0.3000 -0.3697
 5736SOL    HW128670   3.802   3.912   6.830  0.3645  1.4724 -0.3112
 5736SOL    HW228671   3.862   3.928   6.963 -0.5970  0.1785 -0.4991
 5737SOL     OW28672   3.539   4.495   0.585 -0.2349  0.4325 -0.2235
 5737SOL    HW128673   3.583   4.451   0.657 -2.5484 -0.2451  0.7994
 5737SOL    HW228674   3.585   4.577   0.567  0.7537 -0.4303 -1.5730
 5738SOL     OW28675   3.286   4.666   1.006 -0.3930  1.0822 -0.0230
 5738SOL    HW128676   3.230   4.607   0.956  1.4389  0.2109 -1.0498
 5738SOL    HW228677   3.300   4.598   1.073  1.9859  0.0139 -1.6152
 5739SOL     OW28678   2.816   2.895   7.421  0.5558  0.1389 -0.6122
 5739SOL    HW128679   2.811   2.990   7.417 -0.5724  0.1650  1.1120
 5739SOL    HW228680   2.907   2.875   7.445 -0.7210 -2.8554  1.7957
 5740SOL     OW28681   2.977   1.120  17.635  0.4278  0.7334  0.0923
 5740SOL    HW128682   2.970   1.031  17.671 -4.2424 -0.1378 -2.9400
 5740SOL    HW228683   3.021   1.106  17.551 -4.1598 -0.9945 -2.0494
 5741SOL     OW28684   3.402   1.990   6.740 -0.0985  0.0101  0.0577
 5741SOL    HW128685   3.432   1.900   6.728  0.3215  0.2356 -0.5520
 5741SOL    HW228686   3.483   2.040   6.744 -0.5423  0.3491  4.7258
 5742SOL     OW28687   1.353   4.282  16.522  0.1086  0.1544 -0.0682
 5742SOL    HW128688   1.335   4.347  16.454  0.2707  1.0720  0.7628
 5742SOL    HW228689   1.335   4.331  16.602 -0.7075 -2.3752  1.2781
 5743SOL     OW28690   3.186   0.952   5.505  0.3026  0.0337  0.7985
 5743SOL    HW128691   3.190   0.887   5.435  3.1556  0.1831  0.8113
 5743SOL    HW228692   3.092   0.963   5.515 -0.1735 -5.4038  1.8903
 5744SOL     OW28693   1.328   3.298   8.886 -0.1016  0.3835  0.1849
 5744SOL    HW128694   1.382   3.262   8.957  0.5203  1.5127  0.2672
 5744SOL    HW228695   1.389   3.302   8.813  0.5035 -2.2983  0.5292
 5745SOL     OW28696   0.756   3.453   9.214 -0.1575 -0.5023  0.5230
 5745SOL    HW128697   0.722   3.475   9.127  2.6141  2.8626  0.3155
 5745SOL    HW228698   0.843   3.423   9.187 -1.3408 -1.4698 -2.2065
 5746SOL     OW28699   1.112   3.372  15.618  0.5846 -0.3038 -0.0256
 5746SOL    HW128700   1.070   3.310  15.559  0.8013 -0.2934 -0.1935
 5746SOL    HW228701   1.109   3.450  15.562  1.9038  0.0374  0.3732
 5747SOL     OW28702   3.552   2.761   2.287 -0.1578  0.0863 -0.2018
 5747SOL    HW128703   3.467   2.739   2.250  0.4255  1.1571 -2.1789
 5747SOL    HW228704   3.577   2.823   2.218 -0.2304  0.0146 -0.2915
 5748SOL     OW28705   2.497   3.418  15.481 -0.2432 -0.2491  0.0421
 5748SOL    HW128706   2.418   3.371  15.454  0.8564 -2.6503  0.9686
 5748SOL    HW228707   2.455   3.498  15.514 -0.1906 -1.3853  2.9254
 5749SOL     OW28708   0.395   2.210   7.801  0.8907  0.6604  0.4428
 5749SOL    HW128709   0.433   2.122   7.793  1.0291  0.5671  2.3025
 5749SOL    HW228710   0.368   2.203   7.892  0.3468  0.1800  0.2471
 5750SOL     OW28711   1.202   1.487   3.405 -0.3080  0.3865  1.0178
 5750SOL    HW128712   1.122   1.536   3.422 -0.3459  0.1814  1.4305
 5750SOL    HW228713   1.251   1.563   3.372 -1.0078  0.1107 -0.6185
 5751SOL     OW28714   4.087   1.275  16.041  0.0424 -0.6621 -0.4026
 5751SOL    HW128715   4.151   1.228  15.987  0.0279 -0.2949 -0.7336
 5751SOL    HW228716   4.045   1.200  16.083 -1.1062  0.0192 -0.3688
 5752SOL     OW28717   2.693   1.735   4.846  0.4438 -0.1366  0.3532
 5752SOL    HW128718   2.761   1.679   4.885 -0.6690 -1.6205  0.1413
 5752SOL    HW228719   2.657   1.678   4.778 -0.9341  1.1952 -0.0419
 5753SOL     OW28720   3.066   4.552   7.464  0.6164  0.0787 -0.2128
 5753SOL    HW128721   3.144   4.534   7.411  0.3580 -1.5199 -0.0544
 5753SOL    HW228722   3.107   4.583   7.544 -1.1876  0.0894  0.6964
 5754SOL     OW28723   2.234   2.579   2.497  0.1617 -0.1005 -0.4099
 5754SOL    HW128724   2.294   2.523   2.449 -0.0870 -0.3193 -0.4632
 5754SOL    HW228725   2.155   2.581   2.444  0.6700 -1.9875 -1.2340
 5755SOL     OW28726   1.063   2.930   7.123 -0.1320 -0.2209 -0.6389
 5755SOL    HW128727   1.034   2.879   7.198  0.0935  0.5127 -0.0621
 5755SOL    HW228728   1.034   3.020   7.137  0.2850 -0.5331  2.2815
 5756SOL     OW28729   3.216   1.414  14.568 -0.5955 -0.4000  0.6048
 5756SOL    HW128730   3.240   1.474  14.639  2.5016  0.3470 -1.0342
 5756SOL    HW228731   3.170   1.344  14.614  0.9135 -1.0709  1.0937
 5757SOL     OW28732   0.595   4.389   5.000 -0.4209  0.0062 -0.3357
 5757SOL    HW128733   0.578   4.477   4.969 -1.0338  0.2805  0.7549
 5757SOL    HW228734   0.651   4.361   4.928  1.4667  0.2132  1.0543
 5758SOL     OW28735   0.178   0.496   8.389  0.1657 -0.1963 -0.1216
 5758SOL    HW128736   0.209   0.451   8.310  0.8943  0.7363 -0.3740
 5758SOL    HW228737   0.131   0.566   8.345  0.9169  0.4751  0.1261
 5759SOL     OW28738   3.205   1.800  12.501  0.0529  0.1421  0.1995
 5759SOL    HW128739   3.139   1.736  12.474 -0.0409  0.1487  0.4141
 5759SOL    HW228740   3.201   1.762  12.589 -0.9791 -1.0509 -0.3596
 5760SOL     OW28741   0.208   2.598   1.300 -0.4106 -0.1706 -0.4523
 5760SOL    HW128742   0.289   2.576   1.255  0.9437  0.1304  1.8644
 5760SOL    HW228743   0.205   2.532   1.369  2.1312 -0.3024 -0.4774
 5761SOL     OW28744   2.993   4.086   4.697  0.1935  0.0887 -1.1206
 5761SOL    HW128745   3.078   4.128   4.689  0.2109  0.5621  1.4404
 5761SOL    HW228746   3.001   4.057   4.788  2.4650 -0.7860 -1.6026
 5762SOL     OW28747   2.159   0.049   0.070 -0.0240  0.2825  0.6421
 5762SOL    HW128748   2.249   0.018   0.084 -0.5192 -0.5823  1.9321
 5762SOL    HW228749   2.165   0.145   0.062 -1.9807  0.2968 -0.6495
 5763SOL     OW28750   2.326   0.875   4.229 -0.1078 -0.4642  0.4147
 5763SOL    HW128751   2.421   0.874   4.239 -0.1209  1.3993  0.8779
 5763SOL    HW228752   2.333   0.884   4.134 -0.3180  0.4770  0.4813
 5764SOL     OW28753   0.387   3.827  11.448 -0.1321  0.4788  0.4766
 5764SOL    HW128754   0.301   3.840  11.407  0.6613 -0.2911 -1.4258
 5764SOL    HW228755   0.427   3.909  11.420  0.6883 -0.0997 -0.0302
 5765SOL     OW28756   4.374   2.392   2.137  0.3635  0.2787  0.7530
 5765SOL    HW128757   4.328   2.349   2.210 -1.4041  0.4904 -0.2417
 5765SOL    HW228758   4.391   2.312   2.086  2.6467  0.6215  0.9763
 5766SOL     OW28759   2.500   1.324   4.346  0.5573 -0.0812 -0.0042
 5766SOL    HW128760   2.472   1.405   4.389 -0.1914 -0.5044  0.3089
 5766SOL    HW228761   2.436   1.312   4.276  0.7812 -1.5660  0.0502
 5767SOL     OW28762   3.494   1.154   9.682  0.6133 -0.0542  0.4997
 5767SOL    HW128763   3.475   1.062   9.667 -2.1299  0.4318  0.9298
 5767SOL    HW228764   3.579   1.172   9.642  0.4717  0.0196  0.2326
 5768SOL     OW28765   0.160   0.838   1.237  0.4135 -0.8001 -0.0607
 5768SOL    HW128766   0.105   0.827   1.315  0.4605 -2.0737 -0.2193
 5768SOL    HW228767   0.131   0.763   1.186 -1.1114  0.5251 -1.1630
 5769SOL     OW28768   2.844   0.186   4.669 -0.5092 -0.2843  0.2083
 5769SOL    HW128769   2.757   0.151   4.687 -0.4643 -0.2754  0.4413
 5769SOL    HW228770   2.828   0.274   4.636  1.4806 -0.8546 -2.2900
 5770SOL     OW28771   1.206   4.690   2.178 -0.2684 -0.0772  0.2813
 5770SOL    HW128772   1.215   4.620   2.113 -0.2764  0.9030 -0.7609
 5770SOL    HW228773   1.255   4.647   2.249 -0.5752  0.6805  0.9506
 5771SOL     OW28774   0.631   3.720   0.507 -0.4327  0.0780 -0.0627
 5771SOL    HW128775   0.547   3.691   0.542 -1.1455 -0.7731 -2.4875
 5771SOL    HW228776   0.611   3.812   0.486 -1.1892  0.0046  0.3615
 5772SOL     OW28777   3.323   2.797  13.986 -0.5374 -0.3403  0.2007
 5772SOL    HW128778   3.371   2.718  14.011 -0.7085 -0.3722  0.4248
 5772SOL    HW228779   3.270   2.804  14.065  0.2832 -0.8450  0.7939
 5773SOL     OW28780   0.296   0.034  10.961 -0.4424  0.6116  0.0754
 5773SOL    HW128781   0.354   4.689  10.933 -0.9541  0.0091  0.4947
 5773SOL    HW228782   0.238   0.015  10.887 -1.8157  0.4050  1.1926
 5774SOL     OW28783   4.298   3.353   2.084 -0.1486 -0.3564 -0.1225
 5774SOL    HW128784   4.287   3.296   2.160  1.6904  1.1162  1.2623
 5774SOL    HW228785   4.228   3.416   2.096  0.5100  0.2880  0.3378
 5775SOL     OW28786   3.696   4.528   3.539 -0.1822  0.3871 -0.7027
 5775SOL    HW128787   3.636   4.562   3.473  1.4575  0.7711 -1.9730
 5775SOL    HW228788   3.637   4.523   3.615  1.2732 -0.3069  0.3917
 5776SOL     OW28789   2.809   2.742   3.541 -0.0073  0.0974 -0.0261
 5776SOL    HW128790   2.726   2.741   3.589 -0.2282 -1.5933 -0.4431
 5776SOL    HW228791   2.818   2.836   3.523 -0.7287 -0.0360 -1.1172
 5777SOL     OW28792   0.528   2.862   3.359 -0.1915 -0.0829  0.6644
 5777SOL    HW128793   0.563   2.951   3.357  1.1647 -0.6394  0.1651
 5777SOL    HW228794   0.509   2.846   3.451 -0.4216  0.6425  0.7372
 5778SOL     OW28795   1.137   2.301   5.800  0.0036  0.6609  0.1095
 5778SOL    HW128796   1.066   2.278   5.740  0.2631  1.1335 -0.3897
 5778SOL    HW228797   1.103   2.266   5.882  1.6095  2.5632  1.5738
 5779SOL     OW28798   4.166   2.019  13.532  0.5662  0.1131  0.0146
 5779SOL    HW128799   4.094   2.072  13.566 -0.6876 -1.1147 -0.7584
 5779SOL    HW228800   4.123   1.963  13.468 -0.3311  1.9320 -0.9643
 5780SOL     OW28801   4.313   1.921   5.466  0.3720 -0.5837 -0.0082
 5780SOL    HW128802   4.335   1.996   5.412 -2.3660  0.1496 -0.1095
 5780SOL    HW228803   4.366   1.859   5.416  1.5539 -0.3414  0.9626
 5781SOL     OW28804   3.410   1.589  13.700  0.1522 -0.4033  0.1241
 5781SOL    HW128805   3.397   1.673  13.744  0.0429 -0.5620  0.3946
 5781SOL    HW228806   3.429   1.534  13.776  4.0409  1.9953  0.8533
 5782SOL     OW28807   1.096   4.645   5.044  0.2365 -0.1846 -0.7676
 5782SOL    HW128808   1.160   4.603   5.101 -0.5583  0.1715  0.3724
 5782SOL    HW228809   1.079   0.005   5.084 -0.2102 -0.9559  0.6594
 5783SOL     OW28810   0.645   1.262   2.213 -0.2862  0.0436 -0.4443
 5783SOL    HW128811   0.604   1.202   2.150 -0.5238 -1.9955  1.6347
 5783SOL    HW228812   0.711   1.208   2.258 -2.1420 -2.1193 -0.3248
 5784SOL     OW28813   0.081   1.450   4.102  0.3013  0.1738 -0.1012
 5784SOL    HW128814   0.140   1.482   4.034 -2.9468  3.1293 -1.5290
 5784SOL    HW228815   0.110   1.507   4.174 -0.1109  0.2314  0.0221
 5785SOL     OW28816   2.466   4.087  15.561 -0.1865  0.0594  1.1700
 5785SOL    HW128817   2.435   4.141  15.635  2.4064  2.9410  0.1566
 5785SOL    HW228818   2.449   4.001  15.599 -0.3656 -0.0324  0.8798
 5786SOL     OW28819   3.500   1.907   2.302 -0.0144  0.6198 -0.0786
 5786SOL    HW128820   3.444   1.839   2.339  1.0829  1.3383  2.9141
 5786SOL    HW228821   3.436   1.978   2.310  0.1194  0.6670  0.5766
 5787SOL     OW28822   3.213   0.617   7.650  0.5577  0.1501  0.0696
 5787SOL    HW128823   3.128   0.630   7.691  0.6711  0.2499  0.2711
 5787SOL    HW228824   3.273   0.632   7.723  0.1485 -2.2931  0.9260
 5788SOL     OW28825   4.405   4.657   7.016  0.0354 -0.1883 -0.2571
 5788SOL    HW128826   4.410   4.562   7.032  2.1115  0.4286  2.8634
 5788SOL    HW228827   4.316   4.662   6.982 -0.4763 -0.3834  1.0528
 5789SOL     OW28828   0.101   0.111   5.896  0.7703  0.4976  0.3718
 5789SOL    HW128829   0.052   0.032   5.875  3.0875 -0.8569  0.0094
 5789SOL    HW228830   0.052   0.179   5.851  0.0203  0.0199  0.4598
 5790SOL     OW28831   3.004   1.744   9.646  0.1198 -0.4037 -0.1962
 5790SOL    HW128832   2.943   1.689   9.596 -0.9591 -2.1168  2.9799
 5790SOL    HW228833   3.080   1.686   9.639 -0.9205 -1.8343  0.1333
 5791SOL     OW28834   0.310   1.256   3.498 -0.2559 -0.2721 -0.6617
 5791SOL    HW128835   0.270   1.342   3.480 -2.1532 -0.6830  1.5250
 5791SOL    HW228836   0.238   1.194   3.491 -1.6913  1.5065 -1.6711
 5792SOL     OW28837   1.745   1.116   5.037 -0.2317  0.0858  0.2423
 5792SOL    HW128838   1.799   1.042   5.008 -0.4653 -1.3620  3.5185
 5792SOL    HW228839   1.682   1.071   5.095  0.7462 -0.5115  0.8411
 5793SOL     OW28840   1.040   2.523   9.528  0.4016  0.2589 -0.1139
 5793SOL    HW128841   1.117   2.483   9.570 -0.8929 -0.3081  1.7282
 5793SOL    HW228842   1.071   2.541   9.439  0.4318 -0.7832 -0.3229
 5794SOL     OW28843   1.655   2.843   5.141  0.4422 -0.1938  0.0046
 5794SOL    HW128844   1.702   2.770   5.101 -1.3827 -0.4384 -1.7063
 5794SOL    HW228845   1.577   2.795   5.170  1.3007 -1.4546  0.2601
 5795SOL     OW28846   0.796   3.298   2.822 -0.4566  0.0999  0.6107
 5795SOL    HW128847   0.753   3.383   2.815  0.9636  0.7363 -0.3112
 5795SOL    HW228848   0.812   3.275   2.730 -0.9644  0.2461  0.4863
 5796SOL     OW28849   1.958   0.305   1.151 -0.7776  0.7431  0.1402
 5796SOL    HW128850   1.944   0.378   1.090  1.3086  0.7663 -0.3055
 5796SOL    HW228851   1.929   0.237   1.091  0.4350  0.5523 -0.2368
 5797SOL     OW28852   3.521   1.867  14.185 -0.5526  0.8917  0.0857
 5797SOL    HW128853   3.484   1.780  14.201 -1.0749  1.1945  0.4952
 5797SOL    HW228854   3.440   1.916  14.191  1.1286  3.7108 -0.3941
 5798SOL     OW28855   1.770   0.039   1.161  0.4041 -0.3429 -0.4134
 5798SOL    HW128856   1.792   4.671   1.161 -0.5490 -0.5732  1.0370
 5798SOL    HW228857   1.739   0.043   1.252 -0.1055 -2.1347 -0.4974
 5799SOL     OW28858   1.505   0.405   6.976  0.8207 -0.1348 -0.3146
 5799SOL    HW128859   1.553   0.340   7.028 -2.7605 -1.1179  1.7974
 5799SOL    HW228860   1.547   0.398   6.891 -1.4940  0.8603 -1.5406
 5800SOL     OW28861   4.517   2.020   4.419  0.3358 -0.0694 -0.1847
 5800SOL    HW128862   4.556   2.069   4.346  0.6884  0.5323  0.4061
 5800SOL    HW228863   4.432   2.065   4.415 -1.2022 -2.7719  2.4573
 5801SOL     OW28864   4.157   3.644  14.766 -0.1104 -0.1120 -0.3778
 5801SOL    HW128865   4.131   3.724  14.811 -0.9547 -0.4604 -0.2477
 5801SOL    HW228866   4.200   3.603  14.842  0.0790 -1.7913 -1.3991
 5802SOL     OW28867   4.109   4.290   8.859  0.1387 -0.0872  0.5768
 5802SOL    HW128868   4.105   4.195   8.873 -0.3307 -0.2950 -0.9104
 5802SOL    HW228869   4.047   4.319   8.925 -0.4861 -2.8564  1.2284
 5803SOL     OW28870   3.081   0.289   8.617 -0.2126  0.1712  0.1397
 5803SOL    HW128871   3.025   0.360   8.647 -0.3142 -0.3267  1.1292
 5803SOL    HW228872   3.129   0.271   8.698  0.4702 -0.1382 -0.3292
 5804SOL     OW28873   2.083   2.490  14.786  0.6886 -0.3710  0.2659
 5804SOL    HW128874   2.150   2.518  14.723  1.3477  1.2507  1.6655
 5804SOL    HW228875   2.136   2.468  14.863  1.5225  0.0799 -0.1775
 5805SOL     OW28876   1.960   2.209   7.781 -0.1290  0.1438  0.1788
 5805SOL    HW128877   1.966   2.302   7.803  0.1045  0.3874 -0.9065
 5805SOL    HW228878   2.045   2.169   7.797 -0.0267  0.4307  0.3574
 5806SOL     OW28879   0.689   2.990  14.906 -0.5493  0.3577  0.5066
 5806SOL    HW128880   0.639   2.995  14.824 -0.1457  2.9984  0.4090
 5806SOL    HW228881   0.740   2.909  14.897 -0.8721  0.1568  0.4857
 5807SOL     OW28882   2.138   1.464  11.525 -0.3477 -0.3182  0.1688
 5807SOL    HW128883   2.227   1.464  11.491  0.2227 -1.2314  1.6948
 5807SOL    HW228884   2.103   1.383  11.486  0.9493 -0.1834 -1.2813
 5808SOL     OW28885   1.982   0.772   1.459  0.5515  0.2861  0.6971
 5808SOL    HW128886   2.048   0.705   1.440 -0.1881 -0.1412 -0.3600
 5808SOL    HW228887   1.929   0.717   1.518 -0.6793  0.0425 -0.6242
 5809SOL     OW28888   1.875   0.368   0.118  0.6493  0.1223 -0.9190
 5809SOL    HW128889   1.876   0.459   0.087  0.9404  0.4210 -0.0601
 5809SOL    HW228890   1.968   0.351   0.099  0.9990 -0.1115  0.9743
 5810SOL     OW28891   0.657   4.525   6.200  0.5267  0.6407 -0.1353
 5810SOL    HW128892   0.619   4.462   6.138  0.1294 -0.7699  1.5544
 5810SOL    HW228893   0.707   4.575   6.135  0.1317 -0.1602 -1.0521
 5811SOL     OW28894   4.336   2.001   9.490 -0.4850 -0.1573  0.2164
 5811SOL    HW128895   4.298   1.920   9.455 -0.7876  0.2886 -0.4994
 5811SOL    HW228896   4.363   1.961   9.572  1.1815 -0.1087 -0.3076
 5812SOL     OW28897   3.770   1.870   6.004 -0.1967  0.3494  0.0956
 5812SOL    HW128898   3.846   1.924   5.980  0.4070 -1.4977 -2.2118
 5812SOL    HW228899   3.808   1.782   5.996 -0.0452  0.5840 -1.8869
 5813SOL     OW28900   0.015   1.434   6.101 -0.2839 -0.1689  0.5535
 5813SOL    HW128901   0.021   1.398   6.013  0.4331  0.9448  0.1553
 5813SOL    HW228902   0.050   1.356   6.145  1.3039  0.5266  0.5121
 5814SOL     OW28903   0.354   0.840  10.669 -0.3768 -0.6953  0.0628
 5814SOL    HW128904   0.330   0.921  10.623  0.0045 -0.9622 -0.6002
 5814SOL    HW228905   0.448   0.840  10.685 -0.4224  0.7462  0.3142
 5815SOL     OW28906   3.060   0.730   8.337  0.6303 -0.4754 -0.4514
 5815SOL    HW128907   3.007   0.674   8.396 -0.0497  0.1357 -0.4810
 5815SOL    HW228908   3.028   0.687   8.258  0.3268 -1.9571  0.4707
 5816SOL     OW28909   2.992   3.881   2.189 -0.5483  0.5161 -0.3309
 5816SOL    HW128910   3.020   3.796   2.222  0.0172  0.1346 -1.8058
 5816SOL    HW228911   3.062   3.884   2.124 -0.7977  2.9204 -0.5069
 5817SOL     OW28912   3.482   1.818   4.210 -0.2190  0.4151 -0.6190
 5817SOL    HW128913   3.478   1.894   4.268 -1.1542 -1.1661  1.3726
 5817SOL    HW228914   3.526   1.853   4.132 -0.5367 -2.1840 -1.9794
 5818SOL     OW28915   1.497   3.828   9.241 -0.4666 -0.1624  0.2193
 5818SOL    HW128916   1.509   3.749   9.188 -1.9567  1.1961 -2.1435
 5818SOL    HW228917   1.409   3.859   9.222  0.6464  1.4801 -2.2866
 5819SOL     OW28918   0.638   1.091   2.967  0.2045  0.0084  0.1945
 5819SOL    HW128919   0.653   1.025   2.900  2.0770 -0.6598  1.2740
 5819SOL    HW228920   0.572   1.148   2.926 -1.3214 -1.8851  0.0459
 5820SOL     OW28921   1.660   0.160   2.419  0.0268  0.2208 -0.3185
 5820SOL    HW128922   1.682   0.244   2.380  1.6172  0.9851  2.2206
 5820SOL    HW228923   1.661   0.109   2.338  1.2575  1.7339 -1.2577
 5821SOL     OW28924   4.174   0.611  15.738 -0.5038  0.6189 -0.0676
 5821SOL    HW128925   4.083   0.618  15.767 -0.8562 -0.8798 -0.7976
 5821SOL    HW228926   4.212   0.620  15.825  0.2601 -2.1637 -0.0978
 5822SOL     OW28927   3.909   2.974   2.325 -0.1103  0.4290  1.2646
 5822SOL    HW128928   3.856   2.969   2.246  1.7136 -0.7281  0.1093
 5822SOL    HW228929   3.842   2.984   2.393 -2.4664  0.5303 -1.0823
 5823SOL     OW28930   0.660   1.478   2.033 -0.4872  0.3563  0.0991
 5823SOL    HW128931   0.641   1.411   1.967  0.0014 -0.7602  1.0844
 5823SOL    HW228932   0.677   1.422   2.108  0.4562  0.0675 -0.3188
 5824SOL     OW28933   2.926   1.615   2.451 -0.2036 -0.5788  0.1664
 5824SOL    HW128934   2.890   1.663   2.376  0.4595 -0.2533  0.0530
 5824SOL    HW228935   2.935   1.686   2.514 -1.0434 -0.6816  0.4044
 5825SOL     OW28936   3.060   4.252   8.718  0.1027  0.3927  0.4446
 5825SOL    HW128937   3.145   4.295   8.709  0.3628 -0.2434 -0.2454
 5825SOL    HW228938   3.002   4.288   8.651 -1.9603  0.1243  2.0965
 5826SOL     OW28939   3.069   0.704   9.721 -0.0980 -0.4600  0.2830
 5826SOL    HW128940   3.113   0.734   9.800  1.2212  0.1850 -0.6861
 5826SOL    HW228941   2.989   0.667   9.760 -0.6034  1.2046  0.8208
 5827SOL     OW28942   0.985   2.303   8.570  0.3753 -0.3604  0.2997
 5827SOL    HW128943   0.980   2.368   8.640 -0.5704 -2.4383  2.1687
 5827SOL    HW228944   0.899   2.263   8.582  0.5060  0.0809  2.7679
 5828SOL     OW28945   2.564   3.367   2.391 -0.2515  0.2148 -0.1395
 5828SOL    HW128946   2.486   3.367   2.335 -0.7000  0.1985  0.4912
 5828SOL    HW228947   2.617   3.436   2.349 -2.5083  2.3821  0.5605
 5829SOL     OW28948   4.136   2.901   7.197 -0.6512  0.4942  0.1096
 5829SOL    HW128949   4.204   2.928   7.135 -0.8190  1.7519  0.4815
 5829SOL    HW228950   4.190   2.892   7.275  0.4537 -0.6436 -0.7793
 5830SOL     OW28951   2.911   4.689   7.890 -0.1311  0.4861  0.0194
 5830SOL    HW128952   2.846   4.633   7.934  1.8997 -2.3561 -0.5668
 5830SOL    HW228953   2.858   4.720   7.817  2.0489 -1.7946 -2.5751
 5831SOL     OW28954   0.846   1.344   5.205 -0.4565 -0.2358  0.3613
 5831SOL    HW128955   0.859   1.299   5.122 -2.2429  0.4895 -0.3172
 5831SOL    HW228956   0.922   1.323   5.259 -0.4662 -0.9340  0.1006
 5832SOL     OW28957   4.285   2.542   3.289 -0.2540 -0.1531 -0.5428
 5832SOL    HW128958   4.280   2.595   3.210  0.7788 -0.7977 -1.0475
 5832SOL    HW228959   4.353   2.590   3.336  1.5952 -1.9588 -1.3487
 5833SOL     OW28960   3.088   3.162   5.403 -0.2285 -0.1410  0.3176
 5833SOL    HW128961   3.116   3.243   5.446  0.7194 -0.5781  0.5144
 5833SOL    HW228962   3.024   3.211   5.351 -0.6699 -1.4017 -0.3265
 5834SOL     OW28963   3.844   2.540   3.875  0.2393 -0.0693 -0.1217
 5834SOL    HW128964   3.894   2.621   3.891  0.4695 -0.1045 -0.6508
 5834SOL    HW228965   3.760   2.584   3.861  0.9768  0.3037 -3.3759
 5835SOL     OW28966   0.176   2.201   7.986  0.4854  0.1371 -0.5505
 5835SOL    HW128967   0.180   2.297   7.986 -0.9045  0.1946  1.0062
 5835SOL    HW228968   0.089   2.192   8.025 -0.1542  0.2495 -1.9527
 5836SOL     OW28969   4.295   1.725   2.438 -0.5018  0.2802  0.3598
 5836SOL    HW128970   4.339   1.671   2.372  0.3044 -1.4568  2.3331
 5836SOL    HW228971   4.207   1.732   2.401 -0.6319 -1.7760  0.2819
 5837SOL     OW28972   2.984   3.517   8.961  0.0575  0.2251  0.4189
 5837SOL    HW128973   2.907   3.495   8.908 -1.3725  2.5790  1.4896
 5837SOL    HW228974   2.945   3.529   9.047  1.4013  0.0184  1.0571
 5838SOL     OW28975   0.597   2.451   5.562 -0.0633 -0.1772  0.1284
 5838SOL    HW128976   0.526   2.401   5.522 -2.2306  0.0111  3.6871
 5838SOL    HW228977   0.585   2.535   5.519 -0.5964 -0.9510 -1.2393
 5839SOL     OW28978   3.328   3.149   9.478 -0.1552 -0.1308  0.9727
 5839SOL    HW128979   3.420   3.127   9.460 -0.3864  0.1649 -0.5785
 5839SOL    HW228980   3.347   3.238   9.507  1.6671  0.3843 -1.7919
 5840SOL     OW28981   2.379   1.835   3.078 -0.4456  0.2713 -0.3905
 5840SOL    HW128982   2.353   1.837   3.170 -0.8785 -0.2099 -0.5040
 5840SOL    HW228983   2.434   1.756   3.077  0.6035  1.0095 -1.9034
 5841SOL     OW28984   4.277   4.613   9.496  0.5505  0.3391 -0.1541
 5841SOL    HW128985   4.202   4.577   9.543 -2.2371  1.6766 -3.5703
 5841SOL    HW228986   4.242   4.663   9.422  0.5867  2.3363  1.1631
 5842SOL     OW28987   3.144   1.763  15.029 -0.3150 -0.2002 -0.0715
 5842SOL    HW128988   3.103   1.812  15.100 -2.0671 -1.2059 -0.3822
 5842SOL    HW228989   3.088   1.686  15.020 -0.9202  0.1146  1.1029
 5843SOL     OW28990   3.123   2.017  14.894  0.0404 -0.0033  0.4749
 5843SOL    HW128991   3.150   1.928  14.915  0.3616 -0.8469 -3.6814
 5843SOL    HW228992   3.031   1.995  14.883 -0.2005  1.3398 -0.1942
 5844SOL     OW28993   4.123   0.716  15.330  0.0626  0.1511 -0.0367
 5844SOL    HW128994   4.080   0.647  15.280  0.0229  1.8876 -2.4291
 5844SOL    HW228995   4.135   0.664  15.409 -1.0062 -0.1003 -0.0350
 5845SOL     OW28996   0.797   2.881   2.407 -0.1196 -0.9269 -0.0394
 5845SOL    HW128997   0.716   2.863   2.455 -0.5903 -1.6201 -1.1067
 5845SOL    HW228998   0.769   2.867   2.317  1.0156 -0.0355 -0.5232
 5846SOL     OW28999   1.583   2.842   7.314 -0.2760  0.0020 -0.5874
 5846SOL    HW129000   1.505   2.856   7.368 -0.6523 -1.3854 -0.7689
 5846SOL    HW229001   1.600   2.756   7.354  0.9603  0.5688  0.1171
 5847SOL     OW29002   4.085   0.475   4.273  0.3601 -0.6473 -0.1233
 5847SOL    HW129003   4.003   0.517   4.297  0.5831  0.4745 -1.3240
 5847SOL    HW229004   4.060   0.424   4.195 -0.8934 -1.2037  0.6398
 5848SOL     OW29005   3.555   0.517   4.788  0.5925 -0.2455  0.3779
 5848SOL    HW129006   3.517   0.484   4.707  0.9869  3.0324 -1.1238
 5848SOL    HW229007   3.550   0.612   4.779  2.2913 -0.2545 -0.6631
 5849SOL     OW29008   1.886   0.718   5.006  0.5646  0.0688  0.3891
 5849SOL    HW129009   1.903   0.663   4.929  0.7687  1.0065 -0.2350
 5849SOL    HW229010   1.839   0.789   4.962  0.2468 -1.3087 -1.4699
 5850SOL     OW29011   2.896   2.345   6.743  0.4913  0.1241  0.3474
 5850SOL    HW129012   2.896   2.259   6.786  3.7413 -1.1543 -2.1910
 5850SOL    HW229013   2.881   2.404   6.816  0.5940  0.4740  0.0850
 5851SOL     OW29014   2.022   0.149   4.158  0.0503 -0.9020  0.4812
 5851SOL    HW129015   2.018   0.090   4.233 -0.9158 -0.5027  0.7418
 5851SOL    HW229016   1.942   0.200   4.165  1.0308  0.7289 -0.0952
 5852SOL     OW29017   0.715   1.990   6.485  0.4062 -0.0123 -0.1662
 5852SOL    HW129018   0.747   2.079   6.500  0.4649  0.1980 -1.5242
 5852SOL    HW229019   0.775   1.949   6.548  2.5027  2.1513 -0.7456
 5853SOL     OW29020   2.124   0.904  15.338 -0.2485  0.0325  0.3045
 5853SOL    HW129021   2.053   0.967  15.323  0.5705  1.1003  0.9125
 5853SOL    HW229022   2.084   0.823  15.305 -3.0822  1.7438 -0.4580
 5854SOL     OW29023   1.414   2.652   3.304  0.5033 -0.5698  0.1749
 5854SOL    HW129024   1.492   2.606   3.334  1.9974  0.4206 -2.1550
 5854SOL    HW229025   1.356   2.625   3.374  1.7825 -2.1019  0.6456
 5855SOL     OW29026   4.414   3.079   3.050 -0.0068 -0.4388  0.3180
 5855SOL    HW129027   4.439   3.118   2.966  1.8454 -0.0369  1.0453
 5855SOL    HW229028   4.474   3.005   3.050  0.4755 -0.0522  1.1106
 5856SOL     OW29029   1.964   2.767   2.646 -0.4644  0.7345 -0.5056
 5856SOL    HW129030   2.042   2.802   2.689  0.0151 -0.1078 -0.6909
 5856SOL    HW229031   1.904   2.747   2.717  1.6566 -0.5238  0.9377
 5857SOL     OW29032   1.322   2.184   7.112 -0.7280  0.2437 -0.5902
 5857SOL    HW129033   1.389   2.214   7.172 -1.6669 -1.9931  1.5750
 5857SOL    HW229034   1.260   2.245   7.151 -0.7130  0.5952 -1.1029
 5858SOL     OW29035   0.433   4.324  14.977 -0.4505  0.4058 -0.2220
 5858SOL    HW129036   0.483   4.275  15.042  2.2554  2.5652 -0.7284
 5858SOL    HW229037   0.413   4.394  15.039  0.6007 -0.5288  1.1781
 5859SOL     OW29038   2.985   3.561   6.614  0.2330 -0.6076  0.0223
 5859SOL    HW129039   2.938   3.556   6.698  2.3089  1.1006  1.3110
 5859SOL    HW229040   2.921   3.539   6.547 -0.5199 -0.5706  0.7279
 5860SOL     OW29041   2.106   2.702  12.053 -0.2689 -0.2509 -0.3444
 5860SOL    HW129042   2.135   2.637  11.989  0.1480  1.0657 -1.5119
 5860SOL    HW229043   2.143   2.663  12.131 -0.7676  0.5340  0.2841
 5861SOL     OW29044   2.960   1.347   4.593  0.2091  0.1413  0.0887
 5861SOL    HW129045   2.890   1.296   4.553  1.7933 -0.7797 -1.5174
 5861SOL    HW229046   2.938   1.325   4.683  0.3760 -0.1925  0.0474
 5862SOL     OW29047   4.114   3.604   7.075 -0.1832  0.1578 -0.3661
 5862SOL    HW129048   4.143   3.521   7.111 -1.7114 -0.6017 -0.8554
 5862SOL    HW229049   4.100   3.664   7.148  0.5010  2.3458 -2.0318
 5863SOL     OW29050   3.672   2.088   1.012  0.0087  0.1886 -0.3550
 5863SOL    HW129051   3.631   2.010   1.049  1.8454 -0.6211  0.0004
 5863SOL    HW229052   3.734   2.041   0.956  3.5041  2.5922  1.4415
 5864SOL     OW29053   3.532   2.039   4.413 -0.2503  0.2075  0.0318
 5864SOL    HW129054   3.624   2.019   4.428 -0.4369  1.1385  2.3636
 5864SOL    HW229055   3.544   2.099   4.339  1.5043  1.7894  1.6179
 5865SOL     OW29056   3.729   2.946   9.599  0.2766 -0.0750 -0.3375
 5865SOL    HW129057   3.808   2.927   9.548 -0.6965 -0.3160 -1.7398
 5865SOL    HW229058   3.760   2.934   9.689 -0.4010 -3.6714 -0.5946
 5866SOL     OW29059   2.576   0.748   5.727  0.3560  0.4329  0.2234
 5866SOL    HW129060   2.669   0.726   5.723  0.2292  0.2483 -1.9373
 5866SOL    HW229061   2.577   0.809   5.653  1.4541  0.4381  0.2402
 5867SOL     OW29062   1.639   2.681   9.353 -0.1771 -0.0165  0.2679
 5867SOL    HW129063   1.550   2.645   9.358  0.1989 -1.0205 -0.2878
 5867SOL    HW229064   1.615   2.773   9.341 -0.1494 -0.0400  0.0516
 5868SOL     OW29065   4.351   0.675   9.453  0.1742 -0.4743  0.6433
 5868SOL    HW129066   4.364   0.764   9.487 -0.1622  0.0353 -0.5539
 5868SOL    HW229067   4.408   0.667   9.377 -1.4197  1.0280 -0.7137
 5869SOL     OW29068   2.140   1.407   7.924 -0.6302 -0.8119 -0.3439
 5869SOL    HW129069   2.045   1.405   7.909 -0.5354 -2.3512 -0.7877
 5869SOL    HW229070   2.165   1.321   7.957  0.5346 -1.0470 -1.8109
 5870SOL     OW29071   3.091   1.535   8.753 -0.0544 -0.1482 -0.0210
 5870SOL    HW129072   3.136   1.466   8.704  0.8910 -2.0968  3.5286
 5870SOL    HW229073   3.145   1.614   8.755 -1.2118  0.6264  1.5134
 5871SOL     OW29074   0.431   4.578  15.765  0.4384  0.1072  0.0205
 5871SOL    HW129075   0.480   4.656  15.739  1.5146 -0.3025  0.8084
 5871SOL    HW229076   0.385   4.616  15.840  1.8064  0.9934  0.4184
 5872SOL     OW29077   1.610   0.622  11.390  0.0032 -0.0753 -0.4829
 5872SOL    HW129078   1.596   0.691  11.324 -1.3045  0.8046  0.7079
 5872SOL    HW229079   1.663   0.671  11.453  1.8613 -2.1701 -0.4417
 5873SOL     OW29080   0.955   1.479   7.431 -0.2192  0.2856  0.3408
 5873SOL    HW129081   0.915   1.507   7.349  0.2496 -0.4478 -0.1433
 5873SOL    HW229082   1.042   1.448   7.404  0.1470  0.7825  0.9428
 5874SOL     OW29083   3.643   1.307  11.406 -0.2487 -0.5055  0.2199
 5874SOL    HW129084   3.670   1.216  11.395  0.7379 -0.2608  0.5898
 5874SOL    HW229085   3.636   1.339  11.316 -0.3257  1.8855  1.0670
 5875SOL     OW29086   1.604   3.551   0.401  0.4224  0.8295 -0.0984
 5875SOL    HW129087   1.608   3.489   0.328 -0.1295  0.8612 -0.1559
 5875SOL    HW229088   1.518   3.585   0.378 -0.3601 -1.1710 -0.1103
 5876SOL     OW29089   4.307   3.495   2.803 -0.4916 -0.3563 -0.1377
 5876SOL    HW129090   4.337   3.404   2.810 -1.5631 -0.7776 -0.8571
 5876SOL    HW229091   4.226   3.505   2.853 -0.0988  1.5465  0.1014
 5877SOL     OW29092   4.131   3.326   8.106 -0.5504 -0.4701  0.2723
 5877SOL    HW129093   4.134   3.418   8.129 -0.3393 -0.0418 -1.4259
 5877SOL    HW229094   4.040   3.309   8.082 -1.0110 -0.4346  2.0236
 5878SOL     OW29095   2.046   4.364   8.295 -0.1278 -0.4465 -0.1405
 5878SOL    HW129096   1.971   4.330   8.247  0.0271  1.6243 -1.7902
 5878SOL    HW229097   2.116   4.371   8.230  1.0387 -0.8310  1.0487
 5879SOL     OW29098   1.863   3.849   5.768 -0.1815 -0.2472  0.4646
 5879SOL    HW129099   1.906   3.763   5.767 -0.4126 -0.3335 -1.1612
 5879SOL    HW229100   1.930   3.901   5.812 -0.8965  0.9015  0.1778
 5880SOL     OW29101   1.594   2.575   2.590 -0.0770 -0.1799 -0.4382
 5880SOL    HW129102   1.647   2.501   2.562  0.6693  0.2288 -0.1025
 5880SOL    HW229103   1.598   2.627   2.510 -0.5377  1.4082  0.5510
 5881SOL     OW29104   0.516   4.315   3.029  0.2833 -0.3619 -0.0917
 5881SOL    HW129105   0.441   4.258   3.019  0.9339 -1.2757  0.2493
 5881SOL    HW229106   0.499   4.393   2.975 -0.0107 -0.6890 -0.4687
 5882SOL     OW29107   0.215   4.522   5.674  0.1886  0.2221  0.5387
 5882SOL    HW129108   0.258   4.554   5.754 -0.4295 -0.0540  0.9783
 5882SOL    HW229109   0.146   4.587   5.662  1.9882  2.2022  0.9156
 5883SOL     OW29110   0.751   1.014   1.878  0.6239  0.0588 -0.6723
 5883SOL    HW129111   0.784   1.090   1.926 -1.3658  0.5107 -0.0165
 5883SOL    HW229112   0.655   1.022   1.881  0.5612 -1.1372  0.8596
 5884SOL     OW29113   3.584   1.326   8.333  0.1251  0.2363 -0.1070
 5884SOL    HW129114   3.614   1.319   8.423  0.4861  1.3691 -0.1383
 5884SOL    HW229115   3.489   1.336   8.337 -0.2353 -2.6018 -1.1520
 5885SOL     OW29116   3.459   1.707   7.490 -0.3002 -0.3048 -0.0551
 5885SOL    HW129117   3.531   1.736   7.434 -0.0121  0.5390  0.7434
 5885SOL    HW229118   3.405   1.657   7.429  0.2304 -0.9705  0.0218
 5886SOL     OW29119   1.125   1.349  16.154  0.2877  0.5900 -0.3060
 5886SOL    HW129120   1.216   1.378  16.153  0.1870  1.0110  2.8762
 5886SOL    HW229121   1.097   1.402  16.079 -1.3508 -0.0364 -0.1327
 5887SOL     OW29122   1.456   0.395   4.613 -0.6643 -0.1146  0.1302
 5887SOL    HW129123   1.445   0.325   4.547  0.3340  1.1023 -1.3392
 5887SOL    HW229124   1.539   0.372   4.656  0.2109 -0.0811 -1.5288
 5888SOL     OW29125   2.495   3.756   4.246  0.1964 -0.0294  0.2653
 5888SOL    HW129126   2.455   3.843   4.247  0.3308  0.0099  1.9363
 5888SOL    HW229127   2.576   3.772   4.197  0.2967 -1.9116 -0.1600
 5889SOL     OW29128   2.094   2.369   4.723  0.0363  0.0332 -0.2762
 5889SOL    HW129129   2.109   2.461   4.741 -0.4188  0.2895 -1.2129
 5889SOL    HW229130   2.053   2.342   4.805  1.9871 -1.3802  0.2427
 5890SOL     OW29131   4.591   4.662  13.342 -0.2118 -0.1262 -0.4439
 5890SOL    HW129132   4.519   4.711  13.383  1.6991  2.2401  0.0405
 5890SOL    HW229133   4.605   4.594  13.407  0.2503  1.1035  0.7470
 5891SOL     OW29134   3.711   0.080  17.470 -0.6413  0.3797  0.1124
 5891SOL    HW129135   3.694   0.003  17.524  0.3568 -0.9780 -1.5207
 5891SOL    HW229136   3.694   0.153  17.529 -0.6492 -0.2004  0.8188
 5892SOL     OW29137   0.535   3.795   8.214 -0.1953  0.4096 -0.4430
 5892SOL    HW129138   0.559   3.739   8.140  0.6396  0.1629  0.0110
 5892SOL    HW229139   0.570   3.881   8.188  0.0592  0.5513  0.3713
 5893SOL     OW29140   3.525   1.355  12.645 -0.3030 -0.6912 -0.2988
 5893SOL    HW129141   3.463   1.427  12.634 -0.1095  0.1623  4.0132
 5893SOL    HW229142   3.522   1.345  12.740 -0.9315  0.2457 -0.2249
 5894SOL     OW29143   2.899   3.091   6.782 -0.1796 -0.1057  0.2495
 5894SOL    HW129144   2.833   3.059   6.720 -0.7280 -0.2659  0.9294
 5894SOL    HW229145   2.863   3.178   6.798 -0.4238 -0.3456  0.9655
 5895SOL     OW29146   3.615   4.303   4.937  0.2827  0.8898  0.0471
 5895SOL    HW129147   3.544   4.297   5.002  0.6735  1.0139  0.4873
 5895SOL    HW229148   3.684   4.280   4.999 -1.6419 -0.2632  1.7506
 5896SOL     OW29149   2.555   3.336  10.064  0.0188  0.2642  0.6537
 5896SOL    HW129150   2.493   3.331  10.136 -0.2069  1.9047  0.5721
 5896SOL    HW229151   2.632   3.352  10.119  1.8359 -4.0921 -0.6202
 5897SOL     OW29152   4.183   3.243  12.251  0.1201 -0.4624 -0.7093
 5897SOL    HW129153   4.274   3.241  12.224 -0.3637 -0.2234 -2.3876
 5897SOL    HW229154   4.175   3.150  12.232  2.1933 -0.5296 -1.2330
 5898SOL     OW29155   3.534   3.981   5.066  0.3836 -0.1147 -0.3549
 5898SOL    HW129156   3.526   3.906   5.006  0.1908 -0.7647  0.4732
 5898SOL    HW229157   3.441   4.004   5.065  0.9721  2.0996 -1.5558
 5899SOL     OW29158   2.709   0.973   6.486 -0.3305  0.1310  0.6186
 5899SOL    HW129159   2.683   0.937   6.571 -0.6794  0.6996  0.7565
 5899SOL    HW229160   2.773   0.904   6.468  0.7307  1.0088  1.0268
 5900SOL     OW29161   3.518   0.065   0.280 -0.2158  0.1410 -0.1974
 5900SOL    HW129162   3.460   4.717   0.262  0.0393 -0.1268  0.0563
 5900SOL    HW229163   3.463   0.126   0.328 -2.0531 -2.4650  0.9875
 5901SOL     OW29164   4.199   3.772   3.961  0.0158  0.7493  0.0929
 5901SOL    HW129165   4.286   3.781   3.922  0.0989  1.2236  0.3831
 5901SOL    HW229166   4.220   3.771   4.054 -0.0243 -1.1544  0.0784
 5902SOL     OW29167   2.037   2.296   9.179 -0.4712 -0.1702 -0.3916
 5902SOL    HW129168   1.981   2.372   9.192 -0.2396  0.2162 -1.6826
 5902SOL    HW229169   2.104   2.309   9.245 -4.0753  0.6062  3.1102
 5903SOL     OW29170   4.423   0.608   2.784  0.2231 -0.2515 -0.3372
 5903SOL    HW129171   4.431   0.684   2.727  0.0600 -1.7405 -2.3190
 5903SOL    HW229172   4.426   0.536   2.721 -1.4312 -0.3158 -0.3433
 5904SOL     OW29173   2.580   3.508   3.562 -0.2406 -0.1674  0.2481
 5904SOL    HW129174   2.624   3.508   3.477 -0.1684 -1.9201  0.2821
 5904SOL    HW229175   2.490   3.537   3.543 -0.3244 -2.5748 -3.0129
 5905SOL     OW29176   3.324   4.621  14.124 -0.2566 -0.1311  0.0290
 5905SOL    HW129177   3.411   4.604  14.159  0.1915  0.4496 -0.8013
 5905SOL    HW229178   3.342   4.626  14.031 -0.7569 -0.4982 -0.0868
 5906SOL     OW29179   4.170   3.575   8.160  0.4836  0.5273 -0.2553
 5906SOL    HW129180   4.158   3.643   8.094  3.7712  1.6427  0.2645
 5906SOL    HW229181   4.265   3.590   8.160  0.0732  3.1596 -1.4958
 5907SOL     OW29182   3.944   3.685   5.459 -0.2595  0.0281  0.2684
 5907SOL    HW129183   3.912   3.698   5.548  0.1390 -0.1517  0.4406
 5907SOL    HW229184   4.028   3.730   5.456 -0.8212  1.0611  0.0473
 5908SOL     OW29185   4.477   0.250  17.499 -0.2162  0.2717 -0.3636
 5908SOL    HW129186   4.511   0.161  17.502  1.3767  0.8813 -0.3295
 5908SOL    HW229187   4.551   0.303  17.469  0.0418 -0.3019 -0.7442
 5909SOL     OW29188   0.055   4.608   2.547  0.8958 -0.2167 -0.4576
 5909SOL    HW129189   0.034   4.542   2.481 -2.8511  0.1208  0.3443
 5909SOL    HW229190   0.042   4.689   2.497 -1.2176  0.8016  1.7217
 5910SOL     OW29191   4.040   4.478   2.065 -0.2143 -0.3605  0.3605
 5910SOL    HW129192   4.116   4.448   2.116  0.8514  0.9706 -0.4573
 5910SOL    HW229193   4.047   4.573   2.062 -2.1429 -0.1724  1.7011
 5911SOL     OW29194   1.735   2.346   2.519  0.1245  0.2574  0.1903
 5911SOL    HW129195   1.792   2.339   2.443 -1.5791  0.0122 -1.0522
 5911SOL    HW229196   1.798   2.323   2.587 -0.4266 -2.0298 -0.0622
 5912SOL     OW29197   4.512   0.562  17.642  0.3535 -0.1526 -0.3506
 5912SOL    HW129198   4.495   0.600  17.556  1.0681 -2.1207 -1.3642
 5912SOL    HW229199   4.599   0.595  17.662 -0.3141  1.6461 -0.4677
 5913SOL     OW29200   1.563   3.422   9.315 -0.1772 -0.7139  0.1860
 5913SOL    HW129201   1.607   3.501   9.347 -0.3398 -0.4955 -0.1238
 5913SOL    HW229202   1.643   3.385   9.277  0.4334 -0.4871  1.2579
 5914SOL     OW29203   1.191   3.036   1.626 -0.1655  0.6035  0.2342
 5914SOL    HW129204   1.104   3.034   1.667  0.0047 -1.7448  0.5189
 5914SOL    HW229205   1.239   2.984   1.690 -2.1074  0.5188  1.6151
 5915SOL     OW29206   3.909   0.111   9.506  0.0118  0.2411 -0.0206
 5915SOL    HW129207   3.828   0.161   9.522 -1.0419 -1.8254  1.0590
 5915SOL    HW229208   3.974   0.139   9.570  0.0865  1.1751 -0.5074
 5916SOL     OW29209   0.605   3.773   7.271 -0.3822  0.5354  1.0218
 5916SOL    HW129210   0.567   3.704   7.217  1.3192  0.6878 -0.3931
 5916SOL    HW229211   0.540   3.765   7.341  0.9036  2.0766  2.4111
 5917SOL     OW29212   4.321   1.856   2.686 -0.8995  0.1925 -0.1635
 5917SOL    HW129213   4.300   1.829   2.596  2.0552 -1.3023 -0.3731
 5917SOL    HW229214   4.239   1.838   2.732 -1.1485  1.3824 -0.1471
 5918SOL     OW29215   1.901   2.079   3.751  0.1485 -0.2085  0.7300
 5918SOL    HW129216   1.836   2.059   3.819  0.8188 -0.0767  1.4147
 5918SOL    HW229217   1.877   2.172   3.756  2.3029  0.2568  2.6673
 5919SOL     OW29218   1.212   2.993   3.115 -0.2706  0.2711  0.1311
 5919SOL    HW129219   1.193   2.899   3.109 -0.6731  0.4154 -0.9587
 5919SOL    HW229220   1.248   3.016   3.029 -0.4630  1.7373  0.4600
 5920SOL     OW29221   0.450   3.767  10.327 -0.1512  0.1327  0.6181
 5920SOL    HW129222   0.445   3.738  10.418  0.5059 -0.6087  0.4129
 5920SOL    HW229223   0.490   3.696  10.278 -3.7201 -1.4704 -0.0224
 5921SOL     OW29224   2.714   4.557  11.789  0.7341 -0.5767 -0.0468
 5921SOL    HW129225   2.742   4.640  11.829  1.5965 -0.9052  0.0346
 5921SOL    HW229226   2.776   4.498  11.833  0.4901 -1.6848 -1.1680
 5922SOL     OW29227   0.474   4.544   8.770 -0.0187  0.4945  0.2240
 5922SOL    HW129228   0.505   4.457   8.793 -0.9919  1.2406  4.3930
 5922SOL    HW229229   0.386   4.550   8.808  1.0133  3.1262  2.1648
 5923SOL     OW29230   1.846   0.520   2.634  0.2772 -0.3426  1.1342
 5923SOL    HW129231   1.750   0.522   2.644  0.2038 -0.2539  0.3989
 5923SOL    HW229232   1.859   0.609   2.600 -1.0556 -0.5023  0.1854
 5924SOL     OW29233   1.834   1.603   7.416 -0.1379 -0.2126 -0.2219
 5924SOL    HW129234   1.740   1.606   7.432 -0.1152 -0.7407  0.0330
 5924SOL    HW229235   1.835   1.569   7.327  2.0587  1.0232 -0.6590
 5925SOL     OW29236   1.396   0.609   8.839  0.2459  0.4969  0.1186
 5925SOL    HW129237   1.483   0.569   8.834  0.1571  0.2523  0.5160
 5925SOL    HW229238   1.339   0.561   8.779  0.2714  0.3727  0.1942
 5926SOL     OW29239   0.223   3.936  14.147 -0.1186  0.3351 -1.2172
 5926SOL    HW129240   0.162   3.863  14.153 -2.9285  2.6121 -1.9181
 5926SOL    HW229241   0.303   3.884  14.137 -0.0009  0.9472 -3.5503
 5927SOL     OW29242   1.332   1.738   7.467 -0.5272  0.5107  0.0735
 5927SOL    HW129243   1.418   1.696   7.459  0.8462  3.5504 -0.7743
 5927SOL    HW229244   1.358   1.828   7.449  0.8197  0.1140  0.0484
 5928SOL     OW29245   3.298   3.477   1.889 -0.1394 -0.0406  0.1058
 5928SOL    HW129246   3.302   3.383   1.905  0.7755 -0.1752 -0.9041
 5928SOL    HW229247   3.242   3.471   1.812  0.3494  1.0674 -0.3423
 5929SOL     OW29248   1.610   0.132   5.953  0.3099  0.4192  0.3497
 5929SOL    HW129249   1.631   0.215   5.996 -0.6036  0.9267 -0.1904
 5929SOL    HW229250   1.642   0.073   6.021  0.0235  0.8771  0.8798
 5930SOL     OW29251   3.150   2.438   3.178 -0.1662  0.6888  0.4945
 5930SOL    HW129252   3.150   2.517   3.124 -0.4296  0.5098  0.2290
 5930SOL    HW229253   3.106   2.478   3.253 -1.2095 -1.1800  0.8843
 5931SOL     OW29254   3.068   1.285   1.083  0.4300  0.1029  0.0279
 5931SOL    HW129255   3.012   1.315   1.155 -0.1692 -0.3338 -0.2521
 5931SOL    HW229256   3.001   1.295   1.015 -1.1403 -1.1500  1.3631
 5932SOL     OW29257   3.909   2.074   2.714  0.2373 -0.6768 -0.0463
 5932SOL    HW129258   3.954   2.077   2.798 -0.2995  0.1418  0.2078
 5932SOL    HW229259   3.829   2.122   2.735 -0.8193 -2.0253 -0.9691
 5933SOL     OW29260   2.233   3.734   1.254  0.5547  0.0659 -0.2369
 5933SOL    HW129261   2.172   3.808   1.260 -1.5059 -1.5090 -1.8251
 5933SOL    HW229262   2.309   3.770   1.207 -0.5847  0.8671 -1.4586
 5934SOL     OW29263   4.204   1.497   4.398 -1.2580  1.0610  0.5123
 5934SOL    HW129264   4.271   1.487   4.465  0.0583 -0.1613 -0.9785
 5934SOL    HW229265   4.123   1.482   4.446 -1.1409 -1.0235  0.0373
 5935SOL     OW29266   4.244   1.711   8.116 -0.0611  0.2023 -0.9915
 5935SOL    HW129267   4.334   1.737   8.137 -0.1231 -0.7293  0.4096
 5935SOL    HW229268   4.201   1.795   8.098  2.4026  1.4385 -1.0945
 5936SOL     OW29269   4.608   4.384  17.476 -0.7528  0.2943  0.4100
 5936SOL    HW129270   4.586   4.298  17.512  2.0199 -0.9085 -0.7426
 5936SOL    HW229271   4.581   4.430  17.556  2.6260 -0.6936  2.1393
 5937SOL     OW29272   1.053   2.786   3.418 -0.4123  0.1543  0.3043
 5937SOL    HW129273   0.999   2.746   3.486 -0.8464 -2.2753 -1.4192
 5937SOL    HW229274   1.024   2.740   3.339  1.2444 -0.8675  0.2895
 5938SOL     OW29275   1.378   1.105   1.328  0.0388  0.1403  0.1198
 5938SOL    HW129276   1.322   1.104   1.405  0.2191  2.2754  0.2743
 5938SOL    HW229277   1.465   1.103   1.367 -0.1061  0.3686  0.4485
 5939SOL     OW29278   1.307   2.268  17.141 -0.0033  0.6158  0.0484
 5939SOL    HW129279   1.312   2.231  17.229 -2.6758  1.0119  0.3721
 5939SOL    HW229280   1.390   2.241  17.101 -0.3220 -0.0124 -0.1942
 5940SOL     OW29281   1.043   0.189   2.161  0.8479  0.4595  0.7522
 5940SOL    HW129282   1.091   0.106   2.153 -2.0007 -1.2719  1.5586
 5940SOL    HW229283   0.954   0.167   2.134  0.5468  1.9164  0.5701
 5941SOL     OW29284   1.379   3.595   7.492 -0.1073 -0.0872  0.4893
 5941SOL    HW129285   1.334   3.537   7.554  2.5945 -0.0360  2.4819
 5941SOL    HW229286   1.469   3.595   7.524  0.1276  1.1145 -0.1836
 5942SOL     OW29287   2.344   3.821  11.070  0.1828 -0.0530  0.4284
 5942SOL    HW129288   2.387   3.881  11.131 -1.4162  1.2649  0.2524
 5942SOL    HW229289   2.320   3.747  11.127  1.4286 -0.4070  0.4935
 5943SOL     OW29290   1.339   4.103   8.554  0.6029  0.2734  0.1146
 5943SOL    HW129291   1.417   4.158   8.562  0.6951  0.2294 -0.5378
 5943SOL    HW229292   1.350   4.047   8.632  0.3860 -0.7830 -0.6126
 5944SOL     OW29293   3.361   1.865  16.691 -0.0840 -0.0419  0.1070
 5944SOL    HW129294   3.402   1.795  16.639 -0.0849  0.9822 -1.2650
 5944SOL    HW229295   3.270   1.835  16.693  0.3193 -1.1907  1.2489
 5945SOL     OW29296   4.402   0.842  16.192 -0.3690 -0.0455  0.0089
 5945SOL    HW129297   4.458   0.910  16.230 -0.1520 -0.8987  1.2160
 5945SOL    HW229298   4.378   0.787  16.267  0.3671  0.3755  0.5453
 5946SOL     OW29299   1.768   3.022  15.385  0.5213  0.2765  0.4058
 5946SOL    HW129300   1.784   3.062  15.300  1.0118  0.7636  0.7240
 5946SOL    HW229301   1.840   2.960  15.376  1.8493  1.6025  2.0457
 5947SOL     OW29302   4.138   2.303  17.230 -0.1953  0.0521 -0.7341
 5947SOL    HW129303   4.102   2.236  17.173  0.1501  0.4625 -1.4406
 5947SOL    HW229304   4.230   2.277  17.227  0.1468  1.3781 -2.1048
 5948SOL     OW29305   0.241   3.372   2.350  0.1894 -0.0842  0.0523
 5948SOL    HW129306   0.205   3.424   2.278 -1.2814 -0.0422  0.8040
 5948SOL    HW229307   0.250   3.439   2.419  1.8119  1.7799 -1.9674
 5949SOL     OW29308   2.026   3.965   2.548  0.4842 -0.4003  0.2098
 5949SOL    HW129309   1.998   4.000   2.632  2.6187 -1.5918  1.4130
 5949SOL    HW229310   1.946   3.974   2.496  1.3536  2.1952 -0.6681
 5950SOL     OW29311   2.576   0.769   1.523  0.0022 -1.6017 -0.5187
 5950SOL    HW129312   2.511   0.835   1.544  1.0197 -0.1254 -1.9901
 5950SOL    HW229313   2.609   0.755   1.612 -0.6328  2.3578  0.3360
 5951SOL     OW29314   1.507   0.532   5.606 -0.4450  0.3833 -0.3901
 5951SOL    HW129315   1.425   0.507   5.648  0.7868 -1.3188  0.9745
 5951SOL    HW229316   1.566   0.532   5.681  1.0773  2.1731 -1.5808
 5952SOL     OW29317   0.462   1.214   8.355  0.3604  0.0311  0.2054
 5952SOL    HW129318   0.542   1.163   8.343 -0.1734 -0.2012 -2.3843
 5952SOL    HW229319   0.475   1.225   8.449  2.1525  0.9864 -0.1588
 5953SOL     OW29320   0.749   4.048   4.299 -0.4578  0.4542  0.0501
 5953SOL    HW129321   0.830   4.049   4.352 -0.4138  2.0551 -0.0470
 5953SOL    HW229322   0.772   4.109   4.229 -0.0431 -0.0516 -0.2485
 5954SOL     OW29323   3.633   0.840   7.715  0.1346  0.1881  0.6127
 5954SOL    HW129324   3.576   0.842   7.793  2.4524 -0.5263  2.3247
 5954SOL    HW229325   3.640   0.749   7.689  1.4231  0.2080  0.8750
 5955SOL     OW29326   1.513   1.905   5.293 -0.3740  0.1798  0.4120
 5955SOL    HW129327   1.482   1.819   5.265  0.6501  1.2918 -4.1840
 5955SOL    HW229328   1.455   1.922   5.366 -1.1187 -1.2152  0.1365
 5956SOL     OW29329   0.860   1.297   3.708  0.3038  0.1085  0.1339
 5956SOL    HW129330   0.911   1.271   3.784 -1.6227 -1.9675  0.7096
 5956SOL    HW229331   0.857   1.212   3.664  0.5714 -1.0081  2.2989
 5957SOL     OW29332   3.918   2.633   9.731 -0.1354  0.1427  0.1093
 5957SOL    HW129333   3.930   2.669   9.643 -0.2615  0.0832  0.0673
 5957SOL    HW229334   4.003   2.635   9.775  0.0941  0.3672 -0.3336
 5958SOL     OW29335   2.735   0.141   8.419 -0.5093 -0.1806  0.4377
 5958SOL    HW129336   2.675   0.068   8.403  0.6706 -0.7115 -1.4129
 5958SOL    HW229337   2.721   0.148   8.514 -0.2637 -1.3514  0.5583
 5959SOL     OW29338   1.392   0.127  11.275  0.1102  0.2923  0.1440
 5959SOL    HW129339   1.401   0.210  11.320 -0.0911  0.1577  0.4293
 5959SOL    HW229340   1.467   0.115  11.217 -0.4418  2.4278 -1.0156
 5960SOL     OW29341   4.266   3.249   8.959  0.3004 -0.6458  0.0475
 5960SOL    HW129342   4.339   3.310   8.946  0.1250 -0.0254  2.0314
 5960SOL    HW229343   4.220   3.272   8.878  0.5686  0.0102  0.0805
 5961SOL     OW29344   0.383   3.719   2.017 -0.4502  0.1919  0.1851
 5961SOL    HW129345   0.410   3.699   1.927 -3.2431 -2.5906  0.0161
 5961SOL    HW229346   0.307   3.774   1.999 -1.2539 -1.4621 -1.4126
 5962SOL     OW29347   3.238   1.301   3.245 -0.2006  0.1196 -0.2099
 5962SOL    HW129348   3.149   1.306   3.212 -0.6269  0.5464  1.0264
 5962SOL    HW229349   3.302   1.314   3.174 -0.3742 -0.5523 -0.4913
 5963SOL     OW29350   1.684   1.992  16.135 -0.1541 -0.0645  0.4370
 5963SOL    HW129351   1.723   2.077  16.116  1.6147 -0.9843 -0.0707
 5963SOL    HW229352   1.598   2.001  16.093  0.4501 -1.3261 -1.0596
 5964SOL     OW29353   0.543   2.147  13.418  0.2227  0.1780  0.3644
 5964SOL    HW129354   0.490   2.076  13.381 -0.6066  0.9247  0.1222
 5964SOL    HW229355   0.479   2.218  13.416 -1.1300 -0.9816  2.9156
 5965SOL     OW29356   1.119   1.098   5.997 -0.3386 -0.4883 -0.6437
 5965SOL    HW129357   1.174   1.023   6.021 -1.1064 -0.5733  0.8582
 5965SOL    HW229358   1.129   1.147   6.079 -0.3465  1.5642 -1.8956
 5966SOL     OW29359   1.264   0.108   4.872 -1.0508  0.1540 -0.1678
 5966SOL    HW129360   1.273   0.115   4.967 -0.2008  1.4821 -0.3502
 5966SOL    HW229361   1.350   0.080   4.840 -2.0441 -2.3792 -0.6080
 5967SOL     OW29362   2.535   0.065  13.244 -0.0675 -0.2549 -0.3993
 5967SOL    HW129363   2.511   4.710  13.198  0.4998  0.3236 -1.6949
 5967SOL    HW229364   2.480   0.136  13.211  0.7664  0.0370 -1.1573
 5968SOL     OW29365   4.177   3.922   1.600 -0.1029 -0.3612  0.3566
 5968SOL    HW129366   4.103   3.965   1.644 -1.1228 -0.0003 -1.6757
 5968SOL    HW229367   4.238   3.907   1.671 -0.0625 -0.6988  0.2497
 5969SOL     OW29368   1.521   4.433  17.551 -0.4676 -0.8003  0.1486
 5969SOL    HW129369   1.590   4.423  17.616 -0.7066  1.9906  0.8522
 5969SOL    HW229370   1.564   4.381  17.484 -0.1244 -0.5089  0.1449
 5970SOL     OW29371   3.474   2.257   5.237  0.3113 -0.0419  0.2246
 5970SOL    HW129372   3.452   2.189   5.301  1.9386 -1.4194 -0.6918
 5970SOL    HW229373   3.388   2.270   5.197  0.3566  0.9637  0.4674
 5971SOL     OW29374   3.980   0.448   1.614  0.9829 -0.2905 -0.7456
 5971SOL    HW129375   3.925   0.449   1.536 -1.1283  2.9170  0.7577
 5971SOL    HW229376   4.064   0.473   1.576  0.7136  3.1337  0.8843
 5972SOL     OW29377   0.996   2.315   7.481 -0.4854 -0.4245 -0.4729
 5972SOL    HW129378   0.912   2.279   7.454 -0.9552 -0.2246  0.7533
 5972SOL    HW229379   0.983   2.405   7.450  0.7194  0.3618  1.3081
 5973SOL     OW29380   4.402   4.223   5.147 -0.2172 -0.3335 -0.0247
 5973SOL    HW129381   4.474   4.280   5.175  0.4041 -0.8344 -0.6093
 5973SOL    HW229382   4.352   4.292   5.104 -0.4546 -0.7515 -0.4263
 5974SOL     OW29383   3.959   4.024   1.757  0.5717 -0.2124 -0.6176
 5974SOL    HW129384   3.919   4.067   1.832  2.1417  0.8766 -0.4095
 5974SOL    HW229385   3.941   4.085   1.685  0.3525 -1.2104 -1.4238
 5975SOL     OW29386   0.493   2.591  12.030 -0.0826  0.1009  0.2624
 5975SOL    HW129387   0.578   2.616  12.064 -0.1562 -0.1723  0.6484
 5975SOL    HW229388   0.432   2.665  12.040 -1.5779 -0.8911 -1.5752
 5976SOL     OW29389   1.185   0.718   7.632 -0.0473  0.3589  0.0992
 5976SOL    HW129390   1.107   0.682   7.675 -0.3765 -1.1890 -1.8065
 5976SOL    HW229391   1.214   0.638   7.589  0.9800  1.0940 -0.5655
 5977SOL     OW29392   2.708   3.471  15.655 -0.4082  0.1241 -0.3392
 5977SOL    HW129393   2.721   3.558  15.618 -1.1866  0.7681  0.9149
 5977SOL    HW229394   2.630   3.452  15.602 -1.5382  1.0829  0.9713
 5978SOL     OW29395   1.614   3.866  10.249  0.2449 -0.0503 -0.0845
 5978SOL    HW129396   1.613   3.951  10.204  3.4295 -0.0005 -0.0686
 5978SOL    HW229397   1.529   3.871  10.293 -0.2137 -1.3555 -0.8193
 5979SOL     OW29398   1.730   2.060   3.983  0.0248 -0.9282 -0.2523
 5979SOL    HW129399   1.666   2.072   3.913  0.6925 -1.5404 -0.9748
 5979SOL    HW229400   1.699   1.980   4.026  0.2379  0.0201  1.6220
 5980SOL     OW29401   3.804   4.722   7.076 -0.3110 -0.2195  0.3966
 5980SOL    HW129402   3.721   0.044   7.076  1.9282  3.6365 -0.1811
 5980SOL    HW229403   3.812   4.691   6.986 -0.8209  3.1229 -0.7676
 5981SOL     OW29404   2.935   2.264   8.690 -0.2340  0.2277  0.6947
 5981SOL    HW129405   2.892   2.201   8.632 -1.1801 -1.8449  3.6916
 5981SOL    HW229406   2.870   2.334   8.690 -0.5613 -0.0776  2.1777
 5982SOL     OW29407   3.077   4.494   5.394 -0.1393 -0.5486 -0.0777
 5982SOL    HW129408   3.015   4.456   5.331  0.6357 -2.0760  0.0787
 5982SOL    HW229409   3.015   4.519   5.462  0.0272 -1.3170  0.3458
 5983SOL     OW29410   0.782   4.430   2.734  0.1047 -0.1159 -0.1176
 5983SOL    HW129411   0.801   4.340   2.761  2.1142  0.5496  0.6912
 5983SOL    HW229412   0.693   4.433   2.699 -0.5637  0.6662  1.6370
 5984SOL     OW29413   0.833   2.434  10.081  0.4331 -0.1892 -0.1353
 5984SOL    HW129414   0.804   2.478  10.161 -2.0225 -2.0083 -0.0256
 5984SOL    HW229415   0.866   2.516  10.045  0.6298  0.9265  2.5842
 5985SOL     OW29416   1.246   4.684   4.225 -0.2695  0.1647  0.0699
 5985SOL    HW129417   1.281   0.021   4.161  0.3111 -0.1191  0.1188
 5985SOL    HW229418   1.196   4.621   4.172  0.3704 -1.3761  1.3165
 5986SOL     OW29419   1.005   1.799   0.640 -0.7125  0.1151  0.5647
 5986SOL    HW129420   0.978   1.744   0.713  1.3070  0.9534  1.9424
 5986SOL    HW229421   1.007   1.881   0.690  2.4138  0.4488 -0.0779
 5987SOL     OW29422   0.188   0.553  13.045 -0.2510  0.5213  0.0687
 5987SOL    HW129423   0.234   0.501  13.112 -0.6553 -0.2632 -0.2639
 5987SOL    HW229424   0.157   0.618  13.107 -1.5822 -0.4885  0.4608
 5988SOL     OW29425   1.137   4.366  10.967  0.2447 -0.4700 -0.2606
 5988SOL    HW129426   1.082   4.443  10.950 -1.7306 -1.8195 -0.0187
 5988SOL    HW229427   1.067   4.300  10.962  0.1718 -0.3367 -1.0155
 5989SOL     OW29428   2.623   1.654   3.462  0.1410 -0.1992 -0.0280
 5989SOL    HW129429   2.529   1.650   3.477  0.0119 -1.1351 -1.0993
 5989SOL    HW229430   2.633   1.749   3.474  0.5545 -0.2628  0.1307
 5990SOL     OW29431   2.768   0.264   5.659  0.3490 -0.2295  0.9129
 5990SOL    HW129432   2.837   0.274   5.595  1.0011 -0.7300  1.5427
 5990SOL    HW229433   2.701   0.218   5.609  1.0900 -1.1553  0.7807
 5991SOL     OW29434   0.049   4.668  15.399 -0.1669  0.1776  0.4466
 5991SOL    HW129435   0.136   4.664  15.360 -1.1514 -1.5784 -1.5270
 5991SOL    HW229436   4.722   4.602  15.356  2.4268 -2.0277  0.6671
 5992SOL     OW29437   3.835   3.141  13.378  0.5909  0.1544 -0.6639
 5992SOL    HW129438   3.845   3.067  13.319 -0.0696  2.5839 -3.8416
 5992SOL    HW229439   3.748   3.160  13.344  0.2766  0.5798  0.3859
 5993SOL     OW29440   1.735   3.617   8.444  0.5032  0.2976  0.1590
 5993SOL    HW129441   1.773   3.680   8.382 -0.8601 -0.7153 -1.7041
 5993SOL    HW229442   1.669   3.674   8.484 -1.0960 -1.7539  0.4169
 5994SOL     OW29443   0.044   0.250   2.711  0.8785  0.6586 -0.1480
 5994SOL    HW129444   0.081   0.192   2.777  0.4496 -0.0111 -0.4954
 5994SOL    HW229445   0.079   0.331   2.746  2.6090 -0.0151 -0.3099
 5995SOL     OW29446   0.539   3.690   5.518  0.0045 -0.8295  0.2081
 5995SOL    HW129447   0.618   3.742   5.503 -1.0834  0.8818  0.4127
 5995SOL    HW229448   0.472   3.756   5.536  1.3207  0.1425  1.5362
 5996SOL     OW29449   0.051   3.035   3.978  0.5648  0.4164  0.3167
 5996SOL    HW129450   0.002   3.111   4.009  2.4229  1.7021  0.0861
 5996SOL    HW229451   0.072   2.982   4.055 -0.6458  0.4839  0.6921
 5997SOL     OW29452   3.323   1.021   4.539  0.0937 -0.1032 -0.0086
 5997SOL    HW129453   3.304   1.079   4.466 -2.4878 -0.4098  0.4142
 5997SOL    HW229454   3.303   1.081   4.611  1.0217  1.5234 -1.1198
 5998SOL     OW29455   2.158   4.353   6.694  0.7512 -0.0427  0.8282
 5998SOL    HW129456   2.165   4.258   6.705 -1.4203 -0.3957 -0.7840
 5998SOL    HW229457   2.068   4.350   6.661  0.8134  0.5719  0.6018
 5999SOL     OW29458   4.557   0.488   5.390  1.2055 -0.6187 -0.1343
 5999SOL    HW129459   4.568   0.410   5.335 -0.9392 -0.6354 -0.5573
 5999SOL    HW229460   4.497   0.537   5.334 -0.5242  0.3305  2.5396
 6000SOL     OW29461   1.984   3.856   0.274  0.2405 -0.2001  0.2817
 6000SOL    HW129462   2.050   3.924   0.291 -0.2966 -0.0487  1.7426
 6000SOL    HW229463   2.010   3.854   0.182 -2.0781  0.6750 -0.3976
 6001SOL     OW29464   0.657   3.192   5.908 -0.2872 -0.2351 -0.1501
 6001SOL    HW129465   0.659   3.167   5.815  1.2059 -1.3561  0.1958
 6001SOL    HW229466   0.744   3.228   5.924 -1.0322  1.8196 -0.7002
 6002SOL     OW29467   1.905   2.851  12.129 -0.2770  0.1342 -0.4664
 6002SOL    HW129468   1.966   2.784  12.096 -0.7730 -0.5333 -0.0264
 6002SOL    HW229469   1.890   2.914  12.058 -0.6776  1.5281  0.8544
 6003SOL     OW29470   2.890   0.016  13.332 -0.7425  0.0765  0.8124
 6003SOL    HW129471   2.905   0.042  13.422 -0.7227 -0.1932  0.8866
 6003SOL    HW229472   2.810   4.689  13.338 -0.0775 -1.2752 -2.0567
 6004SOL     OW29473   4.016   3.787  11.362 -0.6945 -0.7497 -0.5014
 6004SOL    HW129474   3.939   3.764  11.311  0.8079 -0.2176 -3.0125
 6004SOL    HW229475   3.980   3.858  11.415  0.5001  0.5212 -1.4054
 6005SOL     OW29476   3.057   0.278   9.029  0.2601 -0.6350  0.6364
 6005SOL    HW129477   3.124   0.256   8.964 -0.1539  1.1266 -0.3751
 6005SOL    HW229478   2.992   0.317   8.971  0.4832 -0.1308  0.7247
 6006SOL     OW29479   4.581   3.241   3.730  0.4166 -0.5172 -0.5396
 6006SOL    HW129480   4.518   3.224   3.660 -0.1235  2.9593 -0.9167
 6006SOL    HW229481   4.660   3.253   3.678 -0.3755 -1.1390 -1.8780
 6007SOL     OW29482   3.808   1.092  12.475  0.5153  0.5503 -0.1384
 6007SOL    HW129483   3.810   1.015  12.532  1.3715  0.3464 -0.4531
 6007SOL    HW229484   3.883   1.079  12.418  0.7337 -1.3389  0.5734
 6008SOL     OW29485   0.542   4.309   8.869 -0.2050 -0.0199  0.8588
 6008SOL    HW129486   0.591   4.256   8.805 -0.5673  0.9575 -0.2308
 6008SOL    HW229487   0.480   4.251   8.913 -0.6881 -2.0578 -2.4873
 6009SOL     OW29488   3.028   1.348   6.729  0.3315  0.3313 -0.0568
 6009SOL    HW129489   2.938   1.344   6.697  1.1556  0.5962 -2.3646
 6009SOL    HW229490   3.062   1.412   6.666  1.2183 -0.7456 -0.6748
 6010SOL     OW29491   4.288   3.735  16.503  0.4137  0.4699  0.3342
 6010SOL    HW129492   4.372   3.738  16.550 -0.0442  1.9551  1.0384
 6010SOL    HW229493   4.255   3.822  16.524 -1.3027  0.3276 -1.7824
 6011SOL     OW29494   0.862   2.997   0.685 -0.1393 -0.7797  0.4162
 6011SOL    HW129495   0.911   2.941   0.746  1.5673  1.3218  0.9476
 6011SOL    HW229496   0.871   2.934   0.613  0.2845 -0.5735  0.2928
 6012SOL     OW29497   1.688   0.848   0.099  0.3381  0.4306 -0.6480
 6012SOL    HW129498   1.749   0.901   0.150 -1.0622  0.9311  0.4964
 6012SOL    HW229499   1.656   0.896   0.023 -0.3139  0.2599 -0.4827
 6013SOL     OW29500   2.140   2.652   4.677  0.3039 -0.0558 -0.1916
 6013SOL    HW129501   2.171   2.618   4.593  2.3393  0.8489  0.1825
 6013SOL    HW229502   2.196   2.727   4.698 -2.2367  1.3833  1.4206
 6014SOL     OW29503   1.642   3.130   7.543  0.1397  0.8740 -0.9037
 6014SOL    HW129504   1.710   3.193   7.519 -0.8911  1.8271 -1.3326
 6014SOL    HW229505   1.625   3.091   7.457  1.6786 -0.6174 -0.5319
 6015SOL     OW29506   0.400   3.199   0.539 -0.1718  0.5533 -0.4128
 6015SOL    HW129507   0.457   3.149   0.597 -0.2012 -0.6179 -1.3999
 6015SOL    HW229508   0.321   3.198   0.593  1.9122 -0.0897  2.5507
 6016SOL     OW29509   3.663   2.686  17.238 -0.1972 -0.1588 -0.0841
 6016SOL    HW129510   3.574   2.652  17.230  0.1520 -1.4397  1.5748
 6016SOL    HW229511   3.695   2.667  17.326 -1.8629 -0.0620  0.5472
 6017SOL     OW29512   1.853   1.591   1.601  0.3097 -0.2670 -0.2083
 6017SOL    HW129513   1.804   1.651   1.544  0.3698  1.9196  2.0255
 6017SOL    HW229514   1.802   1.578   1.680  0.7576 -1.0493 -0.0482
 6018SOL     OW29515   3.937   1.723   5.583 -0.2064 -0.3295 -0.1138
 6018SOL    HW129516   4.012   1.678   5.546 -1.0123 -0.7015 -1.2906
 6018SOL    HW229517   3.889   1.756   5.507  0.2517  1.8976  0.5737
 6019SOL     OW29518   3.302   1.245   2.398  0.2450 -0.0900 -0.2426
 6019SOL    HW129519   3.252   1.325   2.380 -0.0391 -0.1647  0.1974
 6019SOL    HW229520   3.353   1.240   2.318  0.0123 -0.7303 -0.3532
 6020SOL     OW29521   1.727   2.744   1.779 -0.2145 -0.3444 -0.0193
 6020SOL    HW129522   1.693   2.789   1.701  2.6816 -0.8167 -1.5389
 6020SOL    HW229523   1.680   2.661   1.780 -2.3766  0.8853 -0.1756
 6021SOL     OW29524   3.172   2.976  12.398  0.3182 -0.0999 -0.3842
 6021SOL    HW129525   3.090   2.930  12.415 -1.0131  2.6098  0.3640
 6021SOL    HW229526   3.170   3.058  12.446 -1.7850  1.9280 -3.9753
 6022SOL     OW29527   2.110   4.456  10.712 -0.0189 -0.1880  0.3615
 6022SOL    HW129528   2.025   4.436  10.750  0.3303 -1.0855  0.6688
 6022SOL    HW229529   2.089   4.531  10.656  2.4544  0.0401 -0.2713
 6023SOL     OW29530   3.993   3.071   1.889 -0.1175 -0.2712  0.7730
 6023SOL    HW129531   4.088   3.072   1.898 -0.4055 -0.7172  3.6842
 6023SOL    HW229532   3.981   3.078   1.794  1.7595  0.2920  0.5632
 6024SOL     OW29533   2.025   0.662  12.639  0.2025  0.8818 -0.0940
 6024SOL    HW129534   2.009   0.585  12.585  1.3201  0.7711 -0.2542
 6024SOL    HW229535   1.942   0.709  12.632  0.1060  0.7960  0.5055
 6025SOL     OW29536   0.685   4.087   6.331 -0.0140  0.2665 -0.1525
 6025SOL    HW129537   0.717   4.081   6.421 -1.9451  0.1146  0.5248
 6025SOL    HW229538   0.590   4.083   6.336 -0.0764  1.2041 -0.6580
 6026SOL     OW29539   3.475   0.887   5.382 -0.2972  0.5800  0.2549
 6026SOL    HW129540   3.472   0.925   5.295 -1.1741 -0.7792 -0.3143
 6026SOL    HW229541   3.506   0.800   5.355  1.0522  0.5910  1.7429
 6027SOL     OW29542   3.816   1.977   6.603 -0.4528 -0.0581  0.0756
 6027SOL    HW129543   3.874   1.905   6.627  1.2407  1.1584 -0.3638
 6027SOL    HW229544   3.813   1.986   6.508  0.9512  2.3922  0.2630
 6028SOL     OW29545   3.979   0.040   0.384  0.3764 -0.2522 -0.5132
 6028SOL    HW129546   3.968   0.084   0.300 -0.1719  2.1116  0.7934
 6028SOL    HW229547   3.969   0.110   0.448 -1.3510  0.2932 -1.3798
 6029SOL     OW29548   4.160   4.388   6.001  0.4028  0.6737  0.1533
 6029SOL    HW129549   4.241   4.342   5.979 -0.0905 -0.2103  0.2034
 6029SOL    HW229550   4.197   4.476   6.010  1.8555  0.3840 -2.8178
 6030SOL     OW29551   2.700   4.417   3.497  0.4465  0.0462  0.5803
 6030SOL    HW129552   2.754   4.373   3.562 -0.2154 -0.5105  0.7573
 6030SOL    HW229553   2.736   4.385   3.414 -0.2611  1.5557 -0.3163
 6031SOL     OW29554   1.151   1.508   7.058 -0.2093  0.1460  0.4640
 6031SOL    HW129555   1.222   1.445   7.064  0.8853  1.3250  0.0418
 6031SOL    HW229556   1.074   1.453   7.069 -0.5380  0.8278  1.5709
 6032SOL     OW29557   4.518   3.505   1.592 -0.0679  0.3850 -0.0003
 6032SOL    HW129558   4.468   3.492   1.673  0.8779 -0.4337  0.4574
 6032SOL    HW229559   4.606   3.480   1.623  1.1196  1.9408 -2.1345
 6033SOL     OW29560   4.447   2.679  12.964 -0.0763 -0.0546 -0.0852
 6033SOL    HW129561   4.463   2.695  13.057 -1.4433 -0.9815  0.3088
 6033SOL    HW229562   4.448   2.768  12.927  1.1137  0.6159  1.5457
 6034SOL     OW29563   2.578   0.477  10.757 -0.5868 -0.2706 -0.5865
 6034SOL    HW129564   2.509   0.411  10.755 -0.5555 -0.3358  0.3461
 6034SOL    HW229565   2.518   0.551  10.750 -0.2938  0.1259  1.0113
 6035SOL     OW29566   0.080   2.713   0.628  0.1281  0.2002  0.4113
 6035SOL    HW129567   0.090   2.807   0.608 -3.4827  0.1401 -1.6968
 6035SOL    HW229568   0.167   2.693   0.663 -0.1657 -0.2808  0.8495
 6036SOL     OW29569   1.822   2.956   5.590  0.1988 -0.1489 -0.0838
 6036SOL    HW129570   1.773   2.873   5.585  0.8374 -0.5471  0.2032
 6036SOL    HW229571   1.760   2.997   5.649  0.8757 -0.6552  0.9918
 6037SOL     OW29572   0.651   0.830   9.422 -0.3219 -0.1030 -0.0372
 6037SOL    HW129573   0.721   0.878   9.378 -1.5664  1.5082 -0.2607
 6037SOL    HW229574   0.568   0.873   9.399  0.8229  1.2708 -1.5978
 6038SOL     OW29575   1.221   3.536   8.363 -0.6760 -0.2843 -0.0540
 6038SOL    HW129576   1.221   3.476   8.437 -0.2778  0.3602  0.4723
 6038SOL    HW229577   1.313   3.533   8.337 -0.4157 -2.2998  1.1146
 6039SOL     OW29578   1.175   0.500   6.657  0.7502 -0.0211 -0.5100
 6039SOL    HW129579   1.173   0.429   6.592 -0.7153  1.3304 -1.9167
 6039SOL    HW229580   1.113   0.562   6.620 -1.3363 -1.3288  0.7769
 6040SOL     OW29581   3.894   0.190  10.428 -0.6176  0.0971  0.1234
 6040SOL    HW129582   3.812   0.232  10.402 -1.5066 -1.1733  0.8666
 6040SOL    HW229583   3.944   0.201  10.348 -3.1593  1.9319 -1.2355
 6041SOL     OW29584   0.938   4.389   7.549 -0.3502 -0.3884 -0.4342
 6041SOL    HW129585   1.030   4.407   7.532 -0.0927  0.2796  1.6258
 6041SOL    HW229586   0.898   4.468   7.511  1.2504  0.3831 -0.5036
 6042SOL     OW29587   4.699   4.008   8.475 -0.4089 -0.5344  0.0057
 6042SOL    HW129588   0.028   4.070   8.427 -0.2645 -1.1398 -0.6049
 6042SOL    HW229589   4.624   4.062   8.501  1.1677  1.3575  0.5537
 6043SOL     OW29590   0.955   4.400   3.048 -0.3261  0.0533  1.6052
 6043SOL    HW129591   0.913   4.358   2.972 -1.1196  1.5250  1.2268
 6043SOL    HW229592   0.913   4.345   3.114  0.3375 -1.7571  0.5310
 6044SOL     OW29593   2.747   2.684   7.135  0.1984 -0.2865 -0.4669
 6044SOL    HW129594   2.669   2.737   7.145 -0.0079 -0.4661 -1.1087
 6044SOL    HW229595   2.819   2.735   7.172  0.7351  0.6671 -2.8525
 6045SOL     OW29596   3.316   1.984   6.078 -0.7882 -0.0364 -0.0206
 6045SOL    HW129597   3.400   1.956   6.113 -1.0684 -0.9035 -0.0292
 6045SOL    HW229598   3.283   2.033   6.153  0.7933  1.6153 -0.4119
 6046SOL     OW29599   1.386   2.742   4.508 -0.1182  0.1032  0.0342
 6046SOL    HW129600   1.440   2.768   4.433  1.1412 -0.8587  0.6211
 6046SOL    HW229601   1.369   2.649   4.492  0.1783 -0.3013  2.0965
 6047SOL     OW29602   0.814   0.227   1.263  0.2716 -0.0125 -0.1001
 6047SOL    HW129603   0.897   0.204   1.304  0.9771  1.1708 -0.8762
 6047SOL    HW229604   0.766   0.285   1.322 -0.6534 -2.2901  1.3987
 6048SOL     OW29605   3.788   3.842  14.536  0.2357  0.2293  0.0414
 6048SOL    HW129606   3.876   3.879  14.544  0.1299 -0.1856  3.0323
 6048SOL    HW229607   3.789   3.761  14.586 -0.0236  0.7390  0.8706
 6049SOL     OW29608   1.781   3.984  10.711 -0.2534 -0.1415  0.2044
 6049SOL    HW129609   1.776   3.978  10.806  2.4941 -1.1262  0.2733
 6049SOL    HW229610   1.864   3.942  10.689  0.6077  0.0689  3.0753
 6050SOL     OW29611   1.480   1.542   7.137  0.3439 -0.7417 -0.7562
 6050SOL    HW129612   1.563   1.562   7.093  0.2903 -0.2262 -0.6256
 6050SOL    HW229613   1.442   1.479   7.076 -0.0961 -0.9782 -0.2390
 6051SOL     OW29614   0.999   3.200   8.558 -0.0548 -0.3611  0.2179
 6051SOL    HW129615   0.976   3.274   8.502  1.7732 -0.5740 -0.8311
 6051SOL    HW229616   0.980   3.124   8.503 -5.5322 -0.6160  2.4670
 6052SOL     OW29617   3.740   2.453   6.976  0.5757 -0.1410 -0.7797
 6052SOL    HW129618   3.712   2.423   6.890 -1.2550 -1.3388  0.2282
 6052SOL    HW229619   3.685   2.529   6.992  1.5752  0.6547 -1.1507
 6053SOL     OW29620   1.626   1.550   0.470  0.1342 -0.3451 -0.0332
 6053SOL    HW129621   1.656   1.605   0.398 -0.9592  0.7151  0.3121
 6053SOL    HW229622   1.625   1.464   0.429 -2.8725  0.3036 -1.3218
 6054SOL     OW29623   2.222   0.906   1.290 -0.3309  0.4576 -0.0515
 6054SOL    HW129624   2.138   0.918   1.245 -1.1326 -1.4890  0.9274
 6054SOL    HW229625   2.275   0.911   1.210 -1.9972  0.0655 -1.1751
 6055SOL     OW29626   0.765   2.082   4.711 -0.1028 -0.2496  0.2239
 6055SOL    HW129627   0.858   2.063   4.697  0.3383  0.4548  2.1368
 6055SOL    HW229628   0.722   2.029   4.644 -1.1778  2.2817 -1.0538
 6056SOL     OW29629   1.395   0.225   2.447 -0.4568  0.1131  0.2019
 6056SOL    HW129630   1.478   0.240   2.401 -0.2479 -1.3824  0.0919
 6056SOL    HW229631   1.414   0.223   2.540 -0.7676 -1.8272  0.2215
 6057SOL     OW29632   0.452   1.020   4.828 -0.1638  0.4193  0.2215
 6057SOL    HW129633   0.518   1.027   4.758 -1.1751  1.8016 -0.5811
 6057SOL    HW229634   0.486   0.941   4.872  0.5243  1.0720  0.8514
 6058SOL     OW29635   2.166   3.003   7.146 -0.1438 -0.5718 -0.4024
 6058SOL    HW129636   2.126   3.006   7.059  0.3525  1.2412 -0.5772
 6058SOL    HW229637   2.253   2.967   7.127  0.0956 -0.6711  0.9270
 6059SOL     OW29638   0.378   2.801   4.961  0.0171 -0.4444 -0.2341
 6059SOL    HW129639   0.431   2.730   4.925 -1.0134 -1.3129 -0.0210
 6059SOL    HW229640   0.357   2.761   5.045 -0.1024  0.0615 -0.0269
 6060SOL     OW29641   2.866   3.260  16.337 -0.1304  0.3977  0.0423
 6060SOL    HW129642   2.827   3.186  16.290  1.5585 -0.2028 -0.4207
 6060SOL    HW229643   2.834   3.329  16.279 -3.7394 -1.3095 -0.0065
 6061SOL     OW29644   2.882   1.613   2.745 -0.1768  0.1279  0.7579
 6061SOL    HW129645   2.833   1.536   2.776 -1.1046  0.5459  0.3280
 6061SOL    HW229646   2.966   1.615   2.790  0.7016  0.6634 -0.9285
 6062SOL     OW29647   1.871   3.236   3.704  0.0456 -0.3275 -0.8114
 6062SOL    HW129648   1.868   3.330   3.688 -3.5644 -1.0091 -4.0230
 6062SOL    HW229649   1.904   3.230   3.794  0.6810 -0.7748 -1.0749
 6063SOL     OW29650   0.900   2.339   4.545 -0.2835 -0.2033  0.3289
 6063SOL    HW129651   0.883   2.246   4.535  0.8772 -0.6649  2.6898
 6063SOL    HW229652   0.910   2.372   4.455  0.0174  0.1460  0.4902
 6064SOL     OW29653   4.699   1.300   3.125 -0.2760 -0.0653  0.2522
 6064SOL    HW129654   4.710   1.214   3.167  2.0451  0.0828 -0.0466
 6064SOL    HW229655   0.054   1.345   3.153 -0.0689  0.2698 -0.8844
 6065SOL     OW29656   1.928   3.763  12.792  0.0080  0.6540  0.1694
 6065SOL    HW129657   1.912   3.847  12.749  0.9390  1.3552  1.1931
 6065SOL    HW229658   1.983   3.796  12.863  0.9111  1.5770 -0.9597
 6066SOL     OW29659   0.926   4.714  10.750  0.5950 -0.5581 -0.3120
 6066SOL    HW129660   0.992   4.665  10.701 -0.8738 -1.2700 -1.5898
 6066SOL    HW229661   0.958   4.688  10.836 -0.5166 -0.0835  0.2409
 6067SOL     OW29662   3.237   1.015   1.194 -0.0297  0.0123  0.0875
 6067SOL    HW129663   3.168   1.029   1.129 -0.0128 -1.9410 -0.3375
 6067SOL    HW229664   3.311   1.047   1.142 -1.1379 -0.0112 -1.5194
 6068SOL     OW29665   3.303   3.959   9.134 -0.3423 -0.1841  0.2777
 6068SOL    HW129666   3.289   3.869   9.103 -1.0297 -0.3705  1.1123
 6068SOL    HW229667   3.247   3.950   9.211 -2.0623 -1.8982 -1.1623
 6069SOL     OW29668   1.480   0.278   6.214 -0.7295  0.2170 -0.4469
 6069SOL    HW129669   1.480   0.229   6.296  0.5403  0.5744 -0.2282
 6069SOL    HW229670   1.571   0.306   6.206 -1.0637  0.9919 -1.5463
 6070SOL     OW29671   2.621   0.524   9.899 -0.3068  0.5378  0.1043
 6070SOL    HW129672   2.582   0.564   9.821 -1.3948  0.6712  0.7159
 6070SOL    HW229673   2.571   0.571   9.966  0.1507 -0.5706  1.2037
 6071SOL     OW29674   3.247   1.980   4.489 -0.0175  0.7529 -0.0076
 6071SOL    HW129675   3.256   1.921   4.563  1.8898 -0.4608 -1.2192
 6071SOL    HW229676   3.341   1.994   4.479  0.0434 -1.0014 -1.9869
 6072SOL     OW29677   2.836   2.585   0.275 -0.8192 -0.3328 -0.7841
 6072SOL    HW129678   2.767   2.650   0.261 -0.3810  0.0144 -1.3430
 6072SOL    HW229679   2.784   2.506   0.264 -0.6620 -0.5530  0.0449
 6073SOL     OW29680   1.884   1.199  15.487 -0.1107 -0.1757  0.2371
 6073SOL    HW129681   1.850   1.136  15.424 -1.2490  0.1398  0.5257
 6073SOL    HW229682   1.944   1.147  15.541  0.8223  1.3095  0.6251
 6074SOL     OW29683   1.330   4.475  16.284  0.0198 -0.3824  0.0579
 6074SOL    HW129684   1.316   4.566  16.311 -0.0278 -0.5621  0.6451
 6074SOL    HW229685   1.357   4.489  16.194 -1.1828  0.9016 -0.1051
 6075SOL     OW29686   0.552   4.293   1.609  0.3128  0.2844 -0.6383
 6075SOL    HW129687   0.459   4.290   1.589  0.1147 -1.2562  0.5145
 6075SOL    HW229688   0.581   4.330   1.526  0.6275 -0.2168 -0.7546
 6076SOL     OW29689   3.691   3.829   2.695 -0.0396  0.3403  0.0104
 6076SOL    HW129690   3.754   3.901   2.697  0.6070 -0.1762 -2.0838
 6076SOL    HW229691   3.682   3.804   2.604  0.6954 -1.6530  0.4946
 6077SOL     OW29692   1.228   2.501   6.887 -0.7774  0.0727  0.4450
 6077SOL    HW129693   1.233   2.595   6.901  0.6708  0.0009  0.4546
 6077SOL    HW229694   1.208   2.503   6.793 -0.5009  2.7506  0.4639
 6078SOL     OW29695   0.458   1.825   5.713 -0.0408 -0.1241  0.3589
 6078SOL    HW129696   0.518   1.785   5.776 -2.8366 -0.4486  2.8314
 6078SOL    HW229697   0.508   1.829   5.631  1.7722  0.2237  1.4784
 6079SOL     OW29698   2.882   1.571   3.336  0.0504 -0.0208 -0.3950
 6079SOL    HW129699   2.811   1.622   3.374  0.3726  1.1944 -1.4264
 6079SOL    HW229700   2.877   1.490   3.386 -2.6327 -0.0344 -0.6775
 6080SOL     OW29701   4.545   2.337   5.866  0.2017  0.7354  0.0095
 6080SOL    HW129702   4.549   2.292   5.950 -1.6584 -0.2075 -0.4276
 6080SOL    HW229703   4.472   2.398   5.879  0.9747  1.9327 -1.2058
 6081SOL     OW29704   0.996   2.932   0.207  0.1506 -0.5371  0.6485
 6081SOL    HW129705   0.920   2.991   0.200  0.9836  0.5964  1.1916
 6081SOL    HW229706   0.985   2.890   0.122 -1.0156 -0.4639  0.7588
 6082SOL     OW29707   1.494   2.644   5.935 -0.5687 -0.4323  0.3708
 6082SOL    HW129708   1.582   2.654   5.972 -0.2326 -0.8362 -0.3093
 6082SOL    HW229709   1.511   2.586   5.861 -2.8734 -0.1430 -0.3755
 6083SOL     OW29710   1.487   0.851   3.288  0.1695  0.2030  0.4740
 6083SOL    HW129711   1.422   0.890   3.230  0.2614 -1.1062 -0.5104
 6083SOL    HW229712   1.557   0.834   3.226 -0.8361 -0.0024 -0.6152
 6084SOL     OW29713   1.045   2.268  16.108 -0.0627 -0.3403 -0.1967
 6084SOL    HW129714   0.971   2.321  16.077 -0.3369 -0.6446 -0.0651
 6084SOL    HW229715   1.116   2.316  16.066  0.8011  1.3785  3.1931
 6085SOL     OW29716   1.202   1.885   6.480  0.1693  0.4107  0.2387
 6085SOL    HW129717   1.187   1.897   6.574 -1.8157  4.2456 -0.5747
 6085SOL    HW229718   1.254   1.966   6.474  1.1485 -0.1965  0.4316
 6086SOL     OW29719   3.418   2.423   8.270  0.9767  0.0067  0.4697
 6086SOL    HW129720   3.473   2.401   8.345 -0.3951  0.4409  1.6240
 6086SOL    HW229721   3.474   2.388   8.201 -0.4361  0.2463 -0.7987
 6087SOL     OW29722   4.198   0.185   4.326 -0.0433  0.7719  0.2403
 6087SOL    HW129723   4.132   0.240   4.368 -1.3351 -0.3306 -0.3558
 6087SOL    HW229724   4.176   0.210   4.236 -2.7080  2.0712  1.2601
 6088SOL     OW29725   4.627   0.902   9.360  0.0504  0.1547  0.4536
 6088SOL    HW129726   4.647   0.966   9.292 -2.8788 -1.9775 -2.3733
 6088SOL    HW229727   4.576   0.943   9.429 -1.4259 -1.0214  0.0569
 6089SOL     OW29728   1.138   4.371   6.503  0.4863  0.4668 -0.2374
 6089SOL    HW129729   1.206   4.303   6.511 -0.5114 -0.0046  3.8478
 6089SOL    HW229730   1.076   4.348   6.572  0.8911 -1.2094 -0.4285
 6090SOL     OW29731   3.111   1.551   8.184 -0.0172  0.3928  0.0565
 6090SOL    HW129732   3.016   1.544   8.175  0.1876  0.3668 -2.0690
 6090SOL    HW229733   3.115   1.540   8.279  1.5809  0.6616  0.0211
 6091SOL     OW29734   1.272   0.838   2.930  0.1442 -0.1684 -0.7485
 6091SOL    HW129735   1.290   0.912   2.988 -1.0975  0.6499 -1.3989
 6091SOL    HW229736   1.318   0.765   2.970  0.4105 -0.0197 -0.7806
 6092SOL     OW29737   4.482   1.692   2.887 -0.0612 -0.4147  0.2724
 6092SOL    HW129738   4.424   1.705   2.962  2.3491  2.3325  1.6442
 6092SOL    HW229739   4.437   1.743   2.819  0.2082  0.5877  0.8562
 6093SOL     OW29740   2.310   3.857  11.506  0.2017  0.2959 -0.2200
 6093SOL    HW129741   2.310   3.912  11.584 -0.7677  3.7323 -2.6094
 6093SOL    HW229742   2.376   3.908  11.459 -0.2410  0.7639 -0.3313
 6094SOL     OW29743   0.274   2.045   2.635 -0.4411 -0.5326  0.3571
 6094SOL    HW129744   0.220   2.121   2.617 -0.3936 -0.3732  0.8853
 6094SOL    HW229745   0.236   1.977   2.580  0.1546  0.3782 -1.1643
 6095SOL     OW29746   1.271   4.189   8.017 -0.1466  0.1947 -0.3092
 6095SOL    HW129747   1.278   4.169   8.111 -2.0132  1.3161  0.0781
 6095SOL    HW229748   1.353   4.236   8.009  0.3670 -0.7142 -0.3905
 6096SOL     OW29749   3.581   4.101   1.705  0.1719 -0.0245 -0.6842
 6096SOL    HW129750   3.611   4.035   1.643 -1.6932 -0.0226 -1.6146
 6096SOL    HW229751   3.525   4.055   1.767  0.6146  0.3170 -0.0371
 6097SOL     OW29752   0.236   4.078   3.909  0.4145  0.1096 -0.1947
 6097SOL    HW129753   0.177   4.015   3.951  2.1447 -2.0585 -1.0357
 6097SOL    HW229754   0.176   4.126   3.852  0.2922  1.1688  0.8354
 6098SOL     OW29755   2.163   0.051   4.902  0.3291  0.2954  0.0730
 6098SOL    HW129756   2.089   0.112   4.903  1.4945  1.6772  1.1837
 6098SOL    HW229757   2.214   0.058   4.982  0.2001 -1.4349  0.3014
 6099SOL     OW29758   1.025   2.045   4.636 -0.3148 -0.2149  0.4526
 6099SOL    HW129759   1.120   2.058   4.631 -0.4179  0.7000  1.0436
 6099SOL    HW229760   0.999   2.060   4.546  0.3786  0.2390  0.3255
 6100SOL     OW29761   2.562   2.605   4.988  0.1770  0.2187 -0.2486
 6100SOL    HW129762   2.512   2.529   5.018  0.7142  0.0283  0.1619
 6100SOL    HW229763   2.512   2.678   5.025  1.1590  0.9356 -0.3519
 6101SOL     OW29764   0.981   2.224  13.258 -0.4885  0.1122  0.6815
 6101SOL    HW129765   1.068   2.254  13.282 -0.6897  1.6444 -0.4690
 6101SOL    HW229766   0.940   2.204  13.342  3.0428  1.4501  2.7456
 6102SOL     OW29767   0.459   0.288  13.002 -0.1976  0.1512 -0.2758
 6102SOL    HW129768   0.539   0.237  13.011  0.9842  1.9777 -0.4316
 6102SOL    HW229769   0.399   0.214  12.992 -0.9042  0.4037  2.2818
 6103SOL     OW29770   1.818   1.694  10.555  0.1771 -0.2244  0.1771
 6103SOL    HW129771   1.740   1.661  10.510  0.8019  0.2408 -1.2537
 6103SOL    HW229772   1.815   1.789  10.542 -1.4072 -0.4135 -0.7999
 6104SOL     OW29773   3.461   4.436  14.966  0.8653 -0.2862  0.1153
 6104SOL    HW129774   3.491   4.473  14.882 -0.9731 -0.5578 -0.6563
 6104SOL    HW229775   3.444   4.343  14.952  2.0121 -0.0181 -3.0097
 6105SOL     OW29776   1.965   0.713   4.515 -0.2077 -0.5371  0.3039
 6105SOL    HW129777   1.878   0.700   4.477  0.7146 -0.1822 -1.9747
 6105SOL    HW229778   1.995   0.799   4.485  0.8190 -1.7328 -2.1520
 6106SOL     OW29779   2.440   0.653   6.429  0.3245 -0.1737 -0.2317
 6106SOL    HW129780   2.434   0.730   6.373 -0.1311 -0.8238 -1.0812
 6106SOL    HW229781   2.493   0.698   6.495 -0.7240  0.1694  0.3764
 6107SOL     OW29782   4.591   4.284   4.538 -0.2555 -0.2484  0.1651
 6107SOL    HW129783   4.516   4.327   4.498 -1.2707  0.6733  3.0339
 6107SOL    HW229784   4.651   4.355   4.560 -0.8539  0.1558  0.4954
 6108SOL     OW29785   1.860   3.511  15.427  0.1750 -0.5865 -0.4635
 6108SOL    HW129786   1.872   3.422  15.458 -1.5440  0.5429  3.4594
 6108SOL    HW229787   1.944   3.552  15.446 -0.7101  0.9084  0.2349
 6109SOL     OW29788   1.906   0.661  10.770  0.6323 -0.1137 -0.2436
 6109SOL    HW129789   1.828   0.610  10.788  1.5830 -1.4036  0.2401
 6109SOL    HW229790   1.924   0.648  10.677 -0.6624  2.4158 -0.8625
 6110SOL     OW29791   2.007   2.650   3.823  0.1332  0.2480  0.1820
 6110SOL    HW129792   2.019   2.596   3.744 -0.6399  3.1222 -1.8778
 6110SOL    HW229793   2.097   2.676   3.842  0.5703 -0.6119 -0.6736
 6111SOL     OW29794   2.015   1.298   8.232  0.5204 -0.4831 -0.3645
 6111SOL    HW129795   2.009   1.392   8.251  1.1748 -0.5023 -0.0530
 6111SOL    HW229796   2.093   1.269   8.280  0.3438 -0.0137  0.2019
 6112SOL     OW29797   2.822   4.714   5.012  0.4764 -0.6496  0.0911
 6112SOL    HW129798   2.916   4.697   5.009  0.2017 -2.6287  2.3602
 6112SOL    HW229799   2.797   4.696   4.921 -0.7248  1.8823 -0.0831
 6113SOL     OW29800   1.097   1.811   2.328  0.3938 -0.5780 -0.3848
 6113SOL    HW129801   1.073   1.827   2.237  1.3599 -2.8235 -1.0467
 6113SOL    HW229802   1.018   1.848   2.366  0.6471 -1.1235  0.6843
 6114SOL     OW29803   3.684   0.078  10.229  0.3753 -0.2987 -0.8895
 6114SOL    HW129804   3.741   0.145  10.191 -0.1812  1.0304  0.6104
 6114SOL    HW229805   3.616   0.136  10.263  0.0464 -0.6639 -0.9203
 6115SOL     OW29806   3.332   0.927   7.768 -0.9597 -0.0420 -0.0163
 6115SOL    HW129807   3.342   0.975   7.850  0.6567  2.1023 -1.4654
 6115SOL    HW229808   3.280   0.851   7.794 -0.8060  0.0481  0.5574
 6116SOL     OW29809   4.551   2.578   9.235 -0.3386 -0.1905 -0.0719
 6116SOL    HW129810   4.537   2.487   9.208 -0.9260 -0.3501  0.7572
 6116SOL    HW229811   4.478   2.591   9.296  0.5124  0.9692  0.6943
 6117SOL     OW29812   2.578   0.731   6.075  0.3054 -0.3900  0.0508
 6117SOL    HW129813   2.589   0.821   6.044 -0.6855 -0.5855 -0.8710
 6117SOL    HW229814   2.485   0.731   6.096  0.5190 -2.7531  0.9681
 6118SOL     OW29815   4.676   0.025  17.236 -0.2136  0.1842 -0.5044
 6118SOL    HW129816   4.688   0.040  17.330 -2.0709  1.9547 -0.5252
 6118SOL    HW229817   4.633   4.665  17.246  0.4971  0.0938  1.8310
 6119SOL     OW29818   3.260   2.020   8.473  0.1662 -0.2507 -0.2318
 6119SOL    HW129819   3.294   1.940   8.435 -2.5610 -1.8506  0.7156
 6119SOL    HW229820   3.167   2.003   8.490  0.1037 -0.6044 -0.9292
 6120SOL     OW29821   3.625   1.623   7.759  0.6446  0.2891  0.5144
 6120SOL    HW129822   3.623   1.536   7.800  2.1071 -0.4882 -1.0511
 6120SOL    HW229823   3.711   1.608   7.720  1.8741  2.0510  2.5776
 6121SOL     OW29824   4.407   1.375   9.391  0.1826 -0.4550 -0.6193
 6121SOL    HW129825   4.465   1.411   9.458 -2.0054 -0.2923  1.1850
 6121SOL    HW229826   4.395   1.452   9.335 -0.6184  1.1698  1.7907
 6122SOL     OW29827   3.971   1.805   4.850  0.0410  0.8233 -0.2169
 6122SOL    HW129828   3.979   1.864   4.775  0.6049  0.8329 -0.1533
 6122SOL    HW229829   4.040   1.846   4.902  0.1102  0.5884 -0.1219
 6123SOL     OW29830   1.335   0.326   9.383 -0.0466 -0.1645 -0.4169
 6123SOL    HW129831   1.274   0.309   9.310  0.9534 -1.0746 -1.0401
 6123SOL    HW229832   1.300   0.257   9.440 -2.0489  0.9684 -0.2728
 6124SOL     OW29833   1.563   2.394   5.382 -0.1277 -0.2535  0.4640
 6124SOL    HW129834   1.519   2.316   5.416  0.2207 -0.8599 -0.4859
 6124SOL    HW229835   1.483   2.434   5.350 -1.2049 -0.9199  2.2904
 6125SOL     OW29836   0.965   1.242   4.732 -0.0318  0.2642 -0.3788
 6125SOL    HW129837   0.917   1.262   4.812 -1.9049  0.6333 -1.5778
 6125SOL    HW229838   1.051   1.220   4.766 -0.8644  1.4817  2.5028
 6126SOL     OW29839   1.893   1.235   7.991 -0.1870 -0.1738  0.4290
 6126SOL    HW129840   1.935   1.263   8.072  0.5812  0.6982 -0.2736
 6126SOL    HW229841   1.908   1.140   7.985 -0.5321 -0.1792 -0.3994
 6127SOL     OW29842   1.960   4.040  12.723  0.0131 -0.2691  0.4094
 6127SOL    HW129843   2.049   4.064  12.700 -0.6873  1.7070 -0.2352
 6127SOL    HW229844   1.966   4.053  12.818 -0.6881 -1.1530  0.5754
 6128SOL     OW29845   3.002   1.500  14.988 -0.0008 -0.5107 -0.1602
 6128SOL    HW129846   2.987   1.428  14.928  0.0152  0.0493 -0.8395
 6128SOL    HW229847   2.961   1.459  15.064 -1.0833 -1.3662 -1.2258
 6129SOL     OW29848   2.412   0.719   0.753  0.4332  0.0552  0.5936
 6129SOL    HW129849   2.321   0.703   0.730  0.7340  1.2916 -1.4091
 6129SOL    HW229850   2.443   0.731   0.663  1.0417 -2.5230  0.4686
 6130SOL     OW29851   4.256   3.136   1.885  0.1917  0.2325 -0.4611
 6130SOL    HW129852   4.334   3.098   1.925  0.3925 -1.0503 -2.0847
 6130SOL    HW229853   4.257   3.226   1.919 -1.2383  0.4005 -0.8263
 6131SOL     OW29854   1.157   1.845   8.784  0.3488 -0.4601  0.3372
 6131SOL    HW129855   1.196   1.925   8.820  3.7078 -0.3105 -3.6448
 6131SOL    HW229856   1.068   1.869   8.760 -0.3930 -1.3221  2.2240
 6132SOL     OW29857   1.250   3.988  12.803  0.2035  0.0132  0.4323
 6132SOL    HW129858   1.320   3.925  12.819 -0.7212 -1.5345 -1.4945
 6132SOL    HW229859   1.267   4.020  12.714  1.1019 -1.1967  0.1777
 6133SOL     OW29860   2.590   0.330   1.997  0.3941 -0.3142 -0.2618
 6133SOL    HW129861   2.657   0.330   2.066 -0.3859  0.1515  0.4979
 6133SOL    HW229862   2.546   0.250   2.023  1.0679 -0.0483  1.6624
 6134SOL     OW29863   2.372   1.956   2.273 -0.0713 -0.9181 -0.5110
 6134SOL    HW129864   2.433   1.902   2.224  1.0698  0.4470 -0.5781
 6134SOL    HW229865   2.410   1.981   2.357 -1.7739  0.3945 -0.1249
 6135SOL     OW29866   4.210   2.214  10.955  0.2460  0.8896 -0.2132
 6135SOL    HW129867   4.269   2.227  11.029 -0.3236  0.7948  0.2541
 6135SOL    HW229868   4.266   2.196  10.880 -0.1314  0.6603 -0.4377
 6136SOL     OW29869   0.994   4.320   9.578  0.0758 -0.4265 -0.2375
 6136SOL    HW129870   0.941   4.320   9.498  1.3968  0.0647 -1.1110
 6136SOL    HW229871   1.052   4.246   9.562  0.4721 -0.0942 -0.3347
 6137SOL     OW29872   2.791   0.030  14.005  0.4695 -0.6623 -0.4268
 6137SOL    HW129873   2.751   0.107  14.045 -1.2407 -2.3097  0.9923
 6137SOL    HW229874   2.884   0.049  13.993 -0.2929  3.1396 -0.3246
 6138SOL     OW29875   4.527   0.197   6.592 -0.0222  0.3016  0.0493
 6138SOL    HW129876   4.475   0.119   6.573 -0.8640  1.2858 -1.6693
 6138SOL    HW229877   4.472   0.268   6.559 -0.3883 -0.3536 -0.7395
 6139SOL     OW29878   2.672   3.254  16.568  0.2119  0.3913  0.1135
 6139SOL    HW129879   2.612   3.298  16.508 -0.3564  0.8777  1.0406
 6139SOL    HW229880   2.748   3.249  16.510 -0.3851 -2.0097 -0.4684
 6140SOL     OW29881   0.676   2.609  10.774 -0.0349 -0.2748 -0.0524
 6140SOL    HW129882   0.615   2.564  10.833 -0.6868 -0.5102 -0.9143
 6140SOL    HW229883   0.707   2.679  10.831  1.1021 -1.5334  0.8649
 6141SOL     OW29884   0.140   4.538   2.121 -0.3688  0.1318 -0.8325
 6141SOL    HW129885   0.222   4.493   2.102  0.8003  0.4032  3.4520
 6141SOL    HW229886   0.086   4.520   2.044 -0.3505  1.0155 -1.0478
 6142SOL     OW29887   0.489   1.331   2.405  0.1203 -0.2425 -0.3470
 6142SOL    HW129888   0.557   1.343   2.339 -2.4248  1.9637 -2.5912
 6142SOL    HW229889   0.483   1.236   2.403  2.0441 -0.3563 -0.9935
 6143SOL     OW29890   4.203   1.338   1.547  0.5530 -0.5523 -0.3373
 6143SOL    HW129891   4.153   1.257   1.540  0.1401 -0.3494  0.1943
 6143SOL    HW229892   4.229   1.351   1.456  0.9918 -0.3880 -0.1897
 6144SOL     OW29893   0.342   1.978   2.118  0.2601  0.1330  0.3816
 6144SOL    HW129894   0.412   1.913   2.124 -0.1629 -0.2756  0.9507
 6144SOL    HW229895   0.350   2.026   2.036  1.0350 -0.3860  0.1553
 6145SOL     OW29896   1.219   1.158   3.273 -0.2120 -0.2090 -0.0292
 6145SOL    HW129897   1.169   1.211   3.334  0.3163 -1.1144  1.1808
 6145SOL    HW229898   1.143   1.132   3.220 -0.9336 -0.0023  0.9055
 6146SOL     OW29899   0.094   1.860   7.344 -0.0786 -0.6277 -0.3792
 6146SOL    HW129900   0.136   1.940   7.310 -0.3232 -0.3550 -0.0337
 6146SOL    HW229901   0.117   1.875   7.436 -1.9593 -1.3147  0.1912
 6147SOL     OW29902   2.483   0.942   5.914  0.2618  0.4725 -0.1499
 6147SOL    HW129903   2.403   0.991   5.896  0.2189  0.8619  1.0586
 6147SOL    HW229904   2.485   0.876   5.845  0.8728  0.9573 -0.5949
 6148SOL     OW29905   3.859   0.669   9.069 -0.4276 -0.1595 -0.2520
 6148SOL    HW129906   3.799   0.633   9.134  0.3186  1.3740  1.2910
 6148SOL    HW229907   3.817   0.755   9.061  0.5981  0.3377 -0.2395
 6149SOL     OW29908   3.631   4.544   8.202 -0.1935  0.1778 -0.0898
 6149SOL    HW129909   3.648   4.621   8.256  0.6765  0.8646 -1.3346
 6149SOL    HW229910   3.538   4.525   8.211  0.1571 -0.3327  2.5723
 6150SOL     OW29911   0.519   1.439  11.191  0.1590  0.2663 -0.5384
 6150SOL    HW129912   0.550   1.358  11.232 -0.8188 -0.1493 -0.6249
 6150SOL    HW229913   0.537   1.415  11.099 -2.9745 -2.1769 -0.5449
 6151SOL     OW29914   2.763   4.251   1.131 -0.2065  0.4337 -0.1738
 6151SOL    HW129915   2.820   4.177   1.152  0.3093  1.5002  2.1186
 6151SOL    HW229916   2.744   4.287   1.217  0.0438 -0.3135  0.1929
 6152SOL     OW29917   3.782   3.404   5.514  0.9130  0.4355  0.1462
 6152SOL    HW129918   3.802   3.345   5.587 -2.8279  0.4673  1.1888
 6152SOL    HW229919   3.838   3.476   5.542 -1.3120  1.6174  1.6091
 6153SOL     OW29920   1.091   1.084   0.005  0.1405 -0.2906  0.0316
 6153SOL    HW129921   1.113   1.164  17.661  0.1243 -1.0883 -1.3355
 6153SOL    HW229922   1.105   1.109   0.097 -1.1954  0.1173  0.1175
 6154SOL     OW29923   2.843   2.922   1.881  0.2069  0.4101 -0.3645
 6154SOL    HW129924   2.856   2.874   1.799 -1.4150 -1.1576  0.2892
 6154SOL    HW229925   2.863   3.012   1.857 -0.9893  0.6097 -0.6041
 6155SOL     OW29926   0.113   3.811   3.754  0.3568 -0.1414  0.1332
 6155SOL    HW129927   0.171   3.768   3.817 -0.9706 -1.5865  0.3883
 6155SOL    HW229928   0.107   3.736   3.694  0.3549 -0.1868  0.1900
 6156SOL     OW29929   3.060   3.335   4.002 -0.0620 -0.2224 -0.1556
 6156SOL    HW129930   3.092   3.348   3.912 -0.3022  0.0090 -0.2043
 6156SOL    HW229931   2.969   3.361   3.996  0.5042  1.6013 -0.6399
 6157SOL     OW29932   3.459   2.966   2.916 -0.8253 -0.3297 -0.0422
 6157SOL    HW129933   3.412   2.907   2.856  1.5051 -2.1413 -0.1047
 6157SOL    HW229934   3.432   3.049   2.878  0.6793 -0.3945 -1.2501
 6158SOL     OW29935   3.786   4.353   4.715 -0.1165 -0.2468 -0.3328
 6158SOL    HW129936   3.728   4.362   4.791  1.6591  1.5503  0.8327
 6158SOL    HW229937   3.850   4.292   4.753  0.9049  0.9553 -0.1327
 6159SOL     OW29938   1.073   1.648   6.831  0.0204  0.7149  0.3736
 6159SOL    HW129939   1.117   1.615   6.909 -1.3846 -0.4348  0.6757
 6159SOL    HW229940   1.077   1.567   6.781 -1.2345  0.2024  1.1249
 6160SOL     OW29941   2.520   1.757   7.229 -0.1408  0.0687  0.3788
 6160SOL    HW129942   2.495   1.731   7.317 -0.5426  1.0538  0.5600
 6160SOL    HW229943   2.503   1.675   7.182 -1.7967  0.7025 -0.1400
 6161SOL     OW29944   1.293   2.294   4.653 -0.0584  0.1289 -0.1293
 6161SOL    HW129945   1.308   2.373   4.601 -2.3454  0.9374  0.4056
 6161SOL    HW229946   1.266   2.221   4.597 -0.3511 -0.1405  0.3650
 6162SOL     OW29947   0.632   1.768   3.022 -0.1331  0.2805  0.5918
 6162SOL    HW129948   0.667   1.851   2.989 -0.6841  1.1848  2.2900
 6162SOL    HW229949   0.697   1.703   2.995 -1.4076 -0.5419 -0.5347
 6163SOL     OW29950   4.221   2.007   7.300  0.2128  0.2637  0.0054
 6163SOL    HW129951   4.156   2.062   7.345 -1.8031 -0.3252 -2.1620
 6163SOL    HW229952   4.298   2.049   7.338 -0.6148  2.4909 -0.7857
 6164SOL     OW29953   3.299   3.723  13.834 -0.7454 -0.1321  0.9004
 6164SOL    HW129954   3.262   3.636  13.827 -2.0367  0.5696 -0.8987
 6164SOL    HW229955   3.385   3.708  13.795 -0.8624  2.4475 -0.4026
 6165SOL     OW29956   2.438   1.216   6.088  0.3543 -0.3544  0.4878
 6165SOL    HW129957   2.474   1.234   6.175  1.3678 -1.2456  0.2572
 6165SOL    HW229958   2.436   1.120   6.085 -1.8268 -0.2280 -2.1842
 6166SOL     OW29959   1.232   0.020   8.343 -0.4191  0.1512 -0.2670
 6166SOL    HW129960   1.308   0.011   8.286  0.3813  1.3822  0.6097
 6166SOL    HW229961   1.254   4.681   8.410 -0.6062  1.7101  1.3103
 6167SOL     OW29962   1.387   1.576  10.559  0.2248  0.0929 -0.3356
 6167SOL    HW129963   1.335   1.511  10.512  0.1449 -0.7435  0.9055
 6167SOL    HW229964   1.422   1.530  10.635 -1.0711 -1.1036 -0.4653
 6168SOL     OW29965   4.061   1.036  13.542  0.4956 -0.8925 -0.1489
 6168SOL    HW129966   4.092   1.106  13.484 -0.3888  1.0810  1.7599
 6168SOL    HW229967   4.108   1.059  13.622 -0.2921  0.1358  0.0193
 6169SOL     OW29968   2.531   0.237  15.345 -0.8608 -1.0674 -0.0417
 6169SOL    HW129969   2.572   0.323  15.355 -5.1929  1.2002 -1.3452
 6169SOL    HW229970   2.450   0.247  15.395 -0.9643  1.0751 -0.6382
 6170SOL     OW29971   0.630   0.997   8.314  0.3077  0.8386 -0.2715
 6170SOL    HW129972   0.573   0.920   8.304 -1.3525  2.1109 -0.6970
 6170SOL    HW229973   0.715   0.958   8.331  0.6463  1.1581 -1.2156
 6171SOL     OW29974   0.052   0.643   9.132 -0.0183 -0.0459 -0.4431
 6171SOL    HW129975   0.008   0.688   9.060 -1.1521 -1.3258 -0.5313
 6171SOL    HW229976   0.112   0.582   9.089  1.5152 -0.6666  2.5989
 6172SOL     OW29977   0.722   0.179   1.000 -0.2294 -0.0010  0.5790
 6172SOL    HW129978   0.747   0.189   1.092 -1.2840 -1.0865  0.9758
 6172SOL    HW229979   0.711   0.269   0.971  0.7256 -0.2240 -0.4697
 6173SOL     OW29980   3.355   4.309   9.324  0.0678 -0.5335  0.4004
 6173SOL    HW129981   3.429   4.327   9.381  0.7567  0.4330 -0.8087
 6173SOL    HW229982   3.289   4.282   9.389  0.4189  0.2410  1.0795
 6174SOL     OW29983   2.364   0.618   6.802 -0.5711 -0.2753 -0.1997
 6174SOL    HW129984   2.318   0.535   6.787  1.3639 -1.7251  2.0968
 6174SOL    HW229985   2.302   0.667   6.856  0.1775  0.4306  0.0108
 6175SOL     OW29986   0.203   0.099   3.709  0.3023  0.5797 -0.9337
 6175SOL    HW129987   0.222   0.041   3.782 -1.0625 -0.8981 -1.7689
 6175SOL    HW229988   0.269   0.167   3.726  2.5867 -1.3717 -1.8697
 6176SOL     OW29989   0.393   2.114   7.461  0.1576  0.3375 -0.1226
 6176SOL    HW129990   0.351   2.044   7.512 -1.1259  0.2960 -1.2550
 6176SOL    HW229991   0.312   2.132   7.414 -0.9135 -1.9936  0.8252
 6177SOL     OW29992   1.568   2.389   4.369 -0.3380 -0.5099 -0.2621
 6177SOL    HW129993   1.660   2.409   4.353 -0.6650 -0.6511 -2.2816
 6177SOL    HW229994   1.544   2.362   4.280  1.0289  0.0231 -0.7952
 6178SOL     OW29995   1.849   0.080   6.430  0.7257 -0.0064 -0.2759
 6178SOL    HW129996   1.853   4.710   6.424 -0.2553 -0.0163 -0.7564
 6178SOL    HW229997   1.764   0.087   6.386  0.4872  0.7226  0.2954
 6179SOL     OW29998   2.922   3.526   2.457  0.5408  0.1482  0.1074
 6179SOL    HW129999   2.849   3.549   2.400  0.4663  0.9201  0.5179
 6179SOL    HW230000   2.997   3.519   2.398 -0.8701 -2.3400 -1.3918
 6180SOL     OW30001   1.360   2.003   8.928  0.4893 -0.5077 -0.1585
 6180SOL    HW130002   1.341   1.999   9.021  1.9472  0.5026  0.1815
 6180SOL    HW230003   1.455   1.989   8.922  0.6426 -0.0556  1.3387
 6181SOL     OW30004   2.791   0.979   8.154  0.0775 -0.0718 -0.5258
 6181SOL    HW130005   2.778   0.942   8.242  0.9364 -1.5507 -1.0216
 6181SOL    HW230006   2.771   0.902   8.101 -1.5495  0.2697 -0.3987
 6182SOL     OW30007   1.331   3.234  10.167  0.3845 -0.1372  0.0167
 6182SOL    HW130008   1.351   3.310  10.112  1.5413 -1.2432 -1.1162
 6182SOL    HW230009   1.407   3.179  10.146  0.4660 -1.5447  3.9932
 6183SOL     OW30010   2.925   2.926  16.041 -0.5458 -0.7615 -0.0037
 6183SOL    HW130011   2.861   2.998  16.038  1.1553  0.6886 -1.5152
 6183SOL    HW230012   2.961   2.929  15.953  2.3624 -2.0320  1.1611
 6184SOL     OW30013   1.388   2.835   6.661  0.2986 -0.0725  0.0211
 6184SOL    HW130014   1.378   2.846   6.567  1.0739  0.7833  0.0382
 6184SOL    HW230015   1.343   2.913   6.695 -1.0747 -1.4335  1.3384
 6185SOL     OW30016   4.570   2.713  11.345 -0.4877 -0.4741 -0.1612
 6185SOL    HW130017   4.641   2.705  11.281  1.1794 -0.5540  1.6752
 6185SOL    HW230018   4.601   2.781  11.405 -1.0732  0.3419 -0.7887
 6186SOL     OW30019   2.743   3.746   7.194  0.5359 -0.0719 -0.3762
 6186SOL    HW130020   2.834   3.757   7.220  0.1780 -0.4085  1.0048
 6186SOL    HW230021   2.725   3.652   7.193 -0.0189  0.0361 -0.5033
 6187SOL     OW30022   2.152   2.907   6.661 -0.2129 -0.3328 -0.5076
 6187SOL    HW130023   2.243   2.934   6.647 -0.1234  0.3774  1.4339
 6187SOL    HW230024   2.154   2.817   6.629 -0.6194 -0.3145 -0.5767
 6188SOL     OW30025   3.867   3.771  10.885 -0.0444 -0.6967  0.0581
 6188SOL    HW130026   3.805   3.837  10.914  1.8141  1.4887 -0.9270
 6188SOL    HW230027   3.937   3.836  10.874 -0.7712  0.3185  1.4889
 6189SOL     OW30028   1.304   1.666   4.321 -0.1255 -0.3201  0.2658
 6189SOL    HW130029   1.276   1.622   4.240 -0.4363 -0.2330  0.3242
 6189SOL    HW230030   1.360   1.601   4.362  0.1446 -0.0304  0.3547
 6190SOL     OW30031   1.146   4.246   5.388  0.2602  0.2340 -0.1809
 6190SOL    HW130032   1.212   4.284   5.447 -0.4216 -0.9863  1.3662
 6190SOL    HW230033   1.073   4.243   5.450  1.4884 -1.4539  1.2058
 6191SOL     OW30034   3.467   0.386   4.572 -0.0092  0.5207  0.6271
 6191SOL    HW130035   3.429   0.305   4.538  0.9624  0.3345 -0.0120
 6191SOL    HW230036   3.513   0.418   4.494 -0.4138 -1.4998 -0.4225
 6192SOL     OW30037   0.944   3.476   4.277 -0.2505  0.0337 -0.2554
 6192SOL    HW130038   0.865   3.432   4.246 -1.5074  2.6933 -0.8560
 6192SOL    HW230039   1.015   3.442   4.224 -0.3813  1.2906 -1.2288
 6193SOL     OW30040   1.691   3.706  17.227  0.6977 -0.1574 -0.0209
 6193SOL    HW130041   1.670   3.728  17.318  2.4438 -0.3897  0.4372
 6193SOL    HW230042   1.626   3.638  17.212 -2.9848  3.1660  1.0067
 6194SOL     OW30043   3.053   2.516   3.670  0.2597 -0.1769  0.3547
 6194SOL    HW130044   3.094   2.436   3.701 -3.2814 -2.3387 -0.4799
 6194SOL    HW230045   2.984   2.528   3.735  0.5822 -2.2349  1.0628
 6195SOL     OW30046   4.586   0.086   0.476 -0.2235  0.2931  0.0429
 6195SOL    HW130047   4.625   0.024   0.538 -2.4718  0.3711  1.5320
 6195SOL    HW230048   4.669   0.094   0.429 -0.3454 -1.5825 -0.4744
 6196SOL     OW30049   0.762   0.431  15.130 -0.4859  0.1179 -0.3317
 6196SOL    HW130050   0.826   0.393  15.068  0.6973  1.1044  0.2854
 6196SOL    HW230051   0.734   0.359  15.186 -0.8426 -0.2666 -0.9943
 6197SOL     OW30052   1.109   1.224   6.262  0.0324  0.2202  0.9688
 6197SOL    HW130053   1.094   1.155   6.327  0.8043 -0.6182  0.2668
 6197SOL    HW230054   1.112   1.304   6.315  0.2356  1.2742 -0.6557
 6198SOL     OW30055   0.067   3.732   8.090  0.2222  0.2052  0.3572
 6198SOL    HW130056   0.024   3.764   8.169 -1.7740 -2.6814  0.4128
 6198SOL    HW230057   0.018   3.652   8.070 -0.4625  0.1430  2.2638
 6199SOL     OW30058   0.330   1.755   2.538 -0.1577 -0.1642 -0.6080
 6199SOL    HW130059   0.371   1.668   2.529 -0.3210 -0.3615  0.6214
 6199SOL    HW230060   0.402   1.818   2.534 -0.6644  0.5054  0.9715
 6200SOL     OW30061   2.382   2.767   0.356  0.5022 -0.1386 -0.1640
 6200SOL    HW130062   2.298   2.812   0.360  0.5479 -0.0979  0.3479
 6200SOL    HW230063   2.356   2.675   0.358  2.1674 -0.6372 -2.2901
 6201SOL     OW30064   3.695   3.840   8.701 -0.1415  0.1683 -0.3110
 6201SOL    HW130065   3.752   3.912   8.726  2.2555 -1.5760 -0.7408
 6201SOL    HW230066   3.756   3.768   8.683 -1.1723 -0.5220 -1.0177
 6202SOL     OW30067   1.499   3.523   8.331  0.2097  0.0531  0.1663
 6202SOL    HW130068   1.586   3.500   8.365  0.5109 -0.0860 -0.7009
 6202SOL    HW230069   1.517   3.599   8.275 -0.0004 -0.6281 -0.8135
 6203SOL     OW30070   2.470   4.480   4.877  0.3426 -0.5610  0.3913
 6203SOL    HW130071   2.399   4.454   4.819  1.2490  0.8686 -1.3754
 6203SOL    HW230072   2.471   4.399   4.928  1.0967 -0.4043  0.6417
 6204SOL     OW30073   0.250   0.612   5.465 -0.2429 -0.0548 -0.1304
 6204SOL    HW130074   0.328   0.660   5.491  0.0743 -1.3154  1.2190
 6204SOL    HW230075   0.249   0.532   5.519 -1.1483 -0.8165 -1.2663
 6205SOL     OW30076   4.396   3.223  17.044  0.5228 -0.4091  0.1094
 6205SOL    HW130077   4.487   3.230  17.073 -0.1278 -1.1158  2.3242
 6205SOL    HW230078   4.383   3.137  17.003 -1.0795 -1.2089  2.2915
 6206SOL     OW30079   2.842   3.478   4.783 -0.1967 -0.3954 -0.0098
 6206SOL    HW130080   2.752   3.505   4.802 -0.2850 -1.3832  1.0159
 6206SOL    HW230081   2.830   3.427   4.703  0.2402  0.8525 -0.8579
 6207SOL     OW30082   1.354   4.172   2.204 -0.2932  0.0239  0.0621
 6207SOL    HW130083   1.294   4.209   2.139 -0.0172 -1.1862 -0.8830
 6207SOL    HW230084   1.373   4.088   2.161 -1.9464 -0.2224 -0.2104
 6208SOL     OW30085   4.627   0.647   2.960 -0.0604 -0.0332 -0.4668
 6208SOL    HW130086   4.544   0.635   2.913  0.1531 -0.6654 -0.6866
 6208SOL    HW230087   4.607   0.620   3.050 -0.5348  1.1326 -0.2252
 6209SOL     OW30088   0.739   2.767  11.263 -0.1896  0.7113 -0.3593
 6209SOL    HW130089   0.811   2.704  11.262 -0.0007  0.8659  1.8478
 6209SOL    HW230090   0.788   2.840  11.226  0.2133  0.9513  0.6543
 6210SOL     OW30091   3.750   1.586   5.189  0.1754  0.3212 -0.3628
 6210SOL    HW130092   3.759   1.534   5.269  0.9351  1.8562  0.5395
 6210SOL    HW230093   3.783   1.672   5.213  1.2234 -0.5448  1.2812
 6211SOL     OW30094   3.605   3.844   3.882 -0.0882 -0.3936 -0.1989
 6211SOL    HW130095   3.677   3.897   3.916  0.4294  0.1345 -2.1269
 6211SOL    HW230096   3.554   3.844   3.963 -1.7326  1.0801 -1.2467
 6212SOL     OW30097   4.699   2.561   3.512  0.5403  0.2150 -0.0490
 6212SOL    HW130098   0.008   2.650   3.503  0.8792  0.0965  0.0959
 6212SOL    HW230099   4.711   2.531   3.422 -1.3135  2.4368 -1.0416
 6213SOL     OW30100   2.627   1.214   8.153 -0.0395 -0.5769  0.3826
 6213SOL    HW130101   2.664   1.130   8.128  1.1679  0.4962 -1.4201
 6213SOL    HW230102   2.605   1.207   8.246 -0.0435  0.0693  0.4318
 6214SOL     OW30103   3.857   0.335   4.382  0.0559  0.1254 -0.0407
 6214SOL    HW130104   3.869   0.348   4.288 -1.5861  2.7671  0.1034
 6214SOL    HW230105   3.790   0.266   4.379  0.9597 -0.7193 -0.7025
 6215SOL     OW30106   4.290   3.494   4.625 -0.1461  0.0328  0.2006
 6215SOL    HW130107   4.301   3.511   4.718 -2.4383  0.2579  0.4251
 6215SOL    HW230108   4.378   3.468   4.596  0.1286  0.1743  0.9070
 6216SOL     OW30109   2.055   2.888  17.372  0.4427  0.3074  0.0254
 6216SOL    HW130110   1.999   2.965  17.365  1.1296  1.0083  2.0894
 6216SOL    HW230111   2.118   2.929  17.431  1.4872 -0.7330 -0.3735
 6217SOL     OW30112   3.893   4.045   2.728  0.2980  0.3481  0.0601
 6217SOL    HW130113   3.882   4.131   2.766 -1.7516  0.4280 -0.7431
 6217SOL    HW230114   3.898   4.075   2.637 -2.0379  2.9800  0.8156
 6218SOL     OW30115   0.846   4.622  16.097  0.3239  0.6080  0.3934
 6218SOL    HW130116   0.855   4.607  16.191 -0.2110 -0.0396  0.3368
 6218SOL    HW230117   0.936   4.600  16.072  0.5700  2.1428 -0.1186
 6219SOL     OW30118   0.779   0.117   3.907  0.0157 -0.1478  0.0118
 6219SOL    HW130119   0.801   0.192   3.961 -0.0886  0.4025 -0.7103
 6219SOL    HW230120   0.856   0.061   3.915 -0.5887 -1.4116 -2.6896
 6220SOL     OW30121   0.632   0.085   3.071 -0.9645 -0.5784 -0.1167
 6220SOL    HW130122   0.713   0.064   3.118 -0.5002 -1.6682 -1.3916
 6220SOL    HW230123   0.667   0.121   2.989 -2.5036 -0.5354 -0.7539
 6221SOL     OW30124   4.710   0.327   0.782  0.3221  0.0989 -0.4864
 6221SOL    HW130125   0.072   0.291   0.790 -0.4774 -2.2921 -2.4196
 6221SOL    HW230126   4.677   0.290   0.700 -0.1900 -0.2566 -0.1232
 6222SOL     OW30127   1.954   1.337  14.313  0.4729  0.0469  0.4420
 6222SOL    HW130128   1.998   1.335  14.398 -1.7960 -0.3392  1.6216
 6222SOL    HW230129   1.976   1.423  14.279 -3.0461  0.5361 -0.5418
 6223SOL     OW30130   0.462   1.391   3.098 -0.0722 -0.7270 -0.5779
 6223SOL    HW130131   0.432   1.459   3.038 -0.2910 -0.0441  0.3008
 6223SOL    HW230132   0.473   1.313   3.044  3.0651  0.2750 -1.3596
 6224SOL     OW30133   1.614   1.087   1.464  0.4239  0.7678 -0.0759
 6224SOL    HW130134   1.668   1.164   1.483 -1.6529  2.0059  0.8453
 6224SOL    HW230135   1.668   1.038   1.401 -1.9851 -1.3003 -0.5183
 6225SOL     OW30136   4.597   0.183   1.421  0.0505  0.4064 -0.2661
 6225SOL    HW130137   4.549   0.115   1.373  1.1588 -1.1034  0.7763
 6225SOL    HW230138   4.685   0.146   1.418 -0.1978 -0.3670  2.7530
 6226SOL     OW30139   3.321   0.412   7.964 -0.0793  0.6304 -0.4267
 6226SOL    HW130140   3.242   0.359   7.976  0.0847  0.4049 -0.3477
 6226SOL    HW230141   3.317   0.453   8.051 -2.4425  2.5380 -1.4289
 6227SOL     OW30142   1.702   2.120   3.337  0.1853  0.7189 -0.4520
 6227SOL    HW130143   1.773   2.070   3.298 -0.1650 -1.1227  1.2907
 6227SOL    HW230144   1.698   2.180   3.262 -2.3168 -0.3093 -1.1590
 6228SOL     OW30145   3.571   2.618   3.828  0.1030 -0.0593 -0.0728
 6228SOL    HW130146   3.482   2.587   3.811 -0.0802  0.6037 -0.3396
 6228SOL    HW230147   3.554   2.709   3.853  1.4650 -0.0289  0.6958
 6229SOL     OW30148   0.641   2.169  13.689 -0.0895 -0.2698 -0.0714
 6229SOL    HW130149   0.587   2.159  13.611  2.2135  0.4887 -1.7622
 6229SOL    HW230150   0.580   2.185  13.760 -2.7189 -1.5761 -2.0354
 6230SOL     OW30151   2.589   1.267   0.210 -0.1787  0.0579 -0.2693
 6230SOL    HW130152   2.512   1.324   0.213  0.0972  0.2246  3.0938
 6230SOL    HW230153   2.627   1.291   0.294 -0.0398 -2.0853  0.2852
 6231SOL     OW30154   3.141   4.405   8.093 -0.2863 -0.0260 -0.1264
 6231SOL    HW130155   3.082   4.479   8.111  0.2119  0.2156  0.4864
 6231SOL    HW230156   3.222   4.421   8.140  1.7831 -1.5392 -3.1565
 6232SOL     OW30157   4.163   3.363   7.149 -0.5086  0.2105  0.0869
 6232SOL    HW130158   4.104   3.301   7.192  0.3268  0.0052  0.9467
 6232SOL    HW230159   4.247   3.318   7.150 -0.1529  0.8437 -0.9481
 6233SOL     OW30160   4.576   2.530   9.597 -0.6341 -0.1118  0.0804
 6233SOL    HW130161   4.506   2.464   9.597 -0.8481  0.0951 -2.7429
 6233SOL    HW230162   4.590   2.542   9.691 -2.3199  0.3047  0.2920
 6234SOL     OW30163   3.746   3.797   4.725  0.3197 -0.1476  0.2542
 6234SOL    HW130164   3.774   3.866   4.785 -2.1547 -0.5980  1.9017
 6234SOL    HW230165   3.793   3.724   4.764 -0.0814 -0.5525 -0.0209
 6235SOL     OW30166   1.240   4.510   5.867  0.1715 -0.0792 -0.2349
 6235SOL    HW130167   1.171   4.549   5.920  0.3609 -0.7912  0.5383
 6235SOL    HW230168   1.308   4.486   5.930 -2.0651  1.5770  2.8141
 6236SOL     OW30169   0.042   4.324  15.540 -0.3624 -0.5514 -0.1469
 6236SOL    HW130170   4.700   4.382  15.574 -1.6725 -1.6851 -0.8330
 6236SOL    HW230171   0.049   4.365  15.453  0.2439  1.4501  0.8482
 6237SOL     OW30172   4.604   0.107  15.511 -0.2150  0.9409 -0.3950
 6237SOL    HW130173   4.622   0.199  15.492  0.6481  0.2145 -2.9705
 6237SOL    HW230174   4.670   0.069  15.454 -0.2468  1.9230 -1.0892
 6238SOL     OW30175   4.132   4.616   4.288  0.1353  0.2389  0.3453
 6238SOL    HW130176   4.157   4.704   4.316 -0.5985  0.7987 -0.7332
 6238SOL    HW230177   4.091   4.588   4.370 -0.1796  0.7637  0.3685
 6239SOL     OW30178   2.064   1.850   5.296  0.0452 -0.3402  0.2198
 6239SOL    HW130179   1.999   1.781   5.310 -0.4211  0.3219  1.2969
 6239SOL    HW230180   2.149   1.807   5.286  1.5635  3.4623 -2.9973
 6240SOL     OW30181   3.021   4.317   6.717 -0.8547  0.2037 -0.2962
 6240SOL    HW130182   3.095   4.321   6.778 -0.0938 -1.5032 -1.0931
 6240SOL    HW230183   3.035   4.236   6.668 -0.4908 -0.7748  1.4402
 6241SOL     OW30184   3.454   3.729   3.118 -0.2084  0.1978 -0.6555
 6241SOL    HW130185   3.487   3.688   3.038  0.9649 -1.3119  0.6079
 6241SOL    HW230186   3.525   3.780   3.157  0.7140 -3.0428  1.8229
 6242SOL     OW30187   0.234   0.584   5.192 -0.4186  0.4153 -1.0308
 6242SOL    HW130188   0.249   0.586   5.286  0.8526  2.2638 -1.2675
 6242SOL    HW230189   0.322   0.564   5.159  0.6750  0.4227  1.9017
 6243SOL     OW30190   1.972   3.584   5.811  0.7604 -1.0078 -0.6605
 6243SOL    HW130191   1.913   3.517   5.845 -0.0256 -0.2794 -0.5939
 6243SOL    HW230192   1.992   3.537   5.730 -1.4746 -1.8257 -0.7368
 6244SOL     OW30193   3.066   4.142   5.084 -0.5519  0.1300 -0.0776
 6244SOL    HW130194   3.119   4.144   5.163  0.3733 -2.0522 -0.6397
 6244SOL    HW230195   3.078   4.230   5.048  0.3318  0.7983  1.8891
 6245SOL     OW30196   3.032   2.105  11.419 -0.7271  0.4449 -0.1844
 6245SOL    HW130197   3.067   2.147  11.498 -0.9168  0.2350  0.0090
 6245SOL    HW230198   2.937   2.105  11.424 -0.7356 -0.7643 -0.4723
 6246SOL     OW30199   1.195   2.387   4.001  0.0377  0.0279  0.6361
 6246SOL    HW130200   1.213   2.441   3.924  0.9392  1.6960  1.9927
 6246SOL    HW230201   1.153   2.310   3.965 -1.4135  0.2016  1.9724
 6247SOL     OW30202   3.970   1.553   8.012 -0.1502 -0.5328 -0.6908
 6247SOL    HW130203   4.019   1.607   7.949 -0.9595  0.4475 -0.4719
 6247SOL    HW230204   4.042   1.523   8.067  0.2658  3.1156  0.7224
 6248SOL     OW30205   3.601   2.609   1.952 -0.5937  0.1656  0.6288
 6248SOL    HW130206   3.577   2.702   1.955  0.2203  0.4412 -1.8318
 6248SOL    HW230207   3.583   2.594   1.859 -2.2168  2.0080  0.6401
 6249SOL     OW30208   0.421   0.191   0.964 -0.4645  0.6132 -0.2285
 6249SOL    HW130209   0.393   0.138   1.038  0.9885 -1.3909 -1.1131
 6249SOL    HW230210   0.516   0.180   0.969 -0.5602 -0.3783 -0.5562
 6250SOL     OW30211   3.100   2.169   5.716 -0.5073  0.0433  0.0643
 6250SOL    HW130212   3.026   2.229   5.722 -0.6076 -0.0705 -0.0637
 6250SOL    HW230213   3.123   2.182   5.624 -2.8156  0.1824 -0.4697
 6251SOL     OW30214   1.275   2.423   9.638  0.0422  0.3385 -0.7105
 6251SOL    HW130215   1.263   2.434   9.733 -0.2872 -1.7480 -0.5164
 6251SOL    HW230216   1.254   2.331   9.623 -0.4623  0.4382 -0.6160
 6252SOL     OW30217   1.806   3.408   6.187 -0.0155 -0.3773  0.3825
 6252SOL    HW130218   1.732   3.361   6.227  0.1708 -0.3937  0.7076
 6252SOL    HW230219   1.865   3.333   6.196  0.9004  0.2849 -0.1279
 6253SOL     OW30220   4.512   3.632   8.398 -0.1529  0.2104 -0.2002
 6253SOL    HW130221   4.482   3.643   8.488 -0.1157  1.1460 -0.3084
 6253SOL    HW230222   4.595   3.679   8.392  0.8796 -1.4907  0.6974
 6254SOL     OW30223   3.609   2.400   4.027 -0.1376 -0.2746 -0.1823
 6254SOL    HW130224   3.673   2.444   3.971 -0.3206 -0.1131 -0.2611
 6254SOL    HW230225   3.532   2.417   3.974  0.3737 -0.2059 -0.9052
 6255SOL     OW30226   2.018   0.664   7.252 -0.0180 -0.5456  0.7707
 6255SOL    HW130227   2.000   0.749   7.212  0.2394  0.2279  2.3155
 6255SOL    HW230228   2.112   0.651   7.238  0.3964  0.9330  2.1506
 6256SOL     OW30229   1.728   3.253  10.127 -0.0903 -0.2617 -0.7962
 6256SOL    HW130230   1.754   3.281  10.039 -0.0905 -1.2919 -1.1140
 6256SOL    HW230231   1.806   3.280  10.176 -2.2179  2.7596  0.9703
 6257SOL     OW30232   2.300   1.848   4.612 -0.2324 -0.2111 -0.0067
 6257SOL    HW130233   2.296   1.764   4.658  0.8975  1.3208  2.8973
 6257SOL    HW230234   2.214   1.870   4.577 -1.4512 -1.8406  1.9771
 6258SOL     OW30235   4.537   3.821   4.237 -0.2913 -0.0883  0.3966
 6258SOL    HW130236   4.563   3.796   4.326 -1.1020 -1.1296  0.3265
 6258SOL    HW230237   4.443   3.825   4.251 -0.6692 -1.0926 -1.8974
 6259SOL     OW30238   4.331   1.521   6.793  0.3314 -0.0064  0.2829
 6259SOL    HW130239   4.424   1.509   6.770  0.5420  1.3409  0.4012
 6259SOL    HW230240   4.331   1.489   6.883  1.6832  1.7853  0.9278
 6260SOL     OW30241   1.069   2.710  17.172  0.8027 -0.0293 -0.0609
 6260SOL    HW130242   1.097   2.627  17.133 -0.7273 -1.2208  1.3906
 6260SOL    HW230243   0.998   2.691  17.233  1.4341  2.6175  1.5004
 6261SOL     OW30244   0.889   4.429   2.461  0.0901  0.2945 -0.4358
 6261SOL    HW130245   0.968   4.395   2.419  1.0526  0.3743  1.3016
 6261SOL    HW230246   0.898   4.419   2.556 -1.7592  0.2642 -0.2645
 6262SOL     OW30247   3.715   0.970   0.940  0.1068  0.3065 -0.7326
 6262SOL    HW130248   3.796   0.924   0.917  0.3401  0.2069  0.2817
 6262SOL    HW230249   3.745   1.051   0.980 -1.7692  0.8985 -0.5149
 6263SOL     OW30250   1.358   4.403   8.663 -0.6271  0.3336  0.0809
 6263SOL    HW130251   1.290   4.337   8.665  0.8427 -1.1789  0.0171
 6263SOL    HW230252   1.379   4.404   8.569 -1.9359  2.2700 -0.1978
 6264SOL     OW30253   0.669   1.953  15.306  0.2602  0.1318 -0.3386
 6264SOL    HW130254   0.740   1.988  15.252  0.6130 -0.2299 -0.1114
 6264SOL    HW230255   0.679   1.997  15.391  1.7838  0.9488 -0.9302
 6265SOL     OW30256   4.232   3.559   3.440 -0.6451 -0.4404 -0.3759
 6265SOL    HW130257   4.223   3.625   3.372 -2.2628 -0.1253  0.1524
 6265SOL    HW230258   4.327   3.564   3.453 -0.5797 -1.3014 -0.4819
 6266SOL     OW30259   3.874   2.770   8.840 -0.2126  0.0233  0.9438
 6266SOL    HW130260   3.792   2.738   8.879  0.7366  0.2196  3.1090
 6266SOL    HW230261   3.945   2.731   8.892 -0.8047 -1.8136  0.3743
 6267SOL     OW30262   0.527   3.339   6.729  0.3288 -0.0031  0.0912
 6267SOL    HW130263   0.456   3.305   6.784 -0.0957 -0.3160 -0.6410
 6267SOL    HW230264   0.526   3.434   6.735  0.8886 -0.0707  1.2965
 6268SOL     OW30265   1.814   3.841  11.613  0.0178  0.0210 -0.6864
 6268SOL    HW130266   1.905   3.835  11.586  0.1612 -2.3567  0.2861
 6268SOL    HW230267   1.781   3.775  11.552 -0.9495  0.3250 -0.5016
 6269SOL     OW30268   1.911   4.043  15.228  0.1047 -0.3712  0.7606
 6269SOL    HW130269   1.961   4.034  15.309  1.0870 -4.0961 -0.2540
 6269SOL    HW230270   1.822   4.065  15.257 -0.4191 -1.3145 -0.1507
 6270SOL     OW30271   3.263   0.718   1.117 -0.0900  0.1180 -0.1669
 6270SOL    HW130272   3.264   0.803   1.162 -0.0118  0.6192 -1.1288
 6270SOL    HW230273   3.351   0.719   1.080 -0.1306 -1.5107 -0.2845
 6271SOL     OW30274   4.017   3.193   7.275  0.6227 -0.8164 -0.3051
 6271SOL    HW130275   3.957   3.119   7.282  0.4634 -0.4804  1.9088
 6271SOL    HW230276   3.989   3.259   7.338  0.2813 -0.1818 -1.1205
 6272SOL     OW30277   3.336   3.324   7.244  0.1576 -0.1749 -0.0718
 6272SOL    HW130278   3.388   3.404   7.243  0.3004 -0.2734 -0.5077
 6272SOL    HW230279   3.349   3.308   7.337  0.2518  0.6595  0.0620
 6273SOL     OW30280   1.138   1.788   4.061 -0.4136  0.2694 -0.0751
 6273SOL    HW130281   1.219   1.751   4.027 -0.0189 -0.9396  2.2334
 6273SOL    HW230282   1.090   1.788   3.978  2.7204  1.6222 -1.9068
 6274SOL     OW30283   3.818   1.305   5.673 -0.6705 -0.0369  0.1820
 6274SOL    HW130284   3.903   1.277   5.707 -0.7633 -1.5285 -0.8365
 6274SOL    HW230285   3.814   1.399   5.692  2.4333  0.2077 -0.3310
 6275SOL     OW30286   1.583   4.191  10.418 -0.2694 -0.3510  0.3408
 6275SOL    HW130287   1.543   4.266  10.463  1.6881  0.6457  0.4236
 6275SOL    HW230288   1.551   4.121  10.475  0.5819 -0.2767  0.9131
 6276SOL     OW30289   2.703   2.606  11.929 -0.1982  0.5821 -0.4190
 6276SOL    HW130290   2.716   2.568  12.015 -1.9547  1.0117  0.0424
 6276SOL    HW230291   2.608   2.611  11.919 -0.2522 -0.0278 -0.2054
 6277SOL     OW30292   2.974   0.955  15.448  0.3362  0.0048 -0.7751
 6277SOL    HW130293   2.981   1.048  15.426 -2.2683  0.4060  0.1205
 6277SOL    HW230294   2.983   0.958  15.543 -0.3377  0.2531 -0.7216
 6278SOL     OW30295   2.179   0.541   4.571 -0.3092 -0.1495 -0.6628
 6278SOL    HW130296   2.097   0.590   4.573 -1.0939 -1.4339 -1.6523
 6278SOL    HW230297   2.219   0.593   4.641 -0.5310 -0.2082 -0.4905
 6279SOL     OW30298   2.546   2.467   3.743  0.1686  0.4752  0.1720
 6279SOL    HW130299   2.577   2.424   3.664 -0.3469  2.1332 -0.9391
 6279SOL    HW230300   2.536   2.394   3.803 -0.3328  1.1587  0.9287
 6280SOL     OW30301   3.579   2.355   1.092 -0.7832 -0.4942  0.7646
 6280SOL    HW130302   3.621   2.403   1.020  0.9656  0.5904  2.5035
 6280SOL    HW230303   3.580   2.266   1.057  0.9497 -1.2238  2.6460
 6281SOL     OW30304   0.600   0.447   6.497  0.7471  0.0089 -0.1828
 6281SOL    HW130305   0.636   0.389   6.565 -0.1160 -0.9239 -0.5126
 6281SOL    HW230306   0.525   0.396   6.465  0.2929 -0.0799  1.0080
 6282SOL     OW30307   2.314   3.450  17.520  0.2096  0.1441  0.0686
 6282SOL    HW130308   2.309   3.511  17.593 -2.4594  0.0479 -0.0545
 6282SOL    HW230309   2.258   3.492  17.455  0.6210  1.0114  0.2819
 6283SOL     OW30310   1.940   3.254   3.967  0.0513 -0.5731  0.5789
 6283SOL    HW130311   1.936   3.197   4.044 -0.6039 -1.1481  0.1223
 6283SOL    HW230312   1.900   3.337   3.992 -0.2962 -0.2303 -1.1039
 6284SOL     OW30313   4.549   1.033   8.573  0.2982  0.5880  0.0563
 6284SOL    HW130314   4.546   1.004   8.664  3.2194 -0.0642 -0.0546
 6284SOL    HW230315   4.464   0.998   8.543  0.9899  0.3134 -1.6169
 6285SOL     OW30316   0.342   0.356   4.575  0.2708 -0.1629 -0.0270
 6285SOL    HW130317   0.297   0.424   4.526  1.2983 -0.4327 -1.3503
 6285SOL    HW230318   0.377   0.295   4.510 -0.7413 -0.4667 -0.2858
 6286SOL     OW30319   0.453   1.499   7.185 -0.6166 -0.0057 -0.1643
 6286SOL    HW130320   0.469   1.462   7.272  0.0048  1.3471  0.3112
 6286SOL    HW230321   0.358   1.501   7.174 -0.8085 -0.8581  1.3604
 6287SOL     OW30322   2.262   0.230   7.931 -0.4178  0.3030  0.0219
 6287SOL    HW130323   2.274   0.154   7.873  0.7823  1.5501 -1.3537
 6287SOL    HW230324   2.176   0.267   7.913 -0.2388  0.3909 -0.6398
 6288SOL     OW30325   3.942   3.316   5.308  0.8914 -0.1406  0.6951
 6288SOL    HW130326   4.027   3.358   5.320  0.6219  0.8411 -0.7788
 6288SOL    HW230327   3.901   3.331   5.393 -2.2185  2.0626 -1.1958
 6289SOL     OW30328   1.478   1.379   3.335  0.2643  0.5776  0.3671
 6289SOL    HW130329   1.525   1.460   3.312  0.9575  0.2155  0.4929
 6289SOL    HW230330   1.391   1.412   3.357 -0.2334  0.6392 -1.6907
 6290SOL     OW30331   3.377   3.296   1.151 -0.1206  0.3935 -0.0310
 6290SOL    HW130332   3.333   3.230   1.098 -0.4519 -1.3079  2.3610
 6290SOL    HW230333   3.441   3.325   1.086  0.4477  1.5314  1.0280
 6291SOL     OW30334   0.978   2.588   9.870  0.5191  0.3209 -0.4137
 6291SOL    HW130335   0.977   2.658   9.804 -1.1075 -0.4192 -1.1751
 6291SOL    HW230336   0.916   2.525   9.835  2.2137 -0.4104 -2.0834
 6292SOL     OW30337   2.656   1.241   2.978 -0.1775  0.2589  0.1033
 6292SOL    HW130338   2.744   1.206   2.986  0.0974  1.1976  1.1351
 6292SOL    HW230339   2.665   1.299   2.901  0.8982 -1.8079 -1.3196
 6293SOL     OW30340   0.750   1.443   3.097 -0.2289 -0.1117  0.0821
 6293SOL    HW130341   0.780   1.445   3.188 -2.9524 -1.8989  1.0254
 6293SOL    HW230342   0.660   1.426   3.124  0.5227 -0.9411  2.0202
 6294SOL     OW30343   2.957   4.673   8.668 -0.1188  0.0617  0.6696
 6294SOL    HW130344   2.951   4.708   8.757 -0.4834  0.1698  0.5994
 6294SOL    HW230345   3.052   4.665   8.653 -0.1331  2.8670 -0.9271
 6295SOL     OW30346   3.224   4.465   6.936  0.3104  0.8717  0.1100
 6295SOL    HW130347   3.175   4.443   7.015 -1.1797 -1.1064 -1.3835
 6295SOL    HW230348   3.229   4.560   6.949 -0.3943  0.8811  0.3103
 6296SOL     OW30349   0.660   1.126   5.897  0.6767 -0.1058  0.0030
 6296SOL    HW130350   0.652   1.170   5.812  2.0118 -0.3381 -0.2537
 6296SOL    HW230351   0.606   1.183   5.953 -2.0274 -0.7337 -1.9811
 6297SOL     OW30352   0.383   1.723  12.416 -0.4022 -0.4875 -0.4346
 6297SOL    HW130353   0.435   1.758  12.488 -0.5194 -0.3191 -0.4303
 6297SOL    HW230354   0.339   1.644  12.447 -1.7323  1.3000  2.2818
 6298SOL     OW30355   3.004   1.836   3.778  0.1320  0.0333  0.1686
 6298SOL    HW130356   2.963   1.899   3.837 -0.9271 -0.9052  0.4338
 6298SOL    HW230357   3.038   1.762   3.828  0.8325  0.6549  0.6351
 6299SOL     OW30358   4.368   0.130   2.524 -1.1597 -0.0818 -1.0668
 6299SOL    HW130359   4.285   0.155   2.566 -0.1155  0.8286  0.4759
 6299SOL    HW230360   4.366   0.197   2.455 -1.3814  1.1384  0.1073
 6300SOL     OW30361   3.240   2.569   8.515  0.2318  0.5222  0.0038
 6300SOL    HW130362   3.225   2.664   8.514 -1.5281  0.2625  1.4685
 6300SOL    HW230363   3.335   2.578   8.512  0.2765  0.4021  0.9379
 6301SOL     OW30364   0.540   4.211   3.409 -0.2966 -0.3566 -0.1685
 6301SOL    HW130365   0.587   4.258   3.340 -1.1899 -0.4332 -0.8125
 6301SOL    HW230366   0.602   4.237   3.477 -2.4390  0.1607  1.5844
 6302SOL     OW30367   4.595   2.362   7.116  0.2364 -0.1655 -0.3294
 6302SOL    HW130368   4.557   2.404   7.193  2.2533  3.9077 -1.5611
 6302SOL    HW230369   4.592   2.273   7.150  1.3355  0.0750  0.3860
 6303SOL     OW30370   4.679   1.709   8.903 -0.7115 -0.7834  0.0368
 6303SOL    HW130371   4.655   1.773   8.837  1.3740 -0.6134 -0.5514
 6303SOL    HW230372   0.043   1.739   8.919 -0.8861  0.4327 -1.3293
 6304SOL     OW30373   2.588   0.562   4.784  0.1482 -0.0682 -0.2606
 6304SOL    HW130374   2.655   0.514   4.832  1.5175  1.1349 -0.9855
 6304SOL    HW230375   2.652   0.587   4.718  0.4109  1.9191  0.7405
 6305SOL     OW30376   4.440   1.035  15.811  0.0451  0.3160 -0.3576
 6305SOL    HW130377   4.363   1.048  15.867  0.2855 -0.3352  0.1267
 6305SOL    HW230378   4.432   0.944  15.782 -0.7688 -0.3137  1.7675
 6306SOL     OW30379   0.366   2.487   5.013  0.7244  0.3630 -0.0152
 6306SOL    HW130380   0.280   2.449   5.026 -0.4218  2.2621 -2.1873
 6306SOL    HW230381   0.404   2.475   5.100  0.6432 -0.6626 -0.1197
 6307SOL     OW30382   3.248   2.176   3.630 -0.1903  0.4484  0.6423
 6307SOL    HW130383   3.233   2.095   3.582 -0.2476  0.3122  0.8930
 6307SOL    HW230384   3.166   2.177   3.679 -1.1342  0.1518 -0.9305
 6308SOL     OW30385   2.312   4.406  15.340  0.0217 -0.2417  0.1455
 6308SOL    HW130386   2.297   4.474  15.274  2.2866  1.6878  1.5995
 6308SOL    HW230387   2.224   4.371  15.353 -0.6686  0.8260 -1.6602
 6309SOL     OW30388   1.509   1.570   5.934  0.6825 -0.2466  0.1279
 6309SOL    HW130389   1.528   1.510   5.862 -0.7128  1.0999 -1.3435
 6309SOL    HW230390   1.492   1.504   6.001 -3.5189  1.4824  0.7411
 6310SOL     OW30391   0.079   0.111   1.965 -0.3077  0.9887  0.4225
 6310SOL    HW130392   0.019   0.073   2.029  0.5098 -2.9105 -1.1622
 6310SOL    HW230393   0.070   0.053   1.889 -1.9115  2.9529 -0.8830
 6311SOL     OW30394   1.665   1.716   0.255  0.3283 -0.3726  0.2476
 6311SOL    HW130395   1.715   1.788   0.293 -0.7077  0.8747 -0.7229
 6311SOL    HW230396   1.576   1.750   0.266  0.9798  1.4275 -0.0583
 6312SOL     OW30397   2.890   3.268  10.550 -0.4742 -0.2063  0.8109
 6312SOL    HW130398   2.892   3.296  10.642 -0.3316  1.6056  0.2538
 6312SOL    HW230399   2.797   3.284  10.532 -0.7040 -1.2192  1.0700
 6313SOL     OW30400   2.540   1.271   0.566  0.4096 -0.5756  0.3597
 6313SOL    HW130401   2.479   1.345   0.573  1.5752  0.1471  3.0325
 6313SOL    HW230402   2.615   1.329   0.583  0.0808 -0.3489  1.0599
 6314SOL     OW30403   1.887   0.568  11.694  0.4414  0.4698  0.1414
 6314SOL    HW130404   1.930   0.649  11.667 -1.7012  1.5567 -0.0041
 6314SOL    HW230405   1.947   0.505  11.654  0.4106  0.6023 -0.1128
 6315SOL     OW30406   1.359   2.842  10.035 -0.0170 -0.7357  0.6307
 6315SOL    HW130407   1.400   2.915   9.989 -0.4748 -1.0454 -0.2739
 6315SOL    HW230408   1.270   2.844   9.999 -0.0156  0.9361  0.7208
 6316SOL     OW30409   1.407   0.891   0.686 -0.7636 -0.0562  0.4190
 6316SOL    HW130410   1.363   0.810   0.660  0.8680 -0.5806 -0.7010
 6316SOL    HW230411   1.332   0.949   0.673  0.8329  2.0851  0.7924
 6317SOL     OW30412   3.752   1.182   3.289  0.3612 -0.0524 -0.3834
 6317SOL    HW130413   3.728   1.254   3.231  1.0063  1.0250  0.6978
 6317SOL    HW230414   3.762   1.234   3.369 -1.3819 -0.3505  0.0140
 6318SOL     OW30415   0.118   4.430   4.608  0.3183  0.3899  0.0885
 6318SOL    HW130416   0.184   4.385   4.556 -0.5531 -0.7313 -0.0396
 6318SOL    HW230417   0.121   4.391   4.695  0.8044 -1.1877 -0.6436
 6319SOL     OW30418   1.929   2.401   2.302  0.1482 -0.2075 -0.8048
 6319SOL    HW130419   1.926   2.489   2.339  3.0647  0.1470 -1.4327
 6319SOL    HW230420   1.922   2.411   2.207 -0.0107 -0.3994 -0.8138
 6320SOL     OW30421   0.002   2.281   3.267  0.6308 -0.2467  0.5736
 6320SOL    HW130422   4.711   2.193   3.301 -0.5663  0.3380  1.5111
 6320SOL    HW230423   4.645   2.304   3.223  2.8442  2.7321 -1.9310
 6321SOL     OW30424   2.541   2.412   1.948 -0.1985 -0.1935  0.4483
 6321SOL    HW130425   2.555   2.368   2.032 -0.8299  1.8562  1.6157
 6321SOL    HW230426   2.454   2.450   1.958  1.0817  2.3692  1.6372
 6322SOL     OW30427   0.265   4.086   0.749  0.1421 -0.3342 -0.2129
 6322SOL    HW130428   0.169   4.083   0.751  0.2090  0.1804  3.1824
 6322SOL    HW230429   0.267   4.165   0.696 -0.8885 -0.8193 -0.9859
 6323SOL     OW30430   1.545   4.075   8.224  0.0946  0.0384  0.4106
 6323SOL    HW130431   1.450   4.087   8.233 -0.0709  0.5741 -1.8652
 6323SOL    HW230432   1.572   4.021   8.298  3.3537 -0.5732 -1.2448
 6324SOL     OW30433   3.668   3.581   5.017 -0.2825 -0.9307  0.0687
 6324SOL    HW130434   3.725   3.552   5.088 -3.2908  0.3765  3.0075
 6324SOL    HW230435   3.597   3.634   5.053 -1.2844 -2.6470  0.6325
 6325SOL     OW30436   4.717   3.091   3.471 -0.0104 -0.1532 -0.4222
 6325SOL    HW130437   0.025   3.178   3.493  1.3381 -0.7623 -0.0735
 6325SOL    HW230438   0.014   3.091   3.378 -0.4443  0.3809 -0.5278
 6326SOL     OW30439   3.068   0.633   9.442  0.4977 -0.0036  0.5638
 6326SOL    HW130440   2.986   0.682   9.438 -0.6340 -2.0438 -1.0217
 6326SOL    HW230441   3.098   0.656   9.530  0.8404  0.6572  0.2747
 6327SOL     OW30442   0.105   3.055   8.955 -0.4305  0.0214 -0.1621
 6327SOL    HW130443   0.182   3.110   8.967 -0.2039  0.0574 -1.7364
 6327SOL    HW230444   0.130   2.973   8.913 -1.0250 -0.5065  0.5165
 6328SOL     OW30445   4.257   1.346   6.467 -0.3811  0.2994 -0.1559
 6328SOL    HW130446   4.251   1.281   6.537  0.1403 -0.1172 -0.5072
 6328SOL    HW230447   4.352   1.352   6.468 -0.3266 -0.4757 -0.4905
 6329SOL     OW30448   3.056   3.877   8.978 -0.0347  0.1233 -0.0672
 6329SOL    HW130449   2.994   3.950   8.980  0.5816  0.7219 -2.1909
 6329SOL    HW230450   3.001   3.806   8.947 -0.6336  1.2028 -1.4798
 6330SOL     OW30451   2.409   4.440   7.809 -0.6392 -0.7236  0.6649
 6330SOL    HW130452   2.439   4.414   7.721  3.0836  0.0054  1.7262
 6330SOL    HW230453   2.367   4.363   7.848 -1.4102  0.4085  2.0407
 6331SOL     OW30454   0.607   3.105   8.376  0.3477 -0.1811  0.4171
 6331SOL    HW130455   0.670   3.126   8.306  0.9823  0.2800  1.1247
 6331SOL    HW230456   0.527   3.090   8.325 -0.2596  0.5273  1.1608
 6332SOL     OW30457   3.473   2.160   6.993  0.4192 -1.0473 -0.1948
 6332SOL    HW130458   3.504   2.171   6.903 -0.7869  1.1013 -0.3634
 6332SOL    HW230459   3.527   2.084   7.013 -0.2836 -1.8739 -1.4541
 6333SOL     OW30460   1.010   0.490   5.045  0.4665  0.0296 -0.1505
 6333SOL    HW130461   1.093   0.506   4.999  1.0915 -0.6113  0.7560
 6333SOL    HW230462   0.967   0.420   4.996 -0.3000  0.8699 -0.6819
 6334SOL     OW30463   4.165   0.271   4.043 -0.5953  0.3722  0.2129
 6334SOL    HW130464   4.212   0.201   3.997  0.6066  0.8790  0.6664
 6334SOL    HW230465   4.227   0.343   4.031  0.0088  0.0061  1.1463
 6335SOL     OW30466   3.194   1.501  11.048 -0.0853 -0.0757  0.4830
 6335SOL    HW130467   3.280   1.494  11.007  0.3309  2.0788  1.0180
 6335SOL    HW230468   3.201   1.451  11.130 -1.7980  0.4311  0.9433
 6336SOL     OW30469   2.325   0.226   4.741 -0.2184 -0.2007  1.0087
 6336SOL    HW130470   2.252   0.287   4.728  0.6926  0.6677  0.0468
 6336SOL    HW230471   2.284   0.142   4.720  1.1922 -0.9408  1.2803
 6337SOL     OW30472   3.153   4.656   5.170  0.1717 -0.1425  0.5012
 6337SOL    HW130473   3.160   0.021   5.199 -1.2698  0.4971 -1.1444
 6337SOL    HW230474   3.113   4.617   5.248  0.8233 -1.1251  0.3387
 6338SOL     OW30475   2.133   3.643  15.804 -0.5071  0.2139 -0.1051
 6338SOL    HW130476   2.096   3.710  15.861 -4.4184  0.3655 -2.7573
 6338SOL    HW230477   2.085   3.566  15.834  0.8382  0.5241  2.8056
 6339SOL     OW30478   2.299   2.147   3.703 -0.4163  0.4155 -0.0635
 6339SOL    HW130479   2.234   2.130   3.771  0.0503  1.2394  0.5907
 6339SOL    HW230480   2.243   2.139   3.626 -1.3289 -2.7691  0.9243
 6340SOL     OW30481   0.486   2.758   3.646 -0.0957 -0.0034 -0.4243
 6340SOL    HW130482   0.491   2.669   3.682  1.3392 -0.0164 -0.6620
 6340SOL    HW230483   0.421   2.740   3.578  1.4550  0.1492 -1.9593
 6341SOL     OW30484   0.560   0.404   5.921  0.0398  0.2227 -0.0801
 6341SOL    HW130485   0.572   0.495   5.894  1.4570 -0.2407 -1.0621
 6341SOL    HW230486   0.528   0.417   6.010  2.6751  0.9467  0.7649
 6342SOL     OW30487   3.617   0.001  16.079 -0.2294 -0.1985  0.2380
 6342SOL    HW130488   3.582   4.638  16.068 -1.8503  0.3888  0.6681
 6342SOL    HW230489   3.626   0.018  15.985 -1.3702  1.0147  0.3524
 6343SOL     OW30490   3.458   1.909   4.880 -0.1200 -0.4601  0.5560
 6343SOL    HW130491   3.496   1.973   4.820 -0.4165  0.2519  1.1348
 6343SOL    HW230492   3.526   1.893   4.946  2.0175  0.0223 -1.5028
 6344SOL     OW30493   0.527   3.360  15.811  0.0144  1.0693 -0.2544
 6344SOL    HW130494   0.511   3.455  15.805 -0.6745  0.8871 -1.3610
 6344SOL    HW230495   0.572   3.353  15.727 -3.1120 -1.0279 -1.7495
 6345SOL     OW30496   2.580   4.432   1.030 -0.4250  0.1454  0.2214
 6345SOL    HW130497   2.646   4.363   1.040 -0.6979 -0.4605 -1.9973
 6345SOL    HW230498   2.560   4.408   0.939 -1.9796 -0.7635  0.7960
 6346SOL     OW30499   1.371   0.634   3.084 -0.0910 -0.1589  0.4129
 6346SOL    HW130500   1.411   0.580   3.152  2.0471  0.4263 -0.3740
 6346SOL    HW230501   1.277   0.626   3.100 -0.4302 -2.8764 -2.8731
 6347SOL     OW30502   0.702   0.576   3.913 -0.4889 -0.1316 -0.2283
 6347SOL    HW130503   0.654   0.525   3.978 -0.6109  0.3861  0.0870
 6347SOL    HW230504   0.694   0.522   3.834  0.2251 -1.2433  0.4646
 6348SOL     OW30505   2.283   0.266   5.729 -0.2290  0.5345  0.4634
 6348SOL    HW130506   2.266   0.311   5.646 -1.6092 -0.9967 -0.0850
 6348SOL    HW230507   2.254   0.336   5.788 -2.3318  0.4490 -0.4786
 6349SOL     OW30508   2.592   1.093   4.493  0.0065  0.4377  0.2720
 6349SOL    HW130509   2.519   1.153   4.475  0.4799  0.7616 -0.5651
 6349SOL    HW230510   2.659   1.156   4.466 -0.3842  1.1097  0.8699
 6350SOL     OW30511   2.471   3.048   4.261  0.4226 -0.0464 -0.8897
 6350SOL    HW130512   2.525   3.038   4.183  2.1664 -0.0305  0.3287
 6350SOL    HW230513   2.447   3.141   4.261  0.0149 -0.1484 -0.6427
 6351SOL     OW30514   3.980   0.132   2.348 -0.1038  0.2555  0.0912
 6351SOL    HW130515   3.991   0.080   2.428 -0.2359 -0.1951 -0.1811
 6351SOL    HW230516   3.984   0.225   2.371  1.4591  0.2342 -0.1275
 6352SOL     OW30517   3.758   3.168  15.224 -0.4943  0.2781  0.4538
 6352SOL    HW130518   3.823   3.238  15.220 -0.8071  0.4067 -2.1644
 6352SOL    HW230519   3.720   3.181  15.311 -0.9818  2.0982 -0.0468
 6353SOL     OW30520   2.761   3.872   7.992  0.0630  0.3843 -0.0693
 6353SOL    HW130521   2.783   3.964   7.982 -2.1124  1.0672  1.4144
 6353SOL    HW230522   2.725   3.879   8.080 -4.4253 -0.8171 -1.7930
 6354SOL     OW30523   2.197   2.584  12.947 -0.0119 -0.0760 -0.2332
 6354SOL    HW130524   2.198   2.488  12.954  1.8265 -0.0157  0.1325
 6354SOL    HW230525   2.280   2.607  12.905  0.8739 -1.7888  0.5828
 6355SOL     OW30526   1.437   3.257   3.738 -0.4581  0.4636  0.3911
 6355SOL    HW130527   1.367   3.283   3.799 -0.7670 -0.7936  0.5729
 6355SOL    HW230528   1.515   3.291   3.782  1.5285 -3.4169 -0.1698
 6356SOL     OW30529   1.434   0.584  15.138 -0.3956  0.1040  0.0697
 6356SOL    HW130530   1.512   0.617  15.181  1.1259 -0.0023 -2.6121
 6356SOL    HW230531   1.378   0.554  15.209  0.5960 -0.8474  0.4532
 6357SOL     OW30532   4.365   2.496   8.627 -0.3450 -1.0891 -0.5237
 6357SOL    HW130533   4.287   2.539   8.663 -1.4910 -1.8188 -2.1630
 6357SOL    HW230534   4.387   2.572   8.574 -1.5309 -0.5680 -0.2722
 6358SOL     OW30535   3.714   3.041   1.738 -0.1055  0.3002  0.0305
 6358SOL    HW130536   3.675   2.971   1.686 -0.6905 -1.1131  2.3914
 6358SOL    HW230537   3.806   3.025   1.716  0.3413 -2.5903  4.0471
 6359SOL     OW30538   4.619   2.272   3.775  0.0051 -0.3860  0.5264
 6359SOL    HW130539   4.681   2.307   3.711 -0.6285 -1.0027 -0.4266
 6359SOL    HW230540   4.574   2.209   3.719  1.1311  0.8792 -1.8003
 6360SOL     OW30541   4.158   2.615   9.822  0.0919 -0.0797 -0.4292
 6360SOL    HW130542   4.213   2.564   9.762  0.8232 -0.0435  0.2121
 6360SOL    HW230543   4.217   2.686   9.846  0.6085 -0.7792  0.3891
 6361SOL     OW30544   4.501   2.429   1.671 -0.7749 -0.0584  0.5319
 6361SOL    HW130545   4.447   2.465   1.741 -1.4767  1.3586 -0.7507
 6361SOL    HW230546   4.569   2.378   1.716  1.5955  1.0295 -1.8153
 6362SOL     OW30547   1.818   0.050   7.068  0.2239 -0.5895  0.6757
 6362SOL    HW130548   1.832   0.034   6.975  2.6021 -1.4058  1.1827
 6362SOL    HW230549   1.743   4.716   7.066 -1.3291  1.1950  5.8024
 6363SOL     OW30550   2.597   4.316   6.374 -0.3723 -0.2238 -0.4188
 6363SOL    HW130551   2.590   4.395   6.319 -0.1434  0.0633 -0.0354
 6363SOL    HW230552   2.658   4.264   6.321  1.4095  1.1185  0.2944
 6364SOL     OW30553   0.691   4.720  11.465 -0.5914  0.8105  0.1018
 6364SOL    HW130554   0.679   0.082  11.429 -1.4110  1.1127  1.1157
 6364SOL    HW230555   0.602   4.707  11.499 -0.7393 -0.6086 -0.8022
 6365SOL     OW30556   1.023   2.687   2.690 -0.3992  0.2323 -0.2765
 6365SOL    HW130557   0.931   2.696   2.665 -0.7748 -0.8914  0.7031
 6365SOL    HW230558   1.026   2.646   2.776  0.3372  2.3366  0.6968
 6366SOL     OW30559   3.530   2.179   4.174  0.0890 -0.0104  0.2483
 6366SOL    HW130560   3.581   2.256   4.151 -1.2728  0.6418 -0.5670
 6366SOL    HW230561   3.516   2.138   4.089  0.7697  2.1968 -0.9163
 6367SOL     OW30562   2.901   2.351  12.444  0.1344 -0.0103 -0.4404
 6367SOL    HW130563   2.910   2.256  12.434 -2.1230 -0.3319  0.7190
 6367SOL    HW230564   2.990   2.386  12.444  0.2472 -0.2906 -1.5570
 6368SOL     OW30565   1.307   2.297   1.488 -0.5538 -0.2995  0.0210
 6368SOL    HW130566   1.217   2.271   1.470 -0.8965  1.5149 -0.9058
 6368SOL    HW230567   1.343   2.209   1.495 -1.0016 -0.3293  1.9532
 6369SOL     OW30568   1.290   3.398   7.674 -0.4644 -0.3616  0.0799
 6369SOL    HW130569   1.278   3.305   7.659 -2.7925 -0.0557  0.0120
 6369SOL    HW230570   1.229   3.413   7.746  1.3027 -1.4105  1.7888
 6370SOL     OW30571   2.281   4.252   5.343  0.7787 -0.5628  0.5065
 6370SOL    HW130572   2.245   4.176   5.298 -1.3231  1.7125 -1.6822
 6370SOL    HW230573   2.212   4.256   5.410 -1.4947 -0.5722 -1.8054
 6371SOL     OW30574   2.378   0.525   1.648 -0.6927 -0.3429  0.6396
 6371SOL    HW130575   2.438   0.463   1.606 -0.8256  0.2414 -0.4155
 6371SOL    HW230576   2.341   0.575   1.575  2.9139  0.3771 -0.7009
 6372SOL     OW30577   1.720   3.255   3.457 -0.4637 -0.1942  0.5323
 6372SOL    HW130578   1.774   3.248   3.535 -1.7808  0.4661  1.5105
 6372SOL    HW230579   1.629   3.239   3.483 -1.1805  0.3558 -1.5599
 6373SOL     OW30580   4.232   4.313   2.409  0.1277 -0.4675  0.0031
 6373SOL    HW130581   4.269   4.281   2.492 -0.5123  0.1434  0.5238
 6373SOL    HW230582   4.187   4.389   2.447  1.6682 -0.6673  2.2748
 6374SOL     OW30583   3.245   4.309   0.293 -0.1809 -0.0738 -0.8537
 6374SOL    HW130584   3.287   4.283   0.375 -2.0933 -0.0303  0.1432
 6374SOL    HW230585   3.167   4.353   0.326  0.5526  1.1058 -0.6957
 6375SOL     OW30586   0.977   2.322  15.693 -0.1602 -0.1105  0.0331
 6375SOL    HW130587   0.942   2.245  15.739 -3.2780  1.4524  0.2861
 6375SOL    HW230588   0.956   2.293  15.604  2.8230 -0.9713 -0.3894
 6376SOL     OW30589   2.158   3.946   5.740  0.2711 -0.6925  0.0055
 6376SOL    HW130590   2.181   3.908   5.656  0.0082  0.7081 -0.6935
 6376SOL    HW230591   2.223   4.016   5.754 -2.9955  1.5430  3.9782
 6377SOL     OW30592   2.720   1.455   0.403  0.1871 -0.1054 -0.5500
 6377SOL    HW130593   2.800   1.489   0.442 -0.0119 -0.0202 -0.2229
 6377SOL    HW230594   2.662   1.532   0.405  1.2144  0.6356  0.5029
 6378SOL     OW30595   3.730   1.852   6.900 -0.3455 -0.6829 -0.4016
 6378SOL    HW130596   3.667   1.838   6.970  0.4275  1.3037  0.6957
 6378SOL    HW230597   3.811   1.813   6.932 -0.1815 -0.4198 -0.4935
 6379SOL     OW30598   1.949   1.357   0.332  0.3451 -0.0569  0.0797
 6379SOL    HW130599   2.004   1.430   0.358  2.7084 -2.4719  1.9177
 6379SOL    HW230600   1.957   1.368   0.238 -1.5887  0.6520 -0.0057
 6380SOL     OW30601   0.716   3.867  16.911  0.1447 -0.0685 -0.1863
 6380SOL    HW130602   0.640   3.918  16.938  1.0049  0.8535  0.5236
 6380SOL    HW230603   0.688   3.851  16.821  1.4405  1.2823 -0.8401
 6381SOL     OW30604   0.932   1.011   1.588 -0.3837  0.0754  0.6305
 6381SOL    HW130605   0.916   1.054   1.672 -0.5494 -0.3123  0.8003
 6381SOL    HW230606   0.938   1.090   1.535  0.5249 -0.2336  0.2858
 6382SOL     OW30607   3.688   0.824  15.037 -0.5493  0.3678 -0.0612
 6382SOL    HW130608   3.605   0.854  15.076 -1.2194 -3.9977  1.9134
 6382SOL    HW230609   3.723   0.910  15.015  0.5076  0.3858  1.6592
 6383SOL     OW30610   1.006   3.631   2.208 -0.0459 -0.2000 -0.5354
 6383SOL    HW130611   1.057   3.678   2.274 -1.9208 -2.6959  2.7287
 6383SOL    HW230612   1.076   3.589   2.159  1.4702  5.8853 -3.6475
 6384SOL     OW30613   2.344   3.188   2.203  0.3617 -0.3967  0.8943
 6384SOL    HW130614   2.323   3.095   2.214 -2.2095 -0.1170 -1.5170
 6384SOL    HW230615   2.375   3.196   2.113 -2.5521  0.2124 -0.0619
 6385SOL     OW30616   1.211   0.878   1.731 -0.6425 -0.4049 -0.3822
 6385SOL    HW130617   1.120   0.875   1.762  0.0231  0.6518  1.7145
 6385SOL    HW230618   1.247   0.867   1.819 -1.6889  0.8837  0.2124
 6386SOL     OW30619   2.958   3.353  16.882 -0.2919  0.9936  0.4168
 6386SOL    HW130620   2.973   3.358  16.787  0.8705 -0.0687  0.5465
 6386SOL    HW230621   2.873   3.312  16.896  0.9118 -1.9789 -1.0624
 6387SOL     OW30622   1.437   1.748   6.313 -0.0566 -0.1006  0.0017
 6387SOL    HW130623   1.475   1.667   6.349  2.2879  1.4470  1.0136
 6387SOL    HW230624   1.360   1.768   6.365  1.0791  1.2514  1.1849
 6388SOL     OW30625   0.046   1.957  14.951 -0.4057  0.4223 -0.3232
 6388SOL    HW130626   0.141   1.953  14.962 -0.5612 -2.6337 -0.0910
 6388SOL    HW230627   0.021   2.040  14.993  0.4580  0.4480  0.1276
 6389SOL     OW30628   1.677   0.267   3.426 -0.0945 -0.3607  0.2863
 6389SOL    HW130629   1.685   0.335   3.359 -2.1008 -2.9144 -2.5367
 6389SOL    HW230630   1.714   0.194   3.376  1.3427  2.4838 -2.8264
 6390SOL     OW30631   0.407   2.665   5.232 -0.0401 -0.1000 -0.4361
 6390SOL    HW130632   0.499   2.642   5.245  0.0271 -1.0541 -2.6031
 6390SOL    HW230633   0.359   2.641   5.311 -0.8472  0.1229 -0.8591
 6391SOL     OW30634   4.336   4.689   4.817  0.1875  0.3626 -0.0780
 6391SOL    HW130635   4.261   4.714   4.870  0.1734  0.0570  0.0454
 6391SOL    HW230636   4.416   4.703   4.867 -1.1912  0.6832  2.0483
 6392SOL     OW30637   1.447   0.234   6.712  0.2117  0.6041  0.2041
 6392SOL    HW130638   1.360   0.198   6.696  1.4468 -2.4678  0.5203
 6392SOL    HW230639   1.467   0.191   6.795  0.3136  1.4308  0.6074
 6393SOL     OW30640   4.499   0.152   1.686 -0.5133 -0.1592 -0.2591
 6393SOL    HW130641   4.535   0.181   1.602 -0.6902  0.9188  0.0471
 6393SOL    HW230642   4.505   0.056   1.689 -0.9336 -0.2488 -2.3241
 6394SOL     OW30643   0.468   2.833   9.408 -0.7197 -0.6743  0.5057
 6394SOL    HW130644   0.403   2.903   9.394 -0.3033 -0.2833  0.5055
 6394SOL    HW230645   0.419   2.753   9.423 -1.0664 -0.9388 -1.9477
 6395SOL     OW30646   3.046   1.161   3.971  0.1261 -0.4027  0.3498
 6395SOL    HW130647   3.064   1.181   3.879  0.1519 -0.6148  0.3088
 6395SOL    HW230648   2.994   1.083   3.951 -0.3485  0.3528 -1.4250
 6396SOL     OW30649   0.612   3.085   0.688 -0.3662 -0.1678 -0.3312
 6396SOL    HW130650   0.704   3.071   0.664 -0.2628 -0.9380  0.5207
 6396SOL    HW230651   0.585   2.994   0.698  1.0904 -0.6363 -0.6073
 6397SOL     OW30652   3.792   3.997   7.632  0.2904  0.1249 -0.2724
 6397SOL    HW130653   3.723   3.932   7.623  0.7419 -0.6094  1.4425
 6397SOL    HW230654   3.739   4.074   7.614 -0.2346  0.0896  1.0729
 6398SOL     OW30655   4.102   1.640   7.557 -0.0202 -0.6638  0.6581
 6398SOL    HW130656   4.165   1.571   7.537  1.0273  0.3195  0.5490
 6398SOL    HW230657   4.108   1.700   7.483 -1.5695 -2.8980 -1.2540
 6399SOL     OW30658   4.420   1.771   4.438 -0.3934  0.6450  0.0507
 6399SOL    HW130659   4.360   1.768   4.363 -2.1396 -0.4683  1.4701
 6399SOL    HW230660   4.455   1.859   4.424  1.7287 -0.1777  0.1704
 6400SOL     OW30661   1.089   1.643   9.046  0.3770  0.0672 -0.2235
 6400SOL    HW130662   1.105   1.737   9.058 -1.8748  0.6940 -2.1966
 6400SOL    HW230663   0.995   1.654   9.035  0.6328  1.5193 -0.9373
 6401SOL     OW30664   1.033   2.016  10.671 -0.1535  0.5203  0.5682
 6401SOL    HW130665   0.998   2.025  10.582 -1.0986 -2.5065  0.6367
 6401SOL    HW230666   0.990   1.935  10.697  2.9349 -1.4227 -0.3916
 6402SOL     OW30667   0.272   0.313  10.122  0.2654  0.7198  0.1757
 6402SOL    HW130668   0.249   0.236  10.173  0.5531  2.2067  2.5512
 6402SOL    HW230669   0.188   0.337  10.082  0.3112  0.7385  0.0915
 6403SOL     OW30670   2.370   4.509  13.716  0.4277  0.2450  0.1126
 6403SOL    HW130671   2.316   4.585  13.691  0.8278  0.3295 -0.5231
 6403SOL    HW230672   2.370   4.520  13.811  0.7595  0.9985  0.0334
 6404SOL     OW30673   0.109   2.520  12.691 -0.3288  0.4252 -0.7559
 6404SOL    HW130674   0.032   2.518  12.634 -1.4900  3.5897  0.7000
 6404SOL    HW230675   0.070   2.479  12.768  1.0639 -0.1767 -0.3828
 6405SOL     OW30676   2.698   0.739  17.309  0.3425 -0.2123 -0.3619
 6405SOL    HW130677   2.743   0.814  17.347 -2.0109  0.6937  0.7035
 6405SOL    HW230678   2.635   0.791  17.259 -1.2446 -1.7218  0.0482
 6406SOL     OW30679   4.014   2.586   8.993 -0.0911 -0.1584 -0.3219
 6406SOL    HW130680   3.969   2.521   8.939  1.4982 -0.3777 -1.3506
 6406SOL    HW230681   3.958   2.600   9.070 -0.1872 -0.8201 -0.2643
 6407SOL     OW30682   1.852   4.586   4.879 -0.1174  0.1019  0.3851
 6407SOL    HW130683   1.797   4.598   4.956 -0.4700 -0.9262  0.2975
 6407SOL    HW230684   1.865   4.492   4.864  0.0656  0.4130 -1.4272
 6408SOL     OW30685   0.319   4.681   6.567  0.3656  0.1771 -0.2191
 6408SOL    HW130686   0.239   4.674   6.515  0.5575  1.3312 -0.6483
 6408SOL    HW230687   0.301   0.036   6.617  1.2592 -0.1667  0.6510
 6409SOL     OW30688   2.409   4.214  10.538 -0.1455 -0.1114 -0.0992
 6409SOL    HW130689   2.498   4.188  10.518  0.6485  1.4180  1.3901
 6409SOL    HW230690   2.387   4.189  10.628 -1.4373 -0.3593 -0.4776
 6410SOL     OW30691   2.650   1.838   0.455  0.0069 -0.0249 -1.3124
 6410SOL    HW130692   2.656   1.763   0.514 -1.6613  1.2386  0.4733
 6410SOL    HW230693   2.596   1.793   0.389 -1.9295  0.4664 -0.0823
 6411SOL     OW30694   2.450   1.612   2.245 -0.4130  0.3391 -0.2447
 6411SOL    HW130695   2.450   1.594   2.151 -3.0001 -3.6741  0.4995
 6411SOL    HW230696   2.519   1.678   2.245 -1.1902  1.1717  1.1077
 6412SOL     OW30697   1.739   2.067   5.289 -0.3711 -0.0718 -0.5263
 6412SOL    HW130698   1.654   2.024   5.295 -0.4518  0.0190 -0.9936
 6412SOL    HW230699   1.794   2.044   5.364 -1.2356  2.6578  0.9400
 6413SOL     OW30700   4.360   4.117   4.740 -0.1480  0.0114 -0.0095
 6413SOL    HW130701   4.295   4.061   4.696 -0.0802  0.4321 -0.6354
 6413SOL    HW230702   4.365   4.189   4.677 -0.0564  2.7062  3.0777
 6414SOL     OW30703   2.085   1.312   8.538  0.2977  0.0793  0.7484
 6414SOL    HW130704   2.023   1.385   8.548 -0.3645 -0.7113  2.3605
 6414SOL    HW230705   2.165   1.360   8.516 -1.2380  1.2780 -2.1884
 6415SOL     OW30706   0.754   3.991   3.590 -0.2467  0.3044  0.2201
 6415SOL    HW130707   0.712   3.923   3.643  1.2699 -0.3560  0.5864
 6415SOL    HW230708   0.796   4.047   3.656  0.7304 -0.9336  0.6528
 6416SOL     OW30709   4.233   1.053  16.017  0.6150 -0.2976 -0.0008
 6416SOL    HW130710   4.294   1.018  16.082 -0.8433 -0.1323  1.4538
 6416SOL    HW230711   4.160   0.992  16.027 -0.8757  1.4516 -0.3106
 6417SOL     OW30712   4.335   2.221   7.977  0.0166  0.1029  0.0882
 6417SOL    HW130713   4.376   2.136   7.990  0.8208  0.5429  0.3776
 6417SOL    HW230714   4.243   2.206   8.001  0.7236 -3.4449  0.5813
 6418SOL     OW30715   0.111   2.621   9.953 -0.3145  0.3551  0.0650
 6418SOL    HW130716   0.027   2.650   9.917 -1.2265 -1.5717  0.6774
 6418SOL    HW230717   0.108   2.532   9.920  1.1879  0.1029  0.6044
 6419SOL     OW30718   4.200   0.675   3.440  0.9406 -0.0630 -0.6199
 6419SOL    HW130719   4.117   0.700   3.482  1.3350 -1.2574  0.8408
 6419SOL    HW230720   4.184   0.727   3.361 -0.9750  0.8853  0.3801
 6420SOL     OW30721   2.700   1.408   0.745 -0.2409  0.0131  0.0332
 6420SOL    HW130722   2.647   1.401   0.824 -2.3047 -1.6221 -1.4645
 6420SOL    HW230723   2.771   1.349   0.771  2.3338  2.7942 -0.7596
 6421SOL     OW30724   1.772   3.097  10.396 -0.5627 -0.1451  0.0152
 6421SOL    HW130725   1.829   3.090  10.472 -1.9973 -1.0624  1.0068
 6421SOL    HW230726   1.688   3.113  10.437 -0.2184  1.6529  0.0331
 6422SOL     OW30727   3.373   3.878   6.710 -0.2607 -0.1518  0.5177
 6422SOL    HW130728   3.417   3.860   6.793 -0.9331 -1.4387  0.5879
 6422SOL    HW230729   3.404   3.798   6.668  3.1219  0.5480  1.7093
 6423SOL     OW30730   0.626   1.720   9.611  0.2310  0.0512 -0.3394
 6423SOL    HW130731   0.602   1.738   9.520 -0.6457 -3.2779 -0.7345
 6423SOL    HW230732   0.543   1.744   9.652  0.2223 -1.1796  0.3570
 6424SOL     OW30733   3.902   3.617   5.742  0.2113 -0.2526 -0.3007
 6424SOL    HW130734   3.969   3.675   5.778  0.5765 -0.2460 -0.9754
 6424SOL    HW230735   3.834   3.637   5.806  1.2465  1.3895  0.2720
 6425SOL     OW30736   2.903   0.515  12.295 -0.2821 -0.5099 -0.6057
 6425SOL    HW130737   2.866   0.455  12.359  1.2339  0.4997  1.2213
 6425SOL    HW230738   2.825   0.525  12.240 -0.7404  0.6623  0.2597
 6426SOL     OW30739   0.278   3.874   6.306 -0.1227 -0.4361 -0.3240
 6426SOL    HW130740   0.372   3.889   6.305 -0.3416  0.8713 -0.6624
 6426SOL    HW230741   0.275   3.800   6.245 -0.2843 -0.8759  0.2167
 6427SOL     OW30742   2.729   0.829   4.085  0.2437 -0.0618 -0.3586
 6427SOL    HW130743   2.758   0.920   4.095 -0.3801  0.1436 -0.4011
 6427SOL    HW230744   2.673   0.819   4.162  1.6160  0.7645  0.7368
 6428SOL     OW30745   4.326   4.596  14.891 -0.0388  0.2089 -0.1677
 6428SOL    HW130746   4.396   4.628  14.948 -1.3361  1.8071  0.5225
 6428SOL    HW230747   4.320   4.671  14.831 -0.3238 -1.4232 -2.1734
 6429SOL     OW30748   4.271   0.684   1.398 -0.1623 -0.1706 -0.8685
 6429SOL    HW130749   4.278   0.588   1.395 -1.2819 -0.3372  1.8828
 6429SOL    HW230750   4.197   0.697   1.338 -1.5156  0.7198  1.0157
 6430SOL     OW30751   4.471   2.040   9.901  0.0257 -0.3319 -0.0814
 6430SOL    HW130752   4.438   2.127   9.875 -0.5380 -0.9295 -1.3945
 6430SOL    HW230753   4.453   1.988   9.823  2.8810  0.1788 -1.0915
 6431SOL     OW30754   4.710   0.787   0.018  0.0846  0.0254  0.6638
 6431SOL    HW130755   4.680   0.862   0.070 -0.1534  0.5234 -0.1851
 6431SOL    HW230756   0.079   0.797   0.010 -0.0173  1.8059  1.5563
 6432SOL     OW30757   4.416   1.952  15.015  0.4527 -0.1730  0.5434
 6432SOL    HW130758   4.405   1.860  14.990 -0.6788  0.0247  0.3010
 6432SOL    HW230759   4.453   1.988  14.934 -0.3747 -1.8108 -0.5640
 6433SOL     OW30760   4.083   0.144   9.970 -0.2134  0.2978 -0.4651
 6433SOL    HW130761   4.083   0.071   9.908  3.5328  1.1360 -1.4397
 6433SOL    HW230762   4.172   0.170   9.945 -0.0869 -0.3387 -0.6693
 6434SOL     OW30763   2.033   1.649   5.551 -0.2715  0.0357  0.2237
 6434SOL    HW130764   1.978   1.595   5.495  0.3317 -0.9566  0.5672
 6434SOL    HW230765   2.125   1.648   5.525  0.4932 -0.8809  2.9425
 6435SOL     OW30766   3.488   0.988   6.541 -0.5807  0.0171  0.0444
 6435SOL    HW130767   3.513   1.023   6.455 -0.5766 -1.0289 -0.3886
 6435SOL    HW230768   3.566   0.997   6.595 -0.2783  1.3802 -0.6253
 6436SOL     OW30769   3.051   0.329   7.307  0.0521  0.4669 -0.4820
 6436SOL    HW130770   3.004   0.410   7.288 -0.4220 -0.0314 -1.4229
 6436SOL    HW230771   3.095   0.355   7.388 -2.4393 -0.3038  1.1246
 6437SOL     OW30772   0.293   0.370  13.215 -0.1930  0.2786  0.1623
 6437SOL    HW130773   0.347   0.339  13.287 -1.0040  2.2590  1.6328
 6437SOL    HW230774   0.328   0.331  13.135  0.8332  2.0901 -0.2796
 6438SOL     OW30775   3.741   0.948   3.849  0.3560 -0.5124 -0.4597
 6438SOL    HW130776   3.809   0.992   3.799 -0.3523  0.1437 -0.8574
 6438SOL    HW230777   3.665   0.953   3.791  0.4309 -3.4416 -0.8042
 6439SOL     OW30778   0.533   2.520   0.881  0.2370 -0.1419  1.1538
 6439SOL    HW130779   0.595   2.539   0.811  1.0285 -2.0308  1.3540
 6439SOL    HW230780   0.471   2.589   0.857 -0.6468 -0.5303  2.2859
 6440SOL     OW30781   0.256   0.929   8.021 -0.3518  0.1446  0.3182
 6440SOL    HW130782   0.313   0.944   7.946  0.0660  1.1004  0.8216
 6440SOL    HW230783   0.262   0.834   8.024  0.4346  0.2163  1.0805
 6441SOL     OW30784   4.512   0.428   1.276  0.0393  0.2895 -0.7497
 6441SOL    HW130785   4.559   0.352   1.310 -0.0517  0.0361 -1.1867
 6441SOL    HW230786   4.521   0.422   1.180 -0.9145 -0.8257 -0.7715
 6442SOL     OW30787   4.431   1.819   6.734  0.0400  0.0944 -0.0129
 6442SOL    HW130788   4.370   1.811   6.808  0.4667  1.8171  0.5239
 6442SOL    HW230789   4.454   1.912   6.736  0.2604  0.0459 -0.3820
 6443SOL     OW30790   3.371   3.196   2.750 -0.4097 -0.3873  0.5815
 6443SOL    HW130791   3.306   3.136   2.714 -1.8585  1.1937  0.5563
 6443SOL    HW230792   3.330   3.278   2.721  1.7856  0.7634  0.7533
 6444SOL     OW30793   1.256   0.227  15.733  0.1217 -0.6607 -0.4268
 6444SOL    HW130794   1.276   0.305  15.786  0.8391  0.2304 -2.0041
 6444SOL    HW230795   1.198   0.265  15.667  2.0387 -0.4115 -1.9638
 6445SOL     OW30796   3.650   3.704  14.349 -0.4079  0.0887 -0.1718
 6445SOL    HW130797   3.734   3.706  14.393  0.5732 -1.5905 -1.9748
 6445SOL    HW230798   3.611   3.789  14.370 -0.3731 -0.0578  0.4709
 6446SOL     OW30799   0.443   2.334   6.173  0.4742 -0.0562 -0.3251
 6446SOL    HW130800   0.489   2.416   6.192 -0.0486  0.2119 -0.2187
 6446SOL    HW230801   0.505   2.289   6.115 -0.0398 -1.0206 -0.1322
 6447SOL     OW30802   0.910   1.186  14.866 -0.0311  0.3293 -0.5725
 6447SOL    HW130803   0.954   1.102  14.853 -1.4159 -0.2706 -1.3322
 6447SOL    HW230804   0.988   1.237  14.842 -2.1409  3.6154 -0.4007
 6448SOL     OW30805   4.021   2.808   6.170  0.2451 -0.1890 -0.3436
 6448SOL    HW130806   4.067   2.800   6.254  1.5452  1.2208 -0.9121
 6448SOL    HW230807   4.011   2.904   6.170 -2.6926 -0.4906 -0.4199
 6449SOL     OW30808   2.896   3.171   5.831  0.0848 -0.7546 -0.1077
 6449SOL    HW130809   2.831   3.189   5.899 -0.7841 -0.9267 -0.9029
 6449SOL    HW230810   2.931   3.261   5.834 -0.2374 -0.6259 -0.2411
 6450SOL     OW30811   0.940   1.600   5.209  0.2731 -0.3968 -0.5617
 6450SOL    HW130812   0.885   1.665   5.254  0.9797 -1.3439  1.6622
 6450SOL    HW230813   0.866   1.574   5.155 -1.0719  0.8950  0.6534
 6451SOL     OW30814   0.648   0.025   5.685 -0.0950 -0.0007  0.1752
 6451SOL    HW130815   0.665   4.657   5.699 -0.8147 -0.0109  0.9956
 6451SOL    HW230816   0.696   0.069   5.755  0.4939 -0.4668  0.0640
 6452SOL     OW30817   0.910   2.877   3.935  0.0938 -1.0637 -0.0321
 6452SOL    HW130818   0.886   2.803   3.990 -1.5820  0.7978  1.7464
 6452SOL    HW230819   0.852   2.868   3.859  1.6089  1.3464 -1.4756
 6453SOL     OW30820   2.536   3.942  16.760 -0.1905 -0.3419  0.1456
 6453SOL    HW130821   2.625   3.976  16.764 -0.2568  0.2764 -3.9703
 6453SOL    HW230822   2.544   3.862  16.813 -3.7067 -0.0074  1.2195
 6454SOL     OW30823   2.109   2.973  17.655 -0.0410 -0.1370  0.5652
 6454SOL    HW130824   2.129   2.962   0.045  0.4425  0.2739  0.5145
 6454SOL    HW230825   2.142   3.062  17.642  0.7328 -0.9389 -2.9228
 6455SOL     OW30826   3.562   1.937  16.158 -0.4270 -0.6524 -0.3131
 6455SOL    HW130827   3.586   2.024  16.127 -2.5052  0.0723  0.0652
 6455SOL    HW230828   3.580   1.935  16.252 -0.4195 -2.2793 -0.3547
 6456SOL     OW30829   2.850   1.351  15.162 -0.3168 -0.5957 -0.0507
 6456SOL    HW130830   2.758   1.376  15.159  0.2531  1.5627  0.0485
 6456SOL    HW230831   2.849   1.323  15.254  0.2777  2.0636  0.7839
 6457SOL     OW30832   3.887   2.946   7.295 -0.2352 -0.3209 -0.8569
 6457SOL    HW130833   3.821   2.877   7.285 -2.3393  1.1790  2.7258
 6457SOL    HW230834   3.963   2.902   7.258 -0.0157  1.1908 -2.2200
 6458SOL     OW30835   0.249   1.100   0.825 -0.1385  0.2590  0.1904
 6458SOL    HW130836   0.224   1.143   0.907  1.6779 -0.0290  0.9023
 6458SOL    HW230837   0.280   1.018   0.863  2.5390  2.1157  2.0251
 6459SOL     OW30838   2.187   1.429   0.141 -0.9821  0.1063 -0.3000
 6459SOL    HW130839   2.225   1.344   0.160  0.3404  0.5370 -0.9994
 6459SOL    HW230840   2.127   1.408   0.069  0.5056  0.5755 -1.6792
 6460SOL     OW30841   0.338   4.413   5.196  0.1843  0.2172 -1.2105
 6460SOL    HW130842   0.355   4.329   5.152  1.4696 -0.5507  0.7142
 6460SOL    HW230843   0.413   4.420   5.256 -0.0363  3.5161 -1.3107
 6461SOL     OW30844   3.661   1.429  17.363 -0.4971 -0.2870  0.5866
 6461SOL    HW130845   3.739   1.387  17.400 -0.5696 -0.5631  0.4212
 6461SOL    HW230846   3.693   1.454  17.276 -1.0019 -1.2838  0.1216
 6462SOL     OW30847   1.103   2.159   3.846  0.2681 -0.0471  0.3842
 6462SOL    HW130848   1.052   2.083   3.876 -0.0162 -0.3503 -0.8823
 6462SOL    HW230849   1.056   2.187   3.768 -0.4622 -1.8606  0.1538
 6463SOL     OW30850   0.010   0.338   9.210 -0.2184  0.1175  0.7121
 6463SOL    HW130851   0.050   0.420   9.182  1.1650 -1.2482 -1.3865
 6463SOL    HW230852   4.656   0.364   9.257  0.3386 -0.3279  1.8778
 6464SOL     OW30853   1.940   0.910   2.091  0.2857  0.0244 -0.0274
 6464SOL    HW130854   1.907   0.939   2.006 -0.8233 -2.6070 -0.4944
 6464SOL    HW230855   1.935   0.982   2.154 -2.3801  0.5630 -0.8578
 6465SOL     OW30856   1.601   2.963   2.240  0.0480 -0.4523 -0.0996
 6465SOL    HW130857   1.533   3.018   2.278  1.8960  1.1430  0.9081
 6465SOL    HW230858   1.561   2.945   2.155  3.0580 -1.2215 -1.3308
 6466SOL     OW30859   2.666   0.594   6.277 -0.2388 -0.6263 -0.0733
 6466SOL    HW130860   2.632   0.644   6.202  0.8502  0.3798  0.1112
 6466SOL    HW230861   2.595   0.599   6.342 -1.0207  0.7135 -1.0216
 6467SOL     OW30862   0.573   3.915   5.007 -0.2193  0.4725 -0.5114
 6467SOL    HW130863   0.592   4.004   5.036 -2.2775  0.2473  1.4336
 6467SOL    HW230864   0.578   3.870   5.091 -0.5808 -1.5740 -1.5888
 6468SOL     OW30865   3.026   4.336   3.942  0.3557 -0.6639 -0.2294
 6468SOL    HW130866   3.031   4.391   4.020 -0.3989  0.7327 -1.1614
 6468SOL    HW230867   2.957   4.384   3.895  1.0594  1.1701  0.6084
 6469SOL     OW30868   3.495   2.707  12.484  0.1047 -0.5087 -0.2390
 6469SOL    HW130869   3.434   2.706  12.559 -1.3568 -1.4877 -1.4260
 6469SOL    HW230870   3.581   2.710  12.526  0.2819  0.7821 -0.7018
 6470SOL     OW30871   1.749   4.333   2.224  0.5571  0.3288 -0.3932
 6470SOL    HW130872   1.755   4.427   2.208 -0.3572  1.1698  4.1955
 6470SOL    HW230873   1.824   4.305   2.172  0.8370 -0.0563  0.2253
 6471SOL     OW30874   4.580   3.640  13.826 -0.4667 -0.9730 -0.2085
 6471SOL    HW130875   4.675   3.632  13.839 -0.4637 -0.0596  0.3359
 6471SOL    HW230876   4.543   3.634  13.914 -0.4334  0.5760 -0.0993
 6472SOL     OW30877   1.486   3.885   2.176 -0.2857  0.6817 -0.8883
 6472SOL    HW130878   1.552   3.817   2.164 -0.0527  0.9161 -0.9428
 6472SOL    HW230879   1.499   3.931   2.093  0.4100 -0.8026 -1.6031
 6473SOL     OW30880   0.254   0.390  14.635  0.1270 -0.1985 -0.7321
 6473SOL    HW130881   0.235   0.483  14.646  0.5614 -0.0511 -1.2081
 6473SOL    HW230882   0.327   0.388  14.573  1.7172 -2.4817  1.2204
 6474SOL     OW30883   0.124   3.708  12.210  0.2592 -0.1351  0.1024
 6474SOL    HW130884   0.103   3.649  12.282 -0.7062  1.9559  1.5175
 6474SOL    HW230885   0.219   3.712  12.218  0.0283  1.4257  1.9940
 6475SOL     OW30886   2.884   3.484   8.376 -0.5866  0.1062  0.2211
 6475SOL    HW130887   2.800   3.530   8.371 -0.3312  0.5628  0.2111
 6475SOL    HW230888   2.860   3.394   8.351  1.2974 -0.3536  0.0620
 6476SOL     OW30889   1.119   2.135   8.867 -0.7046 -0.0040  0.3235
 6476SOL    HW130890   1.211   2.109   8.869 -1.1001 -1.2716  1.9148
 6476SOL    HW230891   1.123   2.226   8.838  0.3693 -0.5490 -1.2058
 6477SOL     OW30892   2.454   0.745   2.597  0.0715  0.3916  0.0525
 6477SOL    HW130893   2.395   0.794   2.653 -1.2827  2.3084 -3.0795
 6477SOL    HW230894   2.535   0.797   2.597  1.3765 -1.6187 -1.3140
 6478SOL     OW30895   2.424   3.610   9.149 -0.2444  0.9883  0.6384
 6478SOL    HW130896   2.339   3.631   9.188 -0.2978  0.3528  0.8675
 6478SOL    HW230897   2.430   3.518   9.173  0.4951  1.0287  0.6043
 6479SOL     OW30898   0.728   3.415   0.019 -0.3941  0.1466  0.5985
 6479SOL    HW130899   0.646   3.405  17.673  0.6945 -0.6628 -1.0869
 6479SOL    HW230900   0.692   3.475   0.084 -0.8356  0.3009  0.2111
 6480SOL     OW30901   3.263   1.414   6.159  0.3251  0.2440 -0.1092
 6480SOL    HW130902   3.318   1.363   6.100 -0.2740 -0.2643 -0.2276
 6480SOL    HW230903   3.253   1.493   6.106 -1.6401 -2.1755 -3.3192
 6481SOL     OW30904   3.697   0.796  13.081 -0.4098 -0.0986  0.1296
 6481SOL    HW130905   3.655   0.741  13.015 -2.7447  1.8415  0.0173
 6481SOL    HW230906   3.666   0.877  13.043 -0.7585 -0.9620 -1.4179
 6482SOL     OW30907   2.187   0.232   2.943 -0.2408 -0.0639  0.4753
 6482SOL    HW130908   2.204   0.218   3.037 -0.9821  1.2816  0.8084
 6482SOL    HW230909   2.170   0.143   2.913 -1.9395  0.4462 -0.1223
 6483SOL     OW30910   1.637   3.678   4.041  0.6294 -0.2857  0.0992
 6483SOL    HW130911   1.622   3.646   3.952  0.1575 -1.9504  0.7754
 6483SOL    HW230912   1.585   3.758   4.038  0.1607 -0.6418 -1.3817
 6484SOL     OW30913   0.829   2.865  10.303 -0.3058  0.5693 -0.0929
 6484SOL    HW130914   0.834   2.926  10.376  0.0249 -0.1005  0.4350
 6484SOL    HW230915   0.739   2.891  10.283 -0.8275 -0.5825  0.7584
 6485SOL     OW30916   2.499   2.549   3.148 -0.0828  0.0717 -0.0244
 6485SOL    HW130917   2.579   2.516   3.108 -0.4226 -1.1678  0.3214
 6485SOL    HW230918   2.429   2.487   3.127 -1.9254  2.6253 -1.4611
 6486SOL     OW30919   2.547   0.907  17.693  0.2199 -0.0687  0.0462
 6486SOL    HW130920   2.638   0.905   0.018 -0.1823  1.1408  1.4505
 6486SOL    HW230921   2.562   0.940  17.604 -1.5324 -0.5702 -0.4402
 6487SOL     OW30922   3.562   1.051   2.663  0.6353 -0.3105 -0.3497
 6487SOL    HW130923   3.477   1.013   2.643  1.3638 -1.3526 -1.5413
 6487SOL    HW230924   3.613   0.997   2.602 -0.3180 -0.2813 -1.1727
 6488SOL     OW30925   3.031   0.205   5.046 -0.4329  0.1325  0.3767
 6488SOL    HW130926   3.026   0.212   5.141  0.4134  2.3071  0.2671
 6488SOL    HW230927   3.077   0.284   5.017 -2.0863  1.5866  1.7329
 6489SOL     OW30928   3.245   0.468  12.951 -0.0800 -0.3044  0.4435
 6489SOL    HW130929   3.280   0.518  13.024 -0.6121 -1.7592  1.6838
 6489SOL    HW230930   3.160   0.510  12.957 -0.0610 -0.6552  2.9483
 6490SOL     OW30931   3.280   2.904  14.865 -0.3935  0.7469  0.0336
 6490SOL    HW130932   3.226   2.975  14.829 -1.9448  0.4889  1.8509
 6490SOL    HW230933   3.353   2.904  14.803 -1.2130  0.5696 -0.9470
 6491SOL     OW30934   2.391   3.949   7.731  0.3205 -0.5138  0.0633
 6491SOL    HW130935   2.337   3.921   7.805 -0.0662  1.0896  0.3860
 6491SOL    HW230936   2.456   3.879   7.733  0.8487  0.0162  1.1861
 6492SOL     OW30937   2.374   3.320   5.908 -0.5627  0.3066 -0.0229
 6492SOL    HW130938   2.325   3.240   5.893 -0.1976  0.5128 -2.2410
 6492SOL    HW230939   2.430   3.308   5.831 -1.4002 -0.3394 -0.5177
 6493SOL     OW30940   4.619   4.393   5.411  0.5233 -0.7268 -0.0122
 6493SOL    HW130941   4.684   4.395   5.340 -0.5662 -0.1333 -1.0017
 6493SOL    HW230942   4.636   4.479   5.448  3.2940 -0.6122 -1.5544
 6494SOL     OW30943   2.573   1.925   2.463  0.3798  0.4514 -0.0819
 6494SOL    HW130944   2.621   1.926   2.381  1.2691  2.4404  0.4693
 6494SOL    HW230945   2.626   1.867   2.518 -1.6381 -1.6983 -0.3665
 6495SOL     OW30946   2.841   4.703   4.316 -0.0067  0.1491  0.5577
 6495SOL    HW130947   2.893   4.687   4.395  0.8670  2.0890  0.3836
 6495SOL    HW230948   2.833   0.073   4.321 -1.0983 -0.0634  2.5420
 6496SOL     OW30949   0.199   4.460   4.011 -0.0434  0.1639 -0.1175
 6496SOL    HW130950   0.210   4.551   3.985 -1.4308  0.1541 -0.7557
 6496SOL    HW230951   0.112   4.460   4.051 -0.6522 -1.3570 -1.4441
 6497SOL     OW30952   0.348   0.065   1.306 -0.4528  0.2247  0.2270
 6497SOL    HW130953   0.433   0.069   1.262  0.0991 -2.1588  1.0375
 6497SOL    HW230954   0.354   0.149   1.352  2.9561  1.3021 -2.1686
 6498SOL     OW30955   3.490   1.400   8.867 -0.0784  0.3171  0.7157
 6498SOL    HW130956   3.419   1.450   8.909  1.9697  2.2098  1.9755
 6498SOL    HW230957   3.541   1.390   8.948  1.5803 -1.5197 -0.5811
 6499SOL     OW30958   3.737   2.770   2.768  0.3143  0.2457  0.2262
 6499SOL    HW130959   3.727   2.790   2.861 -0.9921  1.7275 -0.2204
 6499SOL    HW230960   3.667   2.705   2.760  0.4005  0.1871 -0.0585
 6500SOL     OW30961   3.746   4.322  16.727 -0.2687 -0.2779 -0.1603
 6500SOL    HW130962   3.662   4.354  16.694  0.1195  0.8551 -0.0444
 6500SOL    HW230963   3.791   4.331  16.643 -1.8615  2.6700 -0.7005
 6501SOL     OW30964   1.964   2.257   2.650  0.2895 -0.5331 -0.1264
 6501SOL    HW130965   2.036   2.215   2.603  1.3520  1.7831 -0.5618
 6501SOL    HW230966   2.006   2.332   2.691 -0.1823  0.0609 -0.7323
 6502SOL     OW30967   2.224   0.388   3.454  0.9260  0.1864 -0.4322
 6502SOL    HW130968   2.195   0.370   3.544 -0.6733  1.6429 -0.6539
 6502SOL    HW230969   2.292   0.454   3.462  1.1889 -0.5153  3.2005
 6503SOL     OW30970   2.228   2.569   6.897  0.5585  0.0761 -0.2081
 6503SOL    HW130971   2.207   2.662   6.899 -0.0666  0.0000 -3.0290
 6503SOL    HW230972   2.310   2.558   6.849 -0.0255  0.7848 -1.3717
 6504SOL     OW30973   0.814   1.463   3.360 -0.3901  0.9462 -0.5232
 6504SOL    HW130974   0.749   1.425   3.419  1.0108  0.2690  0.5924
 6504SOL    HW230975   0.884   1.489   3.419 -0.5679 -0.6244  0.3807
 6505SOL     OW30976   2.091   0.596   6.528  0.1052 -0.0440  0.1054
 6505SOL    HW130977   2.160   0.585   6.463 -0.1266  0.7606 -0.2725
 6505SOL    HW230978   2.129   0.565   6.611 -0.2140 -0.1974  0.1957
 6506SOL     OW30979   3.495   3.023  13.458  0.2271  0.2546 -0.1607
 6506SOL    HW130980   3.540   3.074  13.391  1.5280 -1.1161 -0.3471
 6506SOL    HW230981   3.419   3.076  13.480 -0.3893  0.2917 -2.2967
 6507SOL     OW30982   2.536   0.183   7.596  0.2459  0.1436  0.8078
 6507SOL    HW130983   2.489   0.184   7.512  1.9575  1.7686 -0.1188
 6507SOL    HW230984   2.495   0.250   7.650  1.2702  0.2502  1.4518
 6508SOL     OW30985   3.255   1.606  14.777 -0.5255 -0.1665 -1.2063
 6508SOL    HW130986   3.194   1.597  14.850  0.9503  2.1649  0.2937
 6508SOL    HW230987   3.339   1.593  14.821  0.0592 -0.1524 -2.3327
 6509SOL     OW30988   4.193   1.292  14.004  0.4719 -0.6467 -0.3251
 6509SOL    HW130989   4.231   1.366  13.957  2.6132 -1.9561 -0.6238
 6509SOL    HW230990   4.255   1.288  14.076 -0.7031 -1.8760  0.6273
 6510SOL     OW30991   1.442   0.611   8.262 -0.0252  0.1692  0.2181
 6510SOL    HW130992   1.530   0.639   8.288  0.2986 -0.3170 -0.3428
 6510SOL    HW230993   1.449   0.516   8.252 -2.4146  0.3019 -2.8229
 6511SOL     OW30994   1.459   4.674   5.687 -0.6831  0.0772 -0.4218
 6511SOL    HW130995   1.453   4.615   5.762  0.0380 -0.9725 -1.1646
 6511SOL    HW230996   1.489   0.031   5.725 -0.8626 -0.2291  0.3777
 6512SOL     OW30997   1.741   2.771  15.180 -0.0443  0.9915 -0.6882
 6512SOL    HW130998   1.822   2.766  15.230 -0.3362  0.4725 -0.2760
 6512SOL    HW230999   1.703   2.685  15.197  1.0509  0.2315 -1.9757
 6513SOL     OW31000   1.281   4.313   9.750  0.9902 -0.1773 -0.3837
 6513SOL    HW131001   1.286   4.340   9.658  3.4026  0.9861  0.0988
 6513SOL    HW231002   1.259   4.220   9.737 -1.8324 -0.1615  4.1817
 6514SOL     OW31003   2.021   4.462   5.290 -0.6681  0.7663  0.2883
 6514SOL    HW131004   2.064   4.455   5.205 -0.8354 -0.1572  0.2837
 6514SOL    HW231005   1.963   4.386   5.283 -0.1937  0.3722  0.6859
 6515SOL     OW31006   2.017   0.273  12.875 -0.1566  0.2402  0.1434
 6515SOL    HW131007   2.058   0.215  12.811  1.7065  0.2455  1.3457
 6515SOL    HW231008   2.018   0.216  12.952  0.0087  0.5009  0.3320
 6516SOL     OW31009   0.924   3.178   7.116  0.2589 -0.7305 -0.2625
 6516SOL    HW131010   0.829   3.191   7.114  0.3528  0.1746  1.5288
 6516SOL    HW231011   0.959   3.234   7.185 -0.8567  1.7910 -1.7852
 6517SOL     OW31012   0.153   4.578   6.924 -0.7498  0.3057 -0.5230
 6517SOL    HW131013   0.170   4.648   6.862  1.2429 -0.5445 -0.9453
 6517SOL    HW231014   0.066   4.608   6.950 -0.3202 -0.1149  1.3972
 6518SOL     OW31015   0.058   1.692   4.284 -0.1005  0.0899  0.0602
 6518SOL    HW131016   0.062   1.776   4.239 -1.5821  0.3692  0.4590
 6518SOL    HW231017   0.150   1.680   4.308 -0.2950  1.3012  1.4229
 6519SOL     OW31018   2.477   1.485  14.299 -0.0183  0.5094  0.2540
 6519SOL    HW131019   2.402   1.466  14.243  1.5232  0.1965 -1.6925
 6519SOL    HW231020   2.558   1.450  14.262  0.2871  1.6251 -0.1606
 6520SOL     OW31021   0.515   0.803  12.814 -0.5289 -0.3163  0.7055
 6520SOL    HW131022   0.531   0.821  12.906 -1.0730 -1.6183  1.0532
 6520SOL    HW231023   0.472   0.719  12.832 -0.2603  0.0877  3.1597
 6521SOL     OW31024   2.431   0.710   8.325 -0.5537  0.0637  0.2198
 6521SOL    HW131025   2.402   0.621   8.341  1.1734 -0.2688  1.4426
 6521SOL    HW231026   2.373   0.751   8.389 -1.6869 -0.4138 -0.4973
 6522SOL     OW31027   3.026   0.560   5.833 -0.4299  0.0352 -0.3699
 6522SOL    HW131028   2.992   0.612   5.760 -0.0780  0.5156 -0.1833
 6522SOL    HW231029   2.944   0.548   5.882  0.7952  0.5869  1.7915
 6523SOL     OW31030   1.780   0.689   8.042  0.2316  0.1697  0.5500
 6523SOL    HW131031   1.852   0.627   8.048  1.1290  0.8757 -3.3064
 6523SOL    HW231032   1.784   0.711   7.949 -0.5258  1.3581  0.7959
 6524SOL     OW31033   2.694   0.541  11.281  0.2779  0.5121 -0.3603
 6524SOL    HW131034   2.751   0.598  11.230  0.8831  0.3819  0.1699
 6524SOL    HW231035   2.765   0.502  11.333  0.5398  0.0856 -1.0326
 6525SOL     OW31036   2.550   1.665   5.406 -0.1620  0.2530  0.0019
 6525SOL    HW131037   2.549   1.576   5.440 -2.5470 -0.7968 -2.7873
 6525SOL    HW231038   2.640   1.691   5.424 -0.2135  0.4263  0.0106
 6526SOL     OW31039   1.473   3.317   4.554 -0.1875  0.0490  0.0125
 6526SOL    HW131040   1.449   3.339   4.464  0.8179  0.6083 -0.1084
 6526SOL    HW231041   1.444   3.389   4.611 -0.1302  0.1635 -0.1027
 6527SOL     OW31042   2.462   2.060   6.663 -0.2557 -0.0810  0.6927
 6527SOL    HW131043   2.387   2.028   6.612 -2.1355  0.3496  3.1950
 6527SOL    HW231044   2.504   1.977   6.683 -0.8177 -0.2386  1.2039
 6528SOL     OW31045   1.264   0.727  14.078  0.1112  0.4456  0.1261
 6528SOL    HW131046   1.355   0.737  14.107 -0.3774  2.5370  0.9423
 6528SOL    HW231047   1.272   0.697  13.988  0.3719  0.5243  0.1211
 6529SOL     OW31048   2.551   3.970   8.528 -0.2373  0.2036  0.2593
 6529SOL    HW131049   2.496   4.041   8.560 -0.0212  0.1835  0.6838
 6529SOL    HW231050   2.634   3.996   8.568  0.2622 -1.3883  0.2845
 6530SOL     OW31051   0.697   4.502   5.784 -0.0131 -0.1935  0.1173
 6530SOL    HW131052   0.775   4.477   5.832 -1.4951  0.2135  2.7279
 6530SOL    HW231053   0.656   4.420   5.759  2.1703 -0.5882 -2.1851
 6531SOL     OW31054   1.109   3.678  10.388 -0.2616 -0.5589 -0.8051
 6531SOL    HW131055   1.112   3.651  10.479  0.9830  0.0946 -0.6497
 6531SOL    HW231056   1.033   3.737  10.392 -0.5292 -0.9503 -0.0475
 6532SOL     OW31057   1.811   2.247   6.658  0.2611 -0.3742  0.0836
 6532SOL    HW131058   1.800   2.308   6.731 -2.3571 -0.7374 -0.0016
 6532SOL    HW231059   1.862   2.184   6.709  0.1091 -0.5133  0.0665
 6533SOL     OW31060   3.362   1.346   5.369  0.1465  0.2878 -0.1080
 6533SOL    HW131061   3.432   1.306   5.316 -1.7039 -2.7757 -0.2214
 6533SOL    HW231062   3.353   1.275   5.433 -1.8997 -0.0737 -0.7925
 6534SOL     OW31063   3.596   1.280   8.595  0.0745  0.8441 -0.3601
 6534SOL    HW131064   3.565   1.320   8.676 -0.4932 -2.8553  1.2013
 6534SOL    HW231065   3.691   1.289   8.599  0.3263 -0.5276 -3.3865
 6535SOL     OW31066   3.519   1.843  14.946 -0.7511 -0.2007 -0.2548
 6535SOL    HW131067   3.472   1.837  15.029 -2.3086  3.6089 -0.8847
 6535SOL    HW231068   3.505   1.750  14.926 -1.0713 -0.2682  0.2971
 6536SOL     OW31069   0.607   1.341   6.051 -0.0112  0.0507  0.0237
 6536SOL    HW131070   0.674   1.343   6.120 -0.4776 -0.3512  0.4900
 6536SOL    HW231071   0.663   1.372   5.979  0.7806  0.6898  0.9130
 6537SOL     OW31072   0.255   0.669   8.046 -0.6207  0.4462  0.9279
 6537SOL    HW131073   0.200   0.650   8.123 -1.5149  0.3514  0.2575
 6537SOL    HW231074   0.338   0.629   8.076 -1.0566 -1.7542 -0.7915
 6538SOL     OW31075   0.604   2.710   7.454  0.0967  0.1405 -0.0067
 6538SOL    HW131076   0.538   2.678   7.515 -0.3690 -1.8676 -1.5500
 6538SOL    HW231077   0.636   2.632   7.409 -1.9003 -0.9386  0.4652
 6539SOL     OW31078   2.093   1.246   6.938  0.2589 -0.3094  0.3716
 6539SOL    HW131079   2.141   1.172   6.900  0.5030  0.9721 -1.8220
 6539SOL    HW231080   2.169   1.302   6.956 -2.0230  1.9759  2.9558
 6540SOL     OW31081   2.649   2.858   7.808  0.4724 -0.5487  0.6227
 6540SOL    HW131082   2.659   2.782   7.866 -0.2234 -1.3416 -0.3053
 6540SOL    HW231083   2.704   2.926   7.846 -1.5042  0.5592  1.5122
 6541SOL     OW31084   3.798   1.875   2.282  0.0353 -0.3379 -0.1711
 6541SOL    HW131085   3.835   1.960   2.303  1.5781 -1.2228  0.7359
 6541SOL    HW231086   3.713   1.878   2.326  0.6873 -0.3947  1.0860
 6542SOL     OW31087   2.278   2.470   5.866 -0.0893  0.5672 -0.4584
 6542SOL    HW131088   2.220   2.453   5.791 -0.5298  0.3632 -0.0701
 6542SOL    HW231089   2.254   2.397   5.923  0.1857  0.4313 -0.5121
 6543SOL     OW31090   4.070   0.339   5.425  0.3644 -0.1710 -0.0541
 6543SOL    HW131091   4.138   0.330   5.492  2.0453 -0.0309 -1.7355
 6543SOL    HW231092   4.119   0.365   5.347 -2.9305 -0.9595 -2.3926
 6544SOL     OW31093   3.631   3.574   7.997 -0.2183  0.0892 -0.0690
 6544SOL    HW131094   3.611   3.481   7.998  0.3788 -0.0309  0.8827
 6544SOL    HW231095   3.664   3.583   8.086 -0.8588  2.1916 -0.0482
 6545SOL     OW31096   2.890   4.532   5.608  0.3465  0.2635  0.0703
 6545SOL    HW131097   2.802   4.543   5.645 -0.4509 -0.7937 -1.5289
 6545SOL    HW231098   2.910   4.440   5.625 -1.7466 -0.1312  0.3722
 6546SOL     OW31099   1.815   4.693  10.942  0.1450 -0.0469 -0.3424
 6546SOL    HW131100   1.725   4.685  10.974  0.4903 -0.8413  0.4404
 6546SOL    HW231101   1.871   4.682  11.019 -0.9535 -1.7884  0.1914
 6547SOL     OW31102   2.649   1.337   4.856 -0.0365 -0.2580 -0.0143
 6547SOL    HW131103   2.610   1.415   4.815 -3.1444 -1.6608  0.2912
 6547SOL    HW231104   2.574   1.285   4.885 -1.5573  0.9445 -1.7482
 6548SOL     OW31105   4.135   4.024   5.645 -0.0496  0.2964  0.1204
 6548SOL    HW131106   4.146   4.118   5.629 -0.8460  0.0905 -1.7062
 6548SOL    HW231107   4.042   4.021   5.665  0.2143  2.9251  1.7739
 6549SOL     OW31108   0.075   1.381   3.712  0.0254 -0.1366 -0.3812
 6549SOL    HW131109   0.043   1.360   3.624 -0.1532  1.4449 -0.6820
 6549SOL    HW231110   0.023   1.459   3.729  0.3547 -0.3586  1.6915
 6550SOL     OW31111   1.600   0.970   2.122  0.1035 -0.0224  0.2178
 6550SOL    HW131112   1.686   1.012   2.116  0.6129 -0.6853  2.9156
 6550SOL    HW231113   1.587   0.971   2.216 -1.8565  0.0324 -0.0632
 6551SOL     OW31114   1.984   1.109   0.502 -0.3285 -0.0847 -0.2248
 6551SOL    HW131115   1.977   1.101   0.597 -1.0327 -1.8953 -0.4141
 6551SOL    HW231116   1.965   1.202   0.494 -0.8789 -0.3230 -1.8626
 6552SOL     OW31117   1.288   3.659   5.857 -0.5837 -0.2826 -0.1580
 6552SOL    HW131118   1.297   3.655   5.762 -0.7402 -0.7476 -0.1520
 6552SOL    HW231119   1.376   3.668   5.893 -1.4418  1.5437  1.5016
 6553SOL     OW31120   0.875   1.122   2.774  0.0967 -0.0461 -0.0683
 6553SOL    HW131121   0.811   1.052   2.761 -0.5721  0.5998 -0.2435
 6553SOL    HW231122   0.840   1.192   2.720  0.7363 -1.3401 -2.1374
 6554SOL     OW31123   3.821   4.665   3.233 -1.2188  0.3923 -0.0854
 6554SOL    HW131124   3.835   4.684   3.140  2.1411 -2.9480 -0.2826
 6554SOL    HW231125   3.912   4.674   3.259 -0.4524 -3.7406 -1.2152
 6555SOL     OW31126   1.199   2.451   5.575 -0.5664 -0.5235  0.3117
 6555SOL    HW131127   1.188   2.421   5.665  1.0400 -1.4026  0.2084
 6555SOL    HW231128   1.259   2.387   5.535  0.9284  0.5215  0.8933
 6556SOL     OW31129   1.450   4.407  10.532  0.1187  0.4043 -0.1725
 6556SOL    HW131130   1.459   4.463  10.608 -0.3383  0.9825 -0.5360
 6556SOL    HW231131   1.355   4.411  10.518  0.1191  1.1868  0.0718
 6557SOL     OW31132   1.430   0.690   6.528  0.6427 -0.0206  0.1364
 6557SOL    HW131133   1.410   0.783   6.516  1.1511 -0.1688 -1.8140
 6557SOL    HW231134   1.341   0.655   6.535  0.9263 -0.5611  1.0320
 6558SOL     OW31135   2.973   1.456  12.216  0.0576 -0.1736  0.5813
 6558SOL    HW131136   2.950   1.443  12.124 -0.3790 -0.4523  0.7326
 6558SOL    HW231137   2.909   1.399  12.258 -1.0296  0.0874 -0.7332
 6559SOL     OW31138   3.718   2.980   7.694  0.1455 -0.0761  0.7505
 6559SOL    HW131139   3.702   2.956   7.785 -0.1604  2.2035  1.2867
 6559SOL    HW231140   3.813   2.992   7.700 -0.1895  3.0394 -0.3623
 6560SOL     OW31141   0.020   3.768   8.361 -0.5676  0.2445  0.0001
 6560SOL    HW131142   0.111   3.762   8.389  0.4879  2.1123 -3.0645
 6560SOL    HW231143   4.713   3.850   8.399 -1.1102  0.4476 -0.9104
 6561SOL     OW31144   0.060   0.276   4.103 -0.5930 -0.3374  1.1489
 6561SOL    HW131145   0.153   0.258   4.117 -0.4149  0.5032  1.0534
 6561SOL    HW231146   0.071   0.371   4.101 -1.6182 -0.2132  1.5375
 6562SOL     OW31147   3.686   2.756   7.323  0.3051 -0.2209 -0.3416
 6562SOL    HW131148   3.688   2.713   7.237 -2.7341  0.7592 -0.8882
 6562SOL    HW231149   3.595   2.784   7.321  0.0442 -1.0256  0.0035
 6563SOL     OW31150   4.527   2.437  16.661  0.0153 -0.4345  0.4062
 6563SOL    HW131151   4.469   2.391  16.722 -2.1428  1.2656 -0.3876
 6563SOL    HW231152   4.597   2.375  16.641  0.8591 -0.0634  2.2596
 6564SOL     OW31153   3.778   3.238   1.457  0.2872  0.6701  0.3855
 6564SOL    HW131154   3.748   3.327   1.437 -0.7540 -0.0635 -1.3091
 6564SOL    HW231155   3.704   3.185   1.428  0.6716 -0.5502  1.6322
 6565SOL     OW31156   4.568   0.489   7.208  0.4328  0.1617 -0.1317
 6565SOL    HW131157   4.484   0.501   7.165  0.5598  0.1607 -0.3822
 6565SOL    HW231158   4.541   0.489   7.300 -1.1224  4.0448 -0.5903
 6566SOL     OW31159   0.301   3.677  13.215 -0.5648  0.0868 -0.3515
 6566SOL    HW131160   0.290   3.770  13.196 -1.1547  0.3565  1.3723
 6566SOL    HW231161   0.391   3.666  13.185 -0.8069  1.1854 -1.5086
 6567SOL     OW31162   3.911   3.656   7.272 -0.1219  0.1549  0.1683
 6567SOL    HW131163   3.841   3.666   7.336 -0.8093 -0.3819 -0.4930
 6567SOL    HW231164   3.980   3.715   7.302 -0.8416  1.4538 -0.7314
 6568SOL     OW31165   0.988   2.665  10.802  0.4373  0.2178  0.2138
 6568SOL    HW131166   0.938   2.746  10.809  0.2484  0.2151 -1.0449
 6568SOL    HW231167   1.050   2.672  10.875 -1.2326 -0.6369  1.7215
 6569SOL     OW31168   1.217   0.468   7.261  0.0310 -0.1744 -0.2244
 6569SOL    HW131169   1.204   0.443   7.170  0.9878 -0.5141 -0.2718
 6569SOL    HW231170   1.137   0.518   7.278 -0.2701 -0.8668  0.3857
 6570SOL     OW31171   0.211   4.723   8.631  0.1057 -0.6229 -0.5873
 6570SOL    HW131172   0.201   0.000   8.726 -1.6740 -0.5195 -0.7811
 6570SOL    HW231173   0.304   0.009   8.614  0.3304 -0.7694  0.5335
 6571SOL     OW31174   2.473   4.687   6.864  0.5308  0.4353  0.5076
 6571SOL    HW131175   2.557   4.714   6.828  0.0917 -0.4464 -1.1803
 6571SOL    HW231176   2.450   4.608   6.815 -2.2512  1.3397  0.3325
 6572SOL     OW31177   0.477   4.075  14.755  0.1215 -0.8030 -0.3622
 6572SOL    HW131178   0.410   4.090  14.822  0.7468  0.8866 -0.1142
 6572SOL    HW231179   0.560   4.103  14.794 -0.3389  0.1219 -0.0463
 6573SOL     OW31180   1.969   1.753  16.032 -0.1195  0.2664  0.6312
 6573SOL    HW131181   1.916   1.825  16.067  1.4087  1.1241  1.1964
 6573SOL    HW231182   1.912   1.691  15.986 -0.4099  1.4188 -0.5797
 6574SOL     OW31183   1.745   0.702  12.636 -0.3214  0.4568  0.1286
 6574SOL    HW131184   1.657   0.737  12.631 -0.2362  0.6004 -0.4483
 6574SOL    HW231185   1.744   0.637  12.565 -0.2570 -0.7158  1.2005
 6575SOL     OW31186   2.220   3.698   1.954  0.1145 -0.4436  0.2791
 6575SOL    HW131187   2.287   3.754   1.917 -0.7070  0.5462  0.2969
 6575SOL    HW231188   2.185   3.653   1.877  0.8599  2.9957 -2.0543
 6576SOL     OW31189   0.684   0.905   2.789  0.0958 -0.3598 -0.2291
 6576SOL    HW131190   0.619   0.899   2.719  0.7521 -1.1605 -0.7813
 6576SOL    HW231191   0.722   0.817   2.784 -0.2032 -0.4945 -0.1685
 6577SOL     OW31192   4.187   1.934   6.259  0.0863  0.0509 -0.0584
 6577SOL    HW131193   4.232   1.973   6.184 -0.4103  1.3594  0.3360
 6577SOL    HW231194   4.266   1.899   6.302  0.4620  0.5147 -0.3754
 6578SOL     OW31195   4.426   2.144   6.442  0.6351 -0.5528  0.0570
 6578SOL    HW131196   4.472   2.067   6.476 -0.0599 -0.8506  0.3224
 6578SOL    HW231197   4.487   2.211   6.472  0.3852 -0.3764  0.1692
 6579SOL     OW31198   3.400   3.823  14.490 -0.2482  0.3727 -0.3374
 6579SOL    HW131199   3.352   3.742  14.474 -0.1995  0.1930  0.4196
 6579SOL    HW231200   3.337   3.885  14.454 -0.3277  0.3522 -0.2328
 6580SOL     OW31201   3.315   0.416   9.946 -0.2115 -0.2281  0.3026
 6580SOL    HW131202   3.375   0.394   9.874  1.0992  1.7138  0.8020
 6580SOL    HW231203   3.384   0.434  10.010 -1.4014 -0.3956  1.6191
 6581SOL     OW31204   0.463   1.991  10.823  0.3559  0.3272 -0.1017
 6581SOL    HW131205   0.376   2.024  10.800  0.5422 -0.2430 -1.5960
 6581SOL    HW231206   0.463   2.014  10.916  2.9813 -0.0869  0.0107
 6582SOL     OW31207   1.482   3.258   8.655  0.1735  0.7242 -0.1915
 6582SOL    HW131208   1.535   3.258   8.576  0.0275 -2.4197 -0.2829
 6582SOL    HW231209   1.517   3.181   8.700 -0.1983  1.1258  0.7970
 6583SOL     OW31210   2.769   1.364   7.709 -0.0821 -0.0738 -0.5880
 6583SOL    HW131211   2.837   1.375   7.775 -0.9791 -1.4817  0.5633
 6583SOL    HW231212   2.810   1.415   7.639  0.0538  0.6032 -0.0087
 6584SOL     OW31213   4.389   0.329   2.321 -0.0499 -0.1723  0.0149
 6584SOL    HW131214   4.372   0.323   2.227  3.4855 -1.9418 -0.5024
 6584SOL    HW231215   4.401   0.424   2.327 -1.5391 -0.0204  0.6042
 6585SOL     OW31216   2.052   3.158   6.652  0.2633 -0.2245 -0.3943
 6585SOL    HW131217   2.071   3.064   6.645 -0.4304 -0.5665  2.3970
 6585SOL    HW231218   2.081   3.187   6.566  0.3149 -2.8568 -1.2736
 6586SOL     OW31219   0.040   4.674   5.272  0.3563 -0.7860  0.0268
 6586SOL    HW131220   0.105   4.673   5.202 -1.5114  1.1355 -1.7664
 6586SOL    HW231221   4.685   4.668   5.219  2.2102 -0.2201 -2.8139
 6587SOL     OW31222   4.590   2.522   0.742  0.2313 -0.1004  0.3551
 6587SOL    HW131223   4.516   2.462   0.753 -0.0205  0.3228  0.9995
 6587SOL    HW231224   4.649   2.505   0.816 -1.1902 -1.1647  1.2521
 6588SOL     OW31225   2.184   0.652   8.820 -0.1230  0.1867  0.2596
 6588SOL    HW131226   2.256   0.593   8.842  0.5911  0.2269 -1.9490
 6588SOL    HW231227   2.111   0.605   8.862 -0.0488 -2.3353 -2.3754
 6589SOL     OW31228   3.339   2.943   1.561  0.0370 -0.7187 -0.3671
 6589SOL    HW131229   3.280   2.917   1.490 -0.0977  0.2966 -0.6286
 6589SOL    HW231230   3.321   3.037   1.571  1.4542 -0.3824 -0.9557
 6590SOL     OW31231   2.739   1.777   8.200  0.0103  0.5823 -0.0154
 6590SOL    HW131232   2.786   1.860   8.192 -1.9183  1.9227  2.5293
 6590SOL    HW231233   2.698   1.784   8.286  0.6609 -1.1942  0.4513
 6591SOL     OW31234   2.861   0.694   5.603  0.0256  0.8063  0.1957
 6591SOL    HW131235   2.853   0.624   5.538 -2.4616  1.1753  0.1232
 6591SOL    HW231236   2.873   0.772   5.549 -1.6129  0.8031 -0.1549
 6592SOL     OW31237   0.521   4.632  10.384 -0.4583 -0.0301  0.0364
 6592SOL    HW131238   0.573   4.649  10.305 -1.9625 -0.3739 -1.0137
 6592SOL    HW231239   0.490   4.542  10.378 -2.3034  0.7144 -1.8023
 6593SOL     OW31240   4.697   1.268   7.796  0.2053  0.0912 -0.4668
 6593SOL    HW131241   0.034   1.338   7.815 -0.7929  0.8357  0.0564
 6593SOL    HW231242   4.714   1.204   7.865  1.1861 -0.0001 -0.7775
 6594SOL     OW31243   3.081   0.942   6.989 -0.6934 -0.5210 -0.4158
 6594SOL    HW131244   3.114   1.031   6.980 -1.2730 -0.2210  0.3680
 6594SOL    HW231245   3.126   0.904   6.914  0.0783 -2.1516  0.8442
 6595SOL     OW31246   3.605   0.165   9.420 -0.1112  0.0649  0.2506
 6595SOL    HW131247   3.621   0.198   9.508  0.4798 -1.9704  0.9167
 6595SOL    HW231248   3.575   0.075   9.436 -1.5302  0.3033 -1.0660
 6596SOL     OW31249   4.548   0.984  10.185  0.2756  0.5314  0.2255
 6596SOL    HW131250   4.578   0.982  10.276  1.6165 -0.7676 -0.2439
 6596SOL    HW231251   4.502   0.902  10.169  0.9657 -0.2539  2.3389
 6597SOL     OW31252   3.186   2.273   2.597  0.0080  0.1418  0.0748
 6597SOL    HW131253   3.125   2.215   2.642  1.7999  1.3472  4.0659
 6597SOL    HW231254   3.255   2.208   2.588 -1.2046 -0.8707 -1.8915
 6598SOL     OW31255   0.517   2.530  10.563 -0.1030  0.2894  0.1367
 6598SOL    HW131256   0.587   2.547  10.625 -0.1434  1.6556 -0.1966
 6598SOL    HW231257   0.455   2.601  10.580 -1.1204 -0.5481 -0.0688
 6599SOL     OW31258   1.610   1.924   1.897  0.2441 -0.3624 -0.1259
 6599SOL    HW131259   1.696   1.961   1.876 -0.0122  0.5913  0.5198
 6599SOL    HW231260   1.641   1.844   1.941 -0.8354  0.0642  1.3835
 6600SOL     OW31261   0.650   3.428   7.370 -0.4956 -0.5074  0.1362
 6600SOL    HW131262   0.720   3.465   7.424  1.3675 -4.4228  0.4172
 6600SOL    HW231263   0.623   3.381   7.449  0.2126  0.6527  1.0681
 6601SOL     OW31264   1.103   1.981  11.382 -0.2068  0.0274  0.5924
 6601SOL    HW131265   1.162   2.033  11.437  0.2750  0.1122 -0.0112
 6601SOL    HW231266   1.106   2.031  11.301  2.9391  2.2851  2.1067
 6602SOL     OW31267   3.174   4.001  11.775 -0.0127 -0.0120 -0.3568
 6602SOL    HW131268   3.246   3.958  11.729 -0.5944 -1.2842 -0.0708
 6602SOL    HW231269   3.102   3.947  11.743 -1.4540  1.5153  0.2758
 6603SOL     OW31270   1.464   4.390   8.128 -0.0392  0.0687 -0.4759
 6603SOL    HW131271   1.539   4.366   8.182  0.1800  0.4164 -0.6261
 6603SOL    HW231272   1.407   4.431   8.192  1.2136  0.2197  0.5469
 6604SOL     OW31273   1.734   1.544   3.157  0.5764  0.2918  0.2651
 6604SOL    HW131274   1.654   1.500   3.128  0.6154  0.7950 -0.5968
 6604SOL    HW231275   1.760   1.582   3.073 -1.5554 -0.8901 -0.9311
 6605SOL     OW31276   3.717   4.586   7.484  0.4602 -0.2043 -0.1018
 6605SOL    HW131277   3.749   4.676   7.471 -0.1867 -0.0268 -0.4657
 6605SOL    HW231278   3.775   4.548   7.551 -1.2810 -1.7072  0.5456
 6606SOL     OW31279   1.402   1.705   5.144  1.2493 -0.5952 -0.2197
 6606SOL    HW131280   1.400   1.772   5.076 -1.9245  1.7531  2.1719
 6606SOL    HW231281   1.338   1.640   5.115  0.8800  0.0271 -0.7933
 6607SOL     OW31282   3.397   3.508   8.317  0.2796 -0.4610  0.3037
 6607SOL    HW131283   3.412   3.559   8.396 -1.2762 -0.1211  0.3784
 6607SOL    HW231284   3.451   3.433   8.341 -2.2417 -2.5179 -0.4550
 6608SOL     OW31285   2.997   0.357   9.479 -0.2315  0.0134 -0.4720
 6608SOL    HW131286   3.039   0.443   9.477 -1.8169  0.7636 -1.8467
 6608SOL    HW231287   2.936   0.359   9.552 -0.7161  0.3517 -0.8902
 6609SOL     OW31288   4.604   2.832  14.485  0.2762  0.1981  0.2760
 6609SOL    HW131289   4.593   2.737  14.487 -2.1775  0.5198  2.0373
 6609SOL    HW231290   4.559   2.858  14.566 -0.4730  1.6044 -0.5986
 6610SOL     OW31291   4.599   4.497  17.229 -0.0116  0.1117  0.0931
 6610SOL    HW131292   4.534   4.444  17.181 -1.0542  1.1614  0.3503
 6610SOL    HW231293   4.606   4.462  17.317  0.7231  2.8989  1.1222
 6611SOL     OW31294   3.330   4.377   1.071  0.1728  0.3156 -0.3802
 6611SOL    HW131295   3.373   4.307   1.119 -2.8808 -1.3237 -0.0444
 6611SOL    HW231296   3.247   4.388   1.118  0.7384 -1.0754  0.9483
 6612SOL     OW31297   3.260   0.454   6.928  0.0230  0.2827 -0.5712
 6612SOL    HW131298   3.232   0.378   6.979 -2.0124  2.1058  1.0402
 6612SOL    HW231299   3.294   0.409   6.851  1.3060 -0.6498  0.5467
 6613SOL     OW31300   1.172   1.412   1.353 -0.2585  0.0136 -0.2203
 6613SOL    HW131301   1.263   1.417   1.381 -0.3971  0.0257  0.2209
 6613SOL    HW231302   1.175   1.339   1.291 -1.1417 -1.5725  1.5944
 6614SOL     OW31303   2.134   0.768   8.055  0.2170  0.4815 -0.4573
 6614SOL    HW131304   2.134   0.709   8.131 -0.6297 -2.4665 -2.7258
 6614SOL    HW231305   2.117   0.853   8.094 -0.2310 -0.9432  2.4678
 6615SOL     OW31306   2.578   3.593   4.844  0.3446 -0.3719  0.3673
 6615SOL    HW131307   2.493   3.591   4.799  0.5309  1.1457 -0.0217
 6615SOL    HW231308   2.544   3.556   4.926 -0.3729 -2.2797 -0.7714
 6616SOL     OW31309   1.668   1.929   6.596  0.3815  0.0857 -0.5265
 6616SOL    HW131310   1.657   1.853   6.654 -0.3033  0.9396  0.4890
 6616SOL    HW231311   1.627   1.995   6.653  0.5538  1.2211 -1.7394
 6617SOL     OW31312   2.274   1.567   1.907  0.7517 -0.0566 -0.8354
 6617SOL    HW131313   2.353   1.538   1.953 -0.2794 -1.2439  0.2130
 6617SOL    HW231314   2.250   1.481   1.873  0.8379  0.0801 -1.2334
 6618SOL     OW31315   2.775   1.752   0.898 -0.1322 -0.2918 -0.0771
 6618SOL    HW131316   2.840   1.811   0.859  0.2761 -0.8663 -0.2769
 6618SOL    HW231317   2.731   1.807   0.963  0.7500  1.2411 -0.7629
 6619SOL     OW31318   2.864   3.892   4.542 -0.4324 -0.0585 -0.1586
 6619SOL    HW131319   2.925   3.948   4.590 -0.1304  0.9437 -1.7270
 6619SOL    HW231320   2.817   3.853   4.616  0.0407 -0.8328 -0.2664
 6620SOL     OW31321   2.139   2.117   4.259 -0.1499  0.4806 -0.1953
 6620SOL    HW131322   2.125   2.184   4.326 -0.7326 -1.6275  1.7530
 6620SOL    HW231323   2.049   2.098   4.233 -0.3588  1.5203 -0.2655
 6621SOL     OW31324   4.130   4.150  10.591 -0.7906 -0.0087  0.1685
 6621SOL    HW131325   4.179   4.126  10.669  1.3566  1.4629 -0.7470
 6621SOL    HW231326   4.059   4.085  10.590 -1.9453  1.2639  0.4928
 6622SOL     OW31327   0.030   0.269  15.759  0.0927  0.1487 -0.3510
 6622SOL    HW131328   0.029   0.351  15.809 -0.2231  1.4090 -2.4094
 6622SOL    HW231329   0.094   0.298  15.694 -0.4331  1.6459 -0.1903
 6623SOL     OW31330   4.664   0.521   2.523 -0.2127  0.2815  0.0766
 6623SOL    HW131331   4.636   0.595   2.470  1.9589  1.4783  0.6365
 6623SOL    HW231332   4.580   0.498   2.564  0.7884  0.2544  2.1363
 6624SOL     OW31333   1.400   4.433   5.008 -0.3553 -0.3175  0.1949
 6624SOL    HW131334   1.361   4.457   5.092 -1.8070 -0.6179 -0.3971
 6624SOL    HW231335   1.330   4.462   4.950  0.4477  1.1321 -0.0453
 6625SOL     OW31336   2.788   3.614   6.154 -0.0842 -0.4399  0.1127
 6625SOL    HW131337   2.792   3.710   6.159 -2.2994 -0.2981 -1.0898
 6625SOL    HW231338   2.694   3.601   6.142 -0.2539  1.4922 -0.8121
 6626SOL     OW31339   1.505   2.806  16.215  0.6304 -0.8900  0.0844
 6626SOL    HW131340   1.417   2.821  16.247  0.5410 -1.9592  0.3444
 6626SOL    HW231341   1.548   2.880  16.258 -2.7082 -1.2220  3.8660
 6627SOL     OW31342   4.491   3.035   1.999  0.0759  0.0344  0.1359
 6627SOL    HW131343   4.569   3.082   1.969  0.7027 -0.0728  1.5946
 6627SOL    HW231344   4.534   2.955   2.033 -1.3423  0.1191  2.1369
 6628SOL     OW31345   3.547   3.317   8.068 -0.1177  0.3004 -0.1960
 6628SOL    HW131346   3.562   3.316   8.162  0.8794 -1.9977 -0.3714
 6628SOL    HW231347   3.508   3.231   8.053 -3.2723  1.3610  1.9660
 6629SOL     OW31348   2.545   4.123   8.003  0.0113  0.2223 -0.2572
 6629SOL    HW131349   2.542   4.090   7.914 -1.6182  0.1235 -0.1701
 6629SOL    HW231350   2.639   4.132   8.021 -0.0932  0.0191  0.4046
 6630SOL     OW31351   3.801   3.638   7.009  0.0851  0.1258 -0.0965
 6630SOL    HW131352   3.881   3.585   6.999 -1.1096 -1.7120  0.0995
 6630SOL    HW231353   3.823   3.692   7.085 -0.9659 -0.0709  0.3415
 6631SOL     OW31354   1.742   2.255  16.018  0.1128  0.5708  0.0482
 6631SOL    HW131355   1.783   2.340  16.032  0.3617  0.4891 -0.2022
 6631SOL    HW231356   1.688   2.281  15.943  0.8744  0.5648 -0.5029
 6632SOL     OW31357   2.510   2.650   2.770 -0.6865 -0.9090  0.1848
 6632SOL    HW131358   2.442   2.649   2.837 -0.7568 -1.1018  0.1104
 6632SOL    HW231359   2.572   2.710   2.812  0.2589 -1.6568 -0.1308
 6633SOL     OW31360   0.767   2.008  12.053 -0.1487 -0.3043 -0.3679
 6633SOL    HW131361   0.689   2.047  12.012  0.1759  2.3448  1.5746
 6633SOL    HW231362   0.723   1.960  12.123  2.1331 -0.9744  0.6064
 6634SOL     OW31363   4.032   2.708   5.022 -0.5552 -0.2256 -0.2779
 6634SOL    HW131364   3.954   2.763   5.019 -0.1405  0.2602 -2.4661
 6634SOL    HW231365   4.023   2.648   5.096 -1.4993 -0.9371 -0.9650
 6635SOL     OW31366   2.536   4.134   1.411  0.2712  0.5672  0.0799
 6635SOL    HW131367   2.592   4.209   1.427 -0.3988  1.3988 -1.4661
 6635SOL    HW231368   2.503   4.159   1.325 -2.3664  0.2995  1.0027
 6636SOL     OW31369   2.447   4.427  17.664  0.0724 -0.2890 -0.2395
 6636SOL    HW131370   2.537   4.451  17.687 -0.1088  1.6256 -1.5090
 6636SOL    HW231371   2.418   4.517  17.650 -0.5116 -0.1998  1.5288
 6637SOL     OW31372   2.991   4.518   4.808  0.3478  0.0010 -0.2591
 6637SOL    HW131373   3.031   4.596   4.770  0.1440  0.5076  0.5855
 6637SOL    HW231374   2.902   4.531   4.775  0.0176 -0.5758  0.4076
 6638SOL     OW31375   1.410   2.811   4.777  0.0707  0.4568  0.1262
 6638SOL    HW131376   1.488   2.756   4.778  0.3521  0.8404 -0.4945
 6638SOL    HW231377   1.387   2.805   4.684 -1.1059  2.8068  0.2592
 6639SOL     OW31378   0.029   3.285   1.274 -0.3675 -0.1543  0.0176
 6639SOL    HW131379   0.103   3.325   1.320 -0.2718 -0.2688 -0.0362
 6639SOL    HW231380   4.687   3.348   1.298 -1.0126 -0.7078 -0.3486
 6640SOL     OW31381   2.685   1.956   7.209 -0.0127  0.6159  0.5597
 6640SOL    HW131382   2.629   2.027   7.178  0.3269  0.0830 -1.2809
 6640SOL    HW231383   2.626   1.881   7.216 -1.6204  1.6518 -1.8758
 6641SOL     OW31384   1.864   3.342   2.342 -0.1418  0.3561  0.4640
 6641SOL    HW131385   1.957   3.316   2.343 -0.5924 -1.2497 -2.1323
 6641SOL    HW231386   1.824   3.329   2.428 -0.1129 -2.9453 -0.0370
 6642SOL     OW31387   4.056   2.047  10.085  0.4652  0.1504  0.5825
 6642SOL    HW131388   4.113   1.999  10.145 -1.2699 -1.6820  0.7741
 6642SOL    HW231389   3.979   1.989  10.082  0.8533 -0.2813 -1.0398
 6643SOL     OW31390   0.650   2.348   6.985  0.1270  0.5999  0.4022
 6643SOL    HW131391   0.631   2.340   6.892 -0.4201  0.5527  0.5198
 6643SOL    HW231392   0.732   2.398   6.980 -0.1321  1.1605  1.6539
 6644SOL     OW31393   4.457   3.675   5.114 -0.3178  0.1549  0.0182
 6644SOL    HW131394   4.545   3.713   5.114 -0.7975  1.2483  0.2244
 6644SOL    HW231395   4.437   3.658   5.206 -0.1327  1.4180  0.2905
 6645SOL     OW31396   0.206   3.129   4.229 -0.0615  0.6839  0.0660
 6645SOL    HW131397   0.149   3.144   4.303  0.1167  0.3647  0.2657
 6645SOL    HW231398   0.207   3.033   4.229  0.6475  0.7092  2.4715
 6646SOL     OW31399   0.536   2.848   4.538 -0.3236  0.3420  0.5641
 6646SOL    HW131400   0.605   2.874   4.598  1.3436 -2.2340 -0.2438
 6646SOL    HW231401   0.570   2.895   4.462 -0.3077  0.3545  0.5791
 6647SOL     OW31402   2.486   2.115  10.244 -0.7526  0.3647 -0.1325
 6647SOL    HW131403   2.412   2.176  10.237 -1.3320 -0.3133  0.1513
 6647SOL    HW231404   2.477   2.067  10.326  0.3966 -0.0791 -0.2675
 6648SOL     OW31405   1.307   1.650   1.607 -0.5300  0.3022 -0.1095
 6648SOL    HW131406   1.267   1.735   1.626  0.0071  0.4555  0.3206
 6648SOL    HW231407   1.399   1.662   1.630 -0.7713  0.1428  0.9427
 6649SOL     OW31408   0.834   3.689   8.256 -0.2607  0.0041 -0.4186
 6649SOL    HW131409   0.928   3.690   8.238 -0.2690  1.7992 -0.3571
 6649SOL    HW231410   0.807   3.663   8.168  0.0238  0.7015 -0.7055
 6650SOL     OW31411   1.308   0.854   2.656  0.3144  0.0806 -0.0828
 6650SOL    HW131412   1.352   0.931   2.621  0.4432 -0.5044 -1.1957
 6650SOL    HW231413   1.329   0.861   2.749  2.3088  0.4235 -0.5548
 6651SOL     OW31414   2.199   1.023   4.420 -0.3994  0.5531 -0.3398
 6651SOL    HW131415   2.238   0.950   4.373 -0.1296 -0.0729  0.8581
 6651SOL    HW231416   2.162   1.074   4.348 -0.2658  0.9162 -0.1506
 6652SOL     OW31417   0.985   1.869   8.444 -0.2325 -0.3280 -0.7542
 6652SOL    HW131418   0.952   1.893   8.530 -0.8381  2.2358 -1.7247
 6652SOL    HW231419   1.013   1.779   8.463  2.3958  0.4540 -0.8958
 6653SOL     OW31420   1.451   2.628  10.495  0.3010 -0.3200  0.2730
 6653SOL    HW131421   1.532   2.604  10.451  0.0783 -0.5878  0.0031
 6653SOL    HW231422   1.396   2.550  10.486  0.1824 -0.2218  0.1330
 6654SOL     OW31423   0.920   3.893   6.793 -0.2484 -0.1886  0.2084
 6654SOL    HW131424   0.993   3.930   6.744  0.6791 -1.2121  0.8145
 6654SOL    HW231425   0.880   3.837   6.727  0.7291 -0.5420 -0.0831
 6655SOL     OW31426   0.331   0.080   7.702  0.5171  0.2249  0.1346
 6655SOL    HW131427   0.323   4.711   7.717  0.7215  0.2356  0.3021
 6655SOL    HW231428   0.307   0.096   7.610  1.8729  2.3247  0.1450
 6656SOL     OW31429   0.896   2.722   7.624  0.0711  0.5651 -0.8747
 6656SOL    HW131430   0.828   2.666   7.662  0.2087  0.6356 -0.5197
 6656SOL    HW231431   0.969   2.714   7.685  0.4515  1.0103 -1.2750
 6657SOL     OW31432   0.130   1.920   3.730  0.6790 -0.2346 -0.3983
 6657SOL    HW131433   0.128   1.966   3.647 -1.7417 -0.9875 -0.7431
 6657SOL    HW231434   0.216   1.954   3.756  0.6609 -1.1604  0.9076
 6658SOL     OW31435   0.304   4.177   2.782  0.1805  0.4608  0.3960
 6658SOL    HW131436   0.248   4.124   2.725  1.2859  0.4521 -0.6861
 6658SOL    HW231437   0.335   4.238   2.715 -1.1556  0.6276 -0.0639
 6659SOL     OW31438   1.829   2.631   8.307  0.0402 -0.0294 -0.1485
 6659SOL    HW131439   1.757   2.585   8.264  0.4233  1.8159 -2.7228
 6659SOL    HW231440   1.823   2.719   8.271  1.0010  0.3800  0.6945
 6660SOL     OW31441   2.313   0.896   0.995  0.1646  0.2048 -0.2258
 6660SOL    HW131442   2.301   0.926   0.904 -1.2339  1.5391  0.4072
 6660SOL    HW231443   2.319   0.801   0.986 -0.5529  0.1811 -0.4260
 6661SOL     OW31444   1.088   0.121  13.616 -0.1731  0.5104 -0.1214
 6661SOL    HW131445   1.157   0.057  13.596 -1.6180 -2.1556  3.4733
 6661SOL    HW231446   1.134   0.200  13.589 -0.7108  0.6848 -0.5120
 6662SOL     OW31447   2.901   3.502   3.756 -0.0799  0.3948 -0.4010
 6662SOL    HW131448   2.883   3.410   3.734  0.2621  0.3366 -0.4385
 6662SOL    HW231449   2.937   3.541   3.677  0.5597  0.1034 -0.2528
 6663SOL     OW31450   4.113   2.556  10.127  0.4792 -0.7915 -0.3890
 6663SOL    HW131451   4.100   2.564  10.032 -0.7358  2.7097  0.0769
 6663SOL    HW231452   4.080   2.467  10.140  1.9779 -1.2819  0.0697
 6664SOL     OW31453   0.204   3.987  10.418  0.8035 -0.7345 -0.6494
 6664SOL    HW131454   0.259   3.952  10.488 -1.3064 -0.9117  0.9014
 6664SOL    HW231455   0.264   4.005  10.345  3.3060 -1.9954  1.1151
 6665SOL     OW31456   4.418   2.048   2.426 -0.6430  0.5482  0.0750
 6665SOL    HW131457   4.423   2.020   2.517  0.0261 -1.4686 -0.5830
 6665SOL    HW231458   4.340   2.001   2.398 -0.3090  1.4139 -2.2820
 6666SOL     OW31459   3.210   4.153   2.105  0.1628  0.1251 -0.1572
 6666SOL    HW131460   3.183   4.063   2.089  1.5695 -0.2793 -0.2661
 6666SOL    HW231461   3.200   4.192   2.018  0.1650  2.6330  0.9697
 6667SOL     OW31462   4.458   3.389   7.573 -0.6612 -0.0737 -0.0794
 6667SOL    HW131463   4.497   3.349   7.495 -1.6924 -1.6961  0.2410
 6667SOL    HW231464   4.391   3.445   7.534 -0.1303 -0.0912 -1.0244
 6668SOL     OW31465   3.676   1.455   3.231 -0.7227 -0.2334 -0.2712
 6668SOL    HW131466   3.667   1.508   3.311 -1.2273  0.1153 -0.5610
 6668SOL    HW231467   3.763   1.477   3.199 -1.3205 -0.4167 -2.0041
 6669SOL     OW31468   3.126   4.618   5.693  0.0661 -0.0504  0.2424
 6669SOL    HW131469   3.035   4.592   5.681 -0.0126 -0.7882  2.5215
 6669SOL    HW231470   3.132   4.629   5.788  0.2247  0.3962  0.1799
 6670SOL     OW31471   1.004   0.856   3.678 -0.0232 -0.3991  0.0789
 6670SOL    HW131472   0.963   0.834   3.761  0.9902  0.3421  0.7780
 6670SOL    HW231473   0.950   0.800   3.623 -2.2103  0.2646  1.5749
 6671SOL     OW31474   3.690   2.136   6.335 -0.1926 -0.0842 -0.2135
 6671SOL    HW131475   3.776   2.097   6.318  0.9482  2.5942 -0.4721
 6671SOL    HW231476   3.631   2.062   6.320  0.1817 -0.7087  1.4055
 6672SOL     OW31477   1.275   4.397   9.237 -0.0914 -0.7627  0.2976
 6672SOL    HW131478   1.306   4.343   9.165 -0.6772 -1.7324  0.7748
 6672SOL    HW231479   1.192   4.424   9.198 -0.1738  0.0710  1.0259
 6673SOL     OW31480   2.754   3.288   3.642  0.1158  0.2391 -0.1803
 6673SOL    HW131481   2.705   3.368   3.620  0.5187  0.4049 -0.4739
 6673SOL    HW231482   2.682   3.237   3.678  0.7599 -1.7397 -1.6834
 6674SOL     OW31483   3.362   0.961   2.075  0.1203 -0.1189 -0.0812
 6674SOL    HW131484   3.384   0.986   1.985 -2.8431 -1.4153 -1.2106
 6674SOL    HW231485   3.402   1.035   2.119 -0.7216  0.3722 -0.1490
 6675SOL     OW31486   1.193   1.908   2.809  0.0586  0.0418 -0.2325
 6675SOL    HW131487   1.287   1.916   2.798  0.2585  0.4183  1.7402
 6675SOL    HW231488   1.164   1.991   2.772  0.1818  0.6854  1.1244
 6676SOL     OW31489   1.481   4.271  11.543  0.0876  0.0536  0.8026
 6676SOL    HW131490   1.450   4.181  11.543  0.4141 -0.0514 -0.1443
 6676SOL    HW231491   1.464   4.303  11.455  1.2305  0.1598  0.6165
 6677SOL     OW31492   0.129   2.936   5.089 -0.3934 -0.2743  0.2887
 6677SOL    HW131493   0.186   2.954   5.164  0.1236  2.0456 -0.6751
 6677SOL    HW231494   0.063   2.872   5.114 -1.0916  0.8443  1.3068
 6678SOL     OW31495   1.801   0.760   7.779  0.2021 -0.5675  0.0112
 6678SOL    HW131496   1.882   0.795   7.743  0.6268 -1.7798 -0.2245
 6678SOL    HW231497   1.745   0.829   7.744 -0.1294  0.0587  1.7697
 6679SOL     OW31498   1.164   1.522   6.350 -0.5643  0.5790 -0.6916
 6679SOL    HW131499   1.140   1.610   6.320  1.8298  1.1278 -1.0173
 6679SOL    HW231500   1.130   1.511   6.439  2.0280 -1.2320  0.0902
 6680SOL     OW31501   4.240   3.423   3.676  0.3104  0.1826  0.0142
 6680SOL    HW131502   4.160   3.439   3.727 -0.5210 -3.1235 -0.2762
 6680SOL    HW231503   4.226   3.481   3.601 -0.1659 -1.9751 -1.5607
 6681SOL     OW31504   2.698   0.244  14.131 -0.1424 -0.7287 -0.4337
 6681SOL    HW131505   2.784   0.271  14.163 -0.3384 -1.4270  0.6632
 6681SOL    HW231506   2.665   0.195  14.205  0.0218 -1.1324 -0.6299
 6682SOL     OW31507   3.383   2.254  16.353 -0.1189 -0.1335 -0.4706
 6682SOL    HW131508   3.443   2.200  16.303 -1.6896  1.1943 -3.7502
 6682SOL    HW231509   3.369   2.209  16.437  0.1434  0.6181 -0.0193
 6683SOL     OW31510   3.411   4.431  15.730 -0.1986 -0.6569  0.3260
 6683SOL    HW131511   3.333   4.451  15.678 -0.7672 -1.3743  0.9028
 6683SOL    HW231512   3.471   4.436  15.655 -1.9004 -0.6347 -1.0436
 6684SOL     OW31513   2.437   0.961  10.150 -0.1271  0.5728  0.2974
 6684SOL    HW131514   2.457   1.014  10.227 -1.9805  3.5872 -1.2738
 6684SOL    HW231515   2.378   0.894  10.183  2.0739 -1.7559 -0.5582
 6685SOL     OW31516   4.133   3.833   1.909  0.0559  0.0552  0.4481
 6685SOL    HW131517   4.067   3.903   1.911 -0.8502 -0.7603 -1.2815
 6685SOL    HW231518   4.082   3.776   1.852 -1.1606 -0.1468  1.7465
 6686SOL     OW31519   2.279   1.200   6.370  0.7355 -0.4150  0.0891
 6686SOL    HW131520   2.364   1.195   6.414 -0.4129  1.9010  2.6074
 6686SOL    HW231521   2.270   1.295   6.375  3.1273 -0.2406  1.3853
 6687SOL     OW31522   3.844   1.472   8.758  0.1643  0.1094 -0.0496
 6687SOL    HW131523   3.916   1.533   8.772  0.0494  0.2826 -0.2043
 6687SOL    HW231524   3.790   1.497   8.834  0.4516  0.9478 -0.1208
 6688SOL     OW31525   0.672   4.137   8.707  0.3087 -0.5615 -0.2761
 6688SOL    HW131526   0.756   4.136   8.661  1.4606  2.5394  1.8192
 6688SOL    HW231527   0.632   4.059   8.668  1.0808 -0.2553 -1.6770
 6689SOL     OW31528   2.748   2.522   3.029  0.0655  0.0975 -0.2416
 6689SOL    HW131529   2.787   2.554   2.948  1.3025 -0.5159  0.1149
 6689SOL    HW231530   2.794   2.440   3.046 -0.8866 -0.7896 -1.9789
 6690SOL     OW31531   3.606   3.331   8.347  0.0823  0.5406  0.0117
 6690SOL    HW131532   3.662   3.379   8.408  1.2764 -0.8504 -0.0081
 6690SOL    HW231533   3.633   3.240   8.351 -0.8127  0.2564 -0.3066
 6691SOL     OW31534   2.819   3.999   6.726 -0.0303 -0.1247 -0.2742
 6691SOL    HW131535   2.779   3.956   6.802  0.1044 -0.6954 -0.5207
 6691SOL    HW231536   2.904   4.009   6.769 -0.4977 -0.9313  0.8499
 6692SOL     OW31537   2.747   0.287   2.273 -0.4813  0.6201  0.3121
 6692SOL    HW131538   2.775   0.209   2.225 -0.7218  1.1272 -0.6497
 6692SOL    HW231539   2.807   0.292   2.348 -2.6045 -1.1373  2.1316
 6693SOL     OW31540   3.853   2.434   8.853 -0.2182 -0.7311  0.1844
 6693SOL    HW131541   3.762   2.418   8.877  0.0074  0.3313  1.7189
 6693SOL    HW231542   3.874   2.349   8.813  0.5336 -1.2921  1.7661
 6694SOL     OW31543   1.361   3.269   2.642 -0.2311 -0.0198 -0.1781
 6694SOL    HW131544   1.442   3.227   2.613 -0.4262 -1.0410  0.7354
 6694SOL    HW231545   1.295   3.221   2.593 -1.4004  0.1496  1.2277
 6695SOL     OW31546   0.829   3.879   1.669  0.2839  0.2411 -0.4327
 6695SOL    HW131547   0.866   3.822   1.601  0.9464 -2.4652  2.2072
 6695SOL    HW231548   0.886   3.955   1.667 -1.1367  1.3695  2.4580
 6696SOL     OW31549   2.900   0.168   5.904  0.2879  0.6835 -0.2483
 6696SOL    HW131550   2.881   0.225   5.830  1.0763  0.6658 -0.4734
 6696SOL    HW231551   2.995   0.157   5.892  0.3358 -0.1076  0.8633
 6697SOL     OW31552   4.506   3.237   4.609 -0.1051 -0.3358 -0.4871
 6697SOL    HW131553   4.461   3.244   4.694  0.0664 -2.4253 -0.2194
 6697SOL    HW231554   4.591   3.278   4.627 -1.1501  0.3165  2.9561
 6698SOL     OW31555   2.506   4.668   1.541  0.0915 -0.0481 -0.2164
 6698SOL    HW131556   2.555   4.606   1.488  1.4447  1.9321 -1.2611
 6698SOL    HW231557   2.456   4.720   1.478 -0.6895 -0.5282  0.0092
 6699SOL     OW31558   0.380   1.104  17.467  0.0556  0.3513 -0.5257
 6699SOL    HW131559   0.432   1.149  17.534 -0.8192  1.1450 -0.3797
 6699SOL    HW231560   0.302   1.071  17.511  0.4180  0.3128  0.0922
 6700SOL     OW31561   1.556   1.784  17.441  0.2585 -0.5231  0.2880
 6700SOL    HW131562   1.513   1.836  17.373 -0.0816 -1.8379 -0.5252
 6700SOL    HW231563   1.635   1.758  17.393 -0.3028  2.2415 -2.1331
 6701SOL     OW31564   0.679   0.141  13.138 -0.3916  0.0920  0.2486
 6701SOL    HW131565   0.733   0.198  13.193 -1.4902 -0.8780  2.3586
 6701SOL    HW231566   0.616   0.112  13.204 -0.5630 -1.1078 -0.4268
 6702SOL     OW31567   0.508   2.699   1.555 -0.6657 -0.2450 -0.3339
 6702SOL    HW131568   0.523   2.653   1.637 -0.9946 -0.1238 -0.2065
 6702SOL    HW231569   0.567   2.772   1.574  1.2780 -1.2819 -2.3746
 6703SOL     OW31570   4.029   3.682   2.594 -0.3068  0.3397 -0.4601
 6703SOL    HW131571   4.069   3.595   2.597 -1.1852  0.0240  2.0631
 6703SOL    HW231572   3.938   3.658   2.576 -0.1970 -0.1342 -0.3739
 6704SOL     OW31573   4.485   3.377  16.164  0.4938  0.3980  0.0716
 6704SOL    HW131574   4.571   3.352  16.197  0.0906 -0.1750  0.6922
 6704SOL    HW231575   4.459   3.431  16.238 -0.3166  0.3528 -0.1748
 6705SOL     OW31576   2.786   3.912  15.332 -0.6407  0.4728 -0.0237
 6705SOL    HW131577   2.770   3.992  15.382 -1.6565  2.7146 -3.9000
 6705SOL    HW231578   2.709   3.919  15.276 -1.7948 -2.2969  1.2180
 6706SOL     OW31579   2.583   1.967   2.787 -0.4824 -0.3595  0.1337
 6706SOL    HW131580   2.584   1.884   2.739  2.2599 -0.6996  0.7651
 6706SOL    HW231581   2.676   1.985   2.801 -0.8634  1.1723  0.7002
 6707SOL     OW31582   2.507   0.664   7.046 -0.2196 -0.2507  0.1129
 6707SOL    HW131583   2.435   0.667   7.109  0.1864  0.5269  0.5320
 6707SOL    HW231584   2.455   0.633   6.971  2.3943  0.2252 -1.8905
 6708SOL     OW31585   2.892   3.886  12.686 -0.0224  0.3213  0.2273
 6708SOL    HW131586   2.947   3.937  12.627 -1.3436  1.2414 -0.2247
 6708SOL    HW231587   2.943   3.806  12.686 -1.8307 -0.8284 -0.3236
 6709SOL     OW31588   0.069   1.866   2.526  0.1566  0.2246  0.0827
 6709SOL    HW131589   0.010   1.817   2.470 -0.3738  2.3636 -1.2207
 6709SOL    HW231590   0.151   1.818   2.514  0.2713  0.6797 -0.9664
 6710SOL     OW31591   0.415   2.571   9.997 -0.0455  0.1021  1.2040
 6710SOL    HW131592   0.475   2.549   9.925  0.9385 -2.3079  2.7858
 6710SOL    HW231593   0.377   2.485  10.012  0.0970 -0.2170 -0.2546
 6711SOL     OW31594   1.120   4.155  13.033  0.7507 -0.6078 -0.3213
 6711SOL    HW131595   1.037   4.201  13.050  0.7713 -1.1122  1.1713
 6711SOL    HW231596   1.186   4.213  13.072 -0.7115  1.6506 -1.2156
 6712SOL     OW31597   2.554   3.551  11.309  0.0831 -0.4332 -0.6356
 6712SOL    HW131598   2.531   3.476  11.255  3.0642 -1.9528  0.1819
 6712SOL    HW231599   2.650   3.551  11.300  0.2654  2.4383  1.2801
 6713SOL     OW31600   2.151   1.975   2.952 -0.1849  0.2121 -0.0928
 6713SOL    HW131601   2.220   2.041   2.941 -0.6971  0.8728  0.7435
 6713SOL    HW231602   2.205   1.899   2.975 -0.5479 -0.2391 -0.7099
 6714SOL     OW31603   1.444   2.406   1.258  0.4080  0.0696 -0.4007
 6714SOL    HW131604   1.458   2.496   1.289  0.4673 -0.1847  0.3082
 6714SOL    HW231605   1.391   2.372   1.330 -0.6350  1.7586 -0.3800
 6715SOL     OW31606   4.103   2.773   2.220  0.1878  0.5469  0.1945
 6715SOL    HW131607   4.051   2.753   2.142 -1.6698  1.2830  1.2414
 6715SOL    HW231608   4.045   2.836   2.263 -1.2624 -2.1496  2.2334
 6716SOL     OW31609   1.208   3.742   1.828  0.6287  0.3110  0.1629
 6716SOL    HW131610   1.159   3.724   1.748  0.6902  1.6206 -0.1797
 6716SOL    HW231611   1.134   3.786   1.869  0.7037  0.3190  0.2900
 6717SOL     OW31612   1.211   0.350   0.627 -0.2238  0.0179  0.0388
 6717SOL    HW131613   1.148   0.278   0.627  0.7358 -0.8187  1.5689
 6717SOL    HW231614   1.292   0.305   0.652 -0.7668  0.0143  1.8218
 6718SOL     OW31615   0.324   2.425   3.017 -0.5334  0.7439 -0.5175
 6718SOL    HW131616   0.266   2.383   2.954 -1.5651  0.7285  0.4470
 6718SOL    HW231617   0.263   2.492   3.047  1.4979  2.5105 -0.2832
 6719SOL     OW31618   0.692   0.123   6.546  0.4213 -0.1774 -0.0677
 6719SOL    HW131619   0.622   0.059   6.541 -0.5360  0.9310 -0.8391
 6719SOL    HW231620   0.716   0.135   6.453  0.3958  0.8268  0.0599
 6720SOL     OW31621   3.914   3.943   9.470  0.1424  0.1121  0.1144
 6720SOL    HW131622   3.939   4.032   9.445 -0.4152  0.7615  1.8207
 6720SOL    HW231623   3.819   3.945   9.459  0.3018 -1.3163 -1.4334
 6721SOL     OW31624   0.897   0.891   7.921  0.1690 -0.1862  0.7569
 6721SOL    HW131625   0.852   0.964   7.879  0.6073 -0.0613  0.4961
 6721SOL    HW231626   0.957   0.940   7.978  2.1950 -2.2307  0.3786
 6722SOL     OW31627   3.651   4.430   9.953 -0.3651 -0.5230 -0.2904
 6722SOL    HW131628   3.635   4.470  10.039 -1.0544 -0.2426 -0.5545
 6722SOL    HW231629   3.677   4.506   9.901 -2.9362  2.0321  2.1720
 6723SOL     OW31630   0.710   3.195   8.616  0.1608  0.1042  0.5917
 6723SOL    HW131631   0.664   3.158   8.540  1.0866 -0.9991  0.5597
 6723SOL    HW231632   0.802   3.196   8.591 -0.0948 -2.5530 -0.5093
 6724SOL     OW31633   3.952   4.333   3.704 -0.3632  0.0218  0.6363
 6724SOL    HW131634   3.893   4.378   3.764 -2.8865 -2.0329 -0.3267
 6724SOL    HW231635   3.937   4.245   3.738  2.3095 -0.1198  1.4599
 6725SOL     OW31636   2.457   4.544   2.540  0.2299  0.3649  0.1075
 6725SOL    HW131637   2.452   4.460   2.586  1.8987 -0.3387 -0.9852
 6725SOL    HW231638   2.503   4.522   2.458 -0.1241 -0.0924  0.0306
 6726SOL     OW31639   2.331   2.361   3.039  0.1213  0.0186  0.2301
 6726SOL    HW131640   2.395   2.290   3.043 -1.8984 -1.7601  1.2920
 6726SOL    HW231641   2.322   2.369   2.944  0.8841 -1.7288  0.0162
 6727SOL     OW31642   4.184   2.037   4.422  0.8280  0.2085 -0.0344
 6727SOL    HW131643   4.126   2.082   4.361 -0.2791 -1.3216 -0.1298
 6727SOL    HW231644   4.174   1.944   4.402  1.3259 -0.1088  1.1671
 6728SOL     OW31645   2.791   4.638   9.975 -0.6581  0.1506 -0.0788
 6728SOL    HW131646   2.814   4.565   9.918 -1.1329  0.5524 -0.7835
 6728SOL    HW231647   2.860   4.642  10.042 -0.4873 -3.1898 -0.0633
 6729SOL     OW31648   3.200   3.839   4.296 -0.6168 -0.4300  0.3365
 6729SOL    HW131649   3.293   3.820   4.283 -0.1978  0.7804  1.5798
 6729SOL    HW231650   3.162   3.754   4.315  1.0704 -1.0897  0.7832
 6730SOL     OW31651   0.001   3.533   1.845 -0.3851 -0.5273 -0.3636
 6730SOL    HW131652   0.039   3.445   1.849 -0.4244 -0.5573 -0.6468
 6730SOL    HW231653   4.648   3.530   1.899  0.6142 -1.5067  1.0335
 6731SOL     OW31654   3.323   0.793  16.661 -0.2620  0.0746  0.8617
 6731SOL    HW131655   3.329   0.706  16.622  0.2074 -0.0784  1.2792
 6731SOL    HW231656   3.299   0.846  16.584 -0.5898 -2.0739 -0.5160
 6732SOL     OW31657   2.309   0.440   6.352 -0.3141 -0.1315  0.6982
 6732SOL    HW131658   2.339   0.390   6.276 -1.3341  0.4107 -0.0497
 6732SOL    HW231659   2.378   0.503   6.372 -1.6926  1.1638  1.3757
 6733SOL     OW31660   0.046   3.693   2.955 -0.1439  0.2156  0.2150
 6733SOL    HW131661   0.135   3.706   2.989 -0.3418 -0.9568  1.2162
 6733SOL    HW231662   0.038   3.782   2.921  2.7208 -0.6767 -2.8295
 6734SOL     OW31663   3.935   1.315  12.233  0.1458  0.0234  0.7930
 6734SOL    HW131664   4.019   1.320  12.279  0.4544  1.9849  0.0059
 6734SOL    HW231665   3.925   1.219  12.236  0.4743  0.0333  2.1761
 6735SOL     OW31666   1.683   2.896  14.937 -0.3118  0.7498  0.0012
 6735SOL    HW131667   1.701   2.866  15.026 -0.0934 -0.6028 -0.4941
 6735SOL    HW231668   1.770   2.884  14.900 -0.1976  0.8524  0.2406
 6736SOL     OW31669   1.405   4.716   0.856  0.7602  0.5925 -0.6254
 6736SOL    HW131670   1.340   4.671   0.909 -0.1520  1.0839 -1.3250
 6736SOL    HW231671   1.476   0.010   0.917  0.7098  0.3004 -0.4776
 6737SOL     OW31672   3.530   0.015   7.176  0.1829 -0.4674  0.3265
 6737SOL    HW131673   3.511   0.037   7.085 -1.2549 -1.5906  0.3655
 6737SOL    HW231674   3.442   4.725   7.209  0.6916  0.2644  2.0561
 6738SOL     OW31675   1.192   1.901   1.683  0.0749  0.8919 -0.7614
 6738SOL    HW131676   1.124   1.905   1.751 -1.3092 -1.1809 -1.9961
 6738SOL    HW231677   1.258   1.956   1.724 -0.2397  0.0264  0.9303
 6739SOL     OW31678   3.861   1.157  15.130 -0.2026  0.1665  0.3772
 6739SOL    HW131679   3.773   1.119  15.129 -1.0987  2.2327  0.5147
 6739SOL    HW231680   3.898   1.120  15.050  0.8525 -1.4824  1.6312
 6740SOL     OW31681   2.204   3.987  14.707 -0.9518  0.1169  0.1553
 6740SOL    HW131682   2.203   4.058  14.771  1.0732 -1.1681  1.5699
 6740SOL    HW231683   2.147   3.920  14.743 -0.0531 -0.8288 -0.1851
 6741SOL     OW31684   3.164   3.075   9.136 -0.7305  0.1707 -0.3305
 6741SOL    HW131685   3.238   3.136   9.133  0.4933 -1.3160 -0.6033
 6741SOL    HW231686   3.188   3.017   9.209  0.0326  3.2418  1.8573
 6742SOL     OW31687   4.171   0.237   7.205  0.2778  0.0365  0.3013
 6742SOL    HW131688   4.149   0.198   7.120 -2.4277 -1.6845  1.8217
 6742SOL    HW231689   4.265   0.221   7.212  0.0527 -0.9108  1.0816
 6743SOL     OW31690   3.751   4.097  17.377 -0.3941  0.0381  0.7593
 6743SOL    HW131691   3.756   4.040  17.454 -1.1576  0.4002  1.0827
 6743SOL    HW231692   3.658   4.120  17.377 -0.8805 -1.9027 -0.6630
 6744SOL     OW31693   3.360   4.042  12.619  0.2808  0.3328 -0.1146
 6744SOL    HW131694   3.402   3.963  12.585 -0.1195  0.0161  0.1335
 6744SOL    HW231695   3.441   4.092  12.632  0.5979 -0.6030  1.5603
 6745SOL     OW31696   2.602   3.042  13.610  0.0058 -0.2534  0.7643
 6745SOL    HW131697   2.671   3.055  13.675  0.6141 -0.3856  0.1441
 6745SOL    HW231698   2.655   3.072  13.536 -0.6284 -0.2564  0.3146
 6746SOL     OW31699   4.595   1.729  15.178 -0.1928 -0.0859  0.4848
 6746SOL    HW131700   4.503   1.737  15.204 -0.8500 -1.3237 -1.4510
 6746SOL    HW231701   4.631   1.814  15.154 -0.0823 -0.3530 -0.2914
 6747SOL     OW31702   1.024   4.079  10.886  0.4241  0.3061  0.0724
 6747SOL    HW131703   1.116   4.056  10.884  0.7968  1.7359  0.9310
 6747SOL    HW231704   1.013   4.154  10.828 -2.0011  0.9826  1.3867
 6748SOL     OW31705   0.767   2.712   5.646  0.3065 -0.3107  0.4508
 6748SOL    HW131706   0.861   2.703   5.629  0.3635  1.9018 -0.5085
 6748SOL    HW231707   0.743   2.782   5.585  1.0144 -0.3057  0.1809
 6749SOL     OW31708   1.624   1.705  11.707 -0.0424 -0.2509  0.0945
 6749SOL    HW131709   1.706   1.751  11.690 -0.3732  0.4529  0.4050
 6749SOL    HW231710   1.615   1.713  11.802  3.3624  1.3424  0.2944
 6750SOL     OW31711   4.655   3.674  16.187  0.0189  0.2967  0.1282
 6750SOL    HW131712   4.610   3.758  16.195  0.5588  0.5503  0.5201
 6750SOL    HW231713   4.659   3.648  16.279 -1.2091  1.4455  0.5023
 6751SOL     OW31714   0.785   2.122   8.504 -0.2578 -0.1935  0.2853
 6751SOL    HW131715   0.799   2.118   8.410 -1.1403  2.1160  0.0558
 6751SOL    HW231716   0.694   2.093   8.511 -0.5237  0.9328  1.5723
 6752SOL     OW31717   4.122   3.879  13.752  0.6314  0.1952 -1.0044
 6752SOL    HW131718   4.101   3.911  13.840 -2.2156  0.6989 -1.8635
 6752SOL    HW231719   4.111   3.784  13.748  1.4150  0.1247 -1.4773
 6753SOL     OW31720   2.064   0.595   6.923  0.6275 -0.1150 -0.1659
 6753SOL    HW131721   2.077   0.517   6.869 -0.0973 -0.3544  0.0063
 6753SOL    HW231722   1.971   0.612   6.915  0.6304 -0.3107 -0.5937
 6754SOL     OW31723   0.140   0.494  13.777 -0.8891 -0.5818 -0.5976
 6754SOL    HW131724   0.228   0.531  13.769 -0.9455 -0.9847 -3.0198
 6754SOL    HW231725   0.086   0.555  13.827  0.0418 -0.3145  0.0909
 6755SOL     OW31726   2.212   1.655   2.644  0.3721  0.4872 -0.2179
 6755SOL    HW131727   2.186   1.614   2.561  0.2642  0.7151 -0.2982
 6755SOL    HW231728   2.297   1.695   2.628  0.6389 -0.4835 -1.1943
 6756SOL     OW31729   3.481   4.681   5.290  0.0281  0.0794 -0.4826
 6756SOL    HW131730   3.451   4.723   5.371  1.6155 -0.4460  0.3754
 6756SOL    HW231731   3.567   4.722   5.282 -0.3724  1.0852  0.4500
 6757SOL     OW31732   0.005   2.769   4.402 -0.3786  0.0511 -0.3751
 6757SOL    HW131733   0.086   2.807   4.435 -0.7835  1.3090 -0.8332
 6757SOL    HW231734   4.672   2.828   4.449  0.0204 -0.1758  0.3999
 6758SOL     OW31735   0.933   2.474  17.016 -0.1966  0.0879  0.2552
 6758SOL    HW131736   0.910   2.556  16.972  1.9902  1.2323  1.2305
 6758SOL    HW231737   1.029   2.476  17.018 -0.2789  1.5319  2.9858
 6759SOL     OW31738   3.536   3.984  10.039 -0.2785 -0.2202 -0.3379
 6759SOL    HW131739   3.597   3.993   9.966  0.5136 -1.3922  0.1925
 6759SOL    HW231740   3.483   4.063  10.027 -0.3266 -0.3018 -0.6668
 6760SOL     OW31741   1.042   0.552  14.166 -0.4703  0.0149 -0.1089
 6760SOL    HW131742   1.072   0.587  14.250  1.6780 -0.9079 -0.4679
 6760SOL    HW231743   1.120   0.572  14.113  0.0265 -0.1115  0.5718
 6761SOL     OW31744   2.531   2.607  10.062  0.0025  0.1714  0.1485
 6761SOL    HW131745   2.576   2.619   9.979 -2.2738 -0.9376 -1.2352
 6761SOL    HW231746   2.528   2.511  10.064 -0.9031  0.2171  1.7180
 6762SOL     OW31747   2.827   4.407   9.836  0.5446  0.0562 -0.1719
 6762SOL    HW131748   2.865   4.344   9.897  0.4969 -0.1758 -0.3807
 6762SOL    HW231749   2.842   4.356   9.756  0.8848 -0.6494  0.3364
 6763SOL     OW31750   3.193   2.550   5.361  0.3397  0.5275  0.1779
 6763SOL    HW131751   3.171   2.629   5.313  0.9032  1.3349  1.2599
 6763SOL    HW231752   3.152   2.574   5.444  0.4321 -1.1216  0.7042
 6764SOL     OW31753   0.430   2.628   2.687 -0.1048  0.6697  0.3968
 6764SOL    HW131754   0.410   2.651   2.778  1.6026  1.2793  0.6179
 6764SOL    HW231755   0.385   2.700   2.642  1.8001  1.9625  0.5893
 6765SOL     OW31756   1.333   4.666   0.568 -0.1165  0.4203  0.5048
 6765SOL    HW131757   1.365   4.675   0.657  1.2625 -1.9001  0.2387
 6765SOL    HW231758   1.295   4.579   0.576 -2.0612  1.0382 -1.6850
 6766SOL     OW31759   1.957   2.257   3.061  0.0529  0.3605 -0.3030
 6766SOL    HW131760   2.012   2.324   3.021  1.4840  0.7668  2.3276
 6766SOL    HW231761   1.929   2.213   2.981  0.9180  0.7332 -0.8136
 6767SOL     OW31762   3.088   3.387   2.846  0.1737  0.2990  0.8290
 6767SOL    HW131763   3.150   3.389   2.773 -0.5557  0.8592  0.2215
 6767SOL    HW231764   3.151   3.372   2.916  0.7497 -0.4236  0.1566
 6768SOL     OW31765   2.699   4.655  11.113  0.1296 -0.2137 -0.0273
 6768SOL    HW131766   2.696   0.021  11.139 -2.0116  0.2692 -1.9827
 6768SOL    HW231767   2.794   4.645  11.109  0.2024  0.3381  0.3628
 6769SOL     OW31768   2.705   0.710   2.283 -0.2647  0.1771  0.0438
 6769SOL    HW131769   2.647   0.634   2.283  0.3622 -0.3001 -0.1229
 6769SOL    HW231770   2.688   0.757   2.365 -2.0124  1.4609 -1.0580
 6770SOL     OW31771   4.392   3.164   5.608  0.4827 -0.2959 -0.1203
 6770SOL    HW131772   4.427   3.190   5.523 -0.0046  2.7552  0.6292
 6770SOL    HW231773   4.477   3.141   5.644  0.6811 -1.0296 -1.0669
 6771SOL     OW31774   4.145   4.530   1.462  0.0577  0.0292 -0.0253
 6771SOL    HW131775   4.217   4.568   1.511  1.3202  0.9277 -2.5833
 6771SOL    HW231776   4.080   4.594   1.491  1.0236  0.7793  0.4920
 6772SOL     OW31777   3.593   4.094   3.210 -0.1105 -0.1280 -0.1443
 6772SOL    HW131778   3.663   4.081   3.146  1.4549  0.2410  1.4827
 6772SOL    HW231779   3.636   4.070   3.292  1.1545  1.5986 -0.2895
 6773SOL     OW31780   3.813   3.268   9.461  0.2273  0.1735 -0.4362
 6773SOL    HW131781   3.905   3.296   9.455  1.1659 -2.6212  0.7232
 6773SOL    HW231782   3.793   3.308   9.546 -1.9615 -1.0223 -0.4100
 6774SOL     OW31783   0.698   4.636  16.966 -0.3329  0.0274  0.9017
 6774SOL    HW131784   0.676   4.554  16.921 -2.2881  1.0397  0.0493
 6774SOL    HW231785   0.763   4.597  17.025 -0.9644 -2.1022  0.2130
 6775SOL     OW31786   2.556   2.862   7.391 -0.3001  0.2494  0.0579
 6775SOL    HW131787   2.531   2.785   7.441 -2.2567 -0.0386 -1.3546
 6775SOL    HW231788   2.651   2.860   7.404 -0.5242 -1.0876  1.4677
 6776SOL     OW31789   4.208   2.768   6.519 -0.0759  0.0823 -0.2626
 6776SOL    HW131790   4.275   2.707   6.551 -0.5171  1.2964  2.9545
 6776SOL    HW231791   4.135   2.730   6.568 -0.1478 -1.5637 -1.6268
 6777SOL     OW31792   0.323   2.849   7.138  0.3257  0.5590  0.2822
 6777SOL    HW131793   0.410   2.882   7.115  0.2036 -0.5510 -1.7137
 6777SOL    HW231794   0.338   2.756   7.128 -0.1603  0.7593 -2.1940
 6778SOL     OW31795   2.862   0.976  17.094 -0.6180  0.6244 -0.2753
 6778SOL    HW131796   2.880   1.070  17.094  1.6106  0.1903 -0.4670
 6778SOL    HW231797   2.931   0.955  17.032  1.0587  0.8078  1.5384
 6779SOL     OW31798   4.677   4.603   8.589  0.5434  0.4250  0.1487
 6779SOL    HW131799   4.612   4.623   8.656  0.2426  0.7591 -0.2447
 6779SOL    HW231800   0.023   4.660   8.619 -1.7633  1.9272  2.7545
 6780SOL     OW31801   2.349   4.519   9.966  0.3709 -0.2491  0.4345
 6780SOL    HW131802   2.340   4.466  10.044  0.5724  0.4753  0.9532
 6780SOL    HW231803   2.404   4.590   9.999  0.0605 -0.1755  0.7932
 6781SOL     OW31804   0.736   2.907   4.737 -0.6967  0.1811  0.1679
 6781SOL    HW131805   0.738   2.929   4.830  0.2393 -1.2313  0.4739
 6781SOL    HW231806   0.810   2.956   4.700  0.0232 -0.5803  0.5898
 6782SOL     OW31807   4.177   4.505   2.986 -0.4561  0.0979  0.6892
 6782SOL    HW131808   4.234   4.573   3.022 -0.7935  0.9249 -0.3420
 6782SOL    HW231809   4.112   4.487   3.054 -0.1527  0.6190  1.1105
 6783SOL     OW31810   1.545   0.688   9.450 -0.0524 -0.3910  0.1148
 6783SOL    HW131811   1.617   0.749   9.433  1.0108 -0.7508  3.1375
 6783SOL    HW231812   1.513   0.715   9.536 -0.5110 -2.0562  0.4656
 6784SOL     OW31813   0.510   1.082   7.263 -0.3007 -0.6170 -0.3403
 6784SOL    HW131814   0.567   1.011   7.234 -1.3569 -1.3374 -0.6722
 6784SOL    HW231815   0.550   1.120   7.340 -0.2881  0.3698 -0.8283
 6785SOL     OW31816   4.259   4.175   2.669  0.7606  0.4385  0.4741
 6785SOL    HW131817   4.280   4.151   2.759 -0.7336  1.9385  1.2332
 6785SOL    HW231818   4.167   4.202   2.672  0.7338  0.2355  1.4607
 6786SOL     OW31819   3.783   2.373   8.158 -0.0533 -0.3364 -0.5197
 6786SOL    HW131820   3.726   2.398   8.084  1.6970  1.4753 -1.2373
 6786SOL    HW231821   3.773   2.278   8.144  2.6335 -0.7571  0.5895
 6787SOL     OW31822   3.076   2.852   7.570 -0.2389  0.6966 -0.3998
 6787SOL    HW131823   3.122   2.770   7.554 -0.7463  0.1797  0.7318
 6787SOL    HW231824   3.037   2.844   7.657 -0.5262 -1.1818 -0.7042
 6788SOL     OW31825   2.796   2.426   6.128 -0.0199  0.4836  0.1947
 6788SOL    HW131826   2.884   2.420   6.165 -0.0543 -2.0672 -0.1477
 6788SOL    HW231827   2.782   2.521   6.125 -0.0101  0.4897  0.3128
 6789SOL     OW31828   4.465   1.311  15.856 -0.4229 -0.4203 -0.0843
 6789SOL    HW131829   4.387   1.281  15.809 -0.1434 -1.0917 -0.1111
 6789SOL    HW231830   4.482   1.230  15.904 -2.5369 -0.3144  0.8586
 6790SOL     OW31831   3.106   3.638   2.223  0.2209 -0.2975 -0.1832
 6790SOL    HW131832   3.124   3.547   2.246 -0.6030  0.0727  2.0392
 6790SOL    HW231833   3.185   3.656   2.172 -0.8484 -0.2513 -1.8132
 6791SOL     OW31834   2.607   1.256   5.868 -0.1660  0.2777  0.2876
 6791SOL    HW131835   2.543   1.266   5.939  0.9821 -1.0650  1.5101
 6791SOL    HW231836   2.656   1.179   5.897 -1.0524 -0.2099  0.4968
 6792SOL     OW31837   0.310   0.418   1.074  0.7121  1.1238 -0.3085
 6792SOL    HW131838   0.360   0.358   1.019 -0.3769  0.5402 -0.6488
 6792SOL    HW231839   0.373   0.478   1.115  0.9896  0.4860  0.2109
 6793SOL     OW31840   0.077   0.266   6.557 -0.2469  0.3697  0.1961
 6793SOL    HW131841   4.710   0.283   6.541 -0.1680  0.5504 -0.0545
 6793SOL    HW231842   0.086   0.190   6.500  0.9338  0.2839  0.4937
 6794SOL     OW31843   2.980   0.914  14.739 -0.0457 -0.5653  0.3342
 6794SOL    HW131844   2.935   0.933  14.656 -0.7122  0.5879  0.9611
 6794SOL    HW231845   2.950   0.983  14.798  1.0850  0.8459 -0.7317
 6795SOL     OW31846   2.748   0.692   4.602  0.6623 -0.1280 -0.5598
 6795SOL    HW131847   2.812   0.740   4.550  1.6308 -0.9171 -0.0983
 6795SOL    HW231848   2.678   0.756   4.613  0.4898 -0.1270 -1.6396
 6796SOL     OW31849   1.867   3.888   9.095 -0.3621 -0.0215  0.2035
 6796SOL    HW131850   1.883   3.980   9.073  0.7317 -0.1409  0.4962
 6796SOL    HW231851   1.873   3.897   9.190  1.3012  2.6995 -0.1484
 6797SOL     OW31852   4.177   1.556   0.054  0.0006 -0.1012 -0.3001
 6797SOL    HW131853   4.114   1.485   0.057  1.2628 -1.2741 -1.4636
 6797SOL    HW231854   4.219   1.537  17.673  1.5760 -2.1983  0.9661
 6798SOL     OW31855   1.093   3.573   7.490 -0.6127  0.5187  0.0432
 6798SOL    HW131856   1.110   3.641   7.554  0.7446 -1.7791  2.1207
 6798SOL    HW231857   1.173   3.570   7.437 -0.9923  0.5550 -0.5417
 6799SOL     OW31858   1.075   3.831   4.159  0.0393 -0.1478  0.1726
 6799SOL    HW131859   1.004   3.811   4.098  1.1399 -1.4057 -0.7021
 6799SOL    HW231860   1.025   3.841   4.240 -1.6340  0.6054 -0.9402
 6800SOL     OW31861   1.095   3.072   7.506 -0.1746  0.1111 -0.4573
 6800SOL    HW131862   1.074   3.141   7.443  0.6539 -0.8642 -1.8118
 6800SOL    HW231863   1.154   3.022   7.449 -1.3193 -0.9147 -0.7394
 6801SOL     OW31864   0.573   4.214   5.744  0.0916  0.1140  0.3707
 6801SOL    HW131865   0.631   4.170   5.682  2.4416  2.8397  0.6465
 6801SOL    HW231866   0.489   4.167   5.737  0.0675  0.2523 -0.2496
 6802SOL     OW31867   0.339   0.100  17.492  0.4359 -0.2054  0.2392
 6802SOL    HW131868   0.332   0.104  17.397 -1.1184  0.0058  0.3702
 6802SOL    HW231869   0.433   0.088  17.507  0.3012 -2.0243 -0.4683
 6803SOL     OW31870   1.430   0.394   0.923  0.0360 -0.3315  0.3077
 6803SOL    HW131871   1.348   0.442   0.911  0.6183  0.6081  0.0565
 6803SOL    HW231872   1.489   0.470   0.930  1.3151 -1.4210  1.3505
 6804SOL     OW31873   2.468   1.608   8.916  0.2925 -0.5197  0.1228
 6804SOL    HW131874   2.472   1.535   8.854  0.0459  0.3470 -0.9005
 6804SOL    HW231875   2.548   1.582   8.962  0.8509  2.6783  0.9408
 6805SOL     OW31876   3.082   1.233   3.709  0.1936  0.2473  0.2950
 6805SOL    HW131877   3.146   1.162   3.717 -2.1613 -1.9441 -0.2606
 6805SOL    HW231878   3.105   1.265   3.622 -4.1344 -1.0396 -1.2885
 6806SOL     OW31879   1.679   4.329   4.671 -0.2437  0.1101  0.0951
 6806SOL    HW131880   1.748   4.392   4.694  0.5130 -0.9391  0.6754
 6806SOL    HW231881   1.738   4.254   4.672 -0.1903  0.1467 -0.3650
 6807SOL     OW31882   1.296   1.993   1.161 -0.0389 -0.3015 -0.3028
 6807SOL    HW131883   1.292   1.910   1.114  0.9724 -1.0722  0.9879
 6807SOL    HW231884   1.220   2.043   1.131 -0.3039 -2.0723 -2.5994
 6808SOL     OW31885   4.597   2.105   0.971 -0.3733  0.4587  0.2124
 6808SOL    HW131886   4.594   2.069   1.060  0.1307  0.3591  0.1902
 6808SOL    HW231887   4.692   2.101   0.961 -0.6412 -2.4821 -1.1136
 6809SOL     OW31888   2.765   0.197   9.925 -0.2482 -0.3813 -0.1270
 6809SOL    HW131889   2.753   0.128   9.990 -0.3914  1.7525  2.1263
 6809SOL    HW231890   2.749   0.152   9.843 -0.7281  2.3046 -1.5207
 6810SOL     OW31891   2.864   1.723   0.049 -0.5660  0.5990 -0.2669
 6810SOL    HW131892   2.839   1.647  17.699 -0.2019 -1.8298  3.0521
 6810SOL    HW231893   2.818   1.702   0.131  0.6797 -0.2041  0.2166
 6811SOL     OW31894   4.511   0.494   7.465  0.2411 -0.5121 -0.1539
 6811SOL    HW131895   4.517   0.585   7.495 -1.5986  0.0951 -1.5897
 6811SOL    HW231896   4.470   0.449   7.538  0.0800  1.1675  0.7901
 6812SOL     OW31897   3.136   0.030   5.922 -0.8196  0.4798 -0.3530
 6812SOL    HW131898   3.198   0.064   5.987 -0.0449 -1.7738  0.0723
 6812SOL    HW231899   3.070   4.716   5.979 -0.7929  2.1875  0.8686
 6813SOL     OW31900   1.134   1.061   5.116 -0.0240  0.3350 -0.6408
 6813SOL    HW131901   1.115   0.996   5.047 -1.3946 -0.9689  0.9638
 6813SOL    HW231902   1.058   1.045   5.171  0.0471  2.0498 -0.0593
 6814SOL     OW31903   0.063   3.904   4.119  0.5762 -0.1556  0.4417
 6814SOL    HW131904   0.055   3.837   4.052  0.1852 -0.1080  0.4403
 6814SOL    HW231905   4.702   3.896   4.160  1.0950 -0.6668  1.4298
 6815SOL     OW31906   0.514   4.504   1.826 -0.4649 -0.7958  0.7005
 6815SOL    HW131907   0.495   4.554   1.747 -1.7384  0.3457  1.7266
 6815SOL    HW231908   0.561   4.428   1.791  1.4386 -0.5833  2.7794
 6816SOL     OW31909   3.947   4.555   9.427 -0.5786  0.1200 -0.1627
 6816SOL    HW131910   3.897   4.545   9.346 -3.2935 -1.7369  1.7141
 6816SOL    HW231911   3.936   4.649   9.441  1.2152  0.3887 -0.6568
 6817SOL     OW31912   1.986   1.733   8.876 -0.1560 -0.4794 -0.2922
 6817SOL    HW131913   1.926   1.662   8.899  1.1936 -1.4375  0.2966
 6817SOL    HW231914   1.939   1.800   8.925  2.5621  1.0031  0.2489
 6818SOL     OW31915   0.497   0.295   8.398  0.3348  0.0404  0.6831
 6818SOL    HW131916   0.490   0.257   8.310  1.3140 -3.4181  2.1177
 6818SOL    HW231917   0.434   0.367   8.395  0.1127 -0.1367  1.1554
 6819SOL     OW31918   1.887   0.712   0.686 -0.2333  0.0311  0.2992
 6819SOL    HW131919   1.877   0.767   0.764  1.3273 -0.1237  0.6149
 6819SOL    HW231920   1.804   0.663   0.678  0.5749 -1.1834 -0.7363
 6820SOL     OW31921   4.212   3.983  16.612 -0.0945  0.0384 -0.3973
 6820SOL    HW131922   4.257   4.036  16.678 -3.4660 -0.7058  2.4836
 6820SOL    HW231923   4.152   3.930  16.664  1.1116  0.7898  1.7830
 6821SOL     OW31924   0.739   3.360  16.522  0.3262  0.3182 -0.1489
 6821SOL    HW131925   0.742   3.446  16.479 -2.2466 -0.4554 -1.8635
 6821SOL    HW231926   0.738   3.387  16.614 -0.2354  0.9963 -0.3519
 6822SOL     OW31927   1.067   0.447   8.012  0.9443 -0.4294  0.0594
 6822SOL    HW131928   1.133   0.379   8.002 -0.9284 -2.0403 -1.2847
 6822SOL    HW231929   1.125   0.523   8.010  0.0407  0.2994  1.3043
 6823SOL     OW31930   0.125   0.465   2.885  0.0088  0.2471 -0.1155
 6823SOL    HW131931   0.054   0.526   2.903 -2.4519 -2.7355  0.0920
 6823SOL    HW231932   0.099   0.395   2.945 -0.2185  0.2271 -0.2409
 6824SOL     OW31933   1.028   1.552   6.052  0.1690  0.2022 -0.2669
 6824SOL    HW131934   1.001   1.613   6.121 -0.2789  0.1735 -0.4209
 6824SOL    HW231935   1.116   1.584   6.032  0.0588  1.2669  0.9628
 6825SOL     OW31936   2.406   1.323  17.012  0.2832  0.0805 -0.1901
 6825SOL    HW131937   2.455   1.318  16.929 -0.7677 -1.9545 -0.7091
 6825SOL    HW231938   2.373   1.412  17.004  1.0061  0.4209  0.5906
 6826SOL     OW31939   3.920   0.266  17.265  0.3127  0.6730 -0.2212
 6826SOL    HW131940   3.896   0.174  17.275 -1.3001  0.9258 -1.6914
 6826SOL    HW231941   3.920   0.272  17.170 -0.0396  0.9540 -0.2040
 6827SOL     OW31942   2.373   4.255   7.358  0.0292 -0.0436 -0.0537
 6827SOL    HW131943   2.337   4.175   7.396 -0.5246  0.4788  0.5084
 6827SOL    HW231944   2.451   4.225   7.310  1.4148  1.4236  1.2510
 6828SOL     OW31945   3.741   1.697  12.656  0.4878  0.3316  0.1484
 6828SOL    HW131946   3.654   1.691  12.615 -0.2539 -2.0537  2.1026
 6828SOL    HW231947   3.772   1.607  12.652  2.3554  0.9980 -0.2863
 6829SOL     OW31948   3.755   3.066   5.099  0.4920  0.5607  0.1795
 6829SOL    HW131949   3.802   3.006   5.156  2.6945  0.4240 -1.7967
 6829SOL    HW231950   3.738   3.000   5.031  0.1484 -0.6735  1.4655
 6830SOL     OW31951   0.874   2.058  15.775 -0.4138  0.0647 -0.3454
 6830SOL    HW131952   0.842   2.025  15.859 -1.1692  1.3560 -0.1178
 6830SOL    HW231953   0.901   1.977  15.733  0.3304  1.7795 -3.2042
 6831SOL     OW31954   3.788   4.163  13.108 -0.6610 -0.1365 -0.1191
 6831SOL    HW131955   3.826   4.230  13.165 -2.4323  0.9037 -0.1658
 6831SOL    HW231956   3.783   4.202  13.021  2.9428  0.8332  0.0998
 6832SOL     OW31957   2.796   3.647  11.727  0.0709  0.2915  0.2445
 6832SOL    HW131958   2.714   3.622  11.684 -1.2328  1.1173  2.2379
 6832SOL    HW231959   2.786   3.605  11.812  1.1278  0.5447  0.4978
 6833SOL     OW31960   2.956   2.288   3.053 -0.1585 -0.7415  0.0307
 6833SOL    HW131961   2.983   2.310   2.964 -1.6306  0.9177 -0.0277
 6833SOL    HW231962   3.023   2.338   3.099  0.2338 -1.5684  0.3437
 6834SOL     OW31963   1.680   1.173  11.278 -0.1405 -0.8755 -0.3161
 6834SOL    HW131964   1.632   1.122  11.344 -0.8393  0.1592 -0.0294
 6834SOL    HW231965   1.618   1.194  11.208 -0.6147 -0.7857  0.1367
 6835SOL     OW31966   0.232   1.011   8.529  0.0071 -0.1072 -0.3457
 6835SOL    HW131967   0.240   0.970   8.443  0.9191  1.2951 -0.9376
 6835SOL    HW231968   0.288   0.957   8.584  0.4029  0.8768  0.2236
 6836SOL     OW31969   2.883   4.117   3.456  0.2009 -0.3695 -0.0382
 6836SOL    HW131970   2.833   4.080   3.529 -0.9753  2.1685  0.4198
 6836SOL    HW231971   2.818   4.096   3.389  0.1740  0.2608 -0.2044
 6837SOL     OW31972   1.178   3.700   7.102  0.4680 -0.7382  0.3179
 6837SOL    HW131973   1.215   3.752   7.173  3.0804  0.4886 -1.8968
 6837SOL    HW231974   1.254   3.644   7.087  0.2632 -0.9681  0.1219
 6838SOL     OW31975   1.633   3.634   2.863 -0.1141  0.0157 -0.0248
 6838SOL    HW131976   1.556   3.589   2.828 -0.4568  0.1262  0.5861
 6838SOL    HW231977   1.658   3.579   2.937  0.7045  0.8574  0.3322
 6839SOL     OW31978   4.519   3.728   9.051 -0.1833  0.4546  0.1333
 6839SOL    HW131979   4.555   3.775   8.975 -1.4547  0.6735 -0.3305
 6839SOL    HW231980   4.543   3.781   9.127 -0.7909  0.9700 -0.0395
 6840SOL     OW31981   2.074   2.990   5.661 -0.1601 -0.6341  0.1636
 6840SOL    HW131982   2.113   3.032   5.584 -0.2923  0.2024  0.5601
 6840SOL    HW231983   1.987   2.972   5.625 -0.9826  3.7176 -0.0615
 6841SOL     OW31984   3.450   0.706  16.891 -0.5917  0.4094  0.1294
 6841SOL    HW131985   3.389   0.721  16.964  0.7037 -0.1298  1.3198
 6841SOL    HW231986   3.417   0.764  16.823 -1.5719  0.4911  0.6609
 6842SOL     OW31987   0.764   3.515   8.486 -0.2099 -0.5000 -0.4062
 6842SOL    HW131988   0.837   3.453   8.481  0.9991  0.6407  3.1423
 6842SOL    HW231989   0.775   3.566   8.406 -0.3723 -0.2090 -0.2458
 6843SOL     OW31990   1.606   3.989   2.637 -0.3153 -0.2695  0.5736
 6843SOL    HW131991   1.607   4.075   2.680  0.1440 -0.7707  1.5600
 6843SOL    HW231992   1.513   3.970   2.645 -0.6843  1.0799 -0.7387
 6844SOL     OW31993   1.016   4.241   5.833  0.3968  0.2263 -0.6195
 6844SOL    HW131994   1.104   4.265   5.805  0.2696 -1.9155 -2.9228
 6844SOL    HW231995   1.025   4.222   5.926 -1.0919 -0.0392 -0.5192
 6845SOL     OW31996   3.786   2.087  15.207 -0.0633 -0.0539 -0.0596
 6845SOL    HW131997   3.746   2.001  15.217  2.9347 -1.1778  2.3860
 6845SOL    HW231998   3.712   2.141  15.179 -0.4868 -0.7417 -0.2650
 6846SOL     OW31999   3.719   1.607  11.802  0.1815 -0.3851 -0.5557
 6846SOL    HW132000   3.758   1.683  11.759  1.2323 -0.0350  0.9964
 6846SOL    HW232001   3.630   1.640  11.814  0.2731 -1.2664  2.5922
 6847SOL     OW32002   1.270   3.993   4.447 -0.0211 -0.3447 -0.1811
 6847SOL    HW132003   1.295   4.043   4.525 -2.7146 -1.1237  1.1647
 6847SOL    HW232004   1.283   3.903   4.476 -1.9403 -0.3216  0.7014
 6848SOL     OW32005   4.185   4.619   7.357  0.4531 -0.2106  0.2595
 6848SOL    HW132006   4.126   4.581   7.293 -1.3099 -0.0134  1.7555
 6848SOL    HW232007   4.134   4.623   7.438  1.6570  1.3400  0.9347
 6849SOL     OW32008   4.437   3.661   7.097  0.3167  0.0209  0.4968
 6849SOL    HW132009   4.463   3.749   7.069 -1.7412  0.5822  0.3386
 6849SOL    HW232010   4.343   3.679   7.101  0.8240  2.0524  2.9763
 6850SOL     OW32011   0.412   0.546  12.891 -0.3568  0.5133 -0.2596
 6850SOL    HW132012   0.332   0.563  12.941 -0.8814 -0.1915 -0.8528
 6850SOL    HW232013   0.425   0.452  12.904  1.7123  0.7829 -0.3401
 6851SOL     OW32014   0.081   1.893   4.095 -0.4373  0.0348  0.5409
 6851SOL    HW132015   0.034   1.955   4.040 -0.5714  1.2702  2.0352
 6851SOL    HW232016   0.124   1.833   4.034 -1.9371 -0.2106 -0.2744
 6852SOL     OW32017   4.149   3.832   6.842 -0.2478  0.2674 -0.0396
 6852SOL    HW132018   4.145   3.741   6.870  3.1052  0.3117  0.4858
 6852SOL    HW232019   4.056   3.854   6.850 -0.4587 -1.6352  2.2966
 6853SOL     OW32020   3.633   2.636  17.507  0.2091  0.2481  0.4382
 6853SOL    HW132021   3.672   2.648  17.594  0.1216 -0.7553  0.6154
 6853SOL    HW232022   3.573   2.562  17.518  0.0236 -0.1874 -3.3550
 6854SOL     OW32023   3.761   3.458   4.585  0.2280  0.1240 -0.0752
 6854SOL    HW132024   3.731   3.377   4.544 -2.4125  0.4319  1.2011
 6854SOL    HW232025   3.855   3.444   4.598  0.2926  1.4475  0.9030
 6855SOL     OW32026   0.372   3.964   7.308 -1.0034  0.6002  0.2162
 6855SOL    HW132027   0.280   3.981   7.290 -1.1626  0.1046  0.5606
 6855SOL    HW232028   0.366   3.899   7.378 -1.9136 -0.3100 -0.7018
 6856SOL     OW32029   3.623   3.804   5.346  0.3193 -0.0173 -0.6508
 6856SOL    HW132030   3.550   3.741   5.341  0.6989 -0.5349  0.4463
 6856SOL    HW232031   3.696   3.749   5.317 -1.9581 -2.9149 -0.9473
 6857SOL     OW32032   0.176   0.649   2.643  0.1741 -0.1155  0.8516
 6857SOL    HW132033   0.145   0.697   2.720  1.6452  2.0413  0.1181
 6857SOL    HW232034   0.093   0.614   2.611  0.7977  2.1785 -3.4644
 6858SOL     OW32035   1.014   2.156   3.104  0.4715 -0.3206  0.3265
 6858SOL    HW132036   1.063   2.075   3.114  2.6466  1.0440  0.6835
 6858SOL    HW232037   1.078   2.200   3.048  0.7230 -1.6562 -0.4286
 6859SOL     OW32038   4.258   3.983   7.246 -0.8000  0.4068  0.4553
 6859SOL    HW132039   4.176   3.940   7.220 -0.9225  0.7829  0.2155
 6859SOL    HW232040   4.222   4.070   7.263 -0.5377  0.4230  0.9279
 6860SOL     OW32041   4.328   0.648  10.967  0.1049 -0.0950  0.8435
 6860SOL    HW132042   4.251   0.649  11.023  0.0067  2.7274  0.6621
 6860SOL    HW232043   4.378   0.723  10.997  1.7989 -0.9647  0.2256
 6861SOL     OW32044   4.194   0.595   3.787 -0.1560  0.1166  0.2220
 6861SOL    HW132045   4.184   0.562   3.876  1.5220  0.7814  0.6513
 6861SOL    HW232046   4.107   0.635   3.794 -1.1356 -2.1114  0.7872
 6862SOL     OW32047   1.791   0.231   9.033  0.4393 -0.2987  0.2338
 6862SOL    HW132048   1.860   0.179   8.993  0.0122 -2.0676  1.8195
 6862SOL    HW232049   1.724   0.228   8.965 -0.1372 -0.8959  0.8354
 6863SOL     OW32050   1.022   4.700   5.827  0.3628 -0.1710 -0.1198
 6863SOL    HW132051   1.013   4.654   5.744  0.2812 -0.1671 -0.1134
 6863SOL    HW232052   1.085   0.045   5.811  0.0800 -0.2759 -1.6794
 6864SOL     OW32053   2.938   3.559   1.265  0.5908  0.1065 -0.2383
 6864SOL    HW132054   3.029   3.548   1.240  0.4751 -0.1600 -0.5447
 6864SOL    HW232055   2.924   3.646   1.227 -0.0107 -0.6106 -1.6733
 6865SOL     OW32056   1.491   1.868  10.947  0.1345 -0.4616 -0.0876
 6865SOL    HW132057   1.558   1.802  10.927 -1.8079 -2.6859  0.7899
 6865SOL    HW232058   1.540   1.950  10.941 -0.2018 -0.2406  0.1807
 6866SOL     OW32059   3.508   0.747   6.667 -0.4558 -0.7614 -0.0311
 6866SOL    HW132060   3.482   0.834   6.636 -1.6107 -1.3436 -0.7199
 6866SOL    HW232061   3.586   0.738   6.612 -0.9670  2.1116 -1.2421
 6867SOL     OW32062   2.022   4.704   2.864  0.0162 -1.1239 -0.5075
 6867SOL    HW132063   1.983   0.027   2.791  0.2004 -0.6680 -0.3044
 6867SOL    HW232064   2.054   4.628   2.815 -2.2804  1.3263 -5.8038
 6868SOL     OW32065   0.789   1.726   4.991 -0.1746  0.6337 -0.4253
 6868SOL    HW132066   0.719   1.737   4.927 -2.0428 -0.8841  1.3807
 6868SOL    HW232067   0.867   1.758   4.944  0.4626  0.0079  0.2102
 6869SOL     OW32068   0.602   0.901  10.749  0.0603  0.2274  0.3423
 6869SOL    HW132069   0.612   0.988  10.786 -0.1053 -0.5834  2.2692
 6869SOL    HW232070   0.681   0.903  10.694 -1.0151 -0.0396 -1.2344
 6870SOL     OW32071   3.590   2.071  14.834 -0.2872 -0.2589  0.1259
 6870SOL    HW132072   3.639   2.024  14.767  2.9397  0.2960  2.1129
 6870SOL    HW232073   3.549   1.996  14.878 -1.5127  1.5152  2.0290
 6871SOL     OW32074   3.917   4.536   5.005 -0.0943  0.1172 -0.2951
 6871SOL    HW132075   3.911   4.445   5.035  1.9857 -0.0627 -0.4152
 6871SOL    HW232076   3.985   4.532   4.938 -0.5556 -0.8495 -0.7005
 6872SOL     OW32077   1.433   1.800  16.873  0.3555 -0.2871  0.0145
 6872SOL    HW132078   1.379   1.880  16.875  1.4545  0.4255  1.6853
 6872SOL    HW232079   1.362   1.736  16.868 -1.3398  1.8071 -2.6954
 6873SOL     OW32080   2.934   4.168   7.521 -0.4074  0.0037 -0.1555
 6873SOL    HW132081   2.897   4.257   7.527 -0.4110 -0.0559  0.7367
 6873SOL    HW232082   2.937   4.161   7.426  1.3372  0.4143 -0.1384
 6874SOL     OW32083   3.527   1.325   7.257 -0.1540  0.4974 -0.3208
 6874SOL    HW132084   3.554   1.254   7.198  1.3604 -0.9629  2.1662
 6874SOL    HW232085   3.457   1.277   7.303  0.4878 -0.3955 -0.2744
 6875SOL     OW32086   3.343   3.561   8.821  0.1643  0.0409 -0.0275
 6875SOL    HW132087   3.357   3.472   8.788  0.0941  0.0156  0.0113
 6875SOL    HW232088   3.393   3.567   8.902 -0.1712  1.4889  0.0701
 6876SOL     OW32089   3.313   3.892   8.819 -0.6933 -0.3803  0.3929
 6876SOL    HW132090   3.387   3.854   8.867 -2.0032 -0.8652  2.0489
 6876SOL    HW232091   3.249   3.888   8.890 -1.1054  0.2455  0.0571
 6877SOL     OW32092   3.593   2.846   1.599 -0.2283  0.0401  0.5705
 6877SOL    HW132093   3.591   2.814   1.509  1.4779 -0.3742  0.6814
 6877SOL    HW232094   3.502   2.878   1.604  0.5038  2.2643 -0.4305
 6878SOL     OW32095   3.533   4.043  11.485  0.0123  0.1097 -0.1668
 6878SOL    HW132096   3.523   4.111  11.418  0.3193  0.6188  0.3123
 6878SOL    HW232097   3.609   4.070  11.537  0.9516  0.9616 -1.9603
 6879SOL     OW32098   1.370   0.333   3.383  0.0093  0.0642 -0.1465
 6879SOL    HW132099   1.449   0.288   3.413 -0.1816 -1.1679 -1.4609
 6879SOL    HW232100   1.391   0.426   3.376  1.4989 -0.3903 -1.9789
 6880SOL     OW32101   2.604   4.100   7.269  0.0416  0.5101 -0.2037
 6880SOL    HW132102   2.698   4.114   7.255 -0.0247 -0.6114 -1.8356
 6880SOL    HW232103   2.609   4.028   7.331 -1.7093  0.6388  0.0721
 6881SOL     OW32104   1.099   0.442   7.565 -0.0822 -0.3092  0.0076
 6881SOL    HW132105   1.086   0.425   7.472 -0.4318  0.9817 -0.1811
 6881SOL    HW232106   1.012   0.419   7.599 -0.1889  0.0450 -0.0233
 6882SOL     OW32107   3.782   1.297   0.506  0.3465  0.5239 -0.0695
 6882SOL    HW132108   3.688   1.305   0.519  0.2809 -2.9769  1.6028
 6882SOL    HW232109   3.792   1.202   0.509 -0.0330  0.4520 -1.1365
 6883SOL     OW32110   1.106   0.603   5.902 -0.0735 -0.2251  0.6065
 6883SOL    HW132111   1.178   0.601   5.966  0.3237  0.2391  0.1813
 6883SOL    HW232112   1.035   0.643   5.952  1.0686 -1.6318  3.3560
 6884SOL     OW32113   4.492   1.097   7.307  0.4524  0.0309  0.0423
 6884SOL    HW132114   4.412   1.148   7.297 -0.0447 -0.3221  2.2161
 6884SOL    HW232115   4.551   1.148   7.363 -0.4243 -1.0985  1.9787
 6885SOL     OW32116   1.962   3.825   7.773 -0.3130  0.4195  0.7344
 6885SOL    HW132117   2.032   3.817   7.838 -0.0936 -0.9567  0.3330
 6885SOL    HW232118   1.969   3.920   7.763 -2.2264  0.4422 -0.3807
 6886SOL     OW32119   1.775   1.508  11.849 -0.1919 -0.1448  0.0906
 6886SOL    HW132120   1.793   1.488  11.757  0.7670 -1.2887  0.5365
 6886SOL    HW232121   1.864   1.527  11.877  0.5509 -1.1861 -1.5593
 6887SOL     OW32122   1.012   1.188  13.969  0.3932 -0.2340 -0.1193
 6887SOL    HW132123   1.074   1.130  14.014  1.5930 -0.4593 -2.0742
 6887SOL    HW232124   0.928   1.146  13.986 -0.9433  2.0774 -0.9935
 6888SOL     OW32125   3.231   3.123   3.562 -0.3397 -0.5780  0.2298
 6888SOL    HW132126   3.140   3.135   3.533  0.3924 -0.0604 -1.8507
 6888SOL    HW232127   3.242   3.036   3.524  0.8175 -1.3941  2.4062
 6889SOL     OW32128   3.505   0.030   8.523  0.2618  0.3502  0.3412
 6889SOL    HW132129   3.516   0.087   8.599 -0.0728 -1.6093  1.8805
 6889SOL    HW232130   3.568   0.073   8.466  0.4798  0.2566  0.5107
 6890SOL     OW32131   0.693   3.594   0.267 -0.1503  0.0312 -0.0294
 6890SOL    HW132132   0.679   3.653   0.341  1.2239  0.9675 -0.5266
 6890SOL    HW232133   0.668   3.515   0.315  1.4499 -0.8246 -0.6166
 6891SOL     OW32134   3.285   0.885   9.639 -0.2155  0.2081  0.4930
 6891SOL    HW132135   3.214   0.824   9.659 -0.5261  0.6314  0.6722
 6891SOL    HW232136   3.240   0.967   9.659  2.3136  1.5953  0.4364
 6892SOL     OW32137   0.783   2.636  11.841  0.0087 -0.3642 -0.0235
 6892SOL    HW132138   0.868   2.655  11.801  0.0133 -0.3785 -0.0207
 6892SOL    HW232139   0.735   2.717  11.827  0.6740  0.4145  2.2607
 6893SOL     OW32140   1.562   1.600  15.967  0.1911  0.0444  0.1354
 6893SOL    HW132141   1.554   1.679  15.914  0.3398 -0.1406 -0.1626
 6893SOL    HW232142   1.656   1.582  15.956 -0.3253 -2.1459 -0.6727
 6894SOL     OW32143   3.784   2.439  16.002  0.5243  0.3378 -0.2896
 6894SOL    HW132144   3.722   2.410  16.068  1.3926 -1.2738 -0.1722
 6894SOL    HW232145   3.737   2.447  15.919 -2.3455  0.9573  1.4068
 6895SOL     OW32146   1.455   1.105   6.735  0.4967  0.4167  0.4735
 6895SOL    HW132147   1.409   1.120   6.818 -0.5083 -0.8460  0.1556
 6895SOL    HW232148   1.390   1.148   6.678 -0.0144  1.2286  1.6616
 6896SOL     OW32149   0.362   2.395   5.419  0.3154  0.3951 -0.5561
 6896SOL    HW132150   0.290   2.449   5.387  0.8493  0.9712 -0.7681
 6896SOL    HW232151   0.314   2.314   5.436  0.1751  0.4312 -0.7839
 6897SOL     OW32152   2.540   4.514  10.954  0.1848  0.0626 -0.1409
 6897SOL    HW132153   2.597   4.566  11.011 -1.1344 -0.9536  2.0972
 6897SOL    HW232154   2.551   4.423  10.983 -0.9931  0.9125  3.0145
 6898SOL     OW32155   2.701   2.367  11.638 -0.1627  0.0938  0.5836
 6898SOL    HW132156   2.767   2.432  11.613 -0.4488 -0.3183 -1.2613
 6898SOL    HW232157   2.750   2.285  11.643  1.4348  1.0246  0.3811
 6899SOL     OW32158   1.142   0.054   5.430 -0.1596 -0.0818  0.2138
 6899SOL    HW132159   1.167   4.695   5.467 -1.3375 -0.3560  0.3813
 6899SOL    HW232160   1.050   0.042   5.408 -0.2888  1.2943  0.0205
 6900SOL     OW32161   2.036   3.670   4.098 -0.0872  0.0228 -0.5637
 6900SOL    HW132162   2.044   3.671   4.194  0.2769 -0.0894 -0.5914
 6900SOL    HW232163   2.112   3.616   4.077 -0.1631 -0.1593 -0.3745
 6901SOL     OW32164   2.530   1.100   7.336 -0.2318 -0.7865  0.1070
 6901SOL    HW132165   2.623   1.125   7.334 -0.2463 -0.5776  1.9227
 6901SOL    HW232166   2.538   1.033   7.404  2.4354  1.0991  1.6540
 6902SOL     OW32167   2.877   2.025   7.419 -0.5869 -0.6667 -0.0496
 6902SOL    HW132168   2.808   2.071   7.466  0.1901 -0.9199  1.3560
 6902SOL    HW232169   2.817   2.006   7.347  1.4306  0.2623 -1.9884
 6903SOL     OW32170   3.507   4.299   5.674 -0.5355 -0.1432  0.2349
 6903SOL    HW132171   3.495   4.382   5.628 -1.3402  0.3944  1.4279
 6903SOL    HW232172   3.597   4.285   5.647 -0.0943  2.9897  0.0357
 6904SOL     OW32173   1.014   3.457   9.124 -0.4412 -0.1806 -0.5316
 6904SOL    HW132174   1.103   3.465   9.156 -0.5100 -0.7993 -0.1825
 6904SOL    HW232175   1.034   3.446   9.031  0.4519  0.1535 -0.3756
 6905SOL     OW32176   0.265   3.445   2.800  0.5547  0.5978  0.6057
 6905SOL    HW132177   0.180   3.464   2.840  1.0841  0.1434  1.9479
 6905SOL    HW232178   0.257   3.496   2.719 -0.9292  2.5541  1.9736
 6906SOL     OW32179   3.642   2.089   6.776  0.8115  0.3612  0.1132
 6906SOL    HW132180   3.704   2.089   6.703  1.0801  1.1633  0.3401
 6906SOL    HW232181   3.681   2.023   6.833  0.1084  0.1631  0.3717
 6907SOL     OW32182   2.517   1.945  15.277  0.7002 -0.2856 -0.6020
 6907SOL    HW132183   2.552   1.856  15.281 -2.6522 -1.6287 -1.0963
 6907SOL    HW232184   2.556   1.991  15.350 -0.2894  2.0350 -1.5519
 6908SOL     OW32185   0.100   1.222   4.242 -0.7115  0.1297  0.2728
 6908SOL    HW132186   0.190   1.193   4.228 -0.9439  0.2931 -1.5253
 6908SOL    HW232187   0.099   1.310   4.204  0.9820 -0.9537 -2.2379
 6909SOL     OW32188   3.284   0.556   1.399  0.1130  0.5917  0.0920
 6909SOL    HW132189   3.255   0.475   1.442  0.6384 -0.4000 -1.4059
 6909SOL    HW232190   3.323   0.605   1.472 -0.2707  1.8813 -0.5782
 6910SOL     OW32191   4.533   0.144   5.483  0.0440 -0.4692 -0.1355
 6910SOL    HW132192   4.479   0.071   5.453  0.5666 -1.0737  0.4041
 6910SOL    HW232193   4.511   0.212   5.419  1.4565 -1.6255 -1.8380
 6911SOL     OW32194   2.779   4.586  13.107 -0.0719 -0.2760  0.0086
 6911SOL    HW132195   2.743   4.646  13.041  2.7172  0.9793 -0.3970
 6911SOL    HW232196   2.745   4.617  13.191  2.2192  0.4339  0.6784
 6912SOL     OW32197   3.485   3.087   6.952 -0.2950 -0.2405 -0.1913
 6912SOL    HW132198   3.458   3.083   7.044  2.2594 -2.9162  0.4635
 6912SOL    HW232199   3.549   3.156   6.968  0.5424 -1.2556  0.8792
 6913SOL     OW32200   3.874   1.756   8.321  0.6425 -0.1168 -0.2417
 6913SOL    HW132201   3.916   1.677   8.286 -0.2175 -0.9680  0.6162
 6913SOL    HW232202   3.903   1.833   8.273 -0.7792  1.2596  1.0701
 6914SOL     OW32203   0.223   4.307   8.752  0.3907  0.9805 -0.3108
 6914SOL    HW132204   0.138   4.347   8.773  0.2648 -0.5294  1.9901
 6914SOL    HW232205   0.228   4.335   8.660  1.3726  1.6768 -0.0446
 6915SOL     OW32206   0.501   2.880  10.507  0.1810  0.0322  0.4280
 6915SOL    HW132207   0.544   2.874  10.422 -0.2872  1.1707  0.1049
 6915SOL    HW232208   0.564   2.912  10.572 -0.9219 -1.3505  2.1641
 6916SOL     OW32209   0.529   4.434   5.434 -0.3871 -0.0819  0.2492
 6916SOL    HW132210   0.482   4.387   5.502  0.7957 -3.5200 -1.3442
 6916SOL    HW232211   0.509   4.526   5.453 -1.6692 -0.3070 -0.0260
 6917SOL     OW32212   4.454   0.306   5.901  0.2036 -0.2934 -0.1569
 6917SOL    HW132213   4.500   0.369   5.956 -2.7087  2.0725 -0.4411
 6917SOL    HW232214   4.528   0.278   5.848 -0.1821  1.6324 -1.7043
 6918SOL     OW32215   2.220   2.490   8.055 -0.0586  0.0478  0.1860
 6918SOL    HW132216   2.273   2.512   7.978  1.7322  1.6893  1.8576
 6918SOL    HW232217   2.153   2.558   8.049 -1.1650 -0.8090  2.7645
 6919SOL     OW32218   3.259   2.947   6.320  0.0574  0.3101 -0.3111
 6919SOL    HW132219   3.204   2.980   6.391 -0.1784 -0.8943  0.0749
 6919SOL    HW232220   3.292   2.865   6.357  2.7434  2.1321  1.3824
 6920SOL     OW32221   4.492   1.348  16.198 -0.2569 -0.2307  0.0955
 6920SOL    HW132222   4.565   1.406  16.179  0.7734 -1.3886  0.5529
 6920SOL    HW232223   4.486   1.341  16.293  1.9224 -0.8356  0.1715
 6921SOL     OW32224   3.014   3.883   2.503 -0.4073 -0.1376 -0.4148
 6921SOL    HW132225   2.924   3.914   2.496 -0.0814  1.1310  1.1403
 6921SOL    HW232226   2.998   3.803   2.554 -0.2060 -1.6321 -2.6836
 6922SOL     OW32227   2.719   2.370   8.017 -0.8977  0.5990  1.0162
 6922SOL    HW132228   2.650   2.309   7.992 -1.1919  0.6011  1.8195
 6922SOL    HW232229   2.753   2.333   8.098 -0.2113  0.4915  0.6832
 6923SOL     OW32230   1.101   0.240   1.090 -0.3267  0.3565  0.1409
 6923SOL    HW132231   1.097   0.245   0.994 -1.6947  1.7009  0.2741
 6923SOL    HW232232   1.027   0.298   1.106  0.3330  1.6357 -1.3648
 6924SOL     OW32233   2.443   2.683   9.560  0.0392 -0.3587 -0.2710
 6924SOL    HW132234   2.352   2.661   9.579  0.0029 -0.9897 -1.1793
 6924SOL    HW232235   2.487   2.660   9.641 -1.7294  1.2546  1.1512
 6925SOL     OW32236   4.696   1.534  16.126  0.1979 -0.4262 -0.4035
 6925SOL    HW132237   4.641   1.528  16.048 -1.1897  1.5652  0.4487
 6925SOL    HW232238   4.714   1.627  16.136  0.1315 -0.3259 -1.2359
 6926SOL     OW32239   2.610   2.289   3.503  0.8376 -0.1378  0.4564
 6926SOL    HW132240   2.668   2.324   3.437 -1.3860 -1.6244 -2.2743
 6926SOL    HW232241   2.658   2.212   3.534 -0.9087 -0.4064  2.5415
 6927SOL     OW32242   3.129   3.234  17.274  0.2460  0.0861  0.1375
 6927SOL    HW132243   3.155   3.273  17.191  0.9552  0.5681  0.5906
 6927SOL    HW232244   3.094   3.154  17.235 -1.6768  1.6144 -1.2249
 6928SOL     OW32245   4.224   3.712   9.073  0.8572 -0.2873 -0.0247
 6928SOL    HW132246   4.219   3.796   9.119  1.0343  0.0326 -0.5936
 6928SOL    HW232247   4.319   3.710   9.067  0.9248  0.5348  0.6222
 6929SOL     OW32248   2.510   2.441  14.361  0.4593  0.2326  0.6768
 6929SOL    HW132249   2.439   2.458  14.299  0.7081  1.6918  0.7789
 6929SOL    HW232250   2.586   2.478  14.316  2.2243 -0.8174  2.8064
 6930SOL     OW32251   0.900   0.854  14.020  0.3460 -0.1990 -0.2476
 6930SOL    HW132252   0.849   0.935  14.030  2.5784  1.3472 -1.5480
 6930SOL    HW232253   0.973   0.888  14.072 -0.1312  1.7975 -0.8858
 6931SOL     OW32254   2.131   4.399   0.451  0.1015 -0.1000  0.5004
 6931SOL    HW132255   2.091   4.318   0.482 -1.5036  0.0034 -1.3160
 6931SOL    HW232256   2.193   4.418   0.522  0.2036 -0.7107  0.5747
 6932SOL     OW32257   2.982   1.207   3.179  0.3606  0.4750  0.1796
 6932SOL    HW132258   2.911   1.210   3.242  0.0120 -1.1744 -0.1325
 6932SOL    HW232259   2.992   1.117   3.145  0.4298  1.0874 -1.4460
 6933SOL     OW32260   2.388   3.074   5.325 -0.7326 -0.0095  0.2342
 6933SOL    HW132261   2.350   3.016   5.259  0.6347 -0.7485  0.0900
 6933SOL    HW232262   2.482   3.053   5.319 -0.8395 -0.1851 -0.8349
 6934SOL     OW32263   1.696   3.901   8.884 -0.3253 -0.5383 -0.1134
 6934SOL    HW132264   1.765   3.856   8.932 -0.0633 -0.9168 -0.8484
 6934SOL    HW232265   1.683   3.976   8.942 -0.1863 -2.3442  2.2704
 6935SOL     OW32266   0.332   0.719   6.736  0.1195  0.5151 -0.4650
 6935SOL    HW132267   0.345   0.624   6.737  0.1477  0.5319  2.3423
 6935SOL    HW232268   0.401   0.747   6.675  0.4059  0.7954 -0.0156
 6936SOL     OW32269   2.169   1.957  17.455  0.1645  0.1423  0.4613
 6936SOL    HW132270   2.133   2.008  17.383 -0.7489 -1.2097 -0.0456
 6936SOL    HW232271   2.219   2.019  17.508  0.1222 -0.7680  1.5604
 6937SOL     OW32272   3.367   4.635  13.869 -0.7834  0.3100 -0.2311
 6937SOL    HW132273   3.400   4.550  13.842 -1.8200  0.0408 -0.6462
 6937SOL    HW232274   3.444   4.691  13.858  0.7341 -1.6269  0.4882
 6938SOL     OW32275   0.124   3.535   7.155 -0.2458 -0.4365 -0.0377
 6938SOL    HW132276   0.063   3.516   7.227 -0.0644  2.1179  0.7979
 6938SOL    HW232277   0.113   3.461   7.096  0.3906  0.5515 -1.3881
 6939SOL     OW32278   1.014   1.934   1.898 -0.2774  0.4120  0.1946
 6939SOL    HW132279   0.935   1.960   1.851 -0.2622  0.3355  0.1264
 6939SOL    HW232280   1.023   2.011   1.955  0.8773  0.7711 -0.4850
 6940SOL     OW32281   1.924   2.657   2.400  0.2393 -0.3994  0.5236
 6940SOL    HW132282   1.939   2.680   2.492 -0.7051  1.0839  0.2922
 6940SOL    HW232283   1.966   2.731   2.357 -0.3557 -0.3934 -0.0351
 6941SOL     OW32284   0.133   4.071  10.074  0.2859  0.1560  0.3356
 6941SOL    HW132285   0.063   4.049  10.136 -0.5131  1.2824 -0.1788
 6941SOL    HW232286   0.099   4.039   9.991  0.1629 -0.2128  0.5246
 6942SOL     OW32287   1.707   3.784   0.218  0.1416 -0.4442  0.0678
 6942SOL    HW132288   1.696   3.693   0.244 -0.5669 -0.8654 -1.7306
 6942SOL    HW232289   1.800   3.788   0.239 -0.3674  0.3445  2.1605
 6943SOL     OW32290   1.267   2.287  14.807  0.4402 -0.0860 -0.3661
 6943SOL    HW132291   1.180   2.264  14.775 -0.0583  1.0239  0.1884
 6943SOL    HW232292   1.320   2.253  14.735 -0.7590 -0.5300 -1.0318
 6944SOL     OW32293   1.619   1.177   0.706 -0.3197  0.1950  0.1342
 6944SOL    HW132294   1.708   1.208   0.722  0.4406 -0.8538 -2.0989
 6944SOL    HW232295   1.595   1.151   0.795 -1.7145 -3.9395 -1.4603
 6945SOL     OW32296   3.866   1.374   2.734  0.9545  0.2975  0.3123
 6945SOL    HW132297   3.821   1.300   2.776  0.2603 -1.1912 -3.0653
 6945SOL    HW232298   3.799   1.442   2.740 -1.0999 -1.6694 -0.0800
 6946SOL     OW32299   1.177   1.779   4.549  0.5971 -0.2346 -0.0414
 6946SOL    HW132300   1.083   1.770   4.536  0.8826 -2.2326 -0.6744
 6946SOL    HW232301   1.212   1.767   4.460  1.2037  2.6617 -0.1979
 6947SOL     OW32302   3.878   2.524  12.891  0.1834  0.0398  0.0930
 6947SOL    HW132303   3.909   2.439  12.922  1.9003  1.1542  1.3945
 6947SOL    HW232304   3.947   2.584  12.917  1.1037 -0.4033 -1.3137
 6948SOL     OW32305   4.311   2.607  11.327  0.2502 -0.6363 -1.1640
 6948SOL    HW132306   4.397   2.649  11.328  0.5021 -1.1273 -1.9805
 6948SOL    HW232307   4.255   2.685  11.317  1.0328 -0.5505 -4.6755
 6949SOL     OW32308   4.246   2.969   9.091  0.1282  0.4709 -0.2592
 6949SOL    HW132309   4.155   2.978   9.063 -0.1443  0.4299  0.6312
 6949SOL    HW232310   4.287   3.041   9.043  0.7036  0.4646  0.2385
 6950SOL     OW32311   1.708   4.256   5.644 -0.4695  0.0592  0.1190
 6950SOL    HW132312   1.696   4.240   5.738  0.7008  2.3745  0.6605
 6950SOL    HW232313   1.790   4.305   5.647 -0.3799 -0.3193  4.2100
 6951SOL     OW32314   2.199   1.970   6.555  0.2525 -0.1819  0.7138
 6951SOL    HW132315   2.135   2.018   6.608 -0.5173 -1.7765  1.2607
 6951SOL    HW232316   2.145   1.956   6.478  0.6588  0.9497  0.2256
 6952SOL     OW32317   1.589   2.897   3.396  0.5086  0.6769  0.4679
 6952SOL    HW132318   1.513   2.838   3.388  0.1496  1.2108 -0.0280
 6952SOL    HW232319   1.551   2.969   3.445 -0.8364 -0.8480  1.6919
 6953SOL     OW32320   0.298   3.439   1.763  0.2670  0.4138 -0.0792
 6953SOL    HW132321   0.216   3.389   1.768  1.3268 -1.4933 -1.7052
 6953SOL    HW232322   0.357   3.364   1.756  0.3758  0.4985 -0.0587
 6954SOL     OW32323   0.688   0.613  12.106 -0.0416  0.0874 -0.1165
 6954SOL    HW132324   0.692   0.655  12.020  2.6784 -3.8274 -1.9320
 6954SOL    HW232325   0.678   0.683  12.171 -1.7393  0.0398 -0.3396
 6955SOL     OW32326   1.116   2.879  16.052 -0.4582  0.5748  0.5334
 6955SOL    HW132327   1.174   2.875  15.975 -2.0632 -2.8823 -0.4704
 6955SOL    HW232328   1.047   2.930  16.009  0.5240  0.7523 -0.8641
 6956SOL     OW32329   3.729   0.634   5.785 -0.4347  0.2617 -0.3286
 6956SOL    HW132330   3.641   0.624   5.751 -0.8400 -0.5961  0.9509
 6956SOL    HW232331   3.717   0.700   5.854  2.2823 -2.2677  2.6031
 6957SOL     OW32332   4.404   2.304   8.476  0.2316 -0.1978 -0.0892
 6957SOL    HW132333   4.424   2.243   8.546 -0.5988 -0.5106 -0.1286
 6957SOL    HW232334   4.413   2.385   8.527  2.4599 -0.7242  0.3422
 6958SOL     OW32335   4.327   1.745  12.401 -1.1272  0.4607  0.1761
 6958SOL    HW132336   4.272   1.690  12.456 -0.1671 -1.0478 -0.3731
 6958SOL    HW232337   4.280   1.828  12.405  1.4800  1.8832  1.5727
 6959SOL     OW32338   2.093   0.974   2.542 -0.0806 -0.3547  0.2810
 6959SOL    HW132339   2.156   1.016   2.483 -3.1551  0.1843 -2.6304
 6959SOL    HW232340   2.064   1.050   2.593  1.0477  0.6845 -0.6295
 6960SOL     OW32341   2.371   2.511   8.570  0.1265 -0.0218  0.3080
 6960SOL    HW132342   2.314   2.501   8.646  0.8154  0.6492  0.9124
 6960SOL    HW232343   2.322   2.579   8.523 -1.9655 -1.3395  0.5876
 6961SOL     OW32344   1.392   2.993   2.876 -0.3390  0.0453  0.2851
 6961SOL    HW132345   1.408   2.904   2.845  2.2848  0.2892  0.9252
 6961SOL    HW232346   1.449   3.041   2.816 -3.5162  1.3726 -1.6694
 6962SOL     OW32347   3.401   4.609   3.089  0.5189 -0.2432 -0.4083
 6962SOL    HW132348   3.429   4.677   3.028  1.4212 -1.5706 -1.4892
 6962SOL    HW232349   3.462   4.538   3.067  0.9263  0.5303 -1.7849
 6963SOL     OW32350   0.401   1.919   9.292  0.2037 -0.3731 -0.3104
 6963SOL    HW132351   0.347   1.851   9.332 -1.4811  1.0000 -0.2380
 6963SOL    HW232352   0.478   1.873   9.260 -0.3728 -0.0970 -2.1101
 6964SOL     OW32353   2.378   1.162   1.088 -0.4594  0.2956  0.2594
 6964SOL    HW132354   2.407   1.071   1.079 -0.7771  0.4244 -1.9205
 6964SOL    HW232355   2.323   1.170   1.011 -1.8028  1.2376  1.3134
 6965SOL     OW32356   3.315   1.356   8.326  0.3664 -0.9826  0.4575
 6965SOL    HW132357   3.226   1.328   8.348 -0.0954 -0.0340 -0.1879
 6965SOL    HW232358   3.305   1.448   8.352  0.0628 -0.8840 -0.0012
 6966SOL     OW32359   4.450   3.857   7.701  0.3295  0.4683 -0.3370
 6966SOL    HW132360   4.454   3.830   7.610  0.6525 -1.4762  0.2328
 6966SOL    HW232361   4.392   3.790   7.738  0.8785 -0.0476 -0.4051
 6967SOL     OW32362   4.621   4.330   3.152 -0.3939  0.2847 -1.0126
 6967SOL    HW132363   4.647   4.412   3.111  1.6970 -0.7119 -1.6965
 6967SOL    HW232364   4.705   4.285   3.165 -0.0838  0.5937 -1.9960
 6968SOL     OW32365   1.323   0.251   5.147 -0.4057  0.3883  0.3755
 6968SOL    HW132366   1.387   0.214   5.208 -0.1059 -0.7466 -0.6172
 6968SOL    HW232367   1.350   0.343   5.150  0.3398  0.1901 -0.3312
 6969SOL     OW32368   4.249   1.217   3.016  0.0533 -0.1937  0.1131
 6969SOL    HW132369   4.255   1.123   2.997  0.8275  0.0125 -0.6679
 6969SOL    HW232370   4.302   1.251   2.944  0.3290 -1.1916 -0.1543
 6970SOL     OW32371   4.686   1.899   4.619  0.2480  0.2641 -0.3077
 6970SOL    HW132372   4.618   1.939   4.564 -0.2193 -0.8130 -0.5066
 6970SOL    HW232373   4.639   1.838   4.675  0.7106  2.4925  2.4749
 6971SOL     OW32374   1.867   0.041   5.568 -0.4707  0.1719  0.4388
 6971SOL    HW132375   1.925   0.118   5.567 -0.2551 -0.0134 -0.8374
 6971SOL    HW232376   1.792   0.076   5.615 -0.8938  0.1937 -0.2531
 6972SOL     OW32377   2.922   3.220   6.189  0.3616  0.4697  0.3182
 6972SOL    HW132378   3.007   3.256   6.215  1.2793 -0.5985 -1.2414
 6972SOL    HW232379   2.872   3.216   6.271 -0.1110  1.8068  0.1015
 6973SOL     OW32380   4.639   2.163  13.352 -0.3959 -0.5856  0.4224
 6973SOL    HW132381   4.681   2.083  13.383  3.0285  1.2378  0.6099
 6973SOL    HW232382   4.576   2.177  13.423 -0.3873 -2.2009  0.7323
 6974SOL     OW32383   3.457   2.566   1.238  0.2223 -0.1088 -1.0112
 6974SOL    HW132384   3.392   2.574   1.169 -0.5909  0.3431 -0.1942
 6974SOL    HW232385   3.495   2.483   1.210  1.2787  0.8106 -2.2944
 6975SOL     OW32386   3.396   0.552   6.055 -0.1381  0.8182 -0.1054
 6975SOL    HW132387   3.310   0.589   6.076 -0.3032 -0.6520  1.8614
 6975SOL    HW232388   3.452   0.611   6.104  1.0719 -0.7708  0.4237
 6976SOL     OW32389   4.403   2.562   1.916 -0.1306  0.3903 -0.1923
 6976SOL    HW132390   4.335   2.629   1.920 -1.3024 -0.6477 -2.9637
 6976SOL    HW232391   4.383   2.513   1.996  1.8283 -2.1692 -1.2556
 6977SOL     OW32392   2.657   0.711   8.618 -0.2503 -0.5259 -0.8104
 6977SOL    HW132393   2.646   0.617   8.631 -0.0829 -0.6490 -1.5738
 6977SOL    HW232394   2.565   0.736   8.614 -0.1006  0.3066  0.6350
 6978SOL     OW32395   0.865   2.740   4.565  0.8287  0.8805  0.1122
 6978SOL    HW132396   0.906   2.692   4.636 -0.6887 -1.1079 -0.3370
 6978SOL    HW232397   0.796   2.791   4.608 -0.3166  0.4538 -1.1767
 6979SOL     OW32398   0.623   0.878   3.148 -0.6468  0.4983  0.4396
 6979SOL    HW132399   0.697   0.930   3.178  0.2252 -0.6004  0.1938
 6979SOL    HW232400   0.586   0.956   3.106  0.7517  0.4934 -0.7981
 6980SOL     OW32401   3.292   1.350   4.277  0.9387  0.4303 -0.0063
 6980SOL    HW132402   3.264   1.338   4.368 -2.0110 -0.8979 -1.0802
 6980SOL    HW232403   3.351   1.424   4.286 -0.3914  1.8837 -3.4239
 6981SOL     OW32404   0.160   4.240   8.099  0.2499  0.6583  0.3214
 6981SOL    HW132405   0.083   4.187   8.078  0.3946  1.1283 -1.3377
 6981SOL    HW232406   0.170   4.219   8.192 -1.6706  0.7278  0.5587
 6982SOL     OW32407   2.448   4.488   8.569 -0.0377 -0.0592 -0.1227
 6982SOL    HW132408   2.439   4.539   8.488  0.3079 -1.3306 -0.9643
 6982SOL    HW232409   2.508   4.550   8.610  2.9099 -2.0534 -1.4307
 6983SOL     OW32410   2.454   3.380   4.595 -0.6026  0.7424  0.0024
 6983SOL    HW132411   2.520   3.389   4.526  0.2033  0.4674  0.7421
 6983SOL    HW232412   2.441   3.470   4.626 -2.0855  0.4277  0.2690
 6984SOL     OW32413   4.595   1.696   4.814 -0.2483  0.1368  0.4656
 6984SOL    HW132414   4.559   1.625   4.868  0.1933 -1.8288 -1.8588
 6984SOL    HW232415   4.580   1.762   4.881 -0.8847 -0.7264  1.1744
 6985SOL     OW32416   4.149   4.119  13.968  0.4260 -0.1297  0.4441
 6985SOL    HW132417   4.054   4.116  13.954  0.6189 -2.1567 -0.5305
 6985SOL    HW232418   4.157   4.172  14.047  0.7720  1.1713 -0.4461
 6986SOL     OW32419   0.431   1.503   5.420 -0.4162  1.1045  0.3759
 6986SOL    HW132420   0.408   1.472   5.332  1.1933  0.5919  0.1263
 6986SOL    HW232421   0.359   1.564   5.432 -0.9050  0.8971 -1.4646
 6987SOL     OW32422   2.314   4.053   6.988  0.1442 -0.4886  0.2209
 6987SOL    HW132423   2.311   3.958   6.998  3.4051 -0.4829  1.4248
 6987SOL    HW232424   2.409   4.067   6.988 -0.2122  1.9744 -1.4091
 6988SOL     OW32425   3.242   0.382   7.495  0.0102  0.0737 -0.0534
 6988SOL    HW132426   3.237   0.468   7.537 -1.2528 -0.1921  0.3718
 6988SOL    HW232427   3.211   0.320   7.561  0.1455 -0.1457 -0.1961
 6989SOL     OW32428   4.135   1.256  13.402  0.1485 -0.0815  0.3992
 6989SOL    HW132429   4.134   1.345  13.438 -0.7743  0.3267 -0.6504
 6989SOL    HW232430   4.103   1.281  13.316  1.0108  0.5901  0.2682
 6990SOL     OW32431   1.861   0.358   4.592  0.0785  0.3512  0.3614
 6990SOL    HW132432   1.809   0.357   4.512  0.1784 -2.4072  0.3373
 6990SOL    HW232433   1.951   0.368   4.560  0.0215 -0.3317 -0.0003
 6991SOL     OW32434   3.227   2.512   8.872 -0.2425  0.2920  0.2646
 6991SOL    HW132435   3.208   2.543   8.783 -2.0515 -1.6909 -0.0415
 6991SOL    HW232436   3.257   2.596   8.907  2.5074 -0.9670  0.9228
 6992SOL     OW32437   1.959   3.069   1.115  0.0463 -0.2126  0.3976
 6992SOL    HW132438   1.924   3.063   1.203 -1.7281 -2.3408 -0.4591
 6992SOL    HW232439   2.031   3.132   1.125 -0.8991  1.3695 -2.5908
 6993SOL     OW32440   2.493   1.214   5.482  0.5474 -0.1799  0.2261
 6993SOL    HW132441   2.453   1.263   5.554  1.1365 -1.2099  1.2461
 6993SOL    HW232442   2.555   1.285   5.468  1.6443 -1.2168 -0.1377
 6994SOL     OW32443   0.141   0.013  13.547  0.2283 -0.1063  0.1846
 6994SOL    HW132444   0.202   4.704  13.482  1.2733  2.3616 -0.1689
 6994SOL    HW232445   0.184   4.713  13.628  1.1806 -0.7554 -0.5176
 6995SOL     OW32446   1.463   3.847   7.710  0.4999  0.2430 -0.1561
 6995SOL    HW132447   1.491   3.877   7.623 -0.1242  0.2950 -0.3450
 6995SOL    HW232448   1.542   3.831   7.761 -0.8096 -1.3303  1.3738
 6996SOL     OW32449   4.602   3.074   6.619  0.2668  0.5340  0.2512
 6996SOL    HW132450   4.670   3.115   6.565  0.5009  0.7336  0.6942
 6996SOL    HW232451   4.530   3.084   6.557  0.0510  1.9698  0.7385
 6997SOL     OW32452   4.710   2.490  16.961  0.0410  0.2328  0.5810
 6997SOL    HW132453   4.616   2.476  16.950  0.1019 -0.2935  0.6969
 6997SOL    HW232454   4.704   2.579  16.927 -0.1187 -0.1083 -0.2805
 6998SOL     OW32455   4.557   1.962   6.083 -0.6016  0.2812 -0.0806
 6998SOL    HW132456   4.601   2.039   6.119  0.7148 -0.4765 -0.1073
 6998SOL    HW232457   4.595   1.887   6.129 -1.1177 -0.0369 -0.1684
 6999SOL     OW32458   3.436   0.345   3.606 -0.0366 -0.0924 -0.5640
 6999SOL    HW132459   3.395   0.324   3.690 -1.6879  2.6210 -0.7202
 6999SOL    HW232460   3.433   0.261   3.560 -2.6975 -0.3148  0.0577
 7000SOL     OW32461   0.350   1.061   3.093 -0.0544 -0.5143  0.5541
 7000SOL    HW132462   0.272   1.106   3.126 -0.7953 -1.5439  0.1837
 7000SOL    HW232463   0.328   0.968   3.098  0.5148 -0.5665  2.2744
 7001SOL     OW32464   2.814   2.698   4.254  0.2908 -0.8102 -0.4480
 7001SOL    HW132465   2.782   2.611   4.231 -0.6924 -0.3889 -0.6779
 7001SOL    HW232466   2.820   2.694   4.349 -1.7004  0.4638 -0.2835
 7002SOL     OW32467   3.620   2.498   2.365 -0.2604 -0.0075  0.2208
 7002SOL    HW132468   3.578   2.566   2.312  1.2060  2.3554  2.0793
 7002SOL    HW232469   3.561   2.424   2.352 -2.0018  1.4582 -0.1534
 7003SOL     OW32470   4.219   0.708   5.543  0.5553 -0.2589 -0.1417
 7003SOL    HW132471   4.229   0.659   5.624 -0.0825  0.6235  0.4681
 7003SOL    HW232472   4.204   0.794   5.583 -0.3714 -0.0543 -0.9416
 7004SOL     OW32473   1.782   3.503  12.817 -0.5232  0.3783 -0.2481
 7004SOL    HW132474   1.732   3.499  12.736 -1.4918 -0.8248  0.4112
 7004SOL    HW232475   1.823   3.589  12.809 -2.7110  1.5140  0.8933
 7005SOL     OW32476   0.990   2.224   6.011  0.6551 -0.2135 -0.2193
 7005SOL    HW132477   0.918   2.279   6.042 -0.1228 -2.0949  1.2703
 7005SOL    HW232478   1.027   2.197   6.096  0.9722 -1.1599 -0.6562
 7006SOL     OW32479   2.823   4.309   4.926 -0.1792  0.3295 -0.4120
 7006SOL    HW132480   2.755   4.262   4.879  0.6777 -0.1326 -1.1962
 7006SOL    HW232481   2.874   4.358   4.862 -1.3220 -1.3311 -2.5944
 7007SOL     OW32482   1.709   0.333   9.266  0.6576 -0.2167  0.2795
 7007SOL    HW132483   1.717   0.322   9.171 -1.9570  1.3146 -0.1163
 7007SOL    HW232484   1.674   0.247   9.291  0.0697 -0.5132 -1.5103
 7008SOL     OW32485   3.349   0.176   4.452  0.4562  0.4310 -0.5080
 7008SOL    HW132486   3.334   0.082   4.460 -0.6588  0.6690  0.3147
 7008SOL    HW232487   3.257   0.202   4.442  1.0129  2.9423  0.7803
 7009SOL     OW32488   2.138   1.706   6.593  0.1588  0.3238 -0.5582
 7009SOL    HW132489   2.174   1.795   6.599  1.1254 -0.1458  0.4844
 7009SOL    HW232490   2.129   1.693   6.499 -1.4020  0.4256 -0.4293
 7010SOL     OW32491   1.847   1.323   1.954  0.3539  0.2528 -0.3173
 7010SOL    HW132492   1.782   1.371   1.903 -0.3172  1.6542  1.8629
 7010SOL    HW232493   1.792   1.281   2.021 -1.0515  1.9504 -0.4109
 7011SOL     OW32494   2.081   0.206  13.890  0.0095 -0.0544  1.1234
 7011SOL    HW132495   2.152   0.175  13.946  2.0393  2.4279 -0.0563
 7011SOL    HW232496   2.092   0.153  13.812  0.6125 -1.7033  2.3263
 7012SOL     OW32497   2.793   0.576  14.536 -0.4046 -0.3370 -0.3602
 7012SOL    HW132498   2.836   0.609  14.615 -1.1216  1.4221 -0.7084
 7012SOL    HW232499   2.784   0.483  14.553 -0.1033 -0.5705 -1.4476
 7013SOL     OW32500   1.025   2.958  10.921 -0.5293 -0.0689  0.9231
 7013SOL    HW132501   1.018   3.052  10.903 -0.2365 -0.6132 -2.0196
 7013SOL    HW232502   0.976   2.952  11.004 -1.5153  0.9147  0.4104
 7014SOL     OW32503   2.463   2.166   5.335 -0.7993  0.0963 -0.3836
 7014SOL    HW132504   2.403   2.145   5.263  0.0401  0.5676 -1.2190
 7014SOL    HW232505   2.415   2.235   5.381 -1.5647 -0.1145 -0.8717
 7015SOL     OW32506   0.855   1.455  10.273  0.4009  0.6681 -0.2338
 7015SOL    HW132507   0.861   1.361  10.292 -1.9621  0.8482  1.4183
 7015SOL    HW232508   0.849   1.459  10.178 -0.2038  1.7136 -0.1496
 7016SOL     OW32509   4.149   4.187   8.331 -0.2265  0.0329  0.1830
 7016SOL    HW132510   4.097   4.257   8.291 -0.4252  0.3596  1.0163
 7016SOL    HW232511   4.131   4.210   8.422  1.7261 -1.8782  1.0429
 7017SOL     OW32512   3.847   1.391  15.947  0.2062  0.5419 -0.2212
 7017SOL    HW132513   3.846   1.353  15.859 -4.0514  1.0471 -0.4263
 7017SOL    HW232514   3.923   1.348  15.984  0.3384 -0.3402 -1.5306
 7018SOL     OW32515   1.657   0.866   3.076  0.2100  0.0813  0.2266
 7018SOL    HW132516   1.734   0.913   3.043 -0.0707 -0.6760 -1.5447
 7018SOL    HW232517   1.592   0.873   3.006 -0.5551 -1.0991  0.8245
 7019SOL     OW32518   1.322   2.279   3.561  0.2244 -0.6241  0.2949
 7019SOL    HW132519   1.415   2.265   3.581  0.4713 -0.0817 -0.4844
 7019SOL    HW232520   1.323   2.365   3.519 -1.3484 -0.8582 -0.1970
 7020SOL     OW32521   0.082   2.365   0.591 -0.1673  0.8808 -0.5484
 7020SOL    HW132522   0.142   2.297   0.561 -0.9418  0.0967 -0.3308
 7020SOL    HW232523   0.139   2.400   0.660 -1.8942 -1.3671  2.0462
 7021SOL     OW32524   0.595   0.383   7.730 -0.1042  0.0227 -0.3688
 7021SOL    HW132525   0.630   0.463   7.770 -2.3908  0.4554  0.7632
 7021SOL    HW232526   0.503   0.406   7.717  0.7314  2.0621 -2.6631
 7022SOL     OW32527   3.744   4.065  16.836 -0.1298  0.0624 -0.2318
 7022SOL    HW132528   3.674   4.082  16.899 -0.4332 -0.2360 -0.4919
 7022SOL    HW232529   3.735   4.143  16.782 -0.4731 -0.6410 -1.1898
 7023SOL     OW32530   1.341   3.939   6.846  0.2750 -0.0520  0.0837
 7023SOL    HW132531   1.404   3.982   6.787  2.0835  0.4677  2.3957
 7023SOL    HW232532   1.396   3.871   6.885  0.7376  0.2607 -0.0206
 7024SOL     OW32533   1.707   2.903   8.313  0.1481  0.2299 -0.1643
 7024SOL    HW132534   1.665   2.891   8.398  0.7401 -1.6222 -0.1496
 7024SOL    HW232535   1.661   2.984   8.289 -0.0306 -0.1652 -1.1490
 7025SOL     OW32536   0.006   0.287   3.682 -0.6699 -0.0738  0.1245
 7025SOL    HW132537   0.060   0.360   3.713 -1.8813  0.6556  0.5641
 7025SOL    HW232538   0.062   0.210   3.690  1.1549  1.1924 -0.5315
 7026SOL     OW32539   1.223   0.859   0.401  0.0646 -0.6943 -0.2044
 7026SOL    HW132540   1.249   0.770   0.423  0.9307 -0.5657 -0.6805
 7026SOL    HW232541   1.300   0.890   0.353  0.9711 -1.5092  0.7174
 7027SOL     OW32542   4.392   2.529   5.989 -0.5909  0.1439  0.1314
 7027SOL    HW132543   4.466   2.563   6.040  1.8357 -1.6928 -2.1649
 7027SOL    HW232544   4.339   2.607   5.978  0.9271  1.2404  0.6026
 7028SOL     OW32545   4.196   4.631   8.442  0.2536 -0.4501 -0.0990
 7028SOL    HW132546   4.247   4.559   8.479 -1.1138 -0.5376  1.5875
 7028SOL    HW232547   4.265   4.667   8.386  0.8753 -2.6350 -0.7320
 7029SOL     OW32548   3.135   3.317   4.499 -0.1482  0.1386 -0.4041
 7029SOL    HW132549   3.127   3.294   4.591  0.5997 -0.3323 -0.4602
 7029SOL    HW232550   3.209   3.261   4.475  2.1960  2.6315  1.0679
 7030SOL     OW32551   4.449   0.322   4.680  0.2715 -0.0469 -0.8502
 7030SOL    HW132552   4.428   0.273   4.759 -3.1100  4.3675  0.9519
 7030SOL    HW232553   4.426   0.263   4.608 -1.7799  0.2032 -0.3743
 7031SOL     OW32554   0.680   4.266   3.851 -0.4220 -0.7158  0.3712
 7031SOL    HW132555   0.585   4.263   3.853 -0.3786 -1.3793  1.5949
 7031SOL    HW232556   0.695   4.172   3.841 -1.6041 -0.8087 -0.4791
 7032SOL     OW32557   1.570   0.010   2.125  0.0709 -0.6764 -0.4094
 7032SOL    HW132558   1.475   0.007   2.121  0.0289 -0.5127  0.4956
 7032SOL    HW232559   1.585   0.099   2.093 -2.5007 -0.1112  0.0089
 7033SOL     OW32560   3.291   0.429  17.295  0.1048 -0.2341  0.0119
 7033SOL    HW132561   3.341   0.511  17.294  0.0827 -0.2186  0.1428
 7033SOL    HW232562   3.200   0.454  17.312  0.1702 -0.7428  1.1163
 7034SOL     OW32563   2.487   1.956   6.015 -0.0424  0.1084 -0.8431
 7034SOL    HW132564   2.519   1.970   5.926  2.4263 -4.3736 -0.6379
 7034SOL    HW232565   2.534   2.033   6.048 -0.5923  0.7903 -1.6543
 7035SOL     OW32566   2.077   4.654   2.157  0.0827  0.0086 -0.0233
 7035SOL    HW132567   2.079   4.626   2.249 -0.1551 -1.1435 -0.3677
 7035SOL    HW232568   1.982   4.645   2.149 -0.0959  1.7786  0.1697
 7036SOL     OW32569   1.436   1.383  14.313 -0.4105 -0.4268 -0.0263
 7036SOL    HW132570   1.408   1.420  14.229 -0.1703 -1.8991 -0.7613
 7036SOL    HW232571   1.525   1.361  14.286  0.0088  1.0207  0.1841
 7037SOL     OW32572   1.572   3.792  11.739 -0.4888 -0.6379 -0.2195
 7037SOL    HW132573   1.660   3.809  11.706 -1.3460  5.1023  0.4658
 7037SOL    HW232574   1.587   3.792  11.834 -1.5257 -3.0973 -0.0404
 7038SOL     OW32575   1.592   2.352   4.939 -0.1218  0.0178  0.6388
 7038SOL    HW132576   1.659   2.319   4.999  1.5800  1.7508 -0.3175
 7038SOL    HW232577   1.513   2.365   4.992  0.0404  1.0700  0.6169
 7039SOL     OW32578   2.266   2.719   6.028  0.0109  0.3376  0.4442
 7039SOL    HW132579   2.202   2.679   6.087 -1.3945  0.5244 -0.9423
 7039SOL    HW232580   2.256   2.648   5.964 -0.0267 -0.9433  1.8635
 7040SOL     OW32581   2.939   2.061   5.431  0.4309 -0.1861  0.2516
 7040SOL    HW132582   2.877   2.134   5.435  0.4143 -0.1631 -0.4913
 7040SOL    HW232583   2.971   2.084   5.344  0.4774 -2.1101 -0.2486
 7041SOL     OW32584   1.596   1.705   1.669  0.1962  0.5939  0.0138
 7041SOL    HW132585   1.604   1.731   1.577 -0.2161 -0.5465 -0.3531
 7041SOL    HW232586   1.566   1.785   1.710  1.1110  0.8741  0.1425
 7042SOL     OW32587   2.171   3.732   5.919  0.1040 -0.3788  0.1059
 7042SOL    HW132588   2.173   3.786   5.840  1.3216  3.4577  2.7335
 7042SOL    HW232589   2.102   3.672   5.895 -0.0022 -0.6341  1.0671
 7043SOL     OW32590   4.696   0.045   6.754  0.4677 -0.6773 -0.4941
 7043SOL    HW132591   4.658   0.108   6.693 -3.0135 -0.6424  1.7473
 7043SOL    HW232592   4.659   4.692   6.715 -0.7934 -0.4875  0.3165
 7044SOL     OW32593   1.645   1.987   8.916  0.2589 -0.2629 -0.1033
 7044SOL    HW132594   1.719   1.958   8.970 -0.5737 -0.9205  0.6883
 7044SOL    HW232595   1.677   1.966   8.829  3.1989 -2.6481  1.5484
 7045SOL     OW32596   1.470   0.975   9.218  0.5921 -0.0403 -0.6757
 7045SOL    HW132597   1.544   0.927   9.255 -0.7115 -1.0816  0.5770
 7045SOL    HW232598   1.466   0.920   9.139 -0.7720 -0.2430 -0.4532
 7046SOL     OW32599   0.158   1.866   6.041 -0.1248  0.7095  0.3526
 7046SOL    HW132600   0.092   1.907   5.985 -1.3977  0.9931  2.0403
 7046SOL    HW232601   0.193   1.950   6.074 -1.1162  1.2705 -0.0231
 7047SOL     OW32602   3.024   4.276   4.380  0.5254 -0.7285  0.1485
 7047SOL    HW132603   2.988   4.353   4.337  1.4535 -0.5898 -0.3676
 7047SOL    HW232604   2.943   4.227   4.396  0.9471 -1.7913 -1.0297
 7048SOL     OW32605   1.839   1.938   6.967 -0.4840 -0.0978  0.0041
 7048SOL    HW132606   1.745   1.951   6.961 -0.6573 -2.2933 -1.7197
 7048SOL    HW232607   1.858   1.945   7.061  0.6880 -0.9030 -0.1618
 7049SOL     OW32608   1.336   4.309  10.061  0.4093  0.7280 -0.0986
 7049SOL    HW132609   1.305   4.252  10.132  2.9388 -0.1386  0.3009
 7049SOL    HW232610   1.295   4.266   9.986 -0.8376  0.9799  0.4371
 7050SOL     OW32611   2.706   4.545   6.236 -0.7955 -0.3482  0.5545
 7050SOL    HW132612   2.646   4.569   6.165  0.8306 -1.7830 -1.3345
 7050SOL    HW232613   2.713   4.619   6.296 -0.5721  0.9824 -1.0982
 7051SOL     OW32614   0.094   0.074   8.395  0.5164  0.2976 -0.1843
 7051SOL    HW132615   0.116   0.041   8.482 -2.0456  1.3686  0.8778
 7051SOL    HW232616   0.176   0.113   8.366  1.8645 -2.5669 -0.1795
 7052SOL     OW32617   1.931   4.479   4.088 -0.5621  0.0946  0.4154
 7052SOL    HW132618   1.900   4.462   4.177 -0.5413 -1.4990  0.1165
 7052SOL    HW232619   1.857   4.522   4.044  0.2431 -1.2494 -2.2460
 7053SOL     OW32620   0.772   4.568   6.670 -0.5867  0.3937 -0.2228
 7053SOL    HW132621   0.780   4.612   6.585  0.9752  1.1626  0.3158
 7053SOL    HW232622   0.814   4.486   6.644 -1.2138  0.4623 -1.4549
 7054SOL     OW32623   0.798   4.219   4.093 -0.2670  0.5733 -0.5242
 7054SOL    HW132624   0.784   4.313   4.089 -1.3355  0.5029  1.6987
 7054SOL    HW232625   0.735   4.197   4.024  0.7513 -0.0935 -1.2534
 7055SOL     OW32626   0.651   2.123   0.057 -0.0587 -0.0796 -0.2015
 7055SOL    HW132627   0.602   2.129  17.678  2.0848  1.8067 -1.3440
 7055SOL    HW232628   0.607   2.190   0.109 -0.4871  0.3191 -1.0680
 7056SOL     OW32629   2.608   2.740  16.896 -0.1224 -0.0969 -0.7814
 7056SOL    HW132630   2.592   2.834  16.908  0.2327 -0.3672  1.6385
 7056SOL    HW232631   2.599   2.733  16.801 -0.6073 -4.2205 -0.4171
 7057SOL     OW32632   0.166   3.043   5.767  0.6417  1.0672  0.0192
 7057SOL    HW132633   0.209   2.980   5.824 -2.7355 -0.6256  0.7103
 7057SOL    HW232634   0.090   2.994   5.736  1.1177  0.6516 -0.4875
 7058SOL     OW32635   1.380   2.741   8.387  0.6605 -0.1048  0.0085
 7058SOL    HW132636   1.307   2.802   8.379 -0.5100 -1.5483 -0.3273
 7058SOL    HW232637   1.415   2.734   8.298  0.5435  1.1242 -0.1410
 7059SOL     OW32638   2.174   2.751  12.471 -0.3251  0.0166 -0.1239
 7059SOL    HW132639   2.234   2.732  12.399  1.6908  0.6316  1.3868
 7059SOL    HW232640   2.226   2.710  12.540 -0.5278 -1.5351 -0.8944
 7060SOL     OW32641   4.630   4.425   7.628  0.0035 -0.0859  0.3493
 7060SOL    HW132642   4.625   4.433   7.533  0.4344  0.6080  0.3879
 7060SOL    HW232643   4.636   4.330   7.639  2.2050 -0.4102 -3.7996
 7061SOL     OW32644   2.278   1.780   0.384 -0.1682  0.1651  0.2089
 7061SOL    HW132645   2.335   1.793   0.308  0.3557 -1.7898  0.2775
 7061SOL    HW232646   2.340   1.807   0.451  1.7071 -1.7383 -0.8012
 7062SOL     OW32647   0.706   4.658  12.321  0.5941  0.0712 -0.3031
 7062SOL    HW132648   0.622   4.662  12.275 -0.4471  0.2568  1.6137
 7062SOL    HW232649   0.703   0.017  12.367  0.1362 -1.0604  1.6994
 7063SOL     OW32650   0.097   3.216   7.334  0.6382  0.1507  0.2147
 7063SOL    HW132651   0.016   3.241   7.290  0.8766 -1.0346 -0.8904
 7063SOL    HW232652   0.100   3.126   7.301  0.9626 -0.1289  0.9947
 7064SOL     OW32653   0.294   2.128   5.455 -0.2247  1.0151 -0.2843
 7064SOL    HW132654   0.351   2.054   5.437  2.1098  2.7651 -0.1249
 7064SOL    HW232655   0.247   2.101   5.534  1.5456 -0.8507  0.1266
 7065SOL     OW32656   3.807   3.647   5.228  0.2610 -0.1096 -0.2931
 7065SOL    HW132657   3.876   3.609   5.175  1.7085 -0.2607  1.6740
 7065SOL    HW232658   3.850   3.635   5.313 -0.9684  0.1105  0.3749
 7066SOL     OW32659   2.628   3.298  10.517  0.2494 -0.7400  0.0747
 7066SOL    HW132660   2.541   3.294  10.558  0.0853  1.8750 -0.0522
 7066SOL    HW232661   2.605   3.318  10.427  3.8231  0.1002 -0.6464
 7067SOL     OW32662   4.578   0.137   6.197 -0.2562 -0.1856  0.4439
 7067SOL    HW132663   4.587   0.094   6.282 -1.9168  0.0452  0.7326
 7067SOL    HW232664   4.627   0.219   6.206 -2.0520  0.6992  2.0510
 7068SOL     OW32665   3.283   2.711   4.476 -0.3955 -0.0868  0.1272
 7068SOL    HW132666   3.377   2.727   4.480 -0.4734  0.4074  0.0244
 7068SOL    HW232667   3.254   2.795   4.439 -3.0176 -0.8967  0.3340
 7069SOL     OW32668   3.294   3.803   3.597  0.1519 -0.2016 -0.1882
 7069SOL    HW132669   3.242   3.882   3.577 -0.6812 -0.5450  0.6402
 7069SOL    HW232670   3.376   3.835   3.633  2.2890 -3.5371 -2.1290
 7070SOL     OW32671   1.136   0.790   4.573  0.6805  0.0736 -0.1364
 7070SOL    HW132672   1.047   0.759   4.555  0.9031  0.3619 -1.7418
 7070SOL    HW232673   1.195   0.716   4.555  1.4293  1.0046 -1.5498
 7071SOL     OW32674   1.164   1.477  10.441  0.3422  0.4659 -0.6769
 7071SOL    HW132675   1.094   1.526  10.397 -0.0831  0.5599  0.1054
 7071SOL    HW232676   1.116   1.424  10.504 -1.9027  2.2494 -0.8766
 7072SOL     OW32677   3.710   2.109   8.423 -0.4417  0.0038  1.0143
 7072SOL    HW132678   3.687   2.141   8.336 -1.0722 -1.4382  0.6529
 7072SOL    HW232679   3.800   2.141   8.432  0.0494 -1.0852 -0.1120
 7073SOL     OW32680   3.126   3.291   4.815  0.3119  0.1725 -0.0945
 7073SOL    HW132681   3.073   3.370   4.820  1.1887  0.7993 -0.6640
 7073SOL    HW232682   3.093   3.231   4.882 -3.2871  1.0237 -1.1480
 7074SOL     OW32683   0.818   2.362   3.655 -0.1352  0.2071 -0.3239
 7074SOL    HW132684   0.760   2.305   3.705 -0.8941 -1.0522 -2.6802
 7074SOL    HW232685   0.840   2.300   3.586  0.0997 -1.0808  0.8938
 7075SOL     OW32686   2.814   2.802   8.198  0.4602  0.1391 -0.6423
 7075SOL    HW132687   2.792   2.725   8.145 -4.2227  1.1342 -0.1989
 7075SOL    HW232688   2.888   2.769   8.249 -0.4448 -0.6104  0.1965
 7076SOL     OW32689   3.234   2.795  10.536  0.4650 -0.3098 -0.0788
 7076SOL    HW132690   3.195   2.797  10.624 -2.7718 -4.3712 -1.4154
 7076SOL    HW232691   3.204   2.712  10.499 -0.6284  0.4787 -0.9868
 7077SOL     OW32692   3.997   3.374   1.249 -0.2092 -0.1108 -0.2243
 7077SOL    HW132693   3.995   3.439   1.320  0.2464  0.2877 -0.5688
 7077SOL    HW232694   4.090   3.351   1.260  0.5983  3.0865 -0.1960
 7078SOL     OW32695   4.490   2.650  15.881 -0.4322 -0.4341 -0.1617
 7078SOL    HW132696   4.562   2.600  15.843  0.9639 -0.8793  3.0635
 7078SOL    HW232697   4.535   2.719  15.930  1.1155 -0.2233 -1.8815
 7079SOL     OW32698   0.302   2.838   5.971  0.0326 -0.5748 -0.0545
 7079SOL    HW132699   0.363   2.769   5.996  0.2094 -0.3143  0.2355
 7079SOL    HW232700   0.358   2.913   5.991 -0.5969 -0.3031  0.6867
 7080SOL     OW32701   1.470   4.029  11.627 -0.5050 -0.1380 -0.2132
 7080SOL    HW132702   1.534   4.087  11.667 -1.0958 -0.1376  0.7427
 7080SOL    HW232703   1.474   3.953  11.685  0.2310 -1.3529 -1.8551
 7081SOL     OW32704   3.708   2.645   7.579 -0.1194 -0.2442  0.0874
 7081SOL    HW132705   3.745   2.726   7.614  0.3120 -0.9084  1.1636
 7081SOL    HW232706   3.703   2.671   7.487 -0.4556 -2.0427 -0.3978
 7082SOL     OW32707   2.701   1.607   5.724  0.0630  0.3384 -0.0818
 7082SOL    HW132708   2.771   1.585   5.786  0.4787 -0.3314 -0.7907
 7082SOL    HW232709   2.728   1.693   5.693 -2.3437  0.1627 -2.7064
 7083SOL     OW32710   2.973   0.903   2.582  0.1175 -0.1758  0.3994
 7083SOL    HW132711   2.995   0.990   2.616  1.3401 -0.9172  1.5178
 7083SOL    HW232712   3.055   0.877   2.540 -0.2499 -0.1585 -0.3307
 7084SOL     OW32713   2.518   1.248   2.148 -0.0380  0.1480  0.0458
 7084SOL    HW132714   2.600   1.201   2.133 -0.1314  0.1905 -0.6177
 7084SOL    HW232715   2.529   1.310   2.076  1.3483  0.6892  0.7293
 7085SOL     OW32716   1.039   1.425   6.600 -0.0313 -0.2686  0.3573
 7085SOL    HW132717   0.972   1.482   6.562  2.4924  0.1237 -3.5545
 7085SOL    HW232718   0.986   1.350   6.627 -0.4650 -0.0947 -0.0106
 7086SOL     OW32719   0.059   3.387   8.970 -0.3421 -0.8253  0.3287
 7086SOL    HW132720   0.058   3.471   8.924  0.4871 -2.0847 -1.9942
 7086SOL    HW232721   0.149   3.356   8.965  0.2168  0.7155  1.0020
 7087SOL     OW32722   3.312   4.354  13.325  0.2279  0.4836  0.1959
 7087SOL    HW132723   3.286   4.397  13.243  2.3674 -1.0067 -1.2861
 7087SOL    HW232724   3.228   4.335  13.367 -1.1047 -0.5142 -2.9031
 7088SOL     OW32725   4.164   3.706   5.156  0.1230 -0.1768  0.0273
 7088SOL    HW132726   4.124   3.791   5.170 -0.6494 -0.6865  0.9805
 7088SOL    HW232727   4.256   3.732   5.170  0.0281 -0.3387  0.9928
 7089SOL     OW32728   4.410   2.009  13.399 -0.0598 -0.4641 -0.4952
 7089SOL    HW132729   4.382   1.935  13.346  1.6245 -0.2943 -1.6266
 7089SOL    HW232730   4.332   2.032  13.450  1.5089  1.6817  0.9237
 7090SOL     OW32731   0.496   0.761   7.780  0.1511 -0.3252 -0.0530
 7090SOL    HW132732   0.483   0.850   7.812 -0.3810  0.6379 -2.9852
 7090SOL    HW232733   0.571   0.737   7.835  0.1047  1.0496  0.6179
 7091SOL     OW32734   3.659   2.702   0.462  0.1125 -0.1209  0.4783
 7091SOL    HW132735   3.575   2.720   0.420  0.7703  1.7336 -0.0531
 7091SOL    HW232736   3.641   2.733   0.551 -3.9211 -0.4051 -0.2275
 7092SOL     OW32737   3.282   1.063   3.742 -0.4100  0.2222 -0.1706
 7092SOL    HW132738   3.340   1.018   3.803  0.7141  1.7039 -0.1324
 7092SOL    HW232739   3.328   1.044   3.660  2.7711 -0.2810  1.7129
 7093SOL     OW32740   3.736   2.709   4.099  0.0239  0.1456 -0.1946
 7093SOL    HW132741   3.816   2.759   4.112 -0.4528  1.1033 -0.9678
 7093SOL    HW232742   3.755   2.630   4.150 -1.9144 -0.0443  0.2508
 7094SOL     OW32743   1.797   1.466   0.859  0.0785 -0.0651 -0.2319
 7094SOL    HW132744   1.791   1.553   0.819  0.8375  0.3533  0.5557
 7094SOL    HW232745   1.705   1.445   0.868 -0.9346  3.9600 -1.0986
 7095SOL     OW32746   0.894   2.473   1.498  0.1545 -0.0733  0.1000
 7095SOL    HW132747   0.939   2.472   1.582 -2.6170  0.3758  1.5743
 7095SOL    HW232748   0.942   2.550   1.467 -2.4338  2.1523  1.6616
 7096SOL     OW32749   2.891   2.461   5.265  0.0151  0.2840 -0.8929
 7096SOL    HW132750   2.920   2.526   5.329 -0.3711 -0.0636 -0.3661
 7096SOL    HW232751   2.819   2.420   5.312  1.2735 -3.6622 -2.3587
 7097SOL     OW32752   1.385   2.357  16.820  0.2974  0.1124 -0.1323
 7097SOL    HW132753   1.387   2.262  16.808  2.0965 -0.2345  2.9065
 7097SOL    HW232754   1.441   2.383  16.893 -0.7049 -0.7548  0.9387
 7098SOL     OW32755   1.356   3.868  10.347 -0.4388 -0.4948  0.3210
 7098SOL    HW132756   1.305   3.789  10.330  2.0049 -1.8941 -0.4915
 7098SOL    HW232757   1.334   3.895  10.437  0.4889  1.9248 -0.1905
 7099SOL     OW32758   0.038   3.211   7.905  0.3137  0.1199 -0.3748
 7099SOL    HW132759   0.011   3.119   7.901 -1.2144  0.7048 -3.6346
 7099SOL    HW232760   0.036   3.239   7.813 -0.5855 -1.4874 -0.8466
 7100SOL     OW32761   1.695   0.601   3.014 -0.2620 -0.1233  0.0764
 7100SOL    HW132762   1.779   0.587   3.058  0.8126  1.6267 -1.3878
 7100SOL    HW232763   1.689   0.696   3.025 -1.0273  0.0127 -1.4692
 7101SOL     OW32764   1.844   3.190   2.594  0.2951 -0.0386 -0.8988
 7101SOL    HW132765   1.931   3.201   2.555  0.7572 -0.4736  0.0133
 7101SOL    HW232766   1.852   3.259   2.660  1.8871 -1.3863  0.3277
 7102SOL     OW32767   1.307   0.665  15.641  0.2356  0.1747  1.0516
 7102SOL    HW132768   1.277   0.724  15.711 -0.2313  0.3904  0.6690
 7102SOL    HW232769   1.393   0.706  15.653 -0.6228  2.3029  0.0299
 7103SOL     OW32770   3.293   0.576   4.623  0.1360 -0.3067 -0.2371
 7103SOL    HW132771   3.354   0.503   4.630 -1.0289 -0.8334  3.9392
 7103SOL    HW232772   3.356   0.643   4.596 -0.5295 -0.4632 -2.1764
 7104SOL     OW32773   2.528   2.735   3.700 -0.0639 -0.3265 -0.3067
 7104SOL    HW132774   2.547   2.642   3.689  0.4023 -0.3340  0.5760
 7104SOL    HW232775   2.566   2.740   3.787 -1.3633  0.1246  0.2432
 7105SOL     OW32776   2.863   0.373  11.022  0.2314 -0.2903 -0.7065
 7105SOL    HW132777   2.833   0.461  11.045 -1.7591 -0.5280 -2.4158
 7105SOL    HW232778   2.940   0.404  10.974  0.8705  0.2401  0.6530
 7106SOL     OW32779   2.986   4.530   2.217 -0.4242  0.1237  0.5308
 7106SOL    HW132780   3.075   4.508   2.192 -0.4236 -4.0623  4.0134
 7106SOL    HW232781   2.932   4.475   2.159 -1.7072  1.9387 -0.0038
 7107SOL     OW32782   1.095   3.495  16.436  0.2591 -0.0929  0.5397
 7107SOL    HW132783   1.072   3.417  16.488  2.6957 -0.4198  1.1263
 7107SOL    HW232784   1.011   3.493  16.390 -0.3206  2.4914  1.5094
 7108SOL     OW32785   1.109   4.611   6.672  0.1068  0.0586 -0.4867
 7108SOL    HW132786   1.150   4.548   6.612 -0.3505  0.1486 -0.8941
 7108SOL    HW232787   1.106   4.558   6.752  1.2828  2.0242  0.8467
 7109SOL     OW32788   3.572   3.320   4.427 -0.0369 -0.0826  0.1154
 7109SOL    HW132789   3.497   3.283   4.474  0.1888 -0.8047 -0.0832
 7109SOL    HW232790   3.612   3.239   4.394 -0.8377 -1.3196  2.1966
 7110SOL     OW32791   2.501   3.676   3.330  0.5117 -0.1702  0.0884
 7110SOL    HW132792   2.586   3.635   3.316  0.3125 -0.4077 -0.4474
 7110SOL    HW232793   2.428   3.620   3.302  0.1883  0.9868 -1.4071
 7111SOL     OW32794   0.998   1.693  11.965 -0.6140 -0.7492 -0.2574
 7111SOL    HW132795   1.044   1.777  11.973 -1.1781 -0.5098  0.4914
 7111SOL    HW232796   0.952   1.686  12.049 -0.6819 -0.0576 -0.2317
 7112SOL     OW32797   4.714   0.737  11.132  0.0710  0.1686 -0.1467
 7112SOL    HW132798   0.084   0.729  11.122  0.2312  1.5079  0.3604
 7112SOL    HW232799   4.701   0.707  11.222  1.0125 -0.6971 -0.2900
 7113SOL     OW32800   3.002   2.057   2.639 -0.0744 -0.4617  0.3883
 7113SOL    HW132801   2.919   2.069   2.685 -0.8336 -0.0607 -1.0705
 7113SOL    HW232802   2.992   2.095   2.552  0.2051  0.0248  0.5731
 7114SOL     OW32803   2.098   2.229   8.098 -0.0477  0.4243  0.4099
 7114SOL    HW132804   2.010   2.266   8.099 -1.2697 -2.3904 -2.7811
 7114SOL    HW232805   2.160   2.299   8.080  1.0624 -0.8198 -0.5556
 7115SOL     OW32806   0.274   4.339   6.818 -0.0670  0.4692 -0.5528
 7115SOL    HW132807   0.215   4.264   6.826  1.1846 -0.6277 -1.7677
 7115SOL    HW232808   0.242   4.393   6.890 -0.4067  0.8871 -1.0207
 7116SOL     OW32809   1.205   3.350   1.813 -0.2214  0.2800  0.1577
 7116SOL    HW132810   1.287   3.385   1.777  0.5374 -2.2367 -0.5883
 7116SOL    HW232811   1.153   3.334   1.734 -1.1667  0.7944  0.6782
 7117SOL     OW32812   2.319   0.067   1.790  0.1596 -0.2132  0.4176
 7117SOL    HW132813   2.319   4.697   1.798 -0.1154  0.0050  2.8758
 7117SOL    HW232814   2.328   0.095   1.881  0.3657  1.4158 -0.1038
 7118SOL     OW32815   3.598   3.081   5.960  0.0702  0.4521 -0.1094
 7118SOL    HW132816   3.689   3.074   5.930  0.2114  2.0445 -0.0684
 7118SOL    HW232817   3.609   3.123   6.045  2.4759 -0.3637 -0.0227
 7119SOL     OW32818   2.310   2.659   3.929 -0.8323  0.1297 -0.4070
 7119SOL    HW132819   2.312   2.747   3.964 -0.2239 -0.3814  0.8307
 7119SOL    HW232820   2.366   2.667   3.851  1.5255 -0.0293  1.2891
 7120SOL     OW32821   3.772   0.735   5.007 -0.2405 -0.0729 -0.3707
 7120SOL    HW132822   3.798   0.672   4.940 -1.5754 -0.7016 -0.3147
 7120SOL    HW232823   3.836   0.723   5.077  0.0347 -0.3253 -0.6683
 7121SOL     OW32824   1.620   0.718   1.272 -0.1216 -0.1184  0.2114
 7121SOL    HW132825   1.631   0.623   1.262 -2.0170 -0.3930  0.8312
 7121SOL    HW232826   1.535   0.734   1.232  1.2689  1.3367 -2.1873
 7122SOL     OW32827   4.235   2.982   7.695 -0.8915 -0.1470  0.9646
 7122SOL    HW132828   4.284   3.003   7.774  1.1709  0.6406 -0.5151
 7122SOL    HW232829   4.231   3.071   7.658  2.8990 -0.5015 -0.3495
 7123SOL     OW32830   0.554   0.817   6.580  0.1005 -0.2161  0.3550
 7123SOL    HW132831   0.508   0.889   6.538  0.0897 -0.5352 -0.1807
 7123SOL    HW232832   0.630   0.812   6.522 -2.0035  0.3448 -2.4453
 7124SOL     OW32833   4.249   2.287   2.344  0.0463  0.3996  0.2797
 7124SOL    HW132834   4.223   2.195   2.338 -1.5514  0.7721  1.6970
 7124SOL    HW232835   4.298   2.287   2.426 -0.1838 -0.1517  0.4147
 7125SOL     OW32836   0.426   3.820   3.455 -0.7664 -0.1084 -0.3793
 7125SOL    HW132837   0.489   3.870   3.404 -1.9291  2.2108  0.4852
 7125SOL    HW232838   0.432   3.867   3.538  1.5416 -3.4635  1.3867
 7126SOL     OW32839   3.043   0.613   6.947  0.4728 -0.1125  0.7259
 7126SOL    HW132840   3.081   0.679   6.888 -1.0282  1.0985  1.1042
 7126SOL    HW232841   3.113   0.548   6.946 -0.5688 -1.2337  1.6383
 7127SOL     OW32842   2.559   3.040   3.984  0.1246 -0.2982  0.7181
 7127SOL    HW132843   2.600   3.127   3.983 -1.8040  0.5857 -1.1778
 7127SOL    HW232844   2.506   3.050   3.905  0.8823 -1.1560  0.1066
 7128SOL     OW32845   3.738   0.700   0.085 -0.1933  0.4525  0.1818
 7128SOL    HW132846   3.800   0.697   0.158  1.1920  2.9651 -0.8957
 7128SOL    HW232847   3.788   0.674   0.008 -0.6141  0.9162 -0.2507
 7129SOL     OW32848   0.927   2.563   0.790 -0.2496 -0.2899  0.6012
 7129SOL    HW132849   0.956   2.652   0.810  2.3628 -0.5343 -2.1200
 7129SOL    HW232850   0.950   2.519   0.872  0.8211 -3.6286 -1.4854
 7130SOL     OW32851   2.407   1.358   8.645 -0.3406  1.0583  0.0627
 7130SOL    HW132852   2.340   1.363   8.714  0.3272 -1.0386  0.8446
 7130SOL    HW232853   2.359   1.416   8.586  0.3021 -0.2080 -1.6873
 7131SOL     OW32854   1.227   3.965   5.405  0.1905 -0.3608  0.2206
 7131SOL    HW132855   1.317   3.998   5.411  0.7386 -1.8483  0.0197
 7131SOL    HW232856   1.177   4.041   5.374  0.5221 -0.2608 -0.0714
 7132SOL     OW32857   3.562   0.958   3.618  0.6781  0.3238  0.2009
 7132SOL    HW132858   3.490   0.895   3.626  0.6032  0.3950  0.0890
 7132SOL    HW232859   3.616   0.912   3.555  0.8553 -0.7134  1.1013
 7133SOL     OW32860   1.684   1.505  16.254  0.5012 -0.5638 -0.0741
 7133SOL    HW132861   1.677   1.597  16.282 -0.1151 -0.8938  0.8583
 7133SOL    HW232862   1.625   1.505  16.178 -2.1334  2.0714  1.9395
 7134SOL     OW32863   3.833   0.126   5.340  0.5737 -0.0549  0.2860
 7134SOL    HW132864   3.815   0.116   5.434 -2.4485  0.7786 -0.2150
 7134SOL    HW232865   3.806   0.218   5.331 -0.4764 -0.2394  1.5587
 7135SOL     OW32866   3.611   2.436   6.738  0.1050  0.3038  0.0329
 7135SOL    HW132867   3.659   2.422   6.656 -2.4098  1.4309 -1.6143
 7135SOL    HW232868   3.520   2.411   6.724  0.5380 -0.3596 -1.5292
 7136SOL     OW32869   2.416   3.476   5.025 -0.5303  0.2374  0.3713
 7136SOL    HW132870   2.436   3.430   5.106 -1.0122  0.1092  0.4156
 7136SOL    HW232871   2.321   3.464   5.026 -0.5668  0.1082 -2.8354
 7137SOL     OW32872   0.276   1.051  11.469 -0.0119  0.2196  0.8807
 7137SOL    HW132873   0.345   0.985  11.478  1.8840  1.6809 -2.8194
 7137SOL    HW232874   0.234   1.029  11.553 -0.6149 -3.5104 -0.3938
 7138SOL     OW32875   2.693   3.273   6.027  0.0519 -0.2425  0.0786
 7138SOL    HW132876   2.764   3.278   6.091 -0.5685  0.7646  0.7036
 7138SOL    HW232877   2.619   3.235   6.075  0.2924 -1.9593 -0.9439
 7139SOL     OW32878   2.974   3.006   2.452 -0.2222  0.0138 -0.2764
 7139SOL    HW132879   3.010   3.015   2.363  4.7543 -0.2545  1.7111
 7139SOL    HW232880   2.917   3.082   2.464 -0.6576 -0.3229 -0.1811
 7140SOL     OW32881   4.597   2.966   6.242 -0.2291  0.2982  0.2817
 7140SOL    HW132882   4.531   2.970   6.172 -1.6535  0.3656  1.6179
 7140SOL    HW232883   4.546   3.018   6.304  0.7228  2.8143 -1.0833
 7141SOL     OW32884   0.779   4.263  17.635 -0.0278  0.7493  0.1878
 7141SOL    HW132885   0.868   4.253  17.669 -0.2814 -0.9941  0.3186
 7141SOL    HW232886   0.794   4.247  17.542 -0.0552  0.1544  0.2864
 7142SOL     OW32887   2.280   2.314  12.369  0.0939 -0.5137 -0.2242
 7142SOL    HW132888   2.329   2.314  12.452 -0.6713 -1.8052  0.2280
 7142SOL    HW232889   2.308   2.227  12.340  2.4052  0.0534  0.2788
 7143SOL     OW32890   2.323   3.565  13.761 -0.2418  0.3077  0.0046
 7143SOL    HW132891   2.412   3.582  13.791  0.6834 -1.9686 -1.4284
 7143SOL    HW232892   2.339   3.483  13.712  0.5112 -0.2847  1.2482
 7144SOL     OW32893   1.459   4.231   7.733 -0.0015  0.1391  0.1731
 7144SOL    HW132894   1.465   4.213   7.639 -2.0626 -0.7305  0.2092
 7144SOL    HW232895   1.547   4.202   7.757  0.0009 -1.1793 -1.4728
 7145SOL     OW32896   3.968   2.119  15.885  0.3173 -0.0831 -0.5515
 7145SOL    HW132897   3.977   2.024  15.899 -1.5855 -0.3167 -0.8784
 7145SOL    HW232898   3.875   2.127  15.907  0.6478  2.6268 -0.2331
 7146SOL     OW32899   3.666   1.652  12.377 -0.0969 -0.1250 -0.5506
 7146SOL    HW132900   3.695   1.743  12.386 -0.1169 -0.1867  0.1329
 7146SOL    HW232901   3.576   1.640  12.408 -0.1376  2.0216  0.2176
 7147SOL     OW32902   1.228   3.953   7.866  0.3773  0.0545 -0.3311
 7147SOL    HW132903   1.294   3.944   7.797  0.8889  1.3416 -0.0181
 7147SOL    HW232904   1.226   4.048   7.879  1.5014  0.0609 -0.1706
 7148SOL     OW32905   3.721   1.957  12.536 -0.5324 -0.5002  0.0974
 7148SOL    HW132906   3.731   1.868  12.570 -1.0008 -0.8558 -0.6771
 7148SOL    HW232907   3.660   1.956  12.462 -2.2215  0.8714  1.4668
 7149SOL     OW32908   0.513   2.903  15.105 -0.4591 -0.5259 -0.1842
 7149SOL    HW132909   0.595   2.865  15.137 -0.3879 -1.0594 -0.9702
 7149SOL    HW232910   0.553   2.949  15.031 -1.6018 -0.8254 -0.9924
 7150SOL     OW32911   2.898   2.158   7.743  0.2228  0.2677 -0.7363
 7150SOL    HW132912   2.851   2.078   7.764  0.0622  0.3595 -0.7508
 7150SOL    HW232913   2.824   2.213   7.717  0.2034 -0.3708 -1.9998
 7151SOL     OW32914   0.917   3.882   8.505  0.0342  0.6658  0.0544
 7151SOL    HW132915   0.911   3.793   8.539 -1.4341  0.3097 -1.1078
 7151SOL    HW232916   0.944   3.863   8.415  3.5488 -0.9310  1.4972
 7152SOL     OW32917   2.350   2.528   7.798  0.0906  0.1125  0.4081
 7152SOL    HW132918   2.391   2.443   7.810 -0.1796  0.2170  2.0230
 7152SOL    HW232919   2.286   2.523   7.727  1.2183  2.0709 -0.7603
 7153SOL     OW32920   1.607   0.777  11.167 -0.2852 -0.2990 -0.9502
 7153SOL    HW132921   1.674   0.837  11.134 -0.7007  0.2776 -0.7434
 7153SOL    HW232922   1.564   0.762  11.083  1.1663 -0.0030 -1.7335
 7154SOL     OW32923   2.138   4.500   7.689  0.0011  0.2948  0.2780
 7154SOL    HW132924   2.157   4.506   7.595  1.8653 -3.9231  0.3512
 7154SOL    HW232925   2.209   4.439   7.706  0.0354  0.1392 -0.4052
 7155SOL     OW32926   2.395   2.805   2.555 -0.1362 -0.6680  0.2445
 7155SOL    HW132927   2.438   2.783   2.638  0.7782 -3.0515 -0.8497
 7155SOL    HW232928   2.345   2.723   2.554  0.3117 -0.9200 -3.1666
 7156SOL     OW32929   3.277   1.145  10.928  0.1783 -0.1508  0.2671
 7156SOL    HW132930   3.338   1.159  11.001  2.1301 -1.8904 -1.0213
 7156SOL    HW232931   3.257   1.052  10.935 -0.7423  0.1289  1.3277
 7157SOL     OW32932   0.158   4.044   4.367  0.0064 -0.5135  0.0506
 7157SOL    HW132933   0.102   4.077   4.437  1.0263  1.6609 -0.1602
 7157SOL    HW232934   0.108   4.073   4.290 -0.0735  0.6025  0.5235
 7158SOL     OW32935   0.458   2.585  11.612 -0.0487 -0.3588 -0.2590
 7158SOL    HW132936   0.503   2.644  11.552  2.8880 -0.5294  1.7714
 7158SOL    HW232937   0.490   2.614  11.698 -0.6589  0.4464 -0.3076
 7159SOL     OW32938   1.524   0.147  15.616 -0.2115  0.4100  0.1552
 7159SOL    HW132939   1.550   0.240  15.618 -0.2970  0.4577 -0.6277
 7159SOL    HW232940   1.432   0.159  15.640 -0.3181  1.6479 -0.8342
 7160SOL     OW32941   1.301   0.605   0.563 -0.9706  0.7857 -0.2389
 7160SOL    HW132942   1.237   0.542   0.597 -0.7559  0.7904  0.1754
 7160SOL    HW232943   1.368   0.538   0.547 -0.1702  1.1830  1.4180
 7161SOL     OW32944   1.273   3.672   2.655  0.5067  0.0538 -0.0999
 7161SOL    HW132945   1.198   3.612   2.648 -1.1480  2.2061 -0.9862
 7161SOL    HW232946   1.317   3.633   2.730  0.3142 -0.8415 -0.4403
 7162SOL     OW32947   4.557   0.306   1.029  0.6187  1.2789  0.3875
 7162SOL    HW132948   4.607   0.303   0.947 -0.9763 -0.0847 -0.5467
 7162SOL    HW232949   4.511   0.222   1.020  2.1133  0.4006  0.8059
 7163SOL     OW32950   1.091   0.583   9.285 -0.1188  0.3169 -0.1839
 7163SOL    HW132951   1.142   0.504   9.268  0.1858  0.2046  1.3509
 7163SOL    HW232952   1.142   0.635   9.346  1.3696 -2.9222  1.3171
 7164SOL     OW32953   2.430   1.272  13.921  0.4863  0.1793  0.1710
 7164SOL    HW132954   2.503   1.242  13.974  0.6082 -0.6001 -0.4423
 7164SOL    HW232955   2.442   1.207  13.852 -1.3911 -0.4146  0.3955
 7165SOL     OW32956   1.653   0.099   0.922  0.8926  0.0076  0.6821
 7165SOL    HW132957   1.689   0.088   1.010  1.7544 -2.7625 -0.0218
 7165SOL    HW232958   1.681   0.187   0.898 -1.1523 -0.0016 -1.7103
 7166SOL     OW32959   3.730   3.354   7.305  0.0914  0.0780 -0.1868
 7166SOL    HW132960   3.712   3.274   7.352 -0.9736 -0.5397 -1.6408
 7166SOL    HW232961   3.813   3.387   7.341  1.6403  0.2905 -3.8671
 7167SOL     OW32962   2.871   1.069  14.523  0.3236  0.2798 -0.0254
 7167SOL    HW132963   2.896   1.087  14.432  1.7893 -0.5870  0.2190
 7167SOL    HW232964   2.833   1.156  14.539  1.3605  0.4082  1.6712
 7168SOL     OW32965   4.032   3.950  14.528 -0.1272 -0.7419  0.1601
 7168SOL    HW132966   4.127   3.937  14.531 -0.2684 -1.6824  0.4701
 7168SOL    HW232967   4.029   3.968  14.434 -1.3183 -2.4591 -0.1267
 7169SOL     OW32968   4.349   1.514  15.363 -0.2129 -0.4909  0.5610
 7169SOL    HW132969   4.418   1.458  15.326  0.9205  0.9890  0.4593
 7169SOL    HW232970   4.275   1.457  15.383 -0.5770 -0.4350 -0.6216
 7170SOL     OW32971   3.893   2.959   5.912 -0.4903 -0.8194 -0.3817
 7170SOL    HW132972   3.949   2.982   5.838  1.0302  0.1275  1.0690
 7170SOL    HW232973   3.940   2.964   5.995 -0.5583 -0.1655 -0.3822
 7171SOL     OW32974   1.730   2.885   3.150 -0.1068 -0.0131  0.4361
 7171SOL    HW132975   1.683   2.968   3.141 -0.8583 -0.4755  0.1132
 7171SOL    HW232976   1.697   2.850   3.233  0.5269  3.0059  1.9724
 7172SOL     OW32977   2.603   1.005  17.447 -0.0566 -0.3958 -0.0694
 7172SOL    HW132978   2.695   1.027  17.429 -0.5077  2.0174  0.5223
 7172SOL    HW232979   2.570   0.993  17.358 -1.5966 -1.1512  0.6119
 7173SOL     OW32980   0.963   0.750   8.991 -0.0057 -0.8170  0.2393
 7173SOL    HW132981   1.050   0.713   9.007 -0.4218 -1.0420  2.0173
 7173SOL    HW232982   0.909   0.740   9.070  0.8683  0.7583  1.0539
 7174SOL     OW32983   1.925   1.218   0.769 -0.1825 -0.9106  0.1597
 7174SOL    HW132984   1.989   1.196   0.837  2.0953  1.9482 -1.0741
 7174SOL    HW232985   1.906   1.311   0.781 -2.9189 -1.4295 -0.0547
 7175SOL     OW32986   3.373   4.349   7.661 -0.2535  0.8625  0.3486
 7175SOL    HW132987   3.293   4.317   7.702  0.6161 -3.1266 -1.0848
 7175SOL    HW232988   3.391   4.412   7.731  0.4710 -0.7676  1.6342
 7176SOL     OW32989   2.954   0.955  13.598  0.1996  0.0480  0.1766
 7176SOL    HW132990   2.930   0.862  13.602 -0.9688  0.2783 -1.2982
 7176SOL    HW232991   2.985   0.962  13.508  1.7346  4.9317  1.1246
 7177SOL     OW32992   0.784   1.992  11.307 -0.1093 -0.0907 -0.3821
 7177SOL    HW132993   0.801   1.937  11.383 -0.0292  1.2944  0.5917
 7177SOL    HW232994   0.826   2.069  11.345 -1.2128 -0.2077  1.0906
 7178SOL     OW32995   3.643   0.885   5.904 -0.6864  0.5281  0.2182
 7178SOL    HW132996   3.657   0.950   5.835  1.3261 -0.4364 -0.2704
 7178SOL    HW232997   3.549   0.901   5.915 -0.7588  0.2966 -0.0579
 7179SOL     OW32998   1.331   4.666  12.159 -0.0604 -0.0044  0.6119
 7179SOL    HW132999   1.256   4.692  12.105  0.2823 -2.2908 -0.9703
 7179SOL    HW233000   1.294   4.681  12.246  0.1633 -0.4942  0.7913
 7180SOL     OW33001   0.355   2.901   8.843  0.2943  0.1815  0.0136
 7180SOL    HW133002   0.390   2.985   8.813 -0.8040 -0.3906 -2.8743
 7180SOL    HW233003   0.383   2.912   8.934 -0.9388  0.1562  0.4023
 7181SOL     OW33004   3.721   4.548  13.548  0.2248 -0.2732 -0.1172
 7181SOL    HW133005   3.756   4.586  13.467 -1.7018  0.4136 -0.6206
 7181SOL    HW233006   3.632   4.536  13.514  0.4834 -2.6292 -0.0207
 7182SOL     OW33007   0.887   1.574   4.205  0.1613 -0.3205 -0.2323
 7182SOL    HW133008   0.938   1.501   4.169  1.4476  0.3473  0.2662
 7182SOL    HW233009   0.855   1.611   4.122  2.3798 -1.2409 -1.4952
 7183SOL     OW33010   4.182   1.958   8.520 -0.7294 -0.0919 -0.2938
 7183SOL    HW133011   4.138   1.939   8.603  0.4709 -0.8639  0.1615
 7183SOL    HW233012   4.213   2.048   8.528  1.1472 -0.5139 -2.6101
 7184SOL     OW33013   0.038   4.470   8.092  0.2263  0.4141 -0.1768
 7184SOL    HW133014   0.102   4.400   8.082 -2.0153 -1.4627 -1.3596
 7184SOL    HW233015   0.084   4.546   8.056 -1.0961  0.7869 -1.0679
 7185SOL     OW33016   2.512   1.378  16.775 -0.3862 -0.2566 -0.1652
 7185SOL    HW133017   2.575   1.333  16.720 -0.5253  0.6447 -1.0553
 7185SOL    HW233018   2.533   1.470  16.764 -0.0065 -0.5405 -1.8346
 7186SOL     OW33019   3.845   2.903   8.608 -0.0739 -0.4501 -0.1929
 7186SOL    HW133020   3.839   2.843   8.682 -1.6949 -2.3732 -1.8647
 7186SOL    HW233021   3.777   2.964   8.634  1.3398  0.9444  0.1829
 7187SOL     OW33022   1.310   0.881   8.131 -0.2534  0.1113  0.4903
 7187SOL    HW133023   1.290   0.954   8.189  0.6222 -0.9276  2.0882
 7187SOL    HW233024   1.350   0.922   8.054  0.6870 -1.1073  0.3254
 7188SOL     OW33025   1.053   3.891   6.548  0.3723  0.0144 -0.1004
 7188SOL    HW133026   1.056   3.946   6.470  0.8203  0.9357  0.5677
 7188SOL    HW233027   1.049   3.809   6.498  0.8300 -0.2455  0.2923
 7189SOL     OW33028   4.201   3.816   3.283  0.5919  0.1421 -0.0076
 7189SOL    HW133029   4.114   3.840   3.250  1.7107  2.6897 -1.0812
 7189SOL    HW233030   4.196   3.868   3.363  1.2808 -0.0335  0.1473
 7190SOL     OW33031   0.127   0.533   4.109  0.5944 -0.3399 -1.0884
 7190SOL    HW133032   0.062   0.603   4.104 -1.0797 -1.7366  1.1933
 7190SOL    HW233033   0.206   0.577   4.078  1.0967 -0.8931 -0.5920
 7191SOL     OW33034   3.402   1.307   2.652 -0.1302  0.5842 -0.1736
 7191SOL    HW133035   3.369   1.274   2.568  1.3005 -0.3464 -0.3732
 7191SOL    HW233036   3.493   1.279   2.647 -0.6110 -0.7779 -1.4782
 7192SOL     OW33037   2.748   2.489   3.309 -0.3730 -0.4492 -0.2057
 7192SOL    HW133038   2.743   2.543   3.230 -0.3591  1.7115  1.2624
 7192SOL    HW233039   2.732   2.557   3.375 -0.2637  1.3503 -2.0181
 7193SOL     OW33040   2.435   1.580   5.740 -0.7203  0.1685 -0.5027
 7193SOL    HW133041   2.527   1.606   5.743 -0.7374 -0.0428  2.4482
 7193SOL    HW233042   2.445   1.486   5.754 -0.2260  0.0577 -1.6499
 7194SOL     OW33043   0.922   2.815  17.662 -0.3706  0.8214  0.1847
 7194SOL    HW133044   0.849   2.769  17.621  0.8461 -1.0554  0.0989
 7194SOL    HW233045   0.986   2.824  17.591 -0.1958  2.0270  0.4901
 7195SOL     OW33046   1.130   0.403   2.815  0.4166  0.3128 -0.0029
 7195SOL    HW133047   1.179   0.440   2.741 -4.0257  0.6832 -2.7551
 7195SOL    HW233048   1.101   0.321   2.777 -0.6463  0.5294  0.3403
 7196SOL     OW33049   3.057   2.749  14.705 -0.1358 -0.0395  0.2376
 7196SOL    HW133050   3.151   2.735  14.713  0.0001 -0.1786 -1.7090
 7196SOL    HW233051   3.035   2.676  14.762 -0.6776  1.5631  2.1015
 7197SOL     OW33052   3.516   2.710   6.618 -0.5000 -1.3932  0.6254
 7197SOL    HW133053   3.466   2.631   6.640 -1.6201 -0.4508  1.4861
 7197SOL    HW233054   3.513   2.755   6.703  0.1606  0.1942 -0.1962
 7198SOL     OW33055   1.337   2.615   7.557 -0.5928 -0.5582  0.0190
 7198SOL    HW133056   1.340   2.549   7.627 -0.8769 -0.9697 -0.3584
 7198SOL    HW233057   1.373   2.571   7.480 -0.8731  0.0215 -0.4388
 7199SOL     OW33058   2.358   1.334   3.492  0.2229  0.3142 -0.2264
 7199SOL    HW133059   2.439   1.325   3.542 -0.0918  1.6132  0.5420
 7199SOL    HW233060   2.372   1.271   3.422 -1.5519 -0.3872  0.0648
 7200SOL     OW33061   0.128   3.308   3.599 -0.2822 -1.0116  0.1222
 7200SOL    HW133062   0.164   3.333   3.514  0.9509 -1.0412  0.6450
 7200SOL    HW233063   0.202   3.267   3.643 -0.6789 -1.4633  0.3629
 7201SOL     OW33064   2.834   1.532  12.638 -0.6382 -0.7008  0.3495
 7201SOL    HW133065   2.753   1.550  12.591  1.0589  2.9446 -1.1865
 7201SOL    HW233066   2.842   1.439  12.620  3.1254 -0.4294  0.6710
 7202SOL     OW33067   2.787   0.737   2.717 -0.1298  0.0271  0.1370
 7202SOL    HW133068   2.857   0.781   2.668  1.9971 -1.0627  2.1816
 7202SOL    HW233069   2.819   0.650   2.691  1.6222  0.5972  0.3996
 7203SOL     OW33070   3.629   0.135  16.424  0.2668 -0.5162  0.2370
 7203SOL    HW133071   3.600   0.069  16.487  1.0703 -0.0703  1.0801
 7203SOL    HW233072   3.556   0.154  16.365  1.0459  0.3139 -0.4564
 7204SOL     OW33073   0.907   3.984   5.045  0.8045  0.0426 -0.3987
 7204SOL    HW133074   0.839   3.962   5.108 -0.2029 -0.4845 -1.6705
 7204SOL    HW233075   0.949   4.056   5.093  0.3496  0.8248 -1.1623
 7205SOL     OW33076   2.277   1.644  12.304  0.0283  0.4235 -0.0279
 7205SOL    HW133077   2.307   1.596  12.227 -0.8013 -2.2330  1.3194
 7205SOL    HW233078   2.275   1.731  12.264  0.5838  1.4993  2.3082
 7206SOL     OW33079   2.026   2.936   6.078 -0.1687  0.1627 -0.5415
 7206SOL    HW133080   2.020   2.856   6.026  0.3113 -0.4541  0.3705
 7206SOL    HW233081   2.063   2.902   6.159 -0.4767 -1.4563 -1.0886
 7207SOL     OW33082   0.453   3.465  17.268 -0.0392 -0.3227 -0.0464
 7207SOL    HW133083   0.518   3.534  17.255 -2.3227  1.7271 -0.6216
 7207SOL    HW233084   0.377   3.515  17.297 -0.8605 -2.9394  2.3234
 7208SOL     OW33085   0.950   0.016   7.052 -0.3262  0.5987  0.5349
 7208SOL    HW133086   1.034   0.007   7.007 -0.4181 -0.2282  0.5315
 7208SOL    HW233087   0.977   0.001   7.143 -0.3174  0.7109  0.5509
 7209SOL     OW33088   4.495   3.808   0.296 -0.3169 -0.1345 -0.2046
 7209SOL    HW133089   4.559   3.815   0.367 -0.1006  1.4492 -0.5592
 7209SOL    HW233090   4.416   3.780   0.343 -1.0193  0.9561 -0.7423
 7210SOL     OW33091   3.752   4.016   6.513  0.2218  0.3224 -0.4722
 7210SOL    HW133092   3.658   4.021   6.495 -0.0819 -1.6966  0.4556
 7210SOL    HW233093   3.784   4.086   6.457  1.1453  0.7726  0.6099
 7211SOL     OW33094   1.271   4.410   0.516  0.2559  0.2239  0.2142
 7211SOL    HW133095   1.184   4.381   0.487  0.4734  0.2457 -0.4497
 7211SOL    HW233096   1.318   4.426   0.435  0.8588  1.8480  0.8668
 7212SOL     OW33097   2.707   0.779  13.876  0.0990 -0.0463  0.1548
 7212SOL    HW133098   2.727   0.861  13.831 -2.1050  1.2411  1.5420
 7212SOL    HW233099   2.612   0.780  13.873  0.1730  0.4313 -2.3597
 7213SOL     OW33100   0.261   1.325   5.903 -1.1294  0.0402  0.2111
 7213SOL    HW133101   0.224   1.374   5.829  0.8082  1.0316 -0.1102
 7213SOL    HW233102   0.307   1.392   5.953 -0.5501 -2.0420  2.4395
 7214SOL     OW33103   0.424   1.015   0.265  0.0857 -0.8378 -0.0827
 7214SOL    HW133104   0.391   0.930   0.236 -0.9243 -0.5024  0.0859
 7214SOL    HW233105   0.368   1.034   0.340 -2.1979  1.2075 -2.2827
 7215SOL     OW33106   3.607   4.365   9.095 -0.0968 -0.1732 -0.0097
 7215SOL    HW133107   3.578   4.275   9.114 -2.7033  0.2514 -1.9922
 7215SOL    HW233108   3.650   4.341   9.014  1.3210 -2.3691  1.3870
 7216SOL     OW33109   3.356   3.614   7.405 -0.1480  0.2027 -0.0569
 7216SOL    HW133110   3.393   3.574   7.484  1.6310 -1.1309 -1.5722
 7216SOL    HW233111   3.436   3.615   7.353 -0.4719 -0.2702 -0.5665
 7217SOL     OW33112   4.467   1.471   3.117  1.0960 -0.0173  0.2692
 7217SOL    HW133113   4.477   1.498   3.025 -0.9357 -0.8582 -0.2094
 7217SOL    HW233114   4.519   1.392   3.130  1.0735 -0.3459 -1.5894
 7218SOL     OW33115   2.709   3.350   8.622 -0.2940  0.7117  0.5168
 7218SOL    HW133116   2.674   3.430   8.582  1.9045  1.1948 -0.4636
 7218SOL    HW233117   2.664   3.278   8.578  0.8084  0.5978 -0.4286
 7219SOL     OW33118   2.176   2.396   3.273 -0.2452 -0.4687  0.0926
 7219SOL    HW133119   2.256   2.387   3.326  0.1827  0.6598 -0.3483
 7219SOL    HW233120   2.211   2.377   3.186  0.9624  2.8188 -0.1415
 7220SOL     OW33121   2.062   3.760   3.748  0.2424 -0.2316 -0.3397
 7220SOL    HW133122   2.084   3.828   3.685 -1.2818 -2.0486 -2.8057
 7220SOL    HW233123   2.145   3.756   3.797 -0.1311  1.2222  0.4104
 7221SOL     OW33124   4.099   3.792   7.419 -0.2380  0.1803  0.0901
 7221SOL    HW133125   4.065   3.881   7.427  1.0070  0.9291 -3.1359
 7221SOL    HW233126   4.063   3.755   7.500  0.0720  1.6706  0.9221
 7222SOL     OW33127   3.890   0.445   6.893  0.2988 -0.1529 -0.1202
 7222SOL    HW133128   3.870   0.538   6.896 -0.0552 -0.2144 -0.5805
 7222SOL    HW233129   3.945   0.437   6.971  1.8714  0.5488 -1.1515
 7223SOL     OW33130   3.588   1.213   4.410  0.4169  0.1402 -0.1015
 7223SOL    HW133131   3.664   1.155   4.416  1.7282  1.6488 -2.3424
 7223SOL    HW233132   3.604   1.270   4.486 -1.0966  1.2106 -0.5852
 7224SOL     OW33133   3.429   0.489   6.578  0.1059  0.0264  0.1798
 7224SOL    HW133134   3.440   0.581   6.600  0.8045 -0.0615  0.1861
 7224SOL    HW233135   3.474   0.480   6.494  2.8566  1.4904  1.5069
 7225SOL     OW33136   3.043   2.621   3.417  0.2165 -0.2760 -0.1441
 7225SOL    HW133137   2.964   2.650   3.463  0.1647 -0.5171 -0.0787
 7225SOL    HW233138   3.081   2.573   3.490  0.1681 -0.1239 -0.0187
 7226SOL     OW33139   2.586   0.173   4.593  0.0851 -0.1235 -0.3207
 7226SOL    HW133140   2.523   0.236   4.628 -0.7043 -1.6766  1.0620
 7226SOL    HW233141   2.525   0.141   4.527  0.3631  1.0697 -1.1541
 7227SOL     OW33142   2.511   0.117   3.324 -0.1519  0.4326 -0.0459
 7227SOL    HW133143   2.472   0.201   3.300 -1.5251 -0.6448 -1.6107
 7227SOL    HW233144   2.579   0.109   3.256 -0.6800  0.5898 -0.5917
 7228SOL     OW33145   1.996   1.838   6.019  0.2451 -0.1081 -0.3376
 7228SOL    HW133146   2.078   1.807   5.981 -0.8172 -3.4847  0.1132
 7228SOL    HW233147   1.932   1.798   5.959  0.0684  0.2257 -0.3746
 7229SOL     OW33148   2.642   2.280   2.806  0.2870 -0.1581  0.2857
 7229SOL    HW133149   2.674   2.197   2.842 -1.4952 -0.8328  0.3609
 7229SOL    HW233150   2.703   2.283   2.732 -1.7457 -1.6688 -1.4587
 7230SOL     OW33151   4.043   0.909   6.593  0.7667 -0.7483  0.1826
 7230SOL    HW133152   4.133   0.932   6.571  0.1423  0.7009 -0.8510
 7230SOL    HW233153   4.057   0.833   6.650  1.8998 -0.3022  0.4787
 7231SOL     OW33154   4.638   4.503   5.088  0.0458  0.5012  0.5614
 7231SOL    HW133155   4.709   4.463   5.137  0.3321  2.7939  2.0243
 7231SOL    HW233156   4.661   4.491   4.995  0.5186 -1.8455  0.9804
 7232SOL     OW33157   2.156   0.946   3.342 -0.4842 -0.3023  0.5152
 7232SOL    HW133158   2.091   1.015   3.329 -1.9083 -1.4124  1.6021
 7232SOL    HW233159   2.104   0.880   3.295 -1.2285  0.6252  0.0428
 7233SOL     OW33160   1.617   1.196   8.225 -0.3936  0.5168  0.4749
 7233SOL    HW133161   1.623   1.280   8.270  0.0145  1.0190 -0.5246
 7233SOL    HW233162   1.647   1.217   8.137  0.8853 -1.4216  0.4526
 7234SOL     OW33163   0.301   1.346   8.010 -0.1216 -0.0422 -0.2654
 7234SOL    HW133164   0.378   1.292   7.993 -0.0949 -0.4315  1.0994
 7234SOL    HW233165   0.259   1.303   8.084  0.3404  0.3126  0.2012
 7235SOL     OW33166   4.449   4.513  14.575  0.4980  0.0354 -0.7366
 7235SOL    HW133167   4.426   4.429  14.614  1.1924  0.7491  1.2152
 7235SOL    HW233168   4.386   4.572  14.618 -0.5491 -0.2127 -1.9330
 7236SOL     OW33169   2.532   0.350   3.150  0.1904 -0.2005 -0.5615
 7236SOL    HW133170   2.605   0.411   3.163 -2.0385  2.9722 -2.7929
 7236SOL    HW233171   2.476   0.417   3.110  0.9002 -0.3117 -1.7604
 7237SOL     OW33172   4.415   0.183   7.096 -0.4388  0.0394  0.5758
 7237SOL    HW133173   4.483   0.218   7.039  0.0616 -1.9388 -0.0576
 7237SOL    HW233174   4.409   0.095   7.058  1.2251  1.1315 -2.2275
 7238SOL     OW33175   4.439   0.689   6.155  0.3348 -0.2428  0.2472
 7238SOL    HW133176   4.353   0.662   6.188  0.0509 -0.2682 -0.5140
 7238SOL    HW233177   4.465   0.778   6.181  0.0567 -0.5319  1.5518
 7239SOL     OW33178   1.851   4.251   5.268  0.1973  0.1665 -0.1008
 7239SOL    HW133179   1.761   4.280   5.255  0.9285  1.7292 -1.6758
 7239SOL    HW233180   1.853   4.157   5.249  0.0605  0.6960 -2.7691
 7240SOL     OW33181   0.239   3.594  11.482  0.2675  0.9788  0.0266
 7240SOL    HW133182   0.295   3.544  11.541  1.3835  3.0912  0.7827
 7240SOL    HW233183   0.273   3.683  11.495  0.5899  1.1724 -2.1824
 7241SOL     OW33184   0.863   3.443  16.293  0.0990 -0.2201 -0.1999
 7241SOL    HW133185   0.782   3.495  16.284 -0.5246 -0.9980  0.9294
 7241SOL    HW233186   0.827   3.355  16.306  1.8326 -1.0486 -1.0914
 7242SOL     OW33187   3.478   0.425   2.319  0.1587  0.6267 -0.2747
 7242SOL    HW133188   3.434   0.468   2.245 -0.4868 -2.5394 -1.7652
 7242SOL    HW233189   3.556   0.379   2.289  0.3695 -0.6019  2.1563
 7243SOL     OW33190   2.234   4.664   2.623 -0.5626 -0.4935 -0.4689
 7243SOL    HW133191   2.322   4.682   2.591  0.2026 -1.6851  1.0058
 7243SOL    HW233192   2.245   4.694   2.713 -2.2358  3.4302 -1.5595
 7244SOL     OW33193   4.035   2.253   1.154  0.1469  0.2156  0.6771
 7244SOL    HW133194   4.042   2.194   1.079  0.2537  1.8301 -0.5538
 7244SOL    HW233195   3.981   2.188   1.200 -2.2420  1.2191 -0.7257
 7245SOL     OW33196   1.420   3.137   2.330 -0.0278 -0.1967  0.1973
 7245SOL    HW133197   1.340   3.134   2.278  0.4976  0.7768 -0.6813
 7245SOL    HW233198   1.385   3.111   2.415  0.5489  0.1150  0.5278
 7246SOL     OW33199   0.323   0.331   1.769 -0.1599 -0.5924 -0.2870
 7246SOL    HW133200   0.286   0.419   1.782  0.8537 -0.0707 -0.9569
 7246SOL    HW233201   0.240   0.284   1.758  0.9096 -2.7221  0.8977
 7247SOL     OW33202   0.674   0.122   7.291  0.2683 -0.0092  0.1275
 7247SOL    HW133203   0.647   0.189   7.228 -0.3162  0.1899  0.5914
 7247SOL    HW233204   0.715   0.173   7.361 -0.0545 -0.1905  0.4493
 7248SOL     OW33205   2.244   0.269   4.210 -0.3772  0.7421  0.0890
 7248SOL    HW133206   2.158   0.226   4.217 -1.3146  2.4426 -0.9654
 7248SOL    HW233207   2.233   0.338   4.146  1.8824 -1.4217 -2.6322
 7249SOL     OW33208   3.306   4.180   2.937 -0.1215 -0.0095  0.1203
 7249SOL    HW133209   3.312   4.228   2.855 -0.4626  0.8678  0.6072
 7249SOL    HW233210   3.347   4.097   2.910 -2.9120 -0.1898 -3.3904
 7250SOL     OW33211   1.869   1.368   7.606 -0.1106  0.0531  0.1219
 7250SOL    HW133212   1.856   1.463   7.599  1.4032  0.2873  0.5144
 7250SOL    HW233213   1.941   1.357   7.544  0.0999 -0.2191  0.4162
 7251SOL     OW33214   1.023   0.412   4.287 -0.3357  0.0569 -0.7321
 7251SOL    HW133215   1.071   0.339   4.326  0.0719  1.1543  0.7989
 7251SOL    HW233216   1.081   0.485   4.307 -0.5922  0.1003 -0.1261
 7252SOL     OW33217   0.825   2.391   9.743  0.0841  0.1755 -0.2152
 7252SOL    HW133218   0.796   2.308   9.781  0.3900 -0.0696 -0.5179
 7252SOL    HW233219   0.823   2.383   9.648  0.1659  0.3451 -0.2303
 7253SOL     OW33220   1.990   2.963   2.895 -0.9329  0.2851  0.2826
 7253SOL    HW133221   2.075   2.921   2.883 -1.0674  0.6537 -2.0573
 7253SOL    HW233222   1.935   2.899   2.938 -1.6797  0.1148 -0.9214
 7254SOL     OW33223   3.951   3.054   7.819 -0.1880  0.2166 -0.5990
 7254SOL    HW133224   3.982   2.996   7.888  3.7485  2.4002 -0.5302
 7254SOL    HW233225   4.024   3.041   7.758 -0.5319  0.9468 -1.1660
 7255SOL     OW33226   2.497   1.938  16.059  0.1891  0.5283  0.1878
 7255SOL    HW133227   2.549   1.866  16.023  1.5372  1.2601  0.6829
 7255SOL    HW233228   2.450   1.888  16.126  1.0540 -0.1219  0.3211
 7256SOL     OW33229   2.377   3.796  17.103 -0.1558  0.0972  0.0583
 7256SOL    HW133230   2.314   3.796  17.031  0.0556 -1.1553 -0.1324
 7256SOL    HW233231   2.387   3.705  17.132  1.4875  0.2042 -0.2074
 7257SOL     OW33232   3.240   2.256   5.078  0.1705 -0.1805  0.5905
 7257SOL    HW133233   3.232   2.192   5.007  0.0949  0.3364  0.1302
 7257SOL    HW233234   3.207   2.333   5.031 -1.8837 -1.6543 -0.4066
 7258SOL     OW33235   1.598   2.926  11.934 -0.1921 -0.2477  0.5793
 7258SOL    HW133236   1.568   3.013  11.908 -0.4373 -0.5272 -0.0635
 7258SOL    HW233237   1.691   2.951  11.940 -0.3428  0.9421 -1.9780
 7259SOL     OW33238   1.428   1.026  15.457 -0.1118 -0.2169 -0.0852
 7259SOL    HW133239   1.483   1.085  15.405  0.8447 -0.9956  0.0500
 7259SOL    HW233240   1.430   1.065  15.544  0.3271  2.2940 -1.2263
 7260SOL     OW33241   4.276   2.064   7.637  0.2647 -0.7612  0.7114
 7260SOL    HW133242   4.362   2.068   7.680  0.0786  0.6092  0.9626
 7260SOL    HW233243   4.259   2.154   7.609  0.0708 -0.9679  0.1801
 7261SOL     OW33244   0.485   1.786   7.122  0.4633  0.5721  0.4940
 7261SOL    HW133245   0.551   1.806   7.189  0.1644  0.4927  0.8126
 7261SOL    HW233246   0.447   1.706   7.157 -0.7959  0.3465 -1.4497
 7262SOL     OW33247   2.367   2.963   5.594 -0.2511 -0.3156  0.7712
 7262SOL    HW133248   2.430   2.973   5.522  1.4990 -0.5693  2.2493
 7262SOL    HW233249   2.342   2.871   5.585 -0.5190 -0.0405 -1.2223
 7263SOL     OW33250   3.564   3.896   7.891 -0.0443 -0.1370  0.1681
 7263SOL    HW133251   3.553   3.909   7.985  0.5413  0.5637  0.1412
 7263SOL    HW233252   3.478   3.921   7.858  0.0386  2.5750  1.9731
 7264SOL     OW33253   4.003   4.193   4.806 -0.6195  0.0715 -0.5634
 7264SOL    HW133254   4.058   4.272   4.807  2.5283 -2.1037 -2.2409
 7264SOL    HW233255   4.067   4.123   4.798 -0.6098  0.0958 -0.6972
 7265SOL     OW33256   1.369   3.448  13.231 -0.0749 -0.0972 -0.0272
 7265SOL    HW133257   1.449   3.425  13.278  0.2915 -0.6418 -0.9054
 7265SOL    HW233258   1.382   3.542  13.216 -0.2682 -0.2433 -1.1687
 7266SOL     OW33259   4.506   4.028   4.959 -0.2985  0.1455  0.1394
 7266SOL    HW133260   4.473   4.039   4.869  0.4405  0.7480 -0.0599
 7266SOL    HW233261   4.432   4.054   5.014 -2.5053  2.7697 -4.0588
 7267SOL     OW33262   2.198   3.284   8.074  0.2029  0.2732 -0.2616
 7267SOL    HW133263   2.208   3.233   8.154 -0.1200 -0.1536 -0.4907
 7267SOL    HW233264   2.272   3.247   8.026 -1.3184 -1.7426 -1.0502
 7268SOL     OW33265   3.564   3.861   8.452  0.2199  0.1803  0.5021
 7268SOL    HW133266   3.492   3.798   8.463 -0.3409  0.8864  0.8144
 7268SOL    HW233267   3.611   3.845   8.534  3.5382 -1.6326 -1.7263
 7269SOL     OW33268   1.504   2.334   9.898 -0.2570 -0.6812  0.4868
 7269SOL    HW133269   1.529   2.277   9.971 -3.3417  0.7409  2.6310
 7269SOL    HW233270   1.564   2.408   9.908 -1.4599  0.4745 -0.7804
 7270SOL     OW33271   4.464   3.328   7.836  0.0933 -0.7131  0.2633
 7270SOL    HW133272   4.435   3.356   7.750 -0.6493  0.0687  0.7698
 7270SOL    HW233273   4.503   3.411   7.865 -1.2841 -0.0650  0.2556
 7271SOL     OW33274   1.942   3.499   2.092 -0.1798  0.3230 -0.2529
 7271SOL    HW133275   2.015   3.467   2.038 -0.6798  0.5315 -1.0419
 7271SOL    HW233276   1.924   3.430   2.157 -2.0061  1.2160  0.1900
 7272SOL     OW33277   2.983   1.957   8.469 -0.5946 -0.2580  0.1165
 7272SOL    HW133278   2.951   1.870   8.446  0.8418 -0.8412  0.3163
 7272SOL    HW233279   2.901   2.004   8.454  0.3479  1.7905  1.3545
 7273SOL     OW33280   1.629   0.738  15.276 -0.0946  0.0228  0.7506
 7273SOL    HW133281   1.657   0.785  15.355  2.1133  2.5723 -1.5449
 7273SOL    HW233282   1.612   0.817  15.225 -3.2176 -0.4986  0.9543
 7274SOL     OW33283   0.817   1.609   2.235 -0.6926  0.8482 -0.4419
 7274SOL    HW133284   0.754   1.545   2.200  0.9165 -0.5404 -0.7969
 7274SOL    HW233285   0.867   1.645   2.162 -1.1626  1.4472 -0.4647
 7275SOL     OW33286   4.398   0.593   2.399 -0.1026 -0.0080 -0.1575
 7275SOL    HW133287   4.468   0.658   2.392  2.0495 -2.2297  0.8157
 7275SOL    HW233288   4.333   0.657   2.427  1.0207  1.6953 -1.4124
 7276SOL     OW33289   0.570   2.232   3.702 -0.6678 -0.1609 -0.3517
 7276SOL    HW133290   0.568   2.169   3.629  1.1367  1.2970 -1.6556
 7276SOL    HW233291   0.486   2.219   3.746  0.8045  1.0529  2.7935
 7277SOL     OW33292   2.526   3.056   5.795 -0.1859  0.4371  0.0462
 7277SOL    HW133293   2.455   3.055   5.859  0.9113 -2.3868  1.1897
 7277SOL    HW233294   2.474   3.017   5.725 -1.3779  2.0367  0.0273
 7278SOL     OW33295   2.424   4.456   6.704  0.0013 -0.1740 -0.2405
 7278SOL    HW133296   2.435   4.436   6.611 -1.4395 -2.0471 -0.0034
 7278SOL    HW233297   2.336   4.423   6.719  0.5871 -1.8038 -0.3631
 7279SOL     OW33298   1.229   1.015   4.224 -0.3971  0.5606 -0.0144
 7279SOL    HW133299   1.178   1.064   4.289  0.3426  2.3449 -0.8087
 7279SOL    HW233300   1.159   1.011   4.159 -0.4257 -2.3859  0.1773
 7280SOL     OW33301   1.379   2.721  11.580  0.4535 -0.2912 -0.4023
 7280SOL    HW133302   1.432   2.731  11.501  1.7937  2.2669  0.8105
 7280SOL    HW233303   1.446   2.720  11.648  0.0672  0.0712 -0.0179
 7281SOL     OW33304   3.901   0.000   3.521  0.1264 -0.6552 -0.1383
 7281SOL    HW133305   3.832   4.660   3.514  0.8985 -1.4737 -0.1124
 7281SOL    HW233306   3.913   0.007   3.615  0.9459  0.3747 -0.3125
 7282SOL     OW33307   2.533   0.042   6.519 -0.0626 -0.0327  0.4150
 7282SOL    HW133308   2.498   0.119   6.564 -1.1981  0.2782 -0.9869
 7282SOL    HW233309   2.586   0.009   6.592  2.4228  1.5271 -0.7331
 7283SOL     OW33310   1.733   1.143   6.345  0.2613 -0.2219 -0.2937
 7283SOL    HW133311   1.736   1.139   6.440  1.5750  0.9838 -0.2749
 7283SOL    HW233312   1.821   1.169   6.317  0.6608 -0.4535  0.7416
 7284SOL     OW33313   1.310   4.637   6.244 -0.2489  0.3518  0.4175
 7284SOL    HW133314   1.403   4.615   6.253 -0.5319 -0.6359  1.0134
 7284SOL    HW233315   1.315   4.703   6.175 -1.4467  2.0213  1.9260
 7285SOL     OW33316   0.089   3.031   6.109 -0.1000 -0.6173 -0.0052
 7285SOL    HW133317   0.010   2.996   6.150  0.1178 -0.6459  0.3879
 7285SOL    HW233318   0.145   2.954   6.106  3.3692  1.8976  0.6139
 7286SOL     OW33319   2.612   1.692  14.406 -0.2561  0.7659 -0.4703
 7286SOL    HW133320   2.688   1.641  14.433 -1.3979 -0.7025 -0.0637
 7286SOL    HW233321   2.553   1.624  14.373 -0.1163 -0.4543  1.8462
 7287SOL     OW33322   4.659   4.395   2.389  0.0553  0.0633 -0.1174
 7287SOL    HW133323   4.657   4.302   2.409 -0.5576  0.3235  0.9904
 7287SOL    HW233324   4.592   4.400   2.320  0.3180  2.2584 -0.1994
 7288SOL     OW33325   4.212   2.236   9.943  0.0102  0.6317 -0.0936
 7288SOL    HW133326   4.133   2.183   9.957  0.4169  0.6528  2.2404
 7288SOL    HW233327   4.228   2.257  10.035  1.2031  0.3132 -0.2222
 7289SOL     OW33328   4.014   1.256   3.914 -0.2436 -0.2522 -0.0941
 7289SOL    HW133329   4.047   1.170   3.941 -1.1101 -0.6952 -0.4329
 7289SOL    HW233330   3.978   1.237   3.827  1.1940 -0.6074 -0.6158
 7290SOL     OW33331   4.112   3.159   2.263  0.8905 -0.1190  0.1774
 7290SOL    HW133332   4.042   3.107   2.303 -0.4688  0.0698 -1.9264
 7290SOL    HW233333   4.200   3.129   2.286  0.7249 -2.1925 -1.9902
 7291SOL     OW33334   3.278   2.772  17.446 -0.2285 -0.1745 -0.1319
 7291SOL    HW133335   3.301   2.680  17.457  0.2373 -0.0938 -0.4357
 7291SOL    HW233336   3.338   2.822  17.503  0.8012  1.6002 -2.7584
 7292SOL     OW33337   0.356   1.516   8.317  0.8152 -0.0162 -0.4950
 7292SOL    HW133338   0.415   1.453   8.359 -0.2590 -1.3130 -0.9157
 7292SOL    HW233339   0.341   1.582   8.384  1.6492  0.5067 -0.8275
 7293SOL     OW33340   0.990   1.296  11.766 -0.0529 -0.4041 -0.2040
 7293SOL    HW133341   1.077   1.288  11.727 -0.9827 -0.7435 -2.1556
 7293SOL    HW233342   0.992   1.211  11.811 -0.7283  0.1799  0.9410
 7294SOL     OW33343   4.541   4.179   7.344  0.1738 -0.4691 -0.2020
 7294SOL    HW133344   4.537   4.275   7.352 -0.0515 -0.5524  0.7008
 7294SOL    HW233345   4.469   4.159   7.404  0.4232 -2.2709 -0.5171
 7295SOL     OW33346   3.193   1.192   6.917  0.0181  0.1141  0.3351
 7295SOL    HW133347   3.259   1.228   6.858 -0.2142  0.2388  0.1506
 7295SOL    HW233348   3.112   1.228   6.880 -1.7492 -1.9709  2.0925
 7296SOL     OW33349   3.499   2.900  17.055  0.9011  0.1568  0.6521
 7296SOL    HW133350   3.537   2.856  17.131 -0.4492 -1.5563  0.3362
 7296SOL    HW233351   3.406   2.900  17.079  0.2925 -0.8623 -1.7420
 7297SOL     OW33352   3.542   1.860   7.111  0.3131  0.4112  1.0609
 7297SOL    HW133353   3.546   1.768   7.138  0.9481  0.1730  0.1633
 7297SOL    HW233354   3.449   1.874   7.094  0.6631  1.6383  0.2015
 7298SOL     OW33355   3.560   0.015   4.060 -0.7733 -0.2091  0.0714
 7298SOL    HW133356   3.553   0.043   3.969 -2.7878  0.5897  0.4634
 7298SOL    HW233357   3.529   0.093   4.107  0.1826  1.8268 -2.6410
 7299SOL     OW33358   3.391   2.081   2.582 -0.3232 -0.3508  0.5921
 7299SOL    HW133359   3.347   2.062   2.499 -0.7282 -0.4291  0.8223
 7299SOL    HW233360   3.412   1.992   2.610  1.0422  0.0556  0.8442
 7300SOL     OW33361   1.113   1.667  10.665  0.0666 -0.2891 -0.0354
 7300SOL    HW133362   1.195   1.651  10.619 -0.2802  0.8504 -1.0641
 7300SOL    HW233363   1.049   1.641  10.598 -0.0429 -1.2700  0.4522
 7301SOL     OW33364   0.326   1.719  12.761  0.2045 -0.3511  0.1129
 7301SOL    HW133365   0.335   1.629  12.793  1.7483 -0.2208  0.0572
 7301SOL    HW233366   0.412   1.759  12.776 -1.0156  1.9667  0.9256
 7302SOL     OW33367   1.500   4.384  13.303  0.5965 -0.0385  0.9958
 7302SOL    HW133368   1.442   4.455  13.329 -0.2665 -0.3112 -0.2082
 7302SOL    HW233369   1.547   4.370  13.386  0.2189 -0.8752  1.0706
 7303SOL     OW33370   3.494   4.620   7.620 -0.3755  0.6605  0.0633
 7303SOL    HW133371   3.504   4.623   7.715 -0.7515 -2.0296  0.1982
 7303SOL    HW233372   3.580   4.581   7.601 -0.8657 -0.8147  0.8578
 7304SOL     OW33373   4.421   3.336   2.482 -0.0547  0.0930 -0.3936
 7304SOL    HW133374   4.512   3.324   2.453 -0.7842 -1.0516 -2.2450
 7304SOL    HW233375   4.382   3.294   2.405 -0.1244 -0.2094 -0.1944
 7305SOL     OW33376   1.179   3.706   6.802 -0.2052  0.5985  0.0687
 7305SOL    HW133377   1.244   3.776   6.795  1.9496 -1.3960  0.2549
 7305SOL    HW233378   1.150   3.711   6.894 -0.0757 -0.1071  0.1448
 7306SOL     OW33379   0.688   3.895   3.072  0.3084  0.6161 -0.9755
 7306SOL    HW133380   0.595   3.911   3.088 -0.3663 -1.7552 -2.4418
 7306SOL    HW233381   0.713   3.938   3.154 -1.8491 -0.4452  0.2337
 7307SOL     OW33382   1.739   4.401   2.696  0.3103  0.2752 -0.3231
 7307SOL    HW133383   1.659   4.371   2.739  0.6502  1.8070  1.3958
 7307SOL    HW233384   1.759   4.327   2.640 -0.6049  0.9506 -1.5273
 7308SOL     OW33385   0.218   0.409   3.480  0.0051 -0.1623  1.3520
 7308SOL    HW133386   0.295   0.455   3.447 -0.0740 -0.7934  0.2785
 7308SOL    HW233387   0.259   0.332   3.518 -2.9365 -2.0783  0.6092
 7309SOL     OW33388   3.833   2.273   3.430  0.0694  0.1893 -0.7429
 7309SOL    HW133389   3.792   2.315   3.354 -0.3100 -1.5071 -1.4819
 7309SOL    HW233390   3.877   2.349   3.467  0.5566  0.8427 -2.6541
 7310SOL     OW33391   1.952   0.256   4.925 -0.0489 -0.7938  0.4859
 7310SOL    HW133392   1.908   0.261   5.010 -1.6808 -2.6259 -0.2512
 7310SOL    HW233393   2.011   0.329   4.939  1.3806 -2.5585  3.5841
 7311SOL     OW33394   1.928   0.853  11.350  0.0844  0.9460  0.6855
 7311SOL    HW133395   1.989   0.779  11.345  0.7682  1.4590  1.3985
 7311SOL    HW233396   1.975   0.917  11.403 -2.2914  0.5113  3.3658
 7312SOL     OW33397   4.604   0.958  16.328  0.0484 -0.2430  0.5554
 7312SOL    HW133398   4.661   1.012  16.273 -0.9203 -0.7707 -0.9527
 7312SOL    HW233399   4.668   0.890  16.352  3.7286  2.5390 -1.3800
 7313SOL     OW33400   2.651   0.979   7.599  0.1936 -0.5177 -0.1306
 7313SOL    HW133401   2.668   0.887   7.576  2.6381  0.4317 -2.1755
 7313SOL    HW233402   2.738   1.017   7.585 -0.0816  0.2131  0.1880
 7314SOL     OW33403   1.311   0.859   8.740  0.0465  0.3115 -0.0908
 7314SOL    HW133404   1.264   0.844   8.658 -0.0065  0.4388 -0.0840
 7314SOL    HW233405   1.329   0.768   8.764 -0.4292  0.2792  0.1405
 7315SOL     OW33406   1.556   4.257   6.434  0.7291  0.3715  0.1542
 7315SOL    HW133407   1.640   4.282   6.473  1.3861  0.0330 -1.0635
 7315SOL    HW233408   1.579   4.192   6.367 -1.3618 -2.5310  2.2360
 7316SOL     OW33409   3.661   4.567   5.690  0.4855 -0.5935  0.9245
 7316SOL    HW133410   3.730   4.510   5.659  1.0109  1.0298 -0.8588
 7316SOL    HW233411   3.664   4.540   5.782 -0.4280 -0.0341  1.1221
 7317SOL     OW33412   4.234   2.119   8.949  0.0991 -0.2802  0.3321
 7317SOL    HW133413   4.245   2.043   9.006  1.1439  0.2101  0.7845
 7317SOL    HW233414   4.168   2.170   8.995  0.6117 -0.3154  1.1050
 7318SOL     OW33415   2.858   3.982   5.812 -0.2900 -0.1472  0.5085
 7318SOL    HW133416   2.813   3.994   5.896  1.2854  0.2168  1.2912
 7318SOL    HW233417   2.947   4.008   5.833  0.3368 -1.2142 -0.9065
 7319SOL     OW33418   2.146   3.589  17.288 -0.0787 -0.3078  0.3055
 7319SOL    HW133419   2.218   3.538  17.250  0.4952  0.5000  0.3143
 7319SOL    HW233420   2.073   3.577  17.227 -2.1120 -1.8830  3.0616
 7320SOL     OW33421   4.433   0.553   4.372 -0.0461  0.1635 -0.4570
 7320SOL    HW133422   4.466   0.491   4.308  0.2670 -1.6667  1.4886
 7320SOL    HW233423   4.484   0.535   4.451  0.7959  1.0311 -0.8129
 7321SOL     OW33424   1.270   0.467  15.872  0.2919  0.0046  0.1579
 7321SOL    HW133425   1.174   0.468  15.878  0.3816  0.2742  1.5751
 7321SOL    HW233426   1.287   0.535  15.807 -0.5475  0.6161  0.5693
 7322SOL     OW33427   3.282   0.561  14.006 -0.0266  0.0072 -0.1137
 7322SOL    HW133428   3.276   0.529  14.096 -4.5625  0.8210 -0.1376
 7322SOL    HW233429   3.303   0.654  14.017  0.0965 -0.3054  2.2432
 7323SOL     OW33430   3.240   2.430  15.126  0.8111  0.0202  0.5837
 7323SOL    HW133431   3.323   2.383  15.127  0.7788 -0.0455  0.2602
 7323SOL    HW233432   3.188   2.358  15.162 -0.1847  0.4235 -0.0561
 7324SOL     OW33433   3.782   0.199   0.595  0.1116 -0.8368  0.2606
 7324SOL    HW133434   3.772   0.108   0.566  2.2134 -0.3055 -2.0582
 7324SOL    HW233435   3.688   0.218   0.597  0.4612  1.1702 -1.9830
 7325SOL     OW33436   2.189   2.962  11.097  0.4861 -0.2428 -0.2373
 7325SOL    HW133437   2.181   3.017  11.175 -1.4690 -0.2631 -0.4466
 7325SOL    HW233438   2.275   2.923  11.117  0.6287  0.1073 -0.1650
 7326SOL     OW33439   3.981   3.060  10.569 -0.2457  0.0766  0.3411
 7326SOL    HW133440   3.952   2.973  10.593 -0.3595 -0.5067 -1.9768
 7326SOL    HW233441   3.909   3.112  10.604 -1.0682 -1.6651  1.1909
 7327SOL     OW33442   2.853   0.488   5.408  0.5886  0.1582  0.0091
 7327SOL    HW133443   2.874   0.395   5.408 -1.3110 -0.2641  1.1784
 7327SOL    HW233444   2.897   0.505   5.325  0.5933 -0.9702 -0.2263
 7328SOL     OW33445   0.093   3.093   3.211  0.4393 -0.4143 -0.5174
 7328SOL    HW133446   0.109   2.999   3.207  0.8797 -0.3041 -1.3645
 7328SOL    HW233447   0.090   3.108   3.117 -0.2167 -0.0453 -0.4351
 7329SOL     OW33448   2.797   0.087   7.644  0.1417 -0.8396 -0.7156
 7329SOL    HW133449   2.704   0.075   7.623 -0.2405  0.4204  0.2839
 7329SOL    HW233450   2.813   0.181   7.638 -0.1801 -0.5630  3.0827
 7330SOL     OW33451   4.201   0.448   5.202 -0.0318 -0.2482  0.2764
 7330SOL    HW133452   4.288   0.477   5.176 -1.1308  1.4385 -1.4649
 7330SOL    HW233453   4.155   0.519   5.158 -1.7581  0.0777  2.6122
 7331SOL     OW33454   2.859   0.415   8.895 -0.0192  0.9193 -0.6517
 7331SOL    HW133455   2.773   0.443   8.927 -0.4216 -0.8602 -0.1881
 7331SOL    HW233456   2.868   0.468   8.816 -1.9229  1.5410 -0.4693
 7332SOL     OW33457   2.853   0.825   9.435 -0.0244 -0.6524 -0.2143
 7332SOL    HW133458   2.831   0.790   9.348 -0.0830  1.6537 -1.1443
 7332SOL    HW233459   2.774   0.790   9.475 -0.2875  0.2023  0.0107
 7333SOL     OW33460   1.992   1.294   3.537 -0.0774 -0.2505  0.2077
 7333SOL    HW133461   1.972   1.294   3.444  0.2814 -1.1289  0.1335
 7333SOL    HW233462   1.945   1.373   3.565 -3.6069 -2.1820 -0.3430
 7334SOL     OW33463   3.206   0.712   5.368 -0.6531 -0.0809 -0.1836
 7334SOL    HW133464   3.292   0.696   5.330  0.0270 -2.1111  2.1809
 7334SOL    HW233465   3.211   0.690   5.461 -1.2476  0.0756 -0.1144
 7335SOL     OW33466   3.331   3.271   9.069  0.3918 -0.2533 -0.6668
 7335SOL    HW133467   3.346   3.348   9.124 -1.3942 -0.7392  0.4995
 7335SOL    HW233468   3.416   3.228   9.067 -0.3547 -1.6672 -2.9551
 7336SOL     OW33469   2.802   0.890   0.089 -0.6812  0.3111  0.1581
 7336SOL    HW133470   2.798   0.848   0.175  0.8446 -0.2948 -0.0608
 7336SOL    HW233471   2.885   0.855   0.056 -1.8690  0.0207 -2.4927
 7337SOL     OW33472   4.041   3.826   9.682  0.4108 -0.2724 -0.4740
 7337SOL    HW133473   4.047   3.913   9.723  1.0119 -0.8831  0.7311
 7337SOL    HW233474   3.992   3.850   9.603  0.7623  1.8958 -0.0565
 7338SOL     OW33475   0.521   2.167   2.595  0.1358 -0.2329  0.1854
 7338SOL    HW133476   0.447   2.112   2.618  1.3028 -1.1260  1.8063
 7338SOL    HW233477   0.482   2.250   2.567 -1.0590 -1.0799 -0.6659
 7339SOL     OW33478   2.073   3.387   9.227  0.4177 -0.1194  0.4891
 7339SOL    HW133479   2.111   3.474   9.220 -1.3051  0.8284  2.9978
 7339SOL    HW233480   2.137   3.339   9.174  0.8210  0.1240  0.7551
 7340SOL     OW33481   1.554   1.446   7.676 -0.2942 -0.0981  0.1359
 7340SOL    HW133482   1.543   1.460   7.582 -0.2223 -0.8896  0.0052
 7340SOL    HW233483   1.601   1.525   7.701  0.0706 -0.0896 -0.5566
 7341SOL     OW33484   1.256   4.156   9.411 -0.2155 -0.4536 -0.2222
 7341SOL    HW133485   1.265   4.248   9.436 -0.0936 -0.8490  1.1436
 7341SOL    HW233486   1.301   4.115   9.484  1.7385  0.5070 -0.8733
 7342SOL     OW33487   0.326   0.711   0.192  0.0140  0.2412 -0.0902
 7342SOL    HW133488   0.276   0.630   0.178  0.2541  0.2704 -1.1439
 7342SOL    HW233489   0.298   0.759   0.113  0.5037  0.3617 -0.1867
 7343SOL     OW33490   3.581   2.779   5.393  0.7021  0.3133 -0.2821
 7343SOL    HW133491   3.514   2.836   5.355  1.3136  1.6809  0.6795
 7343SOL    HW233492   3.561   2.699   5.344  0.5817 -1.5562  2.8318
 7344SOL     OW33493   2.801   3.552   5.219  0.2598  0.3285  0.3510
 7344SOL    HW133494   2.847   3.469   5.233 -1.3728 -0.7044 -0.3638
 7344SOL    HW233495   2.714   3.529   5.251 -0.0137  0.0267 -0.5860
 7345SOL     OW33496   0.886   2.874   6.871 -0.1158 -0.7355 -0.6302
 7345SOL    HW133497   0.891   2.931   6.948 -2.6918 -0.2882 -0.7940
 7345SOL    HW233498   0.791   2.861   6.867  0.1531 -2.6157 -0.9876
 7346SOL     OW33499   0.440   2.317   9.560  0.0873 -0.0215  0.1985
 7346SOL    HW133500   0.457   2.284   9.648  0.1303 -1.5788 -0.4000
 7346SOL    HW233501   0.528   2.297   9.527 -0.3697 -1.6702 -0.0133
 7347SOL     OW33502   4.722   3.335  16.693  0.7188  0.0868 -0.0987
 7347SOL    HW133503   4.708   3.410  16.750 -1.1367  1.1802 -2.0152
 7347SOL    HW233504   4.723   3.385  16.612 -0.7368  1.2665  0.6220
 7348SOL     OW33505   1.353   0.507   0.264 -0.0039  0.1638  0.4797
 7348SOL    HW133506   1.282   0.518   0.328  1.7577  0.9365  2.3092
 7348SOL    HW233507   1.393   0.592   0.245 -1.7686  0.8603 -0.1214
 7349SOL     OW33508   3.911   1.962   6.294  0.4042 -0.4104  0.0534
 7349SOL    HW133509   3.874   1.938   6.209  0.5002  2.0330 -0.6833
 7349SOL    HW233510   4.004   1.942   6.284  0.7329  1.1530 -0.0831
 7350SOL     OW33511   4.042   2.504   2.325  0.8255 -0.5583  0.1838
 7350SOL    HW133512   4.090   2.582   2.298  2.6828 -1.3901  1.0812
 7350SOL    HW233513   4.088   2.431   2.283  1.1423 -0.2894  0.0623
 7351SOL     OW33514   1.622   2.090  11.634  0.3083 -0.1793 -0.0079
 7351SOL    HW133515   1.572   2.168  11.608  0.2232  0.1578  1.1755
 7351SOL    HW233516   1.556   2.022  11.647  0.0817  0.2506  1.0818
 7352SOL     OW33517   1.100   3.770   5.230  0.2680 -0.0883 -0.5649
 7352SOL    HW133518   1.147   3.686   5.227 -0.2263 -0.4911  2.9966
 7352SOL    HW233519   1.169   3.824   5.269 -1.8014  0.1298  2.7284
 7353SOL     OW33520   3.987   3.739   7.658  0.2167 -0.0615  0.7782
 7353SOL    HW133521   4.012   3.807   7.720  0.5558  0.3290  0.2208
 7353SOL    HW233522   3.893   3.737   7.676  0.1811 -1.6529  0.4396
 7354SOL     OW33523   1.370   1.388   4.244 -0.8265 -0.0565 -0.4851
 7354SOL    HW133524   1.327   1.336   4.312 -0.2214  1.1606  0.8236
 7354SOL    HW233525   1.417   1.320   4.196  0.6923  0.7091 -0.0934
 7355SOL     OW33526   0.567   0.597   5.123 -0.0307  0.2091 -0.5603
 7355SOL    HW133527   0.653   0.571   5.155  0.3510  1.6614 -0.4025
 7355SOL    HW233528   0.550   0.623   5.214  3.7141 -0.9734  0.4416
 7356SOL     OW33529   0.329   0.864   1.888  0.0589 -0.0983 -0.0140
 7356SOL    HW133530   0.394   0.933   1.895 -0.2888  0.4497 -2.0910
 7356SOL    HW233531   0.303   0.844   1.978 -0.0604  1.0316  0.2062
 7357SOL     OW33532   2.677   2.047  16.733  0.1907  0.0252 -0.1907
 7357SOL    HW133533   2.655   2.135  16.763 -1.1428 -0.6865  0.9197
 7357SOL    HW233534   2.760   2.032  16.779 -0.2392 -1.1880  0.1724
 7358SOL     OW33535   3.999   2.582   7.176  0.8082  0.1049  0.0727
 7358SOL    HW133536   4.039   2.664   7.205 -1.1068  0.1358  2.5735
 7358SOL    HW233537   4.001   2.585   7.080 -0.7618  1.4039  0.0741
 7359SOL     OW33538   2.050   4.383   2.859  0.0718 -0.2705 -0.3124
 7359SOL    HW133539   2.033   4.341   2.775 -0.2789  0.2993 -0.5193
 7359SOL    HW233540   2.089   4.311   2.908  0.5822 -1.3707 -2.3265
 7360SOL     OW33541   2.970   3.404   7.248 -0.1622 -0.2409  0.5341
 7360SOL    HW133542   3.029   3.454   7.304 -1.4579 -0.0661  1.7332
 7360SOL    HW233543   3.016   3.407   7.164 -0.9522  1.2258  0.1414
 7361SOL     OW33544   3.022   3.625   3.284 -0.2152  0.6630  0.0505
 7361SOL    HW133545   3.101   3.679   3.283  0.8932 -0.9424  1.0698
 7361SOL    HW233546   2.974   3.672   3.215  0.7762  1.1730 -0.2832
 7362SOL     OW33547   1.761   0.779   8.754 -0.3826 -0.0883 -0.4905
 7362SOL    HW133548   1.704   0.831   8.699  1.4561 -0.0648 -2.3871
 7362SOL    HW233549   1.713   0.696   8.755  0.5463 -0.6707 -3.0087
 7363SOL     OW33550   3.064   0.609   3.731 -0.1146  0.1677 -0.7486
 7363SOL    HW133551   3.057   0.701   3.706  0.9011  0.7894  1.3199
 7363SOL    HW233552   3.151   0.620   3.769  0.1378 -1.6842 -0.7852
 7364SOL     OW33553   2.887   2.199   6.381 -0.0179  0.2646 -0.0223
 7364SOL    HW133554   2.884   2.182   6.475 -2.7471  0.4174 -0.0766
 7364SOL    HW233555   2.916   2.290   6.386 -0.6342  0.5203 -1.1163
 7365SOL     OW33556   3.113   1.475   5.341  0.4234 -0.0515  0.4265
 7365SOL    HW133557   3.091   1.421   5.265 -0.5701  0.1399  0.5756
 7365SOL    HW233558   3.200   1.440   5.362  1.1298  1.8179  0.6290
 7366SOL     OW33559   3.464   0.525   3.009  0.4133  0.7624 -0.0509
 7366SOL    HW133560   3.385   0.507   3.060  0.5226 -0.0436 -0.1631
 7366SOL    HW233561   3.441   0.527   2.916  1.1899  1.3694 -0.2341
 7367SOL     OW33562   1.661   3.776   6.186 -0.1017 -0.3764 -0.0157
 7367SOL    HW133563   1.744   3.737   6.160 -0.8467 -2.5499  0.8910
 7367SOL    HW233564   1.652   3.742   6.275 -2.0831 -1.2585 -0.5371
 7368SOL     OW33565   1.435   2.892   2.032  0.3028  0.7517  0.4702
 7368SOL    HW133566   1.351   2.855   2.060  0.6673 -0.3503  0.1293
 7368SOL    HW233567   1.418   2.882   1.938 -1.3867 -0.1313  0.8631
 7369SOL     OW33568   0.165   0.524   7.260 -0.1350 -0.4480 -0.0304
 7369SOL    HW133569   0.141   0.550   7.349 -2.3719  0.0862 -0.7759
 7369SOL    HW233570   0.260   0.532   7.265 -0.2145  1.0130 -0.8669
 7370SOL     OW33571   2.282   3.362   6.982 -0.2752  0.1646 -0.0232
 7370SOL    HW133572   2.289   3.456   6.995 -1.0624  0.4529 -1.6285
 7370SOL    HW233573   2.371   3.327   6.977 -0.4643 -0.3613  0.3448
 7371SOL     OW33574   3.897   1.067   7.108  0.1984  0.5344 -0.3920
 7371SOL    HW133575   3.914   1.001   7.175 -0.4845 -0.2518 -0.9881
 7371SOL    HW233576   3.939   1.030   7.030 -2.2403 -0.3021 -1.2843
 7372SOL     OW33577   3.115   0.935  15.897 -0.2094  0.3517  0.2135
 7372SOL    HW133578   3.196   0.915  15.850 -1.0187  1.1181 -1.5260
 7372SOL    HW233579   3.062   0.973  15.827 -1.1212 -0.4239  0.4861
 7373SOL     OW33580   3.584   0.478  11.603  0.2271 -0.2147  0.8225
 7373SOL    HW133581   3.598   0.384  11.595  1.4033  0.0113  0.1845
 7373SOL    HW233582   3.601   0.502  11.512 -1.0724 -0.3179  0.5474
 7374SOL     OW33583   1.644   2.027   5.878  0.4177  0.1391  0.7645
 7374SOL    HW133584   1.675   2.082   5.950 -0.5244  0.7792  0.6915
 7374SOL    HW233585   1.552   2.023   5.907  0.0806  1.8910 -0.0551
 7375SOL     OW33586   1.566   1.342   2.099 -0.0034  0.2596 -0.0883
 7375SOL    HW133587   1.564   1.425   2.052  1.3078 -0.3037 -1.1613
 7375SOL    HW233588   1.550   1.367   2.190  1.2230  0.4819  0.0715
 7376SOL     OW33589   4.617   3.916   8.852 -0.3541  0.3767 -0.3674
 7376SOL    HW133590   4.706   3.931   8.884 -0.3714  5.3637 -2.6318
 7376SOL    HW233591   4.588   4.003   8.879 -0.7163  0.0273  0.3584
 7377SOL     OW33592   1.819   3.060  12.710 -0.5639 -0.1067 -0.3755
 7377SOL    HW133593   1.888   3.127  12.717 -1.5113  0.6582  1.4722
 7377SOL    HW233594   1.865   2.995  12.657  0.9466 -1.2670  2.3668
 7378SOL     OW33595   0.507   3.191   4.683  0.0685 -0.0367 -0.1456
 7378SOL    HW133596   0.467   3.220   4.601 -0.0319 -0.0167 -0.0894
 7378SOL    HW233597   0.597   3.172   4.657  0.0083 -1.5188  0.6993
 7379SOL     OW33598   4.198   0.072   9.305  0.4606  0.0402  0.4354
 7379SOL    HW133599   4.111   0.086   9.269  0.4595  0.0692  0.4494
 7379SOL    HW233600   4.242   0.151   9.274 -0.4542  0.2195 -0.4024
 7380SOL     OW33601   4.407   0.635   8.703  0.2314  0.2293 -0.3447
 7380SOL    HW133602   4.339   0.567   8.700 -0.8582  1.3188 -0.6621
 7380SOL    HW233603   4.456   0.626   8.621 -1.3396 -2.7719 -0.9776
 7381SOL     OW33604   2.032   2.735   7.067  0.2764  0.1253 -0.5675
 7381SOL    HW133605   1.938   2.731   7.087  0.0202  1.3001 -1.4998
 7381SOL    HW233606   2.024   2.806   7.003  1.3185  0.8897  0.1677
 7382SOL     OW33607   0.890   0.805   7.038  0.2747 -0.3425 -0.4644
 7382SOL    HW133608   0.807   0.851   7.032  0.3544 -0.2285 -0.7026
 7382SOL    HW233609   0.904   0.779   6.947  1.3848 -1.9511  0.1510
 7383SOL     OW33610   2.683   2.382   6.548  0.9119  0.5296 -0.1424
 7383SOL    HW133611   2.609   2.381   6.609  2.6309 -0.0347  1.9464
 7383SOL    HW233612   2.744   2.398   6.621  0.0991 -1.4303  0.9442
 7384SOL     OW33613   1.995   2.998   7.358 -0.2163 -0.2683  0.3077
 7384SOL    HW133614   2.017   2.914   7.398  1.0619 -0.3100 -0.4917
 7384SOL    HW233615   2.051   2.986   7.282  2.5746 -0.6734  2.4199
 7385SOL     OW33616   0.802   3.395   2.228  0.4482  0.0550 -0.1299
 7385SOL    HW133617   0.830   3.431   2.313  0.8672 -2.8457  0.9716
 7385SOL    HW233618   0.707   3.395   2.240  0.4173 -1.2303 -0.3834
 7386SOL     OW33619   1.603   3.130  17.029  0.2249  0.3405 -0.7032
 7386SOL    HW133620   1.529   3.115  16.970  0.6132  1.7079 -1.5391
 7386SOL    HW233621   1.585   3.070  17.101  0.2695  1.8820  0.5792
 7387SOL     OW33622   1.401   3.852   8.116 -0.0245  0.5795 -0.1759
 7387SOL    HW133623   1.348   3.865   8.195 -0.1491  1.1109 -0.3468
 7387SOL    HW233624   1.348   3.868   8.038  0.5631  2.0306 -0.2786
 7388SOL     OW33625   0.567   2.584   3.020  0.3672 -0.1320 -0.0349
 7388SOL    HW133626   0.502   2.514   3.025 -0.0720  0.3142  0.5405
 7388SOL    HW233627   0.520   2.639   2.958  0.5069 -0.1194 -0.1310
 7389SOL     OW33628   0.188   0.330  15.564  0.2530 -0.8669 -0.2838
 7389SOL    HW133629   0.220   0.420  15.570  1.7301 -1.4337  0.4194
 7389SOL    HW233630   0.241   0.279  15.503 -1.0371 -2.8522  0.2386
 7390SOL     OW33631   4.510   4.265   6.463 -0.3708 -0.1945  0.5096
 7390SOL    HW133632   4.503   4.234   6.372  0.2602 -1.6743  0.9648
 7390SOL    HW233633   4.598   4.234   6.484 -0.4086  0.2183  1.2765
 7391SOL     OW33634   1.608   2.711  14.708 -0.0896  0.3647  0.3068
 7391SOL    HW133635   1.594   2.769  14.783  0.3469 -0.0442  0.7002
 7391SOL    HW233636   1.702   2.694  14.711 -0.2225 -0.3561  0.3220
 7392SOL     OW33637   1.990   1.814   7.448  0.0535 -0.2450 -0.2514
 7392SOL    HW133638   1.940   1.742   7.410 -0.4406 -0.4836  0.8480
 7392SOL    HW233639   2.051   1.760   7.497  1.1219  0.9040 -0.3054
 7393SOL     OW33640   2.534   2.982  16.927 -0.4009 -0.3983 -0.0238
 7393SOL    HW133641   2.456   2.980  16.983 -0.6922 -2.9073 -0.5349
 7393SOL    HW233642   2.586   3.054  16.962 -0.0424 -2.1581  3.0067
 7394SOL     OW33643   4.152   3.169   4.386 -0.1844 -0.0749 -0.2701
 7394SOL    HW133644   4.083   3.184   4.322 -0.6734 -0.4956  0.1582
 7394SOL    HW233645   4.116   3.129   4.465  0.4672 -1.9551 -0.9305
 7395SOL     OW33646   3.095   0.827  10.462 -0.4816 -0.0848  0.7045
 7395SOL    HW133647   3.178   0.781  10.451 -0.6197  0.3706 -2.2933
 7395SOL    HW233648   3.099   0.846  10.555 -2.0302  1.5274  0.4409
 7396SOL     OW33649   0.870   2.476   2.769  0.1724 -0.1341 -0.5687
 7396SOL    HW133650   0.836   2.398   2.725 -0.8266 -1.8931  3.2668
 7396SOL    HW233651   0.796   2.536   2.762 -0.1338 -0.3000  1.0577
 7397SOL     OW33652   3.057   2.652   5.602 -0.1767 -0.3985  0.7090
 7397SOL    HW133653   3.029   2.619   5.687 -2.4584  1.9703  0.8801
 7397SOL    HW233654   3.102   2.736   5.614  0.9970 -0.5985 -2.2739
 7398SOL     OW33655   1.628   0.805   0.432  0.4110 -0.1511 -0.2198
 7398SOL    HW133656   1.687   0.845   0.369  1.8731  0.4143  1.5038
 7398SOL    HW233657   1.546   0.855   0.431  0.0784 -0.7667 -3.0312
 7399SOL     OW33658   2.446   1.543   7.064  0.2367 -0.1097  0.3916
 7399SOL    HW133659   2.355   1.563   7.042  1.3542  3.1907 -1.2434
 7399SOL    HW233660   2.491   1.524   6.982 -1.1460 -0.2137 -0.3525
 7400SOL     OW33661   4.358   3.892  12.028 -0.9197  0.1563 -0.3476
 7400SOL    HW133662   4.369   3.802  11.998  0.5135  0.6081 -1.1363
 7400SOL    HW233663   4.339   3.879  12.121 -1.7802 -3.2509 -0.9966
 7401SOL     OW33664   3.927   0.614   8.782 -0.4361 -1.2867 -0.2117
 7401SOL    HW133665   3.886   0.529   8.800 -3.2691 -0.0208 -0.9070
 7401SOL    HW233666   3.939   0.647   8.871 -3.8010 -1.6470  0.3556
 7402SOL     OW33667   4.494   4.510   9.642  0.3355 -0.5503  0.2677
 7402SOL    HW133668   4.443   4.556   9.575  2.4319 -0.1569 -1.0446
 7402SOL    HW233669   4.434   4.509   9.717  0.7630 -0.1779  0.6151
 7403SOL     OW33670   0.058   1.684   3.652 -0.3139  1.1858  0.4735
 7403SOL    HW133671   0.069   1.769   3.695  2.2217  1.2699 -0.3341
 7403SOL    HW233672   4.688   1.683   3.658 -0.3849  0.2063 -0.8754
 7404SOL     OW33673   4.541   2.962   4.508 -0.5437  0.1863 -0.0361
 7404SOL    HW133674   4.578   3.045   4.536 -0.2130 -0.0888  0.3395
 7404SOL    HW233675   4.523   2.969   4.414  0.7438  2.0774 -0.1507
 7405SOL     OW33676   0.136   2.698   5.767  0.2569  0.5269  0.3242
 7405SOL    HW133677   0.205   2.731   5.824  1.1583  0.1900 -0.5852
 7405SOL    HW233678   0.125   2.613   5.808 -1.0895 -0.1691 -1.4885
 7406SOL     OW33679   0.336   4.133  11.989  0.3823  0.1789 -0.7034
 7406SOL    HW133680   0.394   4.202  11.954  0.0533  0.3484 -0.9222
 7406SOL    HW233681   0.327   4.070  11.917  1.6650 -1.6634  0.7775
 7407SOL     OW33682   4.070   3.499   6.283  0.1427 -0.1809  0.0349
 7407SOL    HW133683   4.141   3.557   6.255 -0.8526  0.6396 -0.7753
 7407SOL    HW233684   4.117   3.423   6.318  0.2689  0.6487  1.6975
 7408SOL     OW33685   0.290   3.432  12.603  0.1793  0.5058 -0.4200
 7408SOL    HW133686   0.379   3.446  12.633 -0.2086 -0.3413  1.1401
 7408SOL    HW233687   0.243   3.440  12.686  0.4805  1.2277 -0.3134
 7409SOL     OW33688   0.867   1.108  12.181  0.0981 -0.1614  0.1718
 7409SOL    HW133689   0.867   1.020  12.144  0.9826 -1.3531  3.0010
 7409SOL    HW233690   0.923   1.154  12.119 -0.6264 -0.3270 -0.6046
 7410SOL     OW33691   2.249   0.831  14.087  0.6493 -0.0935 -0.0363
 7410SOL    HW133692   2.344   0.830  14.077  0.3662  0.3357 -2.8216
 7410SOL    HW233693   2.231   0.743  14.054  2.2276  0.9819 -3.8122
 7411SOL     OW33694   1.709   2.848   6.030  0.6857 -0.5180 -0.1934
 7411SOL    HW133695   1.736   2.929   6.074  2.2072 -0.6393 -0.8743
 7411SOL    HW233696   1.614   2.855   6.029  0.7815  0.6512 -2.3127
 7412SOL     OW33697   3.841   0.027   7.878 -0.1218  0.1015 -0.1883
 7412SOL    HW133698   3.829   4.658   7.883 -1.5879  0.1629 -2.8137
 7412SOL    HW233699   3.928   0.034   7.839 -0.5437 -0.6909 -1.2458
 7413SOL     OW33700   4.144   1.655   6.001 -0.2913  0.0592  0.2050
 7413SOL    HW133701   4.165   1.688   6.089  0.8939 -0.5585  0.1544
 7413SOL    HW233702   4.132   1.739   5.956  0.3415 -0.7222 -1.4332
 7414SOL     OW33703   4.424   3.423   4.116 -0.5408 -0.1025 -0.4795
 7414SOL    HW133704   4.408   3.396   4.206 -1.4232 -2.2343 -1.2853
 7414SOL    HW233705   4.344   3.388   4.077  1.0156 -1.7570 -2.2190
 7415SOL     OW33706   3.747   2.311   7.215 -0.9408  0.2697 -0.0604
 7415SOL    HW133707   3.655   2.329   7.236 -1.0595  0.1732 -0.4945
 7415SOL    HW233708   3.741   2.323   7.120  1.8840  2.1719 -0.0046
 7416SOL     OW33709   0.438   2.860  14.178 -0.2357  0.1001  0.3747
 7416SOL    HW133710   0.459   2.773  14.145 -2.5411 -0.8888  1.5146
 7416SOL    HW233711   0.349   2.881  14.148 -1.6805 -1.2054  3.6946
 7417SOL     OW33712   1.725   0.894   9.396  0.5712  0.6823 -0.2339
 7417SOL    HW133713   1.765   0.953   9.460 -1.6756  0.7937  1.0630
 7417SOL    HW233714   1.807   0.898   9.347  2.0297  0.1933  2.1667
 7418SOL     OW33715   2.626   0.361   5.882  0.3214 -0.1493  0.0764
 7418SOL    HW133716   2.674   0.340   5.802  0.7129 -0.2904  0.3458
 7418SOL    HW233717   2.585   0.276   5.893 -2.7838  1.3056 -0.4175
 7419SOL     OW33718   1.112   2.440   8.778  0.2415  0.2002  0.1044
 7419SOL    HW133719   1.145   2.527   8.757  0.5566 -0.4486 -2.1236
 7419SOL    HW233720   1.175   2.387   8.728 -3.1992 -4.4317  0.6914
 7420SOL     OW33721   2.454   2.400  11.789 -0.5165  0.0129 -0.5534
 7420SOL    HW133722   2.475   2.324  11.843  0.3910  0.9055  0.3263
 7420SOL    HW233723   2.522   2.396  11.722 -0.8442 -0.3628 -0.8686
 7421SOL     OW33724   0.333   0.555   3.786  0.1481 -0.5482  0.6244
 7421SOL    HW133725   0.366   0.559   3.876 -0.2972 -1.1766  0.8144
 7421SOL    HW233726   0.242   0.566   3.812 -0.0274 -1.6233  0.4636
 7422SOL     OW33727   2.431   3.905  11.888  0.4973  0.3803  0.1450
 7422SOL    HW133728   2.388   3.975  11.839 -1.3462 -1.9448 -1.5716
 7422SOL    HW233729   2.412   3.940  11.975  0.8197 -2.4755  1.3710
 7423SOL     OW33730   4.058   1.474   3.358 -0.0643 -0.0786  0.5475
 7423SOL    HW133731   4.033   1.527   3.282 -0.9771 -0.4484  0.5865
 7423SOL    HW233732   4.122   1.412   3.324 -0.5974  1.1260 -2.6422
 7424SOL     OW33733   1.467   0.684   7.748 -0.6510  0.0779 -0.1608
 7424SOL    HW133734   1.384   0.672   7.795 -0.1339 -0.9650  0.4925
 7424SOL    HW233735   1.485   0.777   7.763 -1.0937  0.2403 -0.6150
 7425SOL     OW33736   3.411   3.965   1.331  0.3430 -0.4450 -0.1402
 7425SOL    HW133737   3.367   3.961   1.416 -1.5772 -0.2124 -1.1188
 7425SOL    HW233738   3.344   3.930   1.272 -0.9471  1.3510  0.2822
 7426SOL     OW33739   3.523   0.076   5.694 -0.3680 -0.1837 -0.2033
 7426SOL    HW133740   3.473   0.059   5.615 -1.2763  0.8443  0.1454
 7426SOL    HW233741   3.577   4.723   5.705 -1.1813 -0.8850 -1.2615
 7427SOL     OW33742   1.110   2.161  11.156  0.2622 -0.2463 -0.0142
 7427SOL    HW133743   1.149   2.232  11.208 -1.5112 -0.9981  2.3218
 7427SOL    HW233744   1.159   2.174  11.075  0.8608 -1.5313  0.1438
 7428SOL     OW33745   0.293   0.300  13.548  0.1680 -0.5103  0.1904
 7428SOL    HW133746   0.236   0.277  13.622 -1.0890  0.7553 -0.3802
 7428SOL    HW233747   0.250   0.380  13.515  2.3873  0.2735 -0.7762
 7429SOL     OW33748   3.525   3.755   6.944  0.3949 -1.0890  0.1127
 7429SOL    HW133749   3.487   3.675   6.907 -1.6656  1.0819 -2.4674
 7429SOL    HW233750   3.618   3.749   6.922  0.4494 -0.8847  0.2895
 7430SOL     OW33751   4.037   4.582   4.726  0.1155 -0.2235 -0.6051
 7430SOL    HW133752   3.951   4.609   4.759  1.1997  0.7148  1.4928
 7430SOL    HW233753   4.059   4.660   4.674  1.6184  1.0732  1.9790
 7431SOL     OW33754   0.159   1.092  17.644  0.1586 -0.0025 -0.1933
 7431SOL    HW133755   0.101   1.101   0.016  1.0560 -3.3657  0.8592
 7431SOL    HW233756   0.135   1.165  17.586 -1.0807  1.3191  1.9891
 7432SOL     OW33757   1.880   0.674   9.668 -0.6383  0.4235 -0.4199
 7432SOL    HW133758   1.882   0.583   9.637 -0.4913  0.0181  0.7911
 7432SOL    HW233759   1.904   0.721   9.588 -0.4399 -1.5636 -1.5245
 7433SOL     OW33760   2.966   3.427   9.862 -0.1023  0.4864 -0.5038
 7433SOL    HW133761   2.950   3.346   9.813 -0.2531  0.8907 -1.1177
 7433SOL    HW233762   3.001   3.389   9.943  0.6034 -1.6702 -1.8115
 7434SOL     OW33763   4.318   2.574   7.699  0.6316  0.0659  0.1687
 7434SOL    HW133764   4.413   2.581   7.710  1.0069 -1.3956 -2.0848
 7434SOL    HW233765   4.296   2.482   7.714  2.3224 -0.5143 -0.9098
 7435SOL     OW33766   0.645   2.761  11.524 -0.0328  0.3434 -0.2918
 7435SOL    HW133767   0.724   2.778  11.575  0.2670  2.0904 -1.3590
 7435SOL    HW233768   0.675   2.772  11.434 -0.6698 -0.7051 -0.6366
 7436SOL     OW33769   0.471   2.790   7.935 -0.4567  0.5421  0.4076
 7436SOL    HW133770   0.413   2.862   7.912 -0.1306  0.7286  0.1544
 7436SOL    HW233771   0.431   2.707   7.908 -0.3215  1.0637 -1.4359
 7437SOL     OW33772   1.287   1.706   8.066  0.1305  0.0155  0.1488
 7437SOL    HW133773   1.223   1.773   8.090  1.3281  1.7365 -1.5879
 7437SOL    HW233774   1.344   1.703   8.143 -0.8681  0.5518  0.9156
 7438SOL     OW33775   2.721   2.288   4.543 -0.0993  0.4022  0.0053
 7438SOL    HW133776   2.724   2.295   4.638  0.7825  2.8076 -0.1936
 7438SOL    HW233777   2.728   2.194   4.526  1.3576  0.4755  0.1515
 7439SOL     OW33778   3.780   0.292   2.917  0.5936  0.1464 -0.3542
 7439SOL    HW133779   3.875   0.279   2.918  0.6535  0.7609  1.8584
 7439SOL    HW233780   3.749   0.224   2.856 -0.3069 -0.2338  0.5278
 7440SOL     OW33781   0.880   2.067   4.396 -0.3214  0.1815  0.1796
 7440SOL    HW133782   0.842   2.100   4.314  3.4740 -2.2456 -2.5600
 7440SOL    HW233783   0.913   1.981   4.371 -1.9513 -0.5148  0.4852
 7441SOL     OW33784   4.230   2.954  10.426 -0.3458  0.0164  0.4124
 7441SOL    HW133785   4.190   2.885  10.372 -0.7955 -0.0099  0.7793
 7441SOL    HW233786   4.155   2.979  10.480 -0.4417  2.1674 -0.7144
 7442SOL     OW33787   4.723   2.528   5.437  0.1348  0.5298 -0.2760
 7442SOL    HW133788   4.633   2.512   5.466  0.3631 -1.7456 -0.8198
 7442SOL    HW233789   0.021   2.437   5.418 -0.7953 -0.3105  2.5847
 7443SOL     OW33790   0.403   4.127   6.294  0.4707  0.3969 -0.4993
 7443SOL    HW133791   0.320   4.175   6.300 -0.0319 -0.3923 -1.0851
 7443SOL    HW233792   0.453   4.191   6.344  0.5491 -0.2135  0.1975
 7444SOL     OW33793   4.293   4.645  10.098 -0.5044 -0.6088 -0.0371
 7444SOL    HW133794   4.259   4.608  10.180 -0.2396 -1.2004 -0.1936
 7444SOL    HW233795   4.349   4.718  10.124 -0.5555 -0.8456  0.7329
 7445SOL     OW33796   0.037   2.980   7.139 -0.7037  0.1710  0.4600
 7445SOL    HW133797   0.087   2.901   7.120 -0.9221  0.7264 -2.5159
 7445SOL    HW233798   0.041   3.015   7.050  2.9372  0.4964  0.7259
 7446SOL     OW33799   1.144   1.734  17.394 -0.0155  0.0664  0.2749
 7446SOL    HW133800   1.223   1.775  17.359 -0.8587  0.5850 -1.0290
 7446SOL    HW233801   1.104   1.700  17.314  0.0700 -1.2958  0.8127
 7447SOL     OW33802   3.189   1.902   5.506  0.5969 -0.3132 -0.3792
 7447SOL    HW133803   3.169   1.811   5.527  2.3536 -0.4502  0.7095
 7447SOL    HW233804   3.104   1.936   5.479  1.1121  0.0508 -1.5683
 7448SOL     OW33805   3.407   0.796   7.308 -0.0275  0.4035  0.4162
 7448SOL    HW133806   3.314   0.782   7.290  0.4631 -0.4634 -1.4181
 7448SOL    HW233807   3.408   0.818   7.401  2.6087 -2.6714  1.0798
 7449SOL     OW33808   0.576   3.429  14.970  0.3654  0.6738  0.3187
 7449SOL    HW133809   0.499   3.486  14.971 -1.6304 -2.0281  1.1521
 7449SOL    HW233810   0.587   3.404  14.878  0.2826 -1.9017  1.0064
 7450SOL     OW33811   4.268   1.085   5.464  0.1699 -0.0136  0.8517
 7450SOL    HW133812   4.333   1.107   5.530 -1.0723 -0.1016  2.0998
 7450SOL    HW233813   4.186   1.070   5.511 -0.5357 -0.8408 -0.6202
 7451SOL     OW33814   4.627   2.314   6.555 -0.4073 -0.1957  0.5745
 7451SOL    HW133815   4.708   2.364   6.547  0.4102 -1.8372 -1.5422
 7451SOL    HW233816   4.625   2.304   6.650 -1.1481 -2.1155  0.3489
 7452SOL     OW33817   4.088   1.605   8.816 -0.3037 -0.2344 -0.2442
 7452SOL    HW133818   4.148   1.537   8.787 -0.9779 -0.1049 -1.9375
 7452SOL    HW233819   4.153   1.673   8.836  1.2202 -1.7957  0.0451
 7453SOL     OW33820   4.623   3.367   8.350 -0.1022 -0.0788 -0.1035
 7453SOL    HW133821   4.567   3.443   8.336 -1.7199 -0.8078  2.5502
 7453SOL    HW233822   4.590   3.293   8.300 -0.6947  0.7944 -1.0197
 7454SOL     OW33823   0.508   0.201  13.408  0.5867 -0.0486  0.0440
 7454SOL    HW133824   0.427   0.239  13.441  1.2911  1.2770  0.2112
 7454SOL    HW233825   0.552   0.160  13.483  0.6689 -0.1681 -0.0693
 7455SOL     OW33826   1.357   4.516   2.006 -0.1033 -0.5703 -0.9187
 7455SOL    HW133827   1.449   4.517   1.982  0.5186 -1.7578  1.3805
 7455SOL    HW233828   1.321   4.467   1.932 -3.0288  1.4756 -0.8703
 7456SOL     OW33829   2.543   0.451   2.300 -0.5244 -0.4099 -0.6198
 7456SOL    HW133830   2.547   0.464   2.394 -3.5964  1.4504 -0.7480
 7456SOL    HW233831   2.623   0.399   2.295 -0.6042 -0.5218 -0.7487
 7457SOL     OW33832   1.771   0.655   1.632  0.0056  0.4402  0.3554
 7457SOL    HW133833   1.721   0.696   1.561  0.1009  3.0347  1.7856
 7457SOL    HW233834   1.707   0.663   1.703 -0.9090 -3.5717 -0.0547
 7458SOL     OW33835   3.597   0.101   4.895 -0.3726  0.4458  0.6601
 7458SOL    HW133836   3.513   0.129   4.933 -0.1987  1.0927  0.5624
 7458SOL    HW233837   3.632   0.032   4.953 -2.0456 -2.0441 -1.2781
 7459SOL     OW33838   0.133   0.006   2.292 -0.2313  0.3056  0.3194
 7459SOL    HW133839   0.088   0.056   2.224 -0.7653  0.1579  0.5701
 7459SOL    HW233840   0.126   4.647   2.247 -2.2334 -0.0418  1.2795
 7460SOL     OW33841   1.649   2.728   4.704  0.0915 -0.1731  0.3985
 7460SOL    HW133842   1.734   2.708   4.743  0.8059  1.2895 -0.3766
 7460SOL    HW233843   1.671   2.758   4.616  0.1086 -0.9787  0.1287
 7461SOL     OW33844   1.988   0.597  14.354  1.0456 -0.3331 -0.2511
 7461SOL    HW133845   1.978   0.639  14.268 -0.5801 -1.3464 -0.5517
 7461SOL    HW233846   1.955   0.508  14.340  1.3833 -0.7916  1.8477
 7462SOL     OW33847   1.289   0.898   6.107  0.3501  0.4039 -0.4952
 7462SOL    HW133848   1.326   0.813   6.087 -1.1780 -0.2773 -0.4034
 7462SOL    HW233849   1.369   0.938   6.141 -1.4430  2.5572  1.2561
 7463SOL     OW33850   1.010   0.591   3.129 -0.0819 -0.4356  0.2888
 7463SOL    HW133851   1.031   0.666   3.185  0.3794 -0.5434  0.2573
 7463SOL    HW233852   1.057   0.515   3.161 -2.2883 -3.1978 -3.0248
 7464SOL     OW33853   1.231   3.771   5.607  0.2513 -0.0272  0.2492
 7464SOL    HW133854   1.248   3.824   5.530  0.3328 -0.2056  0.1458
 7464SOL    HW233855   1.146   3.802   5.638  0.1497  0.8124 -0.8688
 7465SOL     OW33856   4.052   0.559  16.124  0.0999  0.1725 -0.3669
 7465SOL    HW133857   4.059   0.465  16.142 -0.4822 -0.0465 -1.2515
 7465SOL    HW233858   3.985   0.553  16.055  0.0585  0.7668 -0.3742
 7466SOL     OW33859   0.789   2.626   5.955 -0.2628 -0.2041  0.4556
 7466SOL    HW133860   0.743   2.612   5.872  0.4096  0.9953 -0.1140
 7466SOL    HW233861   0.864   2.674   5.922 -0.1853  0.2898  1.3502
 7467SOL     OW33862   0.753   4.159   7.002  0.4710  0.1895 -0.1476
 7467SOL    HW133863   0.690   4.086   6.998  1.3165 -0.4229 -2.2143
 7467SOL    HW233864   0.754   4.184   7.094  0.2036  1.8038 -0.5781
 7468SOL     OW33865   2.922   0.177   6.500 -0.0537 -0.1743  0.1488
 7468SOL    HW133866   2.969   0.102   6.536 -0.4150 -1.3449 -1.8486
 7468SOL    HW233867   2.971   0.188   6.419  0.3485  1.5946  0.6369
 7469SOL     OW33868   2.021   0.508   2.008 -0.1187  0.0096 -0.3229
 7469SOL    HW133869   2.027   0.449   2.083 -0.2675 -1.0116 -1.1074
 7469SOL    HW233870   2.079   0.579   2.038  0.0258  0.6092 -2.0094
 7470SOL     OW33871   3.345   1.808   3.346 -0.0124 -0.2388 -0.0459
 7470SOL    HW133872   3.394   1.760   3.412  1.5603  1.0261 -0.2990
 7470SOL    HW233873   3.276   1.745   3.323 -1.1782  1.5378 -1.4243
 7471SOL     OW33874   4.006   2.822   3.428 -0.0802  0.3064  0.2347
 7471SOL    HW133875   3.953   2.752   3.466  0.2194  0.2536  0.5553
 7471SOL    HW233876   4.049   2.780   3.354  0.8363  0.2997  0.7703
 7472SOL     OW33877   1.235   1.488  11.994 -0.2809 -0.3418  0.4363
 7472SOL    HW133878   1.289   1.539  12.054  0.6408 -0.0368 -0.6601
 7472SOL    HW233879   1.167   1.555  11.988 -1.7851 -1.9668 -0.6050
 7473SOL     OW33880   4.393   4.118   4.275 -0.3163  0.1435  0.6562
 7473SOL    HW133881   4.301   4.112   4.301 -0.2805  0.0682  0.7690
 7473SOL    HW233882   4.401   4.213   4.280 -1.9073  0.1671  2.8655
 7474SOL     OW33883   0.843   0.637   9.211  0.9468 -0.1656  0.4279
 7474SOL    HW133884   0.809   0.614   9.297 -0.8886  3.2192  0.6108
 7474SOL    HW233885   0.935   0.624   9.233  1.4669 -1.2419 -2.2975
 7475SOL     OW33886   2.713   0.725   5.139  0.1049  0.4976 -1.0487
 7475SOL    HW133887   2.712   0.780   5.061 -1.2761  3.2480  0.8825
 7475SOL    HW233888   2.629   0.679   5.139  0.4723 -0.1675  0.1032
 7476SOL     OW33889   2.281   1.089  17.137  0.0714 -0.2905 -0.1741
 7476SOL    HW133890   2.297   1.174  17.096  1.2557 -0.4536 -0.0568
 7476SOL    HW233891   2.273   1.033  17.059 -0.4133  0.3411 -0.5693
 7477SOL     OW33892   3.409   2.932   0.825 -0.1530  0.3914  0.5026
 7477SOL    HW133893   3.332   2.974   0.787 -0.2529 -0.0710  0.2024
 7477SOL    HW233894   3.377   2.855   0.872  0.3514  0.4673  0.9669
 7478SOL     OW33895   0.420   3.818  14.648  0.3362 -0.4335 -0.1043
 7478SOL    HW133896   0.413   3.841  14.556 -3.3513  1.5710  0.6616
 7478SOL    HW233897   0.434   3.909  14.673  0.5647 -0.5623  0.2339
 7479SOL     OW33898   2.900   2.874  10.616 -0.3309 -0.1129 -0.4519
 7479SOL    HW133899   2.817   2.826  10.607 -0.7277  0.3647  0.6588
 7479SOL    HW233900   2.898   2.911  10.528 -2.5064 -0.5054 -0.5738
 7480SOL     OW33901   0.501   1.076   3.527  0.0382 -0.0358  0.0373
 7480SOL    HW133902   0.431   1.140   3.518 -0.0761 -0.2471 -0.5715
 7480SOL    HW233903   0.530   1.074   3.436  0.0356 -1.1706  0.0567
 7481SOL     OW33904   2.586   2.648   8.659  0.0558 -0.5477 -0.1138
 7481SOL    HW133905   2.592   2.706   8.583  0.8904 -0.6158 -0.0948
 7481SOL    HW233906   2.501   2.607   8.642  0.5456 -1.2419 -0.8871
 7482SOL     OW33907   2.631   4.085  10.498  0.1218  0.4204 -0.4350
 7482SOL    HW133908   2.691   4.080  10.573  2.3984  1.1344 -2.1923
 7482SOL    HW233909   2.688   4.077  10.421  0.8399 -1.0673  0.2327
 7483SOL     OW33910   3.295   4.679   8.972 -0.0694 -0.0617  0.0650
 7483SOL    HW133911   3.335   4.669   9.059  0.7930  0.2311 -0.2979
 7483SOL    HW233912   3.250   4.596   8.961  0.6434 -0.5602  0.8877
 7484SOL     OW33913   1.292   4.520   5.525 -0.4794  0.0750 -0.8731
 7484SOL    HW133914   1.378   4.482   5.506  0.2315  1.1130  0.3233
 7484SOL    HW233915   1.318   4.588   5.587  1.0643 -1.2651 -0.0592
 7485SOL     OW33916   0.904   1.670  10.467  0.6231 -0.1413  0.2255
 7485SOL    HW133917   0.881   1.595  10.411 -0.1507  0.5324 -0.3450
 7485SOL    HW233918   0.904   1.748  10.411  0.0927 -0.6646 -0.5082
 7486SOL     OW33919   3.797   2.881  13.565  0.3417  0.4987 -0.2685
 7486SOL    HW133920   3.790   2.973  13.542  2.3685  0.7321  0.0357
 7486SOL    HW233921   3.734   2.875  13.637 -1.1605 -1.5333 -1.7491
 7487SOL     OW33922   4.142   1.073   6.172 -0.2323  0.5809 -0.0601
 7487SOL    HW133923   4.062   1.063   6.121 -0.4820 -2.6322  0.9366
 7487SOL    HW233924   4.113   1.116   6.251  2.6253 -0.7464  1.7413
 7488SOL     OW33925   0.809   0.887  11.970  0.6329 -0.4833 -0.7954
 7488SOL    HW133926   0.881   0.929  11.924 -1.1894 -0.2085 -3.4084
 7488SOL    HW233927   0.813   0.797  11.939 -0.1129 -1.2136  1.1683
 7489SOL     OW33928   4.559   1.832   5.376  0.7917  0.2796 -0.5500
 7489SOL    HW133929   4.629   1.839   5.312  0.4574  2.9645 -0.6225
 7489SOL    HW233930   4.535   1.739   5.383 -0.2002  0.5939  0.3416
 7490SOL     OW33931   3.365   3.621   7.761 -0.1970  0.0261  0.3337
 7490SOL    HW133932   3.366   3.716   7.751  1.7593 -0.3417 -2.9428
 7490SOL    HW233933   3.360   3.626   7.856  0.6359 -0.4013  0.3998
 7491SOL     OW33934   1.002   3.408   7.754 -0.6957  0.1225  0.0202
 7491SOL    HW133935   0.918   3.378   7.791  0.1729  0.3309  2.1452
 7491SOL    HW233936   0.976   3.443   7.668 -1.0004 -2.6860 -1.0185
 7492SOL     OW33937   2.899   4.088   9.384 -0.5532  0.2658  0.2212
 7492SOL    HW133938   2.825   4.069   9.442  0.9676  0.7354  2.3407
 7492SOL    HW233939   2.875   4.033   9.309  0.7962 -1.2467  0.8927
 7493SOL     OW33940   0.630   1.891   6.116  0.0707  0.2354 -0.6379
 7493SOL    HW133941   0.594   1.974   6.086 -0.8591  0.4243  0.9820
 7493SOL    HW233942   0.554   1.861   6.167  1.7800  0.1137  1.8217
 7494SOL     OW33943   3.427   4.131   5.910 -0.5935 -0.7133  0.3344
 7494SOL    HW133944   3.425   4.142   6.005 -1.2723 -0.3980  0.2826
 7494SOL    HW233945   3.521   4.134   5.895 -0.4250  1.8236  1.8731
 7495SOL     OW33946   4.384   3.026   8.687 -0.6732 -0.2952  0.0746
 7495SOL    HW133947   4.448   2.998   8.753 -0.6347 -0.3487  0.0146
 7495SOL    HW233948   4.432   3.101   8.651 -0.4161 -0.1283  0.7565
 7496SOL     OW33949   3.920   2.057   2.985  0.0805 -0.2286  0.1374
 7496SOL    HW133950   3.989   2.018   3.039  0.6277 -0.8350 -1.0019
 7496SOL    HW233951   3.863   1.982   2.969  1.3327 -1.2770  0.5175
 7497SOL     OW33952   3.769   0.500   3.371 -0.4245  0.2838 -0.1980
 7497SOL    HW133953   3.816   0.419   3.391  1.1846  1.7348  1.9330
 7497SOL    HW233954   3.744   0.494   3.279  1.6486 -3.2983 -0.5195
 7498SOL     OW33955   1.903   0.885  10.556 -0.1321  0.2064 -0.2802
 7498SOL    HW133956   1.858   0.832  10.490 -0.9774 -0.5361  0.8969
 7498SOL    HW233957   1.929   0.956  10.496 -2.7604  0.8837 -0.6128
 7499SOL     OW33958   0.202   2.571   7.305  0.0697  0.5857  0.0086
 7499SOL    HW133959   0.220   2.521   7.385  0.3082  0.1286 -0.3311
 7499SOL    HW233960   0.178   2.498   7.248 -0.2946  1.0245 -0.3998
 7500SOL     OW33961   4.324   4.721  11.231  0.1717  0.5213 -0.4607
 7500SOL    HW133962   4.336   0.045  11.151 -1.2241  0.5774 -0.6432
 7500SOL    HW233963   4.416   4.697  11.241  0.3637  1.4951  0.1133
 7501SOL     OW33964   0.295   4.152  12.240  1.0385 -0.5124 -0.1658
 7501SOL    HW133965   0.299   4.247  12.230 -1.1594 -0.5520 -1.5379
 7501SOL    HW233966   0.303   4.132  12.147 -0.3252  1.7349 -0.7783
 7502SOL     OW33967   4.038   4.061   1.267  0.4733 -0.0881 -0.6407
 7502SOL    HW133968   4.019   4.087   1.177  0.1812 -0.2369 -0.6227
 7502SOL    HW233969   3.956   4.069   1.317  0.7726  0.0502 -0.1701
 7503SOL     OW33970   3.077   0.931   1.636  0.6384  0.3521  0.1476
 7503SOL    HW133971   3.050   1.021   1.656 -0.1423  0.0943  0.2489
 7503SOL    HW233972   3.162   0.941   1.593 -1.0767  2.6340 -2.7292
 7504SOL     OW33973   3.291   2.623   4.937 -0.0366 -0.3782 -0.4488
 7504SOL    HW133974   3.217   2.580   4.981  0.5239 -0.2150  0.6541
 7504SOL    HW233975   3.290   2.565   4.861 -0.2674 -0.1663 -0.6093
 7505SOL     OW33976   4.633   2.552   2.169 -0.2599  0.1639 -0.3934
 7505SOL    HW133977   4.552   2.503   2.154 -0.1781 -0.7269  2.1015
 7505SOL    HW233978   4.691   2.512   2.104  0.2522  1.7680 -0.9387
 7506SOL     OW33979   0.775   2.931   5.830 -0.6466 -0.3915  0.4691
 7506SOL    HW133980   0.788   2.964   5.741 -1.3595 -0.9821  0.1457
 7506SOL    HW233981   0.740   2.850   5.795  0.9653 -0.0678 -1.9064
 7507SOL     OW33982   3.236   3.029  10.311 -0.7268 -0.1383 -0.3261
 7507SOL    HW133983   3.144   3.010  10.330 -0.6870  3.0411  2.8399
 7507SOL    HW233984   3.238   3.103  10.251 -0.4614 -1.6057 -2.1416
 7508SOL     OW33985   2.474   1.640  17.689  0.7416  0.3034 -0.1688
 7508SOL    HW133986   2.462   1.650  17.595  1.4015  0.2913 -0.2534
 7508SOL    HW233987   2.449   1.548  17.696  2.5100  0.0523  3.0424
 7509SOL     OW33988   3.953   3.652  13.370  0.1509 -0.1579  0.1886
 7509SOL    HW133989   3.893   3.588  13.408  0.4045 -1.1746 -1.1339
 7509SOL    HW233990   3.938   3.648  13.276  1.3508 -0.5336  0.0110
 7510SOL     OW33991   2.156   1.564  14.927 -0.3630 -0.5039 -0.1905
 7510SOL    HW133992   2.137   1.554  15.020 -1.4832 -2.2756 -0.6079
 7510SOL    HW233993   2.158   1.473  14.897 -1.4114  0.0930 -2.0686
 7511SOL     OW33994   1.331   4.085   4.731  0.3121 -0.1550  0.2465
 7511SOL    HW133995   1.337   4.174   4.767 -0.0009  0.2596 -0.7369
 7511SOL    HW233996   1.396   4.038   4.783 -0.9991 -0.8753  1.2526
 7512SOL     OW33997   3.024   2.977  17.140 -0.2889 -0.4094 -0.1638
 7512SOL    HW133998   2.999   2.998  17.050  0.7279 -0.4654 -0.4546
 7512SOL    HW233999   3.101   2.921  17.132 -0.0320 -0.2317  1.0661
 7513SOL     OW34000   3.697   3.601  10.065  0.8258  0.9937 -0.2323
 7513SOL    HW134001   3.791   3.605  10.086  0.6978  0.7555  0.3723
 7513SOL    HW234002   3.700   3.563   9.977  2.8563 -0.8888  0.6398
 7514SOL     OW34003   0.646   0.914   7.013 -0.4405  0.1289  0.1705
 7514SOL    HW134004   0.559   0.916   6.972 -1.0822 -3.7415  1.3922
 7514SOL    HW234005   0.630   0.843   7.075 -2.6617 -0.2298 -0.7942
 7515SOL     OW34006   0.157   0.637  15.315 -0.2523  0.4897 -0.4684
 7515SOL    HW134007   0.141   0.672  15.228  0.5156  1.8703 -0.0558
 7515SOL    HW234008   0.071   0.646  15.356 -0.5331 -1.3205 -0.6777
 7516SOL     OW34009   0.107   0.629   7.516  0.2106 -0.1638  0.3067
 7516SOL    HW134010   0.100   0.720   7.487 -2.0350 -1.1236 -2.1190
 7516SOL    HW234011   0.036   0.638   7.580 -0.3255 -0.2853 -0.2758
 7517SOL     OW34012   1.002   3.125   5.407 -0.3455  0.1495 -0.1478
 7517SOL    HW134013   0.980   3.080   5.488 -1.0879  0.4527 -0.1831
 7517SOL    HW234014   0.919   3.139   5.363 -0.4262  2.4308  0.7418
 7518SOL     OW34015   1.088   4.286   2.345  0.1781  0.0279 -0.6694
 7518SOL    HW134016   1.120   4.327   2.265  3.3778  0.4521  0.8341
 7518SOL    HW234017   1.168   4.281   2.397 -0.7436  0.0122  0.7548
 7519SOL     OW34018   4.491   1.904   8.753 -0.3680 -0.4842 -0.1501
 7519SOL    HW134019   4.418   1.868   8.803 -0.3125 -1.4981 -0.7741
 7519SOL    HW234020   4.472   1.997   8.742  1.8491 -0.1119 -0.9073
 7520SOL     OW34021   1.286   4.634  13.600  0.0954  0.0615 -0.4374
 7520SOL    HW134022   1.363   4.645  13.655 -1.1904  0.2973  1.3207
 7520SOL    HW234023   1.316   4.631  13.509 -2.8431 -1.1688 -1.3967
 7521SOL     OW34024   1.035   2.048   8.231  0.2816 -0.1227  0.1329
 7521SOL    HW134025   0.941   2.059   8.222  0.1744 -0.6303  0.6171
 7521SOL    HW234026   1.033   1.988   8.307 -0.8901  0.8677  0.8848
 7522SOL     OW34027   1.212   3.931  11.788  0.2502 -0.5413  0.2013
 7522SOL    HW134028   1.124   3.909  11.818  0.4963  1.6500  2.5573
 7522SOL    HW234029   1.265   3.941  11.867  1.5511 -1.8159 -0.5146
 7523SOL     OW34030   1.352   3.963   6.383 -0.3854 -0.0309 -0.2600
 7523SOL    HW134031   1.358   3.906   6.459  0.5629  0.5053  0.0746
 7523SOL    HW234032   1.289   3.920   6.326 -0.8083  1.5454 -0.9978
 7524SOL     OW34033   4.019   2.535   5.938 -0.1036 -0.0191 -0.1816
 7524SOL    HW134034   3.940   2.587   5.953 -1.9349 -2.2840 -2.0204
 7524SOL    HW234035   3.988   2.455   5.896  0.7725 -0.7778  0.6130
 7525SOL     OW34036   1.484   4.267   4.464  0.1683  0.5648  0.7381
 7525SOL    HW134037   1.511   4.280   4.555  0.2325  1.2406  0.6217
 7525SOL    HW234038   1.537   4.330   4.416 -1.5218  2.5358  1.4741
 7526SOL     OW34039   4.392   3.424  16.874 -0.0810 -0.0464  0.3696
 7526SOL    HW134040   4.317   3.480  16.854  0.2010 -0.2569 -1.3048
 7526SOL    HW234041   4.359   3.372  16.947 -0.8314  0.7767  0.6132
 7527SOL     OW34042   2.426   3.254  11.243  0.1393  0.1765  0.2898
 7527SOL    HW134043   2.340   3.228  11.277 -1.1587  2.3089 -1.3504
 7527SOL    HW234044   2.413   3.253  11.148  0.1749  0.7083  0.2804
 7528SOL     OW34045   1.427   0.297  17.254 -0.7266  0.1666  0.3786
 7528SOL    HW134046   1.413   0.378  17.205 -0.2106 -1.4770 -2.4674
 7528SOL    HW234047   1.364   0.315  17.324 -1.0802 -1.7736  0.5684
 7529SOL     OW34048   1.557   0.901  10.187  0.3557 -0.0562 -0.0746
 7529SOL    HW134049   1.544   0.854  10.269 -0.9618  2.5392  1.2023
 7529SOL    HW234050   1.622   0.966  10.214 -0.8298  0.9914  0.2349
 7530SOL     OW34051   3.923   4.564   8.480  0.0688  0.2307 -0.1916
 7530SOL    HW134052   4.018   4.573   8.477  0.3355 -2.8874 -1.3671
 7530SOL    HW234053   3.903   4.617   8.557 -2.4412  1.7974 -1.9673
 7531SOL     OW34054   2.334   1.403   5.129  0.2949 -0.0143 -0.1234
 7531SOL    HW134055   2.378   1.488   5.128  2.3242 -1.0521 -0.4040
 7531SOL    HW234056   2.366   1.362   5.048  1.6045  0.0325  0.3563
 7532SOL     OW34057   4.309   3.189  16.249 -0.2330 -0.2888  0.5450
 7532SOL    HW134058   4.386   3.239  16.222  1.0590 -2.4259  0.2200
 7532SOL    HW234059   4.308   3.208  16.342  3.8304 -1.4728  0.8264
 7533SOL     OW34060   0.999   1.448  16.862 -0.2478  0.1060  0.1597
 7533SOL    HW134061   1.013   1.512  16.793  1.9934 -0.1494  0.3833
 7533SOL    HW234062   1.032   1.370  16.818  0.2084  0.1446  0.4403
 7534SOL     OW34063   1.520   3.198   4.215 -0.1957 -0.6883  0.0510
 7534SOL    HW134064   1.427   3.214   4.203 -0.9745 -4.0200  1.7924
 7534SOL    HW234065   1.547   3.155   4.134  1.5288 -0.7401  0.6420
 7535SOL     OW34066   4.416   4.575  11.859  0.8299 -0.2433  0.1361
 7535SOL    HW134067   4.472   4.499  11.841  0.0208 -0.2872 -2.2285
 7535SOL    HW234068   4.331   4.543  11.890  0.3173  0.8869 -0.0805
 7536SOL     OW34069   2.933   4.413   5.159  0.1774  0.0170  0.0913
 7536SOL    HW134070   3.005   4.461   5.119 -0.6586  0.7093 -0.5868
 7536SOL    HW234071   2.871   4.404   5.086 -0.7900 -2.2477  1.1825
 7537SOL     OW34072   2.341   2.041   7.487 -0.0555  0.1482  0.1538
 7537SOL    HW134073   2.411   2.105   7.475  1.5064 -1.4919  0.5569
 7537SOL    HW234074   2.379   1.958   7.461  2.0255  0.8272  1.0238
 7538SOL     OW34075   1.074   1.279   9.013 -0.0094  0.2815 -0.6165
 7538SOL    HW134076   1.104   1.365   8.982  0.1690  0.1174 -0.9036
 7538SOL    HW234077   1.151   1.243   9.056 -0.2283 -0.3895 -0.7838
 7539SOL     OW34078   2.527   3.129   3.271 -0.2503 -0.2029  0.4134
 7539SOL    HW134079   2.442   3.171   3.257 -0.1199 -0.5284 -1.3058
 7539SOL    HW234080   2.508   3.108   3.362  2.9065 -0.2884  1.0651
 7540SOL     OW34081   3.774   0.109   2.701 -0.4647  0.0646 -0.0674
 7540SOL    HW134082   3.698   0.122   2.644 -0.8900  1.4161  0.8272
 7540SOL    HW234083   3.829   0.045   2.654 -0.1193 -0.5596  1.1879
 7541SOL     OW34084   1.686   1.482   1.315  0.0837 -0.1066 -0.4870
 7541SOL    HW134085   1.746   1.408   1.318 -0.1735 -0.2052  3.3128
 7541SOL    HW234086   1.755   1.548   1.308  1.2206 -0.8919  2.9946
 7542SOL     OW34087   0.347   1.148   6.619 -0.4608  0.5887  0.0627
 7542SOL    HW134088   0.280   1.081   6.632 -0.7322  1.0039  0.8011
 7542SOL    HW234089   0.338   1.194   6.702  0.4866  1.6179 -0.4104
 7543SOL     OW34090   3.100   1.518   6.538 -0.5508 -0.0961  0.0453
 7543SOL    HW134091   3.079   1.473   6.457 -1.8381  1.9102 -0.7241
 7543SOL    HW234092   3.191   1.541   6.519 -0.5072 -0.8211 -0.6269
 7544SOL     OW34093   0.088   0.002   1.419  0.5021 -0.0697  0.1124
 7544SOL    HW134094   0.056   4.689   1.337 -3.4105  1.8985  0.7340
 7544SOL    HW234095   0.174   0.035   1.394  0.4179  0.3178  0.3463
 7545SOL     OW34096   1.501   1.281   1.685  0.6645  0.0071 -0.0569
 7545SOL    HW134097   1.522   1.199   1.639  0.9983  1.0492 -1.7769
 7545SOL    HW234098   1.411   1.289   1.651  0.8540 -0.4021 -0.6577
 7546SOL     OW34099   1.993   2.112   5.195 -0.5482  0.7985  0.3058
 7546SOL    HW134100   1.899   2.107   5.178 -0.5824  3.0802 -0.1725
 7546SOL    HW234101   2.008   2.018   5.210 -2.9692  0.4119  0.2572
 7547SOL     OW34102   2.145   0.518  14.730  0.1830  0.2793 -0.2158
 7547SOL    HW134103   2.191   0.595  14.696 -0.1722 -0.0766 -1.5089
 7547SOL    HW234104   2.199   0.494  14.806  0.5520 -0.3395 -0.6662
 7548SOL     OW34105   3.065   2.492   1.027  0.2345 -0.4892  0.5046
 7548SOL    HW134106   3.034   2.583   1.037 -0.3224 -0.5866 -0.3568
 7548SOL    HW234107   3.010   2.470   0.953 -0.1171  0.0199  0.6105
 7549SOL     OW34108   2.140   2.305   0.684 -0.0573 -0.2163  0.1953
 7549SOL    HW134109   2.169   2.262   0.604 -3.4552  1.0852 -1.7364
 7549SOL    HW234110   2.045   2.315   0.682 -0.1083 -0.5996  0.4712
 7550SOL     OW34111   0.326   4.414  13.765 -0.6510  0.2147  0.1301
 7550SOL    HW134112   0.312   4.489  13.822 -1.8548 -0.0905  0.2256
 7550SOL    HW234113   0.403   4.371  13.805  0.6545  0.8377 -1.7286
 7551SOL     OW34114   3.097   3.129  14.805  0.2953  0.3518  0.2843
 7551SOL    HW134115   3.119   3.213  14.765  0.5863 -0.6840 -1.7087
 7551SOL    HW234116   3.081   3.148  14.898  0.2182  3.6677 -0.4216
 7552SOL     OW34117   0.987   1.050   8.832 -0.8415 -0.0062 -0.2260
 7552SOL    HW134118   1.034   1.086   8.907  0.7583 -0.3127 -1.0891
 7552SOL    HW234119   0.912   1.007   8.874  0.6411 -2.4622 -0.0908
 7553SOL     OW34120   0.534   2.032   4.917 -0.2429  0.2872 -0.4310
 7553SOL    HW134121   0.469   2.090   4.878 -0.6544  0.8220  1.0531
 7553SOL    HW234122   0.604   2.047   4.853  0.8290  1.1268  0.9314
 7554SOL     OW34123   2.357   2.090  12.245  0.3280 -0.1079 -0.6917
 7554SOL    HW134124   2.317   2.132  12.169  0.5329  0.9978 -0.1956
 7554SOL    HW234125   2.347   1.999  12.218  0.8213  0.0777 -1.4787
 7555SOL     OW34126   0.322   0.281   8.816 -0.3764  0.7100 -0.0772
 7555SOL    HW134127   0.284   0.320   8.737 -0.5402  2.6145  0.9407
 7555SOL    HW234128   0.404   0.330   8.824 -1.8353  2.6416  3.1219
 7556SOL     OW34129   4.195   3.141  13.592 -0.2010  0.2580  0.0110
 7556SOL    HW134130   4.226   3.200  13.524 -3.9934  0.3440 -1.6005
 7556SOL    HW234131   4.218   3.060  13.547  3.5460  1.3038 -0.0129
 7557SOL     OW34132   2.240   2.244   6.890  0.0469 -0.0910  0.4895
 7557SOL    HW134133   2.165   2.260   6.833  1.2554 -0.4624 -1.1790
 7557SOL    HW234134   2.228   2.152   6.915  0.0709 -0.2456 -0.0821
 7558SOL     OW34135   1.962   3.535   7.018  0.1864 -0.1983  0.0175
 7558SOL    HW134136   1.990   3.465   7.077  0.7074 -0.1187 -0.1296
 7558SOL    HW234137   1.969   3.480   6.940  0.1731  1.5970 -1.2659
 7559SOL     OW34138   2.943   3.802  12.057  0.3606  0.1786  0.2279
 7559SOL    HW134139   2.989   3.718  12.053 -1.8830 -1.0638  0.7725
 7559SOL    HW234140   2.884   3.801  11.981 -1.6866 -1.9318  1.8491
 7560SOL     OW34141   2.627   3.352   5.751 -0.0874  0.7254  0.5489
 7560SOL    HW134142   2.647   3.375   5.842  0.4334 -0.0003  0.6100
 7560SOL    HW234143   2.662   3.264   5.756 -0.5528  0.6673  2.6946
 7561SOL     OW34144   4.632   2.356   7.743 -0.0889 -0.6427  0.2529
 7561SOL    HW134145   4.714   2.308   7.729 -0.3198 -0.4194 -1.7725
 7561SOL    HW234146   4.628   2.391   7.654 -2.1391  1.4343  1.1889
 7562SOL     OW34147   2.573   3.889   8.261 -0.2592  0.1407  0.2595
 7562SOL    HW134148   2.533   3.952   8.321  0.1761 -0.3820  1.0902
 7562SOL    HW234149   2.528   3.808   8.285  1.6644 -1.1896 -0.6626
 7563SOL     OW34150   1.090   1.756   3.339  0.1554  0.0275  0.3202
 7563SOL    HW134151   1.009   1.781   3.296  0.0398 -0.0626  0.4824
 7563SOL    HW234152   1.149   1.768   3.265  1.9952 -0.6678  1.6444
 7564SOL     OW34153   1.645   1.123   3.508 -0.2904  0.4602 -0.0191
 7564SOL    HW134154   1.608   1.120   3.597 -0.5017  0.9491 -0.0903
 7564SOL    HW234155   1.598   1.193   3.463  2.1684  1.4429 -1.0283
 7565SOL     OW34156   3.919   2.354  11.303 -0.2630  0.1496 -0.0196
 7565SOL    HW134157   3.913   2.318  11.214 -1.2206  0.7673 -0.2096
 7565SOL    HW234158   3.934   2.445  11.277  0.7808 -0.0758 -0.2139
 7566SOL     OW34159   0.457   1.255   2.845  0.4205 -0.1697 -0.6034
 7566SOL    HW134160   0.429   1.299   2.765  0.0094 -0.7512 -0.7746
 7566SOL    HW234161   0.382   1.212   2.886 -1.2396  2.4693 -0.9180
 7567SOL     OW34162   1.911   1.689  12.279  0.0766 -0.3695 -0.1380
 7567SOL    HW134163   1.977   1.750  12.247  0.7312 -0.6786  0.6273
 7567SOL    HW234164   1.842   1.683  12.212 -0.8894  0.9288  0.7264
 7568SOL     OW34165   1.595   1.644  10.401 -0.1111 -0.7731  0.1131
 7568SOL    HW134166   1.562   1.727  10.366 -0.8913 -1.6637 -1.2537
 7568SOL    HW234167   1.518   1.624  10.454 -0.8063 -0.2120 -0.6820
 7569SOL     OW34168   3.557   0.554  17.529  0.3258  0.1746  0.1739
 7569SOL    HW134169   3.565   0.513  17.443 -3.3294 -0.2618  0.0473
 7569SOL    HW234170   3.626   0.621  17.523  0.5768 -0.1170 -0.2025
 7570SOL     OW34171   0.461   4.005   7.718 -0.2456  0.2018 -0.3541
 7570SOL    HW134172   0.442   4.096   7.743 -1.1606  0.1368 -0.8420
 7570SOL    HW234173   0.489   4.019   7.628 -0.8496  0.9619 -0.4239
 7571SOL     OW34174   4.646   3.599   6.042 -0.1579 -0.2339  0.6596
 7571SOL    HW134175   4.669   3.617   5.950 -1.4400  0.2050  0.4272
 7571SOL    HW234176   4.722   3.552   6.076  1.1158  2.3535  1.3861
 7572SOL     OW34177   1.331   0.269   7.576 -0.2884  0.0968 -0.4045
 7572SOL    HW134178   1.397   0.329   7.540 -1.2114  0.5463 -1.3262
 7572SOL    HW234179   1.253   0.323   7.581 -0.5500 -0.4733  1.6083
 7573SOL     OW34180   2.405   2.803  14.707  0.1257 -0.5604 -0.1912
 7573SOL    HW134181   2.428   2.828  14.617 -0.5361 -1.0972 -0.5108
 7573SOL    HW234182   2.457   2.725  14.724  0.5001  0.1058  1.6686
 7574SOL     OW34183   4.211   0.351  17.478 -0.6655 -0.0358 -0.3928
 7574SOL    HW134184   4.300   0.320  17.462 -0.7499  1.0301 -3.0125
 7574SOL    HW234185   4.226   0.444  17.494 -0.6681 -0.2849  1.0369
 7575SOL     OW34186   3.714   1.209   7.608 -0.6506  0.4398 -0.0772
 7575SOL    HW134187   3.767   1.140   7.567 -0.2924  0.8080 -0.2309
 7575SOL    HW234188   3.760   1.288   7.581  1.1719  0.3140  2.6641
 7576SOL     OW34189   0.676   2.315   1.574 -0.0545 -0.1602  0.1372
 7576SOL    HW134190   0.635   2.312   1.488 -1.6095  2.6509  0.7899
 7576SOL    HW234191   0.743   2.381   1.562  0.8049 -0.8564  1.1141
 7577SOL     OW34192   1.088   2.394   5.329 -0.0725  0.4794 -0.3013
 7577SOL    HW134193   1.137   2.424   5.406  0.2136 -0.0154 -0.2885
 7577SOL    HW234194   1.000   2.389   5.364 -0.3534  2.0322 -0.8031
 7578SOL     OW34195   2.340   0.392  13.793  0.5402 -0.1092  0.3942
 7578SOL    HW134196   2.369   0.354  13.710 -3.4248 -1.0130 -0.5414
 7578SOL    HW234197   2.246   0.389  13.780  0.7812  0.1744 -1.3740
 7579SOL     OW34198   4.163   0.743   4.413  0.0979  0.2121 -0.0197
 7579SOL    HW134199   4.209   0.660   4.403 -1.2015 -0.5374  0.1746
 7579SOL    HW234200   4.207   0.778   4.491 -1.6291  1.6739  0.3058
 7580SOL     OW34201   4.693   3.922   7.818  0.0876 -0.3670  0.3265
 7580SOL    HW134202   4.614   3.874   7.793 -0.5353  0.7568  0.1498
 7580SOL    HW234203   4.702   3.907   7.912 -2.5979 -0.5042  0.5441
 7581SOL     OW34204   0.470   3.607   4.704  0.6285  0.3674 -0.1574
 7581SOL    HW134205   0.397   3.667   4.691 -0.0805 -0.3776  0.3264
 7581SOL    HW234206   0.490   3.576   4.616 -0.2052 -0.3420 -0.1015
 7582SOL     OW34207   0.784   1.048   3.356 -0.5568  0.1887 -0.1046
 7582SOL    HW134208   0.747   1.033   3.443  2.2459  1.5960  1.3091
 7582SOL    HW234209   0.723   1.111   3.317 -1.4570  1.3690  3.2313
 7583SOL     OW34210   3.302   3.458  16.742 -0.1440  0.1258  0.3965
 7583SOL    HW134211   3.246   3.487  16.670 -0.2277  0.2060  0.4945
 7583SOL    HW234212   3.380   3.433  16.694 -0.8143 -1.3951  0.0924
 7584SOL     OW34213   3.552   3.242  15.403  0.4995 -0.7605 -0.5569
 7584SOL    HW134214   3.498   3.296  15.462  2.0150 -2.2738  2.2117
 7584SOL    HW234215   3.626   3.241  15.464  0.4036  2.0223 -0.3592
 7585SOL     OW34216   1.494   3.141   7.150 -0.1692  0.0772  0.1250
 7585SOL    HW134217   1.467   3.225   7.189  0.2928 -0.0689  0.7618
 7585SOL    HW234218   1.427   3.080   7.179  0.6665 -1.7881 -1.9150
 7586SOL     OW34219   3.832   2.594   2.140  0.0767 -0.6145  0.3836
 7586SOL    HW134220   3.750   2.552   2.113 -0.1705  0.0448  0.0892
 7586SOL    HW234221   3.856   2.544   2.218  0.2456 -2.0251 -0.5831
 7587SOL     OW34222   0.576   4.416  14.712 -0.1985  0.3691 -0.3888
 7587SOL    HW134223   0.541   4.505  14.717 -0.7069  0.2009 -0.9397
 7587SOL    HW234224   0.553   4.383  14.799 -1.6418 -1.5400 -1.4893
 7588SOL     OW34225   0.918   4.650   8.558 -0.2333  0.3351 -0.6155
 7588SOL    HW134226   0.846   4.630   8.499 -0.7031 -2.3957  0.8628
 7588SOL    HW234227   0.921   0.020   8.560  1.9015  0.3098 -2.5423
 7589SOL     OW34228   2.696   3.279   5.375 -0.3951  0.2234 -0.7539
 7589SOL    HW134229   2.772   3.304   5.321  0.3196  1.7493  0.9518
 7589SOL    HW234230   2.738   3.213   5.431 -1.2315 -1.7889 -2.4957
 7590SOL     OW34231   1.036   3.653   6.382  0.3269 -0.4881 -0.0054
 7590SOL    HW134232   1.030   3.591   6.309 -3.7010 -0.1906  0.0864
 7590SOL    HW234233   1.082   3.593   6.442 -2.1127  0.9652  3.2912
 7591SOL     OW34234   0.095   0.731   6.455  0.3627 -0.0994  0.0065
 7591SOL    HW134235   0.079   0.757   6.365  0.7864  0.7832  0.1779
 7591SOL    HW234236   0.189   0.714   6.454  0.3021 -0.4547  0.3466
 7592SOL     OW34237   1.589   0.219   8.868 -0.0080 -0.1304  0.1080
 7592SOL    HW134238   1.519   0.214   8.933 -0.8915  0.4292 -0.8113
 7592SOL    HW234239   1.542   0.168   8.802  1.7598 -0.0419 -1.2352
 7593SOL     OW34240   2.608   1.483   6.309 -0.3329  0.3481  0.1011
 7593SOL    HW134241   2.633   1.394   6.285 -0.3557  0.4235 -0.2124
 7593SOL    HW234242   2.677   1.530   6.262  0.0697 -1.6444 -1.2944
 7594SOL     OW34243   4.318   1.380   1.987 -0.0920  0.5416 -0.5144
 7594SOL    HW134244   4.320   1.443   1.914 -0.9560  1.9242  0.6483
 7594SOL    HW234245   4.407   1.377   2.021  0.3706  0.5988 -1.7127
 7595SOL     OW34246   4.202   0.557   5.817  0.1378 -0.6493 -0.1545
 7595SOL    HW134247   4.233   0.520   5.900 -0.4223  0.2754  0.4561
 7595SOL    HW234248   4.136   0.621   5.842  0.7064  0.3252 -1.1570
 7596SOL     OW34249   1.013   0.736   4.220 -0.1684 -0.4006  0.4210
 7596SOL    HW134250   0.992   0.799   4.289 -1.0293 -1.4401  1.1058
 7596SOL    HW234251   0.969   0.658   4.255 -1.3424  0.9740  2.0281
 7597SOL     OW34252   0.847   1.582   6.475  0.1631 -0.5945  0.4544
 7597SOL    HW134253   0.788   1.615   6.543 -0.6377  2.0106 -1.5260
 7597SOL    HW234254   0.834   1.647   6.406 -0.1051 -0.1741  0.9041
 7598SOL     OW34255   2.940   3.552   7.652  0.2141 -0.5448  0.2833
 7598SOL    HW134256   3.028   3.523   7.674 -0.0504 -1.0526  0.6847
 7598SOL    HW234257   2.909   3.569   7.741 -0.9633 -0.8235 -0.0719
 7599SOL     OW34258   4.629   1.390  10.946 -0.1342  0.1874  0.0315
 7599SOL    HW134259   4.566   1.405  11.016  0.5665 -1.1639  0.9549
 7599SOL    HW234260   4.694   1.345  11.000  1.3054  0.2699 -1.6355
 7600SOL     OW34261   2.068   4.552   2.439  0.7075  0.0154 -0.5344
 7600SOL    HW134262   2.106   4.467   2.419  1.1122  0.0244  0.2209
 7600SOL    HW234263   2.115   4.579   2.518  1.0546 -2.7922  0.1951
 7601SOL     OW34264   0.192   2.245  10.815  0.5224 -0.0633  0.1325
 7601SOL    HW134265   0.197   2.169  10.757 -1.8526  1.0521 -1.5487
 7601SOL    HW234266   0.207   2.207  10.902 -0.9729 -0.6874  0.1299
 7602SOL     OW34267   1.283   3.027   1.209 -0.0187 -0.2521 -0.4847
 7602SOL    HW134268   1.239   3.088   1.268  1.0743 -0.3753  0.4515
 7602SOL    HW234269   1.209   2.980   1.170  0.7175  0.9297 -3.3121
 7603SOL     OW34270   1.203   0.432   9.795  0.2419  0.6667 -0.4123
 7603SOL    HW134271   1.184   0.338   9.804  0.7529  0.4654 -1.3536
 7603SOL    HW234272   1.273   0.447   9.859 -1.1066  0.1988  1.1812
 7604SOL     OW34273   3.068   2.497   5.069  0.0050 -0.3467  0.1612
 7604SOL    HW134274   3.012   2.480   5.146  0.3419 -0.1085  0.4586
 7604SOL    HW234275   3.018   2.455   4.999 -0.0441 -0.9807  0.5777
 7605SOL     OW34276   2.752   4.676   2.837 -0.1899  0.2171  0.0314
 7605SOL    HW134277   2.783   4.629   2.760 -0.0213  0.8991 -0.3235
 7605SOL    HW234278   2.827   0.006   2.858  0.9326 -1.1524 -0.3959
 7606SOL     OW34279   2.750   0.657   3.888  0.1903  0.4006 -0.2138
 7606SOL    HW134280   2.719   0.703   3.966  0.1349  1.0358 -0.6169
 7606SOL    HW234281   2.833   0.617   3.912  0.0741  0.8174  0.8747
 7607SOL     OW34282   1.196   0.918  12.979  0.2937 -0.6518 -0.9525
 7607SOL    HW134283   1.275   0.905  12.926  0.7459 -0.0510 -0.4335
 7607SOL    HW234284   1.229   0.917  13.069  0.3415 -0.3864 -0.9656
 7608SOL     OW34285   2.881   4.456   3.272 -0.1182  0.2818  0.4381
 7608SOL    HW134286   2.951   4.390   3.275 -0.2733 -0.0769 -3.8268
 7608SOL    HW234287   2.819   4.406   3.219  2.4681 -2.1443 -0.2940
 7609SOL     OW34288   2.868   1.757  14.818  0.0997  0.3104 -0.4535
 7609SOL    HW134289   2.896   1.695  14.886 -2.7683 -1.9657 -1.3449
 7609SOL    HW234290   2.930   1.738  14.748 -0.8646  0.9853 -1.4928
 7610SOL     OW34291   3.476   0.030  11.836 -0.5294 -0.2416 -0.3892
 7610SOL    HW134292   3.548   0.006  11.779 -1.4238  1.1750 -2.1029
 7610SOL    HW234293   3.473   4.686  11.903  0.1986  1.0770  0.9968
 7611SOL     OW34294   0.214   0.646   6.090  0.4527 -1.0224  0.5815
 7611SOL    HW134295   0.305   0.674   6.075  0.0382 -0.2313 -0.4129
 7611SOL    HW234296   0.175   0.633   6.004  0.0349  0.6122  0.5432
 7612SOL     OW34297   0.054   4.344   5.840  0.2472 -0.0332  1.1207
 7612SOL    HW134298   0.138   4.329   5.797  0.3891 -1.7837  1.9828
 7612SOL    HW234299   0.026   4.253   5.855  0.5392 -0.5726 -1.7143
 7613SOL     OW34300   2.161   4.220  14.840  0.3814  0.0178  0.2484
 7613SOL    HW134301   2.086   4.249  14.788  1.8876  0.0406 -1.9423
 7613SOL    HW234302   2.138   4.264  14.922  2.0435 -0.1104  0.7903
 7614SOL     OW34303   3.863   1.539   7.643 -0.1201 -0.4431  0.0841
 7614SOL    HW134304   3.821   1.534   7.557 -0.1297 -0.5561  0.0948
 7614SOL    HW234305   3.954   1.558   7.622  0.2798 -1.2616  1.0836
 7615SOL     OW34306   0.538   3.030   2.305  0.0530  0.7386  0.6535
 7615SOL    HW134307   0.586   2.948   2.315  0.9261  1.3743  1.5806
 7615SOL    HW234308   0.484   3.020   2.226  0.1874 -1.0737  0.7969
 7616SOL     OW34309   2.742   0.415   0.527  0.8592  0.5817 -0.3929
 7616SOL    HW134310   2.717   0.491   0.474  2.6648  1.3446 -0.1579
 7616SOL    HW234311   2.659   0.368   0.539 -0.6370  2.9582 -1.4783
 7617SOL     OW34312   4.446   2.659   8.164 -0.4619  0.7080 -0.3455
 7617SOL    HW134313   4.472   2.711   8.088 -1.5270  0.9820 -0.5171
 7617SOL    HW234314   4.434   2.572   8.125 -1.3723  0.8288 -0.3407
 7618SOL     OW34315   2.723   2.055  11.389 -0.0931  0.0139  0.3738
 7618SOL    HW134316   2.698   2.017  11.305 -0.6681  2.4578 -0.5407
 7618SOL    HW234317   2.702   2.148  11.390 -0.4902 -0.0789  2.3554
 7619SOL     OW34318   2.238   3.796   3.124 -0.8929  0.4070 -0.4697
 7619SOL    HW134319   2.173   3.825   3.059 -1.7264  0.9887  0.6328
 7619SOL    HW234320   2.186   3.727   3.163 -0.0027  0.1701  0.2906
 7620SOL     OW34321   1.256   0.741   4.093  0.0032 -0.4116 -0.2280
 7620SOL    HW134322   1.296   0.812   4.142  0.2315 -0.5083 -0.2764
 7620SOL    HW234323   1.179   0.725   4.148 -0.0712 -1.1170 -0.5297
 7621SOL     OW34324   0.913   2.591  10.515  0.7284 -0.2816 -0.3827
 7621SOL    HW134325   0.892   2.506  10.555 -0.8679  0.2862 -0.0218
 7621SOL    HW234326   0.923   2.636  10.598 -0.8519 -1.9490  0.7035
 7622SOL     OW34327   1.981   1.741   8.075  0.1494 -0.9172  0.7928
 7622SOL    HW134328   2.072   1.750   8.048 -0.5912 -0.5985 -1.5303
 7622SOL    HW234329   1.955   1.833   8.070 -1.2624 -1.4093 -0.7091
 7623SOL     OW34330   1.672   2.374  14.565 -0.5861 -0.0354 -0.4650
 7623SOL    HW134331   1.697   2.300  14.620 -0.1176 -0.6991 -1.5715
 7623SOL    HW234332   1.579   2.363  14.549 -0.0779 -1.0779 -2.7612
 7624SOL     OW34333   2.863   2.250  12.022  0.0954  0.1014  0.1833
 7624SOL    HW134334   2.951   2.286  12.012 -0.1072  0.4044 -0.5093
 7624SOL    HW234335   2.853   2.201  11.941  1.3765 -0.7364  0.5221
 7625SOL     OW34336   2.586   1.905   4.078 -0.4044 -0.1882 -0.3484
 7625SOL    HW134337   2.566   1.984   4.128 -0.5883 -0.3014 -0.2454
 7625SOL    HW234338   2.568   1.937   3.990  1.6227 -1.6434 -1.3020
 7626SOL     OW34339   2.852   3.232   8.302  0.3820 -0.1761  0.2393
 7626SOL    HW134340   2.907   3.190   8.236 -1.2456  2.1244 -2.5919
 7626SOL    HW234341   2.832   3.164   8.366  1.8357  0.5476  1.4746
 7627SOL     OW34342   2.864   1.782   0.315 -0.0317 -0.1718 -0.9470
 7627SOL    HW134343   2.899   1.871   0.313  0.7166 -0.4312  0.6507
 7627SOL    HW234344   2.781   1.798   0.360 -0.3669  0.7076 -1.8849
 7628SOL     OW34345   0.543   1.157   3.277 -1.1811 -0.2328 -0.1635
 7628SOL    HW134346   0.541   1.253   3.271 -0.3073 -0.1362  0.9586
 7628SOL    HW234347   0.464   1.143   3.226  0.1841 -2.3201 -1.6706
 7629SOL     OW34348   0.226   2.662  13.013 -0.6467 -1.3714  0.1755
 7629SOL    HW134349   0.257   2.670  12.922  0.4850 -2.6523  0.4560
 7629SOL    HW234350   0.153   2.724  13.011 -0.8356 -1.5470  2.0490
 7630SOL     OW34351   2.201   3.817   4.409  0.2371 -0.4363  0.0040
 7630SOL    HW134352   2.244   3.844   4.328 -0.4888  1.1115  0.1364
 7630SOL    HW234353   2.264   3.846   4.476 -1.7684 -2.0901  2.6018
 7631SOL     OW34354   3.473   3.924  16.947 -0.0209 -0.6517 -0.2263
 7631SOL    HW134355   3.491   3.894  17.036  1.6650 -0.4002 -0.4859
 7631SOL    HW234356   3.494   3.846  16.895  0.2093  0.6100 -2.0137
 7632SOL     OW34357   3.070   1.994   3.286 -0.0978  0.3240  0.1578
 7632SOL    HW134358   3.073   1.963   3.376  0.1894  0.0155  0.0397
 7632SOL    HW234359   3.159   2.026   3.269 -0.1243 -1.5519 -3.3825
 7633SOL     OW34360   0.877   1.692   0.417  0.0263  0.3285  0.3735
 7633SOL    HW134361   0.936   1.726   0.484 -1.4507 -0.1845  1.9222
 7633SOL    HW234362   0.920   1.725   0.338 -4.2508  1.9880 -1.2416
 7634SOL     OW34363   4.015   0.601   0.036  0.0899  0.3200 -0.1456
 7634SOL    HW134364   4.024   0.532   0.101 -0.7059  0.0484 -0.3241
 7634SOL    HW234365   4.107   0.609   0.011  1.1163 -0.6622  3.3100
 7635SOL     OW34366   4.548   0.902   0.198 -0.6173 -0.2781 -0.4773
 7635SOL    HW134367   4.510   0.989   0.206  2.0011  0.7357  1.0873
 7635SOL    HW234368   4.481   0.867   0.140  1.1037  0.1674 -2.7365
 7636SOL     OW34369   0.321   1.073   4.092  0.2145 -0.4364 -0.2535
 7636SOL    HW134370   0.373   1.098   4.016  1.0652 -0.0739  0.4439
 7636SOL    HW234371   0.288   0.988   4.063 -0.8844 -0.2661  0.4729
 7637SOL     OW34372   0.690   1.559   8.275  0.3724 -0.2010 -0.0347
 7637SOL    HW134373   0.690   1.463   8.274 -0.5781 -0.2489  3.6076
 7637SOL    HW234374   0.643   1.577   8.356 -2.0664 -0.3774 -1.4074
 7638SOL     OW34375   3.426   4.058   1.906  0.2273 -0.1223  0.1114
 7638SOL    HW134376   3.348   4.109   1.930 -0.7899 -0.9412 -1.4787
 7638SOL    HW234377   3.386   3.995   1.846 -2.5558  0.2683  1.5251
 7639SOL     OW34378   2.361   0.013   7.788  0.2199 -0.1375  0.4492
 7639SOL    HW134379   2.407   0.042   7.709 -0.4310  0.0019  0.1185
 7639SOL    HW234380   2.357   4.643   7.784 -1.1388 -0.0228 -1.1202
 7640SOL     OW34381   0.766   1.704  15.345  0.0876  0.0327  0.2214
 7640SOL    HW134382   0.814   1.726  15.266 -0.9073  3.8960  0.6845
 7640SOL    HW234383   0.721   1.788  15.358 -2.1661 -1.4906  2.3694
 7641SOL     OW34384   3.758   0.282   6.711 -0.1315  0.9083 -0.3420
 7641SOL    HW134385   3.673   0.281   6.755 -1.2101  2.6556 -2.3726
 7641SOL    HW234386   3.805   0.342   6.769  1.5488 -0.9547  0.2470
 7642SOL     OW34387   2.001   4.638   7.271 -0.4171  0.0681 -0.5805
 7642SOL    HW134388   1.916   4.623   7.312 -0.5951  0.0301 -0.9650
 7642SOL    HW234389   1.969   4.695   7.201 -0.7291  0.1303 -0.3835
 7643SOL     OW34390   4.417   0.270  16.582  0.1176 -0.0020 -0.9026
 7643SOL    HW134391   4.430   0.177  16.598 -1.0277 -0.1414 -0.7578
 7643SOL    HW234392   4.393   0.312  16.664  0.1218  1.1457 -1.4840
 7644SOL     OW34393   4.511   1.218   6.873  0.3528  0.0260 -0.1053
 7644SOL    HW134394   4.526   1.146   6.935 -1.3231 -0.3193 -0.1030
 7644SOL    HW234395   4.581   1.213   6.808  0.3097  0.3521 -0.1775
 7645SOL     OW34396   4.426   2.339   0.888  0.2247  0.2654  0.1062
 7645SOL    HW134397   4.391   2.320   0.975  0.6161 -2.4907 -0.3324
 7645SOL    HW234398   4.511   2.295   0.894 -0.3999 -0.9686 -0.1753
 7646SOL     OW34399   4.632   2.621  11.045 -0.2389 -0.4149  0.6905
 7646SOL    HW134400   4.655   2.655  10.959 -2.0613  1.6139  1.0028
 7646SOL    HW234401   4.587   2.543  11.014  0.3090  1.1509 -3.9472
 7647SOL     OW34402   3.802   1.046   4.457  0.2036  0.5186  0.0490
 7647SOL    HW134403   3.863   1.048   4.531 -1.8772 -1.2852  1.8324
 7647SOL    HW234404   3.846   0.989   4.393  0.8225  1.9208 -0.7715
 7648SOL     OW34405   2.327   4.073   2.438 -0.2486 -0.0246  0.4367
 7648SOL    HW134406   2.324   3.994   2.384  2.5548  0.4641 -0.4314
 7648SOL    HW234407   2.326   4.032   2.524 -0.6136  0.0821  0.4799
 7649SOL     OW34408   1.092   4.673   4.698  0.1987 -0.6868 -0.5353
 7649SOL    HW134409   1.148   0.008   4.747 -0.0559 -1.0575  0.2119
 7649SOL    HW234410   1.158   4.607   4.679 -0.6805 -1.0805 -2.2474
 7650SOL     OW34411   4.096   2.625  13.057 -0.2166 -0.3832 -0.2766
 7650SOL    HW134412   4.123   2.561  13.122  0.8252  0.0165 -0.3151
 7650SOL    HW234413   4.118   2.711  13.093  0.2820 -0.2167 -0.9726
 7651SOL     OW34414   2.853   2.167  14.378  0.1062  0.8527  0.0810
 7651SOL    HW134415   2.910   2.243  14.385  0.0233  0.9954 -0.8245
 7651SOL    HW234416   2.871   2.144  14.287  4.4721  1.0792  0.8928
 7652SOL     OW34417   3.902   0.953   7.759  0.4181 -0.3288  0.1462
 7652SOL    HW134418   3.944   0.895   7.824  1.2712 -1.6405 -1.5784
 7652SOL    HW234419   3.812   0.923   7.773 -0.2213  2.4026  1.7789
 7653SOL     OW34420   2.098   0.000  14.821  0.4152 -0.6159  0.1564
 7653SOL    HW134421   2.066   0.061  14.754  0.1300 -0.2874  0.5961
 7653SOL    HW234422   2.189   0.031  14.819 -0.5287  2.2672  1.5617
 7654SOL     OW34423   1.556   0.403   2.915  0.6926  0.9036 -0.0792
 7654SOL    HW134424   1.468   0.388   2.949  0.7354 -0.5503 -0.6181
 7654SOL    HW234425   1.580   0.491   2.945  2.0658  0.9490 -1.2460
 7655SOL     OW34426   2.194   1.278   3.723 -0.0949 -0.1845 -0.3873
 7655SOL    HW134427   2.257   1.280   3.651 -2.7545  1.9932 -2.6391
 7655SOL    HW234428   2.114   1.264   3.673 -0.1048  0.6878 -0.6168
 7656SOL     OW34429   3.945   0.153   8.136  0.3372 -0.0322  0.1152
 7656SOL    HW134430   3.893   0.144   8.056  1.3910 -2.7720 -0.2548
 7656SOL    HW234431   4.021   0.108   8.099  0.0888 -0.5719  0.2661
 7657SOL     OW34432   0.924   3.320  12.061  0.0150 -0.1338 -0.0499
 7657SOL    HW134433   0.954   3.238  12.100 -2.0615 -0.6229  0.4925
 7657SOL    HW234434   1.010   3.350  12.030 -0.0469 -0.5304 -0.5996
 7658SOL     OW34435   1.400   1.356   8.731 -0.2163 -0.1872  0.0446
 7658SOL    HW134436   1.326   1.407   8.764  0.9452  1.6983 -0.2595
 7658SOL    HW234437   1.376   1.347   8.639  1.3820 -1.6589 -0.2350
 7659SOL     OW34438   4.393   3.877   1.234 -0.4104 -0.2358 -0.4724
 7659SOL    HW134439   4.393   3.847   1.325  2.5352 -0.6758 -0.6196
 7659SOL    HW234440   4.457   3.814   1.201  1.7528  0.8160  1.7046
 7660SOL     OW34441   3.271   1.816   4.709 -0.2819 -0.2718  0.1935
 7660SOL    HW134442   3.330   1.820   4.785  0.7012  0.2983 -0.6042
 7660SOL    HW234443   3.194   1.780   4.754 -0.0814  0.7562  1.3398
 7661SOL     OW34444   1.216   0.732   9.451 -0.0724  0.1948  0.4214
 7661SOL    HW134445   1.225   0.827   9.443 -1.4307  0.2848 -0.0193
 7661SOL    HW234446   1.258   0.714   9.535  1.1241  1.9593  0.2232
 7662SOL     OW34447   1.311   2.667   3.885  0.0624 -0.2406 -0.4052
 7662SOL    HW134448   1.363   2.641   3.809  0.3304 -1.3390  0.1518
 7662SOL    HW234449   1.386   2.706   3.929 -0.1650  0.2339 -0.4333
 7663SOL     OW34450   4.165   0.766   2.452  0.2972  0.3120  0.1134
 7663SOL    HW134451   4.109   0.811   2.516  1.8246 -0.3677  1.9374
 7663SOL    HW234452   4.155   0.823   2.376 -0.0260  1.7442  1.2359
 7664SOL     OW34453   2.194   2.407   6.362  0.2669  0.4631 -0.1968
 7664SOL    HW134454   2.131   2.336   6.371  1.5891 -0.7179 -0.2266
 7664SOL    HW234455   2.279   2.363   6.367 -0.1027 -0.3106 -0.6672
 7665SOL     OW34456   1.345   2.136   2.080 -0.3825  0.1840 -0.1617
 7665SOL    HW134457   1.354   2.089   1.998  2.3904  0.2777  0.0883
 7665SOL    HW234458   1.254   2.164   2.080 -1.8091 -4.4665  0.4844
 7666SOL     OW34459   0.228   4.629   3.213  0.2340 -0.3235 -0.1493
 7666SOL    HW134460   0.210   4.595   3.301 -2.5471  2.5905  0.4116
 7666SOL    HW234461   0.145   4.617   3.167  0.7263 -2.3427 -0.5076
 7667SOL     OW34462   2.396   3.681   5.624  0.2898  0.3337 -0.2804
 7667SOL    HW134463   2.446   3.734   5.687  1.1503 -0.2715 -0.4585
 7667SOL    HW234464   2.396   3.591   5.656  2.6041  0.6820  0.6870
 7668SOL     OW34465   3.261   4.682   2.798  0.2770 -0.4554 -0.0863
 7668SOL    HW134466   3.205   4.658   2.873  0.1360  1.3969  0.4022
 7668SOL    HW234467   3.313   0.033   2.820  1.5283 -1.5336  0.7007
 7669SOL     OW34468   0.491   3.975  12.882 -0.0925  0.1941  0.2798
 7669SOL    HW134469   0.453   4.021  12.957  0.8366 -0.3056  1.0530
 7669SOL    HW234470   0.486   4.050  12.824  0.9176  1.0621  1.3223
 7670SOL     OW34471   4.193   3.118   2.775 -0.1387 -0.0932  0.3513
 7670SOL    HW134472   4.272   3.169   2.797 -0.7295  0.7853  0.4518
 7670SOL    HW234473   4.136   3.154   2.843  0.3724 -0.5950  1.0453
 7671SOL     OW34474   4.026   1.221   6.359  0.3155 -0.1262 -0.0090
 7671SOL    HW134475   3.981   1.285   6.304  1.0754  0.1297 -0.3410
 7671SOL    HW234476   4.078   1.284   6.410 -0.9310  1.0421 -0.1860
 7672SOL     OW34477   0.940   4.148   3.707 -1.3046 -0.1607  0.3571
 7672SOL    HW134478   1.005   4.079   3.694 -0.7019  0.7431 -1.3469
 7672SOL    HW234479   0.967   4.172   3.796 -0.3919 -0.4307  0.1589
 7673SOL     OW34480   4.722   0.667   8.239  0.0192  0.1415 -0.4111
 7673SOL    HW134481   4.668   0.670   8.160 -0.4031  0.5009 -0.1102
 7673SOL    HW234482   0.022   0.756   8.264  1.0680 -0.0067 -0.9618
 7674SOL     OW34483   0.866   2.751   9.697 -0.3150  0.3344  0.4445
 7674SOL    HW134484   0.780   2.730   9.660 -0.6616  2.5800  0.0090
 7674SOL    HW234485   0.917   2.749   9.617 -1.4717  0.3243 -0.3015
 7675SOL     OW34486   4.483   2.841   5.845  0.5401  0.3226 -0.1436
 7675SOL    HW134487   4.405   2.802   5.883  1.6832 -0.5824  1.2833
 7675SOL    HW234488   4.494   2.907   5.914 -0.5867  0.0721  0.2743
 7676SOL     OW34489   3.647   1.312  12.389  0.1098  0.1993  0.2121
 7676SOL    HW134490   3.688   1.230  12.416  1.1022  0.6167 -0.0232
 7676SOL    HW234491   3.594   1.329  12.467 -0.0416 -1.4862  0.4621
 7677SOL     OW34492   1.901   2.617   6.760 -0.2440  0.2499  0.1962
 7677SOL    HW134493   1.892   2.537   6.811  0.1407  0.2692  0.2919
 7677SOL    HW234494   1.830   2.672   6.795 -1.4343 -0.4934 -1.0259
 7678SOL     OW34495   3.107   0.894   2.904  0.6056 -0.2142 -0.2306
 7678SOL    HW134496   3.139   0.813   2.864  2.6234  1.8929 -2.8766
 7678SOL    HW234497   3.184   0.948   2.891 -0.6259  1.2682 -1.4334
 7679SOL     OW34498   1.494   4.318   4.019  0.2006  0.5578  0.6153
 7679SOL    HW134499   1.586   4.297   4.005 -0.6478 -1.4507 -1.9447
 7679SOL    HW234500   1.481   4.380   3.947 -0.8570 -1.0812 -0.6218
 7680SOL     OW34501   0.194   0.183   0.815 -0.0387 -0.2277 -0.0333
 7680SOL    HW134502   0.274   0.217   0.856  1.1000 -0.7127 -1.8528
 7680SOL    HW234503   0.162   0.126   0.885 -0.7923  0.3567  0.0980
 7681SOL     OW34504   3.071   4.710   3.072 -0.2962  0.6052  0.1288
 7681SOL    HW134505   3.108   0.047   3.135  0.4469 -0.3348  0.6231
 7681SOL    HW234506   3.035   0.040   3.003 -1.4223 -0.8441 -0.4354
 7682SOL     OW34507   2.317   0.822  16.557 -0.3875  0.3409 -0.4669
 7682SOL    HW134508   2.312   0.751  16.621 -1.3913  1.4728  0.7376
 7682SOL    HW234509   2.408   0.816  16.529 -0.4386 -2.5190  0.0158
 7683SOL     OW34510   4.513   4.420   8.024 -0.6178 -0.0788  0.1592
 7683SOL    HW134511   4.453   4.463   8.085 -1.9486  1.7177 -2.4075
 7683SOL    HW234512   4.599   4.427   8.065 -0.6974  0.4158  0.2383
 7684SOL     OW34513   4.496   3.044   4.218  0.5364 -0.5749  0.1364
 7684SOL    HW134514   4.528   3.093   4.143  1.3341  0.2084  0.9782
 7684SOL    HW234515   4.456   3.112   4.274 -0.4086  0.4763 -1.8318
 7685SOL     OW34516   2.182   2.606   9.592 -0.2452  0.3713 -0.3749
 7685SOL    HW134517   2.131   2.677   9.631 -1.1948 -1.4597  1.7267
 7685SOL    HW234518   2.146   2.617   9.504 -1.7301 -0.1711  0.1692
 7686SOL     OW34519   4.267   2.694  14.477 -0.2797  0.5644  0.1929
 7686SOL    HW134520   4.358   2.716  14.497 -0.1281  0.2657 -0.1694
 7686SOL    HW234521   4.274   2.638  14.400 -0.0354 -1.6290  1.8016
 7687SOL     OW34522   2.394   0.736  15.044  0.3610  0.2212  0.2753
 7687SOL    HW134523   2.420   0.823  15.014  0.1414 -0.7475 -2.8001
 7687SOL    HW234524   2.472   0.681  15.030  0.6759  0.4891  0.9884
 7688SOL     OW34525   2.031   4.198  10.837 -0.5985  1.0289  0.8233
 7688SOL    HW134526   2.073   4.132  10.890 -0.3319 -0.2663 -0.9946
 7688SOL    HW234527   2.092   4.223  10.767 -0.7093 -0.2561  0.2684
 7689SOL     OW34528   0.024   2.252   5.426  0.1926 -0.3788  0.3473
 7689SOL    HW134529   0.099   2.195   5.414 -0.9273 -1.7791  0.0217
 7689SOL    HW234530   4.712   2.239   5.513 -4.4355 -1.9605 -1.8721
 7690SOL     OW34531   1.917   1.960  12.785  0.2603  0.3090 -0.0142
 7690SOL    HW134532   1.844   2.011  12.819  0.1615  0.0985  0.0866
 7690SOL    HW234533   1.923   1.985  12.693  0.8424 -2.2825 -0.6724
 7691SOL     OW34534   0.165   2.390   7.112 -0.0480  0.6974 -0.7614
 7691SOL    HW134535   0.084   2.347   7.082 -0.5060  0.6586  0.5203
 7691SOL    HW234536   0.235   2.343   7.068 -1.4667 -0.8218 -1.3676
 7692SOL     OW34537   0.959   0.854   1.893  0.2517  0.2168  0.2857
 7692SOL    HW134538   0.901   0.786   1.858  0.2967  0.9850 -1.2951
 7692SOL    HW234539   0.892   0.922   1.901 -0.2972 -0.5587  2.1187
 7693SOL     OW34540   2.916   0.228   5.442  0.4518 -0.0867 -0.0319
 7693SOL    HW134541   3.009   0.210   5.460  0.3750  0.1129  0.5590
 7693SOL    HW234542   2.890   0.146   5.400  0.4527 -0.3366  0.4558
 7694SOL     OW34543   0.393   1.271  14.316 -0.5617 -0.1666 -0.6363
 7694SOL    HW134544   0.424   1.231  14.397  1.8610  1.5551 -0.7232
 7694SOL    HW234545   0.305   1.233  14.306 -0.8827  0.5278 -0.4739
 7695SOL     OW34546   1.828   4.218   2.458  0.2264 -0.3179  0.1494
 7695SOL    HW134547   1.820   4.127   2.428 -0.2538 -0.0630 -0.4985
 7695SOL    HW234548   1.781   4.257   2.384  0.7073 -1.8565 -0.9677
 7696SOL     OW34549   1.436   2.669   5.222 -0.6468  0.1185  0.1284
 7696SOL    HW134550   1.437   2.573   5.221  1.6922  0.1502 -0.3947
 7696SOL    HW234551   1.376   2.689   5.150 -2.8802  0.0496  1.9369
 7697SOL     OW34552   0.262   0.163   6.820  0.0182  0.3890  0.7399
 7697SOL    HW134553   0.257   0.258   6.825 -2.4470  0.1570  2.2609
 7697SOL    HW234554   0.170   0.141   6.833 -0.0467 -0.2150 -0.6880
 7698SOL     OW34555   4.670   2.169   8.083 -0.1018 -0.1457 -0.7494
 7698SOL    HW134556   4.609   2.119   8.138  1.0596  0.6978  1.3314
 7698SOL    HW234557   4.629   2.255   8.095 -2.0361 -0.9194 -1.8725
 7699SOL     OW34558   1.355   3.463   3.076 -0.0431 -0.3359  0.1503
 7699SOL    HW134559   1.358   3.383   3.128 -3.0624  0.2461  1.2030
 7699SOL    HW234560   1.301   3.517   3.132  1.8949 -0.2225  1.9100
 7700SOL     OW34561   2.467   1.925  13.662  0.0981  0.5058  0.2789
 7700SOL    HW134562   2.407   1.976  13.717  1.3039 -0.0631  2.1089
 7700SOL    HW234563   2.459   1.848  13.718  1.2556 -0.3085 -0.6833
 7701SOL     OW34564   1.539   2.309   2.214  0.1163  0.0147  0.6220
 7701SOL    HW134565   1.615   2.251   2.214  0.0935 -0.0156  0.6787
 7701SOL    HW234566   1.487   2.252   2.157 -0.1377  1.5978 -0.7046
 7702SOL     OW34567   2.248   1.947  16.869 -0.7561  0.1158  0.2571
 7702SOL    HW134568   2.184   2.019  16.865 -0.2931  0.2983 -4.0908
 7702SOL    HW234569   2.230   1.918  16.779  3.9224  3.5769 -1.8164
 7703SOL     OW34570   0.165   4.319   3.028  0.1543  0.9180 -0.1310
 7703SOL    HW134571   0.157   4.352   2.938 -0.3561 -0.2194 -0.4961
 7703SOL    HW234572   0.174   4.225   3.019  2.2236  1.1333 -0.2149
 7704SOL     OW34573   0.732   2.173   7.942 -0.2080 -0.4463 -0.7728
 7704SOL    HW134574   0.783   2.238   7.893  0.5723 -0.1812  0.3847
 7704SOL    HW234575   0.729   2.103   7.877 -0.8202 -0.9896 -0.1520
 7705SOL     OW34576   2.532   4.570   7.128 -0.0995  0.4757  0.3061
 7705SOL    HW134577   2.447   4.582   7.171 -0.3401  1.8646 -0.5604
 7705SOL    HW234578   2.519   4.613   7.043  0.9086 -0.5016 -0.3398
 7706SOL     OW34579   1.207   1.272   9.489 -0.2401  0.0387 -0.3122
 7706SOL    HW134580   1.255   1.351   9.515  0.9707 -0.0131 -2.3963
 7706SOL    HW234581   1.270   1.202   9.474 -0.0643  0.1282 -0.0020
 7707SOL     OW34582   1.102   3.965   8.743  0.1776  0.9700  0.6165
 7707SOL    HW134583   1.020   3.981   8.789 -1.1075  3.0025 -2.3365
 7707SOL    HW234584   1.066   3.908   8.675  0.2414 -0.6586  1.9665
 7708SOL     OW34585   1.869   2.661   4.060 -0.5687 -0.2372 -0.4056
 7708SOL    HW134586   1.922   2.629   3.987  1.1900 -1.5056  1.4335
 7708SOL    HW234587   1.937   2.685   4.123 -0.3228  0.0750 -0.7892
 7709SOL     OW34588   4.397   0.542   1.707  0.3000 -0.4473 -0.0445
 7709SOL    HW134589   4.321   0.576   1.753  0.7024 -0.4164  0.5991
 7709SOL    HW234590   4.355   0.466   1.666  1.6354 -0.8608 -0.6439
 7710SOL     OW34591   1.087   0.674   6.462 -0.8383 -0.1968  0.0672
 7710SOL    HW134592   1.105   0.645   6.373 -1.3927  0.6992 -0.3425
 7710SOL    HW234593   0.994   0.651   6.473 -1.0095  0.6972  0.5169
 7711SOL     OW34594   3.775   0.790   4.639 -0.2330  0.7603  0.5286
 7711SOL    HW134595   3.825   0.797   4.558  1.0973  2.7560  1.5456
 7711SOL    HW234596   3.838   0.736   4.686 -0.9765 -0.4935  0.0817
 7712SOL     OW34597   1.237   2.252  10.421 -0.3677 -0.7514  0.0987
 7712SOL    HW134598   1.223   2.161  10.394  0.9369 -1.1033  0.6097
 7712SOL    HW234599   1.332   2.253  10.428 -0.5157 -0.7209  2.2301
 7713SOL     OW34600   3.925   1.373  13.907 -0.4238 -0.1828 -0.0023
 7713SOL    HW134601   4.000   1.319  13.932 -1.0768 -0.4306  1.4345
 7713SOL    HW234602   3.877   1.316  13.847  1.0267  0.2854 -1.5732
 7714SOL     OW34603   1.941   0.568  10.474 -0.9797  0.0927  0.2437
 7714SOL    HW134604   1.869   0.629  10.465 -2.9213 -2.2686 -0.1573
 7714SOL    HW234605   2.014   0.592  10.416 -0.8265 -0.2507  0.2915
 7715SOL     OW34606   2.734   3.147  17.248 -0.4846 -0.2257  0.2884
 7715SOL    HW134607   2.704   3.166  17.159  0.6859  2.5596  0.4574
 7715SOL    HW234608   2.802   3.085  17.222 -1.6996 -1.6563  0.5903
 7716SOL     OW34609   1.645   0.869   3.859 -0.1076 -0.5236 -0.3771
 7716SOL    HW134610   1.590   0.792   3.845 -1.3833  0.5740 -1.3658
 7716SOL    HW234611   1.726   0.842   3.817 -1.1384 -3.5119 -0.4534
 7717SOL     OW34612   0.734   2.406  15.075  0.1488  0.1274  0.6403
 7717SOL    HW134613   0.752   2.413  15.169 -0.0052 -1.6037  0.8071
 7717SOL    HW234614   0.653   2.457  15.072 -0.9986 -1.5749  1.9897
 7718SOL     OW34615   1.848   1.347   4.978  0.1357 -0.5659  0.5282
 7718SOL    HW134616   1.806   1.263   4.997 -0.3640 -0.0742  1.6082
 7718SOL    HW234617   1.912   1.324   4.911 -0.2246 -1.3113  0.4389
 7719SOL     OW34618   2.818   2.195  15.202  0.4284  0.1919  0.5164
 7719SOL    HW134619   2.783   2.284  15.212 -0.8608 -0.4053  1.2584
 7719SOL    HW234620   2.777   2.145  15.272 -1.0969  2.5144  1.3162
 7720SOL     OW34621   3.677   0.252   2.238 -0.5208 -0.4748 -0.1051
 7720SOL    HW134622   3.647   0.166   2.208  2.3576 -1.7744  0.6931
 7720SOL    HW234623   3.763   0.226   2.272  0.0421  0.3076 -0.9254
 7721SOL     OW34624   1.616   1.675  14.247  0.1376 -0.1613 -0.1453
 7721SOL    HW134625   1.653   1.605  14.193  1.8831  0.1692  0.6261
 7721SOL    HW234626   1.685   1.685  14.313 -0.1476 -0.5707  0.2131
 7722SOL     OW34627   2.636   3.686  14.501 -0.2287 -0.2121  0.5161
 7722SOL    HW134628   2.611   3.761  14.554 -2.2489 -1.2346  1.0176
 7722SOL    HW234629   2.687   3.628  14.558 -0.3233  0.4389  1.2603
 7723SOL     OW34630   1.082   2.574   2.290  0.1744 -0.0028 -0.2191
 7723SOL    HW134631   1.056   2.506   2.351 -0.2798 -1.5765 -2.1609
 7723SOL    HW234632   1.175   2.555   2.288 -0.3742 -2.5903 -1.2516
 7724SOL     OW34633   3.257   3.942  15.977 -0.2118 -0.6487 -0.4715
 7724SOL    HW134634   3.350   3.927  15.964 -0.3187  0.2911 -2.3627
 7724SOL    HW234635   3.247   4.029  15.938  1.5335 -0.3301 -0.1985
 7725SOL     OW34636   0.718   3.317   4.280 -0.0644 -0.5289  0.0968
 7725SOL    HW134637   0.630   3.350   4.259 -1.6778 -3.5342  2.1338
 7725SOL    HW234638   0.750   3.265   4.206  1.0528 -1.9195  1.5857
 7726SOL     OW34639   4.260   1.317   3.278 -0.2351 -0.0111  0.1129
 7726SOL    HW134640   4.322   1.386   3.256  0.3799 -1.2394 -1.9412
 7726SOL    HW234641   4.257   1.263   3.199  0.1442 -1.2624  0.9639
 7727SOL     OW34642   0.180   3.820   3.331 -0.3230  0.0446  0.1192
 7727SOL    HW134643   0.162   3.728   3.311  2.3174 -0.6693  1.0203
 7727SOL    HW234644   0.275   3.830   3.332 -0.6432  3.1343  0.1056
 7728SOL     OW34645   2.291   4.706   1.299  0.0817 -0.4510  0.4489
 7728SOL    HW134646   2.350   0.056   1.298 -0.8286  0.2627 -0.2141
 7728SOL    HW234647   2.241   4.724   1.219  1.3160 -0.2284 -0.2738
 7729SOL     OW34648   4.281   2.474   9.614 -0.3636  0.3984 -0.2523
 7729SOL    HW134649   4.223   2.410   9.573  0.5779 -0.1738 -0.6992
 7729SOL    HW234650   4.306   2.520   9.534 -1.5122 -0.7501 -1.2787
 7730SOL     OW34651   3.393   0.452  15.320 -0.2242 -0.1525 -0.2629
 7730SOL    HW134652   3.345   0.375  15.289 -0.4011 -0.3926  0.6373
 7730SOL    HW234653   3.350   0.466  15.404 -1.5485 -0.6276 -0.8592
 7731SOL     OW34654   2.997   4.585   6.088  0.0314 -0.6224 -0.0020
 7731SOL    HW134655   3.033   4.498   6.105  1.0664 -0.3518 -0.8338
 7731SOL    HW234656   2.918   4.583   6.143 -0.4259 -2.0130 -0.7311
 7732SOL     OW34657   4.488   2.578   3.743  0.8520 -0.4306 -0.4908
 7732SOL    HW134658   4.555   2.526   3.698  2.0196  1.0832 -0.4929
 7732SOL    HW234659   4.478   2.641   3.672 -0.1119 -1.9158 -1.6620
 7733SOL     OW34660   4.334   0.823   3.675 -0.4005  0.4419 -0.0421
 7733SOL    HW134661   4.316   0.773   3.595 -2.4197  1.4711 -0.2334
 7733SOL    HW234662   4.299   0.759   3.737 -2.1919  1.8133  0.3475
 7734SOL     OW34663   1.580   4.480   8.444 -0.0712 -0.4117  0.0310
 7734SOL    HW134664   1.636   4.453   8.372  1.1256 -0.1781  0.8760
 7734SOL    HW234665   1.564   4.569   8.413 -1.3634 -0.6890 -0.0737
 7735SOL     OW34666   4.190   3.886   6.483 -0.2517 -0.1868 -0.6144
 7735SOL    HW134667   4.281   3.912   6.466 -0.1078 -1.4779 -1.8109
 7735SOL    HW234668   4.174   3.868   6.391 -0.5287 -0.3094 -0.5405
 7736SOL     OW34669   4.404   2.944   9.324 -0.3575 -0.2592  0.6781
 7736SOL    HW134670   4.488   2.926   9.281 -0.5337  1.2972 -0.3216
 7736SOL    HW234671   4.348   2.966   9.249 -0.5500  4.2112  2.1427
 7737SOL     OW34672   3.788   4.246   8.920  0.0525  0.6258  0.3724
 7737SOL    HW134673   3.805   4.163   8.875  1.0523  0.3774  1.2158
 7737SOL    HW234674   3.784   4.309   8.848  1.3524  1.4563  1.0233
 7738SOL     OW34675   3.073   4.194   2.616  0.0800  0.0633 -0.6634
 7738SOL    HW134676   3.033   4.140   2.684  1.6545 -0.4847 -0.1672
 7738SOL    HW234677   2.993   4.231   2.581 -0.5363  0.2908  0.9762
 7739SOL     OW34678   2.831   0.668  14.792 -0.0618  0.3495 -0.1346
 7739SOL    HW134679   2.868   0.756  14.806 -2.2706  1.2975 -0.2705
 7739SOL    HW234680   2.736   0.676  14.791 -0.0616  0.6759  4.0798
 7740SOL     OW34681   3.576   4.652   8.897 -0.0473  0.2587 -0.2699
 7740SOL    HW134682   3.576   0.019   8.923  1.9492  0.4748 -1.0339
 7740SOL    HW234683   3.482   4.647   8.882 -0.1245 -1.7507  0.8880
 7741SOL     OW34684   4.035   2.142   4.185  0.0339 -1.0632 -0.2815
 7741SOL    HW134685   4.121   2.174   4.158  0.5540  1.1915  4.0900
 7741SOL    HW234686   3.985   2.218   4.154  2.0171 -0.1319 -1.2072
 7742SOL     OW34687   0.776   4.445   7.750  0.0225 -0.1081  0.6073
 7742SOL    HW134688   0.830   4.395   7.689  0.2768  0.4992  0.3419
 7742SOL    HW234689   0.768   4.384   7.823 -0.7691 -0.7029  0.0235
 7743SOL     OW34690   0.414   3.338   5.886 -0.8067  0.0342  0.1294
 7743SOL    HW134691   0.464   3.386   5.821  0.8081  0.4473  1.6843
 7743SOL    HW234692   0.480   3.288   5.933 -0.4928 -0.8317 -1.2610
 7744SOL     OW34693   1.127   3.077   5.680  0.0502  0.2074  0.0150
 7744SOL    HW134694   1.047   3.130   5.680 -0.1784 -0.1322 -0.4146
 7744SOL    HW234695   1.187   3.151   5.684  0.6675 -0.0546 -4.1525
 7745SOL     OW34696   3.962   3.259   3.542  0.3557  0.1847  0.1737
 7745SOL    HW134697   3.884   3.274   3.489  1.3119 -0.2357 -1.3462
 7745SOL    HW234698   3.941   3.175   3.583 -1.7523  0.4176 -0.4450
 7746SOL     OW34699   3.060   0.767   8.917  0.6635  0.3910 -0.3300
 7746SOL    HW134700   3.096   0.733   8.999  2.9832  3.6056 -0.0260
 7746SOL    HW234701   3.010   0.689   8.895 -2.2083  2.3297 -0.6307
 7747SOL     OW34702   4.693   0.580  12.863 -0.0252 -0.2975  0.1736
 7747SOL    HW134703   0.028   0.544  12.927 -1.3116 -2.3422  0.2130
 7747SOL    HW234704   4.619   0.543  12.909 -2.9999  3.1939 -1.7478
 7748SOL     OW34705   2.610   2.952   5.247  0.3366  0.4506 -0.0507
 7748SOL    HW134706   2.701   2.930   5.228 -0.8132 -1.8033 -2.9703
 7748SOL    HW234707   2.611   2.932   5.340 -1.1998  2.1577  0.3427
 7749SOL     OW34708   1.721   2.070  14.038  0.5888  0.4710 -0.0269
 7749SOL    HW134709   1.690   2.144  14.089  1.4611  2.2639 -2.0752
 7749SOL    HW234710   1.747   2.009  14.106 -2.1951 -1.0553 -0.3282
 7750SOL     OW34711   1.044   0.489   3.543  0.8861  0.2976 -0.1999
 7750SOL    HW134712   0.950   0.471   3.534  1.1092 -0.4307 -1.0801
 7750SOL    HW234713   1.077   0.411   3.499 -0.5773  0.2974 -1.3274
 7751SOL     OW34714   2.397   3.198  11.684 -0.1393  0.1124 -0.8302
 7751SOL    HW134715   2.385   3.292  11.670  0.3128  0.4655  1.1268
 7751SOL    HW234716   2.479   3.183  11.638  0.5660  1.4105 -0.0097
 7752SOL     OW34717   4.318   1.544   1.720 -0.2048 -0.2996  0.2928
 7752SOL    HW134718   4.386   1.485   1.690 -1.1821  0.3169 -3.1562
 7752SOL    HW234719   4.244   1.490   1.692  0.3604 -0.6577 -0.4877
 7753SOL     OW34720   3.122   3.982   5.878  0.0938  0.2506 -0.3175
 7753SOL    HW134721   3.129   3.887   5.865  0.2192  0.0693  1.0761
 7753SOL    HW234722   3.148   3.977   5.970  1.1470 -0.0246 -0.6329
 7754SOL     OW34723   0.581   0.977   5.392 -0.3403 -0.0104 -0.2053
 7754SOL    HW134724   0.531   0.954   5.470 -2.0855 -0.9421 -1.5885
 7754SOL    HW234725   0.514   1.041   5.366 -0.1591 -0.4038 -1.6687
 7755SOL     OW34726   3.283   2.865   1.881 -0.6146 -0.1714  0.4673
 7755SOL    HW134727   3.246   2.816   1.808 -0.7655 -0.4179  0.7109
 7755SOL    HW234728   3.230   2.945   1.884 -1.3802 -0.6728  0.1466
 7756SOL     OW34729   1.946   3.851  10.183  0.0107 -0.0372  0.6809
 7756SOL    HW134730   2.010   3.887  10.243 -1.6015  1.3162  1.5917
 7756SOL    HW234731   1.993   3.843  10.100  1.9856 -2.0250  1.9980
 7757SOL     OW34732   1.207   0.319   0.116 -0.2371  1.0724 -1.0297
 7757SOL    HW134733   1.262   0.374   0.172  0.3912 -0.6260  0.0222
 7757SOL    HW234734   1.202   0.378   0.041 -0.8022  2.3307 -0.0200
 7758SOL     OW34735   0.540   3.654  15.796  0.4121 -0.4546  0.2930
 7758SOL    HW134736   0.608   3.612  15.848  2.6113  2.9451  0.1517
 7758SOL    HW234737   0.474   3.698  15.849  2.9391  1.0236  2.2323
 7759SOL     OW34738   0.178   2.278   2.573 -0.2062 -0.4599 -0.0131
 7759SOL    HW134739   0.254   2.328   2.545  0.6888 -0.7153  1.9007
 7759SOL    HW234740   0.117   2.330   2.521 -0.0373 -0.0058  0.2403
 7760SOL     OW34741   3.466   2.227  13.761 -0.4211 -0.2771  0.6087
 7760SOL    HW134742   3.467   2.169  13.837  0.9680 -1.1457 -0.0753
 7760SOL    HW234743   3.496   2.311  13.795  3.0329 -1.5082  0.5230
 7761SOL     OW34744   1.564   4.228   8.561 -0.2878  0.3939  0.6519
 7761SOL    HW134745   1.613   4.260   8.636 -1.5962  2.5856  0.5784
 7761SOL    HW234746   1.572   4.307   8.506  0.1320  1.0422  1.6401
 7762SOL     OW34747   0.391   0.996   1.224  0.2715  0.1812 -0.0473
 7762SOL    HW134748   0.380   1.027   1.314 -0.2640 -1.4287  0.4401
 7762SOL    HW234749   0.310   0.949   1.203 -0.5166  1.0593  0.9973
 7763SOL     OW34750   1.443   3.533   4.367 -0.0626 -0.4294 -0.1003
 7763SOL    HW134751   1.383   3.602   4.340  1.2678  1.1941  1.1138
 7763SOL    HW234752   1.528   3.566   4.336 -1.0319  0.4191 -1.8726
 7764SOL     OW34753   0.673   4.297  15.166 -0.1345  0.1406 -0.0230
 7764SOL    HW134754   0.736   4.257  15.225 -1.0888  0.5336  1.2698
 7764SOL    HW234755   0.648   4.377  15.212  3.0425  1.1906 -0.1428
 7765SOL     OW34756   0.951   1.876   9.165 -0.0556 -0.0621  0.1811
 7765SOL    HW134757   1.029   1.930   9.180  0.4841 -0.8109  0.1262
 7765SOL    HW234758   0.899   1.932   9.108 -2.2667 -0.9653  1.3251
 7766SOL     OW34759   1.081   2.899   4.753 -0.3061 -0.5070  0.1219
 7766SOL    HW134760   1.145   2.863   4.691  1.3787 -1.5380  2.4816
 7766SOL    HW234761   1.057   2.812   4.783 -0.4752 -0.9155 -1.1850
 7767SOL     OW34762   0.489   0.014  10.632 -0.4948  0.3071 -0.2517
 7767SOL    HW134763   0.449   0.099  10.616  0.4728  0.9571  0.7655
 7767SOL    HW234764   0.511   4.716  10.541 -1.0946 -1.1461 -0.0262
 7768SOL     OW34765   0.289   4.252   9.022  0.2432  0.1908  0.0622
 7768SOL    HW134766   0.243   4.252   8.938 -0.9072 -1.5448  0.6870
 7768SOL    HW234767   0.213   4.226   9.075 -0.7152  0.9669 -0.9304
 7769SOL     OW34768   3.547   1.197   5.221 -0.6106 -0.4719 -0.3048
 7769SOL    HW134769   3.516   1.117   5.178 -0.4835  0.3437 -1.9132
 7769SOL    HW234770   3.587   1.249   5.151  0.4143 -2.4793 -1.2060
 7770SOL     OW34771   2.252   4.238   3.062 -0.3195 -0.0651 -0.6843
 7770SOL    HW134772   2.289   4.308   3.007 -0.3700  1.1469  0.8227
 7770SOL    HW234773   2.309   4.237   3.139  0.8335 -1.0500 -1.5638
 7771SOL     OW34774   3.574   4.355   2.739  0.4741  0.4675 -0.0116
 7771SOL    HW134775   3.533   4.441   2.729 -2.4250 -0.7913  1.0006
 7771SOL    HW234776   3.661   4.377   2.774  0.4984  0.2050  0.0970
 7772SOL     OW34777   0.076   4.462   9.180 -0.2189 -0.1866  0.2349
 7772SOL    HW134778   0.069   4.442   9.273  0.1115 -2.1952 -0.1681
 7772SOL    HW234779   0.023   4.540   9.197 -0.6514 -0.1756 -1.1433
 7773SOL     OW34780   2.612   3.633   6.604  0.3703  0.3512 -0.3439
 7773SOL    HW134781   2.548   3.581   6.653 -0.9114  1.0950 -1.2080
 7773SOL    HW234782   2.578   3.629   6.515  0.7765 -1.3865 -0.4141
 7774SOL     OW34783   2.863   3.937   3.769  0.0680 -0.2424  0.2529
 7774SOL    HW134784   2.898   3.864   3.820  0.7514  0.8720  1.3844
 7774SOL    HW234785   2.778   3.903   3.742 -0.2753  1.4588 -0.8798
 7775SOL     OW34786   0.074   4.712   3.512 -0.5505  0.0363 -0.1801
 7775SOL    HW134787   0.129   0.016   3.585 -1.0027 -1.3074  0.6924
 7775SOL    HW234788   0.121   4.632   3.490  0.4487  0.1355  1.6670
 7776SOL     OW34789   4.268   2.263   9.393  0.0403  0.0176  0.8156
 7776SOL    HW134790   4.312   2.179   9.405 -1.7288 -0.8220  1.3808
 7776SOL    HW234791   4.314   2.300   9.318  0.5809  0.5134  1.3942
 7777SOL     OW34792   1.746   1.370  17.565 -0.2633 -0.0667  0.2684
 7777SOL    HW134793   1.747   1.403  17.475  1.5714  1.2990  0.7896
 7777SOL    HW234794   1.676   1.305  17.567 -0.3170 -0.0191  0.0342
 7778SOL     OW34795   1.034   3.368   3.048  0.3449  0.6259 -0.4925
 7778SOL    HW134796   1.005   3.433   2.985  1.5123  2.0399  0.4279
 7778SOL    HW234797   1.082   3.299   3.002  0.3753  1.1186 -1.1900
 7779SOL     OW34798   2.257   4.552   3.546  0.4459 -0.5014  0.1517
 7779SOL    HW134799   2.192   4.561   3.615 -1.5207  2.9107 -2.1756
 7779SOL    HW234800   2.198   4.524   3.476  1.0849 -2.0058  0.2154
 7780SOL     OW34801   1.546   3.114   8.302  0.3639  0.2311  0.0021
 7780SOL    HW134802   1.452   3.100   8.313 -0.0874  1.4989 -2.2957
 7780SOL    HW234803   1.558   3.123   8.208  3.1876  1.4849  0.4806
 7781SOL     OW34804   4.615   1.356   1.149  0.3661  0.5014 -0.1718
 7781SOL    HW134805   4.588   1.264   1.148 -1.1732  0.9436 -0.3925
 7781SOL    HW234806   4.540   1.397   1.106 -0.3705 -1.3526 -0.6608
 7782SOL     OW34807   1.298   3.601   5.165 -0.8451  0.1027  0.3468
 7782SOL    HW134808   1.256   3.547   5.099  0.1077 -0.0834 -0.1140
 7782SOL    HW234809   1.365   3.649   5.116  0.3455 -0.8407  1.0384
 7783SOL     OW34810   2.220   3.824  12.259 -0.0003  0.7655  0.0414
 7783SOL    HW134811   2.244   3.913  12.231  2.6820 -0.1045 -0.3181
 7783SOL    HW234812   2.158   3.793  12.193  0.1223  0.4914  0.0556
 7784SOL     OW34813   0.672   3.552  14.340  0.3587  0.5796  0.5173
 7784SOL    HW134814   0.619   3.515  14.270  0.4483 -0.9572  1.2494
 7784SOL    HW234815   0.634   3.505  14.414  1.4990  1.1800  1.4841
 7785SOL     OW34816   2.203   2.658   8.399 -0.1788 -0.0960 -0.4822
 7785SOL    HW134817   2.162   2.709   8.329 -1.7039  1.2789  1.4213
 7785SOL    HW234818   2.214   2.572   8.359 -3.3417 -0.2002 -1.1929
 7786SOL     OW34819   4.166   3.602   8.807 -0.0199  0.1965  0.4437
 7786SOL    HW134820   4.228   3.640   8.745  0.4797  0.8259  1.3338
 7786SOL    HW234821   4.188   3.641   8.892  2.5144 -1.5224  0.5662
 7787SOL     OW34822   2.970   1.981   8.852 -0.0520  0.4089 -0.2109
 7787SOL    HW134823   2.961   2.048   8.919  0.8017  1.8942 -1.6043
 7787SOL    HW234824   2.913   2.016   8.784 -0.8420 -0.3475  0.0522
 7788SOL     OW34825   3.416   4.198  17.121  0.8735 -0.0406  0.1184
 7788SOL    HW134826   3.443   4.250  17.045  1.3049 -1.5023 -0.7311
 7788SOL    HW234827   3.383   4.116  17.082  0.2085 -0.6917  2.0520
 7789SOL     OW34828   4.198   0.113   8.028  0.0351  0.8227 -0.1859
 7789SOL    HW134829   4.195   0.166   7.949 -2.0512  1.1052  0.0982
 7789SOL    HW234830   4.288   0.122   8.059 -0.4771  1.3210  1.1444
 7790SOL     OW34831   2.409   0.979   8.160  0.2618  0.0058 -0.1860
 7790SOL    HW134832   2.357   0.911   8.202  1.2446 -0.2656  0.5661
 7790SOL    HW234833   2.433   1.031   8.236 -2.1076  2.2660 -0.9521
 7791SOL     OW34834   3.988   0.242   8.716 -0.7514 -0.6516 -0.2506
 7791SOL    HW134835   4.052   0.243   8.646  0.7234  1.7211  1.1370
 7791SOL    HW234836   3.956   0.152   8.708  0.9262 -1.0631 -2.0956
 7792SOL     OW34837   3.076   4.065   9.723 -0.2410 -0.0072 -0.7778
 7792SOL    HW134838   2.994   4.065   9.772 -0.3550  1.2005 -0.9718
 7792SOL    HW234839   3.076   3.972   9.702 -0.9525 -0.0155 -0.7183
 7793SOL     OW34840   2.886   2.502  11.483 -0.1261 -0.8563  0.2398
 7793SOL    HW134841   2.979   2.519  11.469 -0.2817 -0.6799 -0.5499
 7793SOL    HW234842   2.837   2.545  11.414  1.4766 -1.3529 -1.2227
 7794SOL     OW34843   2.341   4.458   6.416  0.1456  0.3798 -0.6244
 7794SOL    HW134844   2.425   4.416   6.394  0.2153 -0.6048  1.4982
 7794SOL    HW234845   2.278   4.417   6.357 -1.5188 -0.5458  1.7807
 7795SOL     OW34846   0.919   0.814   6.713 -0.1799 -0.3777 -0.0633
 7795SOL    HW134847   0.891   0.754   6.644 -0.7722  0.9099 -0.9557
 7795SOL    HW234848   0.845   0.875   6.723 -1.0139 -1.5872  1.2009
 7796SOL     OW34849   3.449   3.193   5.516 -0.4920 -0.5776  0.1936
 7796SOL    HW134850   3.498   3.114   5.540 -1.2918 -1.0623  0.2610
 7796SOL    HW234851   3.503   3.228   5.445 -1.6445  2.0405  0.6047
 7797SOL     OW34852   1.516   0.821  15.667 -0.1559  0.4719 -0.8070
 7797SOL    HW134853   1.578   0.831  15.595 -0.2284  1.1040 -0.7854
 7797SOL    HW234854   1.524   0.909  15.705  0.7730  1.0341 -2.2894
 7798SOL     OW34855   2.887   3.710   5.011 -0.0304  0.0923  0.2018
 7798SOL    HW134856   2.899   3.650   4.937  0.3338 -1.8643  1.8335
 7798SOL    HW234857   2.846   3.650   5.074  0.3210  0.2482  0.5769
 7799SOL     OW34858   2.401   2.977  11.850  0.1933 -0.0022  0.6350
 7799SOL    HW134859   2.391   3.032  11.772  0.8496  1.7608  1.7909
 7799SOL    HW234860   2.324   2.991  11.905 -0.5521 -0.5407 -0.2698
 7800SOL     OW34861   2.539   2.907   4.991 -0.0029  0.1268  0.6895
 7800SOL    HW134862   2.543   2.910   5.087 -1.6580 -1.5922  0.8226
 7800SOL    HW234863   2.522   2.999   4.970 -0.6097 -0.0539  0.3996
 7801SOL     OW34864   3.575   0.886   7.097  0.1367 -0.1785  0.6329
 7801SOL    HW134865   3.513   0.871   7.169 -0.8000  0.1861 -0.0905
 7801SOL    HW234866   3.539   0.834   7.025 -0.3630 -0.5444  1.1342
 7802SOL     OW34867   4.496   3.825  16.915  0.1330  0.2523  0.3279
 7802SOL    HW134868   4.412   3.802  16.956 -1.0379  2.9289 -0.5107
 7802SOL    HW234869   4.513   3.909  16.958 -0.4521  1.2566 -1.4192
 7803SOL     OW34870   2.022   2.446   7.031 -0.4572 -0.3456 -0.3094
 7803SOL    HW134871   2.105   2.460   6.985 -0.2305  2.4611  0.9283
 7803SOL    HW234872   2.011   2.532   7.071 -1.4910 -0.5145 -0.2554
 7804SOL     OW34873   0.750   1.507   3.852  0.3910  0.0483 -0.3665
 7804SOL    HW134874   0.669   1.474   3.891  1.0539 -1.5242 -0.2972
 7804SOL    HW234875   0.787   1.424   3.822 -3.0027 -1.3316 -0.7065
 7805SOL     OW34876   1.720   4.335   9.737 -0.1791  0.0233  0.0474
 7805SOL    HW134877   1.669   4.254   9.722 -3.0561  1.8832 -0.2473
 7805SOL    HW234878   1.696   4.382   9.657  1.4901  1.2280  0.2633
 7806SOL     OW34879   2.258   0.918   2.755 -0.0690  0.5865 -0.2876
 7806SOL    HW134880   2.253   1.007   2.789  2.4745  0.4584  0.4539
 7806SOL    HW234881   2.192   0.936   2.689 -0.4611  0.5831  0.1059
 7807SOL     OW34882   4.386   0.829   8.114  0.1713  0.0773 -0.1692
 7807SOL    HW134883   4.300   0.844   8.155 -0.2608  1.6665 -1.6178
 7807SOL    HW234884   4.425   0.915   8.129  2.6033 -1.0015 -0.4064
 7808SOL     OW34885   1.689   4.634  10.544  0.1323  0.4095  0.1783
 7808SOL    HW134886   1.709   0.002  10.538  0.7721  0.1521 -1.5600
 7808SOL    HW234887   1.743   4.597  10.475  1.0332  2.1622 -0.0472
 7809SOL     OW34888   0.938   2.622   8.386  0.3300  0.0896  0.6243
 7809SOL    HW134889   0.987   2.645   8.307  0.0978 -1.7396 -0.0513
 7809SOL    HW234890   0.863   2.680   8.381  1.9541  2.1081 -0.2117
 7810SOL     OW34891   1.657   2.658   2.340  0.5877 -0.6968  0.3396
 7810SOL    HW134892   1.637   2.737   2.289 -0.7869 -1.6056 -0.5221
 7810SOL    HW234893   1.752   2.648   2.336  0.8191  0.6034  2.4590
 7811SOL     OW34894   3.903   2.537   3.426  0.3510 -0.2701  0.4311
 7811SOL    HW134895   3.905   2.578   3.340  1.9552 -0.7503  0.2347
 7811SOL    HW234896   3.836   2.581   3.478  2.2484  3.0850  0.0240
 7812SOL     OW34897   2.829   1.051  14.931  0.3066 -0.3453  0.4151
 7812SOL    HW134898   2.862   1.050  15.021  0.9051  0.0710  0.2017
 7812SOL    HW234899   2.774   0.974  14.921  0.3746 -0.4323  0.7096
 7813SOL     OW34900   1.065   2.127  17.136 -0.3958  0.0749 -0.0959
 7813SOL    HW134901   1.011   2.163  17.065  1.0900  1.9181 -0.2668
 7813SOL    HW234902   1.139   2.187  17.136 -0.4658  0.1629  0.1167
 7814SOL     OW34903   1.541   2.471  10.129 -0.1306  0.0000 -0.4932
 7814SOL    HW134904   1.618   2.473  10.073  0.1631 -3.7155 -0.2115
 7814SOL    HW234905   1.472   2.474  10.064 -0.8600 -0.0324  0.2730
 7815SOL     OW34906   4.254   1.824   4.692 -0.2105  0.4917  0.5692
 7815SOL    HW134907   4.303   1.805   4.612 -1.2090  1.4023 -0.2599
 7815SOL    HW234908   4.322   1.872   4.741 -0.4513 -0.5243  1.8964
 7816SOL     OW34909   2.223   1.041   6.844 -0.3583 -0.2126  0.2475
 7816SOL    HW134910   2.259   1.001   6.923  0.1696 -0.6377 -0.2059
 7816SOL    HW234911   2.303   1.043   6.792 -0.5754 -0.2573 -0.0914
 7817SOL     OW34912   4.677   3.329   6.199  0.0962  0.7731  0.4055
 7817SOL    HW134913   0.025   3.339   6.259 -0.2914  1.4763  0.7649
 7817SOL    HW234914   4.616   3.384   6.249 -0.3514  2.4887 -2.0175
 7818SOL     OW34915   1.517   1.467   0.915  0.2516 -0.1725 -0.5478
 7818SOL    HW134916   1.501   1.418   0.996  0.9969  0.9785  0.2979
 7818SOL    HW234917   1.468   1.409   0.857  0.4494 -0.7640 -0.1347
 7819SOL     OW34918   2.372   0.030   5.825 -0.1996  0.3801 -0.7020
 7819SOL    HW134919   2.429   0.016   5.750 -0.0539  1.3561 -0.7722
 7819SOL    HW234920   2.331   0.115   5.813 -0.8162  0.4345  1.7339
 7820SOL     OW34921   0.416   3.918  14.384  0.3286  0.1435  0.1065
 7820SOL    HW134922   0.501   3.932  14.343  0.4407 -0.4492  0.1256
 7820SOL    HW234923   0.355   3.965  14.328 -1.4647 -0.7503  1.2938
 7821SOL     OW34924   1.693   0.388   2.289  0.2213  1.0344  0.7679
 7821SOL    HW134925   1.623   0.450   2.312  0.4332  0.9455  1.6480
 7821SOL    HW234926   1.696   0.386   2.194 -1.3667 -0.3304  0.7414
 7822SOL     OW34927   1.519   0.995   6.244 -0.6380 -0.4722  0.0563
 7822SOL    HW134928   1.575   1.069   6.268  1.6832 -1.6651 -1.6848
 7822SOL    HW234929   1.516   0.958   6.332 -0.0005  0.0801  0.3047
 7823SOL     OW34930   1.611   0.354  16.518 -0.5153  0.2429 -0.1346
 7823SOL    HW134931   1.579   0.386  16.433 -1.5858 -2.1370 -0.6333
 7823SOL    HW234932   1.526   0.344  16.560 -2.0104  1.9468 -2.7124
 7824SOL     OW34933   2.588   3.489   4.378  0.4298  0.1004 -0.6963
 7824SOL    HW134934   2.665   3.545   4.389 -0.7024  2.1823 -3.2992
 7824SOL    HW234935   2.514   3.544   4.352  1.5577  2.8262  1.7255
 7825SOL     OW34936   0.594   3.327  16.999  0.2854  0.4565  0.1949
 7825SOL    HW134937   0.563   3.266  16.932  1.7619  0.3987 -0.4232
 7825SOL    HW234938   0.566   3.414  16.970 -1.3648 -0.9638 -2.5286
 7826SOL     OW34939   1.216   2.736  12.421 -0.0786  0.3830 -0.0341
 7826SOL    HW134940   1.215   2.792  12.343  1.4115 -0.4228 -0.6394
 7826SOL    HW234941   1.295   2.687  12.398  1.0149  2.4859 -0.7349
 7827SOL     OW34942   0.286   4.537  12.925  0.6859 -0.4236  0.2101
 7827SOL    HW134943   0.240   4.479  12.985  1.2164 -0.8164  0.2368
 7827SOL    HW234944   0.371   4.493  12.926  0.5328 -0.7312 -0.6148
 7828SOL     OW34945   3.964   0.176   4.582  0.3777  0.1854 -0.3127
 7828SOL    HW134946   3.889   0.153   4.637  1.3748  0.4574  1.1628
 7828SOL    HW234947   3.933   0.253   4.533  0.1607 -0.1796 -0.7562
 7829SOL     OW34948   4.261   2.183  12.835  0.0077 -0.0543 -0.3870
 7829SOL    HW134949   4.341   2.203  12.786 -0.4013  2.5572 -0.0124
 7829SOL    HW234950   4.276   2.089  12.844  0.9137  0.0018 -1.3495
 7830SOL     OW34951   0.801   2.146  15.162 -0.6101 -0.4305 -0.0145
 7830SOL    HW134952   0.761   2.211  15.104 -0.5895  0.4627  0.9708
 7830SOL    HW234953   0.882   2.139  15.111  0.3375  1.4920  1.2503
 7831SOL     OW34954   2.937   1.894   6.312 -1.0628  0.0439  0.0495
 7831SOL    HW134955   2.949   1.944   6.231 -2.7376  0.8477  0.2887
 7831SOL    HW234956   3.026   1.865   6.328 -0.0555  0.4589 -4.7219
 7832SOL     OW34957   2.877   1.017  12.071 -0.0160  0.3640 -0.7467
 7832SOL    HW134958   2.798   0.968  12.051 -1.8994  1.8888  2.9043
 7832SOL    HW234959   2.942   0.947  12.083 -1.5612 -1.0951 -0.9512
 7833SOL     OW34960   0.279   0.933   3.856  0.5847 -0.0438  0.0032
 7833SOL    HW134961   0.323   0.908   3.775 -1.4930 -2.9122 -0.2141
 7833SOL    HW234962   0.199   0.980   3.834 -0.3418 -0.8813  1.5591
 7834SOL     OW34963   1.974   3.230   8.524  0.0303  0.5877  0.5390
 7834SOL    HW134964   2.005   3.140   8.536 -0.4728  0.1586 -1.3505
 7834SOL    HW234965   2.037   3.274   8.580 -0.8392  0.8798  1.2961
 7835SOL     OW34966   2.206   2.708   7.564 -0.1595  0.2414  0.0336
 7835SOL    HW134967   2.197   2.730   7.471 -0.8082 -2.9452 -0.6450
 7835SOL    HW234968   2.189   2.614   7.569 -2.1872  0.4907 -2.1889
 7836SOL     OW34969   3.442   2.434   7.269 -0.0526  0.0313 -0.3372
 7836SOL    HW134970   3.445   2.373   7.343 -0.5234  0.6223  0.1662
 7836SOL    HW234971   3.362   2.481   7.293  0.7636  0.2111  2.0128
 7837SOL     OW34972   2.274   0.585  14.369  0.6236  0.4633 -0.2015
 7837SOL    HW134973   2.179   0.597  14.369  0.3104 -2.0714 -2.3046
 7837SOL    HW234974   2.291   0.631  14.287 -0.6678  2.1751  0.5009
 7838SOL     OW34975   3.176   3.028   5.832 -0.7834 -0.8169 -0.1225
 7838SOL    HW134976   3.183   3.035   5.927  3.0825 -1.0507 -0.3941
 7838SOL    HW234977   3.107   3.089   5.805 -0.7457 -1.2456 -1.1954
 7839SOL     OW34978   4.110   0.050   2.780 -0.2611  0.1005 -0.1031
 7839SOL    HW134979   4.046   0.045   2.709 -0.6888 -2.3625  0.4510
 7839SOL    HW234980   4.170   4.713   2.739 -0.7901  1.4014 -2.8292
 7840SOL     OW34981   2.965   2.688  17.352 -0.4558  0.5522  0.4517
 7840SOL    HW134982   2.947   2.736  17.272 -0.5916 -2.0569 -1.1097
 7840SOL    HW234983   2.972   2.600  17.314  0.0138  1.3275 -1.2786
 7841SOL     OW34984   1.253   4.075   7.092  1.1486  0.9827 -0.3780
 7841SOL    HW134985   1.292   4.009   7.034 -1.3796 -0.6160 -0.2542
 7841SOL    HW234986   1.175   4.093   7.040  0.3807 -0.4710  0.2704
 7842SOL     OW34987   3.866   2.112   2.364  0.3264  0.6214 -0.8353
 7842SOL    HW134988   3.817   2.164   2.428  0.8056 -1.2466  1.0351
 7842SOL    HW234989   3.803   2.129   2.293  0.4232 -0.2141 -1.1254
 7843SOL     OW34990   4.189   3.508   5.680  0.0218 -0.1482 -0.3457
 7843SOL    HW134991   4.167   3.415   5.684 -1.6184  0.3100  1.1477
 7843SOL    HW234992   4.101   3.541   5.697  0.4501  0.7800  0.0386
 7844SOL     OW34993   1.841   0.431   7.637 -0.1553  0.0593 -0.3217
 7844SOL    HW134994   1.794   0.495   7.584 -0.7253 -0.2456 -0.1863
 7844SOL    HW234995   1.767   0.414   7.695  0.7971 -0.0445  0.8549
 7845SOL     OW34996   3.858   2.083   1.279  0.1407 -0.0761 -0.5877
 7845SOL    HW134997   3.854   2.027   1.356  1.1336  1.1765  0.3814
 7845SOL    HW234998   3.773   2.061   1.241 -0.7293  1.4058  0.4744
 7846SOL     OW34999   4.438   3.795   7.438  0.6635  0.2348 -0.0075
 7846SOL    HW135000   4.513   3.814   7.382  1.7656 -1.2954  0.9478
 7846SOL    HW235001   4.375   3.851   7.393 -2.6533 -3.1886  0.3290
 7847SOL     OW35002   0.791   1.305   8.242 -0.0579 -0.2685  0.2776
 7847SOL    HW135003   0.864   1.363   8.221 -1.0161  0.5915 -0.6547
 7847SOL    HW235004   0.837   1.227   8.273  0.5820  1.6427  4.1799
 7848SOL     OW35005   3.268   1.554   4.585 -0.2177  0.2006  0.3297
 7848SOL    HW135006   3.332   1.615   4.622 -0.2901  0.7220 -0.4124
 7848SOL    HW235007   3.191   1.611   4.588  0.8945  1.8115 -1.5774
 7849SOL     OW35008   1.193   3.316  16.195  0.6186  0.3720 -0.3492
 7849SOL    HW135009   1.135   3.374  16.244  1.9578 -0.0045  1.6939
 7849SOL    HW235010   1.243   3.385  16.151  1.2993  0.7009  0.9471
 7850SOL     OW35011   1.861   0.642   0.071  0.5208  0.2956 -0.4948
 7850SOL    HW135012   1.899   0.664  17.689 -1.7369 -2.0177 -2.1100
 7850SOL    HW235013   1.792   0.709   0.064 -0.2653 -0.2972  1.6720
 7851SOL     OW35014   0.237   2.204   0.438  0.1372  0.5443  0.3453
 7851SOL    HW135015   0.263   2.141   0.371  1.3538  0.6290  0.7300
 7851SOL    HW235016   0.231   2.283   0.384  0.3370  0.8071  0.7026
 7852SOL     OW35017   0.795   1.737   8.107 -0.5497 -0.0107 -0.2191
 7852SOL    HW135018   0.753   1.668   8.157  1.9546 -1.7236 -0.4406
 7852SOL    HW235019   0.845   1.780   8.177  2.6885 -0.9872 -1.9242
 7853SOL     OW35020   2.325   0.954   4.826  0.3340  0.6251  0.0807
 7853SOL    HW135021   2.237   0.989   4.823  0.8204  1.9444  1.1333
 7853SOL    HW235022   2.351   0.935   4.917  1.7966  1.7952 -0.0883
 7854SOL     OW35023   1.652   0.722   1.988 -0.3554 -0.4775 -0.2056
 7854SOL    HW135024   1.658   0.797   2.047  0.1044 -1.8805  1.5001
 7854SOL    HW235025   1.599   0.744   1.911 -1.7861 -0.6078  0.7367
 7855SOL     OW35026   3.713   1.526   8.202 -0.0502 -0.0563 -0.2072
 7855SOL    HW135027   3.806   1.512   8.220 -0.2090 -2.0905 -0.9963
 7855SOL    HW235028   3.671   1.466   8.264  1.9294  0.2531  1.4374
 7856SOL     OW35029   1.079   0.280   6.430 -0.5085 -0.1002 -0.4718
 7856SOL    HW135030   1.103   0.187   6.429  2.9997  0.8353  0.9419
 7856SOL    HW235031   0.986   0.272   6.452 -0.2909 -1.1879  0.0845
 7857SOL     OW35032   2.297   0.489   2.194  0.2098 -0.8572 -0.4573
 7857SOL    HW135033   2.389   0.468   2.180  0.1726 -1.2446 -0.1177
 7857SOL    HW235034   2.302   0.563   2.134  1.0157 -0.6295 -0.1191
 7858SOL     OW35035   1.575   2.251   8.039 -0.2968 -0.1521 -0.3452
 7858SOL    HW135036   1.480   2.248   8.053 -0.3996 -2.7440 -1.7214
 7858SOL    HW235037   1.601   2.162   8.018 -0.6572 -0.2085 -0.5564
 7859SOL     OW35038   3.929   4.030  11.464 -0.1943 -0.0260  0.2023
 7859SOL    HW135039   3.868   4.068  11.527  0.5214  1.6826 -0.1117
 7859SOL    HW235040   3.873   4.027  11.387  0.3642  1.2097 -0.2513
 7860SOL     OW35041   0.413   1.586  11.371  0.1934  0.1909  0.5824
 7860SOL    HW135042   0.326   1.556  11.345  0.0422  2.1981 -1.2479
 7860SOL    HW235043   0.462   1.529  11.312  0.9835 -0.0560  1.4634
 7861SOL     OW35044   2.272   4.382  14.093 -0.3506  0.4269 -0.1358
 7861SOL    HW135045   2.355   4.355  14.132 -0.5651  0.3702  0.2778
 7861SOL    HW235046   2.226   4.298  14.091  0.0881  0.1836  0.2482
 7862SOL     OW35047   3.934   3.128   4.627  0.2269 -0.6771 -0.8972
 7862SOL    HW135048   3.939   3.038   4.595 -0.1142 -1.1280  0.2926
 7862SOL    HW235049   3.844   3.128   4.659  1.0382 -1.1039  1.4053
 7863SOL     OW35050   2.159   2.252   2.198  0.3907 -0.4000 -0.8728
 7863SOL    HW135051   2.099   2.300   2.255  0.6657  0.6993 -1.5050
 7863SOL    HW235052   2.242   2.300   2.207 -0.8895  1.4529  1.1466
 7864SOL     OW35053   0.093   4.021   9.382  0.0719  0.1061  0.4451
 7864SOL    HW135054   0.159   4.054   9.442  0.1135  1.7025 -0.4661
 7864SOL    HW235055   0.036   4.096   9.364  0.2204 -0.0684 -0.8077
 7865SOL     OW35056   2.067   2.534   5.149 -0.1008  0.0123 -0.4457
 7865SOL    HW135057   2.119   2.606   5.113  2.9815 -1.5493  0.9112
 7865SOL    HW235058   2.066   2.543   5.244  0.6130 -0.2134 -0.4177
 7866SOL     OW35059   3.060   1.071   5.065  0.8514 -0.9977 -0.1922
 7866SOL    HW135060   3.040   0.979   5.081  1.2146 -1.2157 -0.9744
 7866SOL    HW235061   2.980   1.108   5.101  0.6826 -0.6172 -0.9547
 7867SOL     OW35062   2.105   1.934  15.807 -0.0682 -0.3701 -0.4896
 7867SOL    HW135063   2.044   1.906  15.876  1.9976  1.7021  2.1923
 7867SOL    HW235064   2.055   2.009  15.774 -2.3704 -1.7441 -0.1557
 7868SOL     OW35065   3.232   4.049   2.453 -0.3900  0.2701 -0.2238
 7868SOL    HW135066   3.169   3.982   2.429 -0.9945  1.2189 -1.2327
 7868SOL    HW235067   3.185   4.083   2.529 -1.0055  0.9223 -0.8955
 7869SOL     OW35068   3.265   0.327   9.222 -0.0953  0.2623 -0.7991
 7869SOL    HW135069   3.190   0.330   9.164 -0.5845 -0.5920 -0.2193
 7869SOL    HW235070   3.335   0.305   9.161 -1.2021 -1.3462 -1.4804
 7870SOL     OW35071   3.202   0.345  17.687  0.1606  0.3390 -1.1971
 7870SOL    HW135072   3.126   0.300   0.021 -0.4202  0.8963 -1.6994
 7870SOL    HW235073   3.266   0.276  17.674  0.1618  0.6219 -2.7427
 7871SOL     OW35074   3.674   3.274   7.024 -0.3045 -0.1655  0.5985
 7871SOL    HW135075   3.685   3.312   7.111 -0.3157  4.5269 -1.4632
 7871SOL    HW235076   3.747   3.311   6.974 -0.7680 -1.9028 -1.3488
 7872SOL     OW35077   1.663   0.015   3.317  0.3141  0.1167 -0.3857
 7872SOL    HW135078   1.605   0.054   3.251 -0.9609 -1.5726 -0.2728
 7872SOL    HW235079   1.674   4.651   3.283 -2.0722 -0.2093 -0.3184
 7873SOL     OW35080   1.011   3.233   3.528 -0.2366  0.5651  0.6947
 7873SOL    HW135081   1.099   3.267   3.508 -1.2156  2.4473 -0.3777
 7873SOL    HW235082   1.004   3.177   3.451 -4.0834  1.2734  0.5673
 7874SOL     OW35083   2.562   2.664   3.410 -0.1894 -0.5596 -0.2307
 7874SOL    HW135084   2.509   2.607   3.355  0.9888 -0.5416 -1.3732
 7874SOL    HW235085   2.503   2.691   3.481  0.4120 -5.9522  2.3845
 7875SOL     OW35086   4.368   1.549  14.055  0.3597 -0.0124 -0.2210
 7875SOL    HW135087   4.443   1.522  14.002 -1.0497 -0.0597 -2.1750
 7875SOL    HW235088   4.365   1.640  14.027 -1.1135 -0.1427 -0.4926
 7876SOL     OW35089   3.925   1.688  12.001 -0.6069  0.1311 -0.4443
 7876SOL    HW135090   3.938   1.761  12.061  2.0490 -0.1239 -0.7135
 7876SOL    HW235091   3.863   1.724  11.938 -0.5858 -1.1876 -1.2173
 7877SOL     OW35092   1.038   1.325  10.628  0.1195 -0.1316 -0.2081
 7877SOL    HW135093   0.965   1.276  10.667  0.2458 -0.1942 -0.0517
 7877SOL    HW235094   1.117   1.298  10.674  0.1529 -1.5690 -1.0883
 7878SOL     OW35095   1.598   1.846  15.854 -0.5327 -0.1327  0.0319
 7878SOL    HW135096   1.547   1.851  15.773 -1.0325  2.0331  0.4927
 7878SOL    HW235097   1.551   1.892  15.923 -0.2166 -0.3481  0.3909
 7879SOL     OW35098   2.929   1.480  10.367  0.3424 -0.5387  0.1725
 7879SOL    HW135099   2.923   1.483  10.463  0.4906 -1.6124  0.2118
 7879SOL    HW235100   2.941   1.574  10.351  2.8576 -0.8673  0.1632
 7880SOL     OW35101   2.142   4.070  12.435 -0.0356 -0.3356 -0.0235
 7880SOL    HW135102   2.154   3.976  12.440  0.4269 -0.2385  0.7489
 7880SOL    HW235103   2.192   4.103  12.510  0.1230 -0.4557 -0.0756
 7881SOL     OW35104   0.907   2.464   6.325 -0.1183 -0.6406  0.2023
 7881SOL    HW135105   0.836   2.497   6.380  1.0621 -0.9817  1.9444
 7881SOL    HW235106   0.967   2.538   6.330 -1.3620  0.3949 -0.2510
 7882SOL     OW35107   4.387   1.895   0.106  0.0378 -0.2440  0.0603
 7882SOL    HW135108   4.478   1.873   0.129  0.2365 -0.0960 -0.5987
 7882SOL    HW235109   4.338   1.830   0.156  1.1674 -1.1245  0.0229
 7883SOL     OW35110   2.612   1.557  15.421 -0.1838  0.1892  0.1709
 7883SOL    HW135111   2.682   1.492  15.414  0.7928  1.2962 -0.5734
 7883SOL    HW235112   2.543   1.509  15.376 -1.2520  2.9317 -1.1463
 7884SOL     OW35113   1.788   1.428  10.318  0.0621 -0.7815  0.0949
 7884SOL    HW135114   1.725   1.496  10.345  0.9024 -0.3697  1.0169
 7884SOL    HW235115   1.744   1.365  10.262 -0.5344  2.1159 -2.6889
 7885SOL     OW35116   1.307   1.430   6.136 -0.1769 -0.0974 -0.1503
 7885SOL    HW135117   1.279   1.503   6.080  0.2187 -0.6941 -1.1206
 7885SOL    HW235118   1.273   1.460   6.221  1.7418  2.1617 -0.1843
 7886SOL     OW35119   1.866   2.033  12.521 -0.3762  0.3057 -0.1232
 7886SOL    HW135120   1.817   2.063  12.445 -0.6698  1.3039  0.4572
 7886SOL    HW235121   1.949   2.029  12.473  0.5960 -1.3892  1.6612
 7887SOL     OW35122   3.907   3.539   8.845 -0.3679  0.1916 -0.5520
 7887SOL    HW135123   3.927   3.464   8.900  2.3510  2.0745  1.0581
 7887SOL    HW235124   3.994   3.573   8.822 -0.5336  1.9489  1.4317
 7888SOL     OW35125   0.650   4.592   7.225  0.6514  0.1135  0.2000
 7888SOL    HW135126   0.674   4.593   7.133 -0.8183 -1.7409 -0.2190
 7888SOL    HW235127   0.622   4.683   7.233 -1.2091 -0.4002 -0.2930
 7889SOL     OW35128   3.735   0.823   8.191  0.1655 -0.2260 -0.7538
 7889SOL    HW135129   3.728   0.913   8.161 -2.4192 -0.6968 -1.5330
 7889SOL    HW235130   3.816   0.831   8.243 -0.1518  1.3202 -0.5001
 7890SOL     OW35131   1.774   4.622   3.619 -0.1583  0.5906  0.3950
 7890SOL    HW135132   1.850   4.675   3.595  0.1333 -0.1791 -0.4010
 7890SOL    HW235133   1.691   4.662   3.593 -1.2345  0.1364  3.1851
 7891SOL     OW35134   0.787   2.378   8.243  0.1479  0.4942  0.0610
 7891SOL    HW135135   0.852   2.361   8.174  0.4952 -0.6154  0.6614
 7891SOL    HW235136   0.840   2.408   8.317  0.5006 -0.1404  0.0690
 7892SOL     OW35137   0.582   3.751   4.386  0.3005  0.1171 -0.1062
 7892SOL    HW135138   0.548   3.662   4.390  1.3964 -0.2178  1.7439
 7892SOL    HW235139   0.620   3.752   4.473  0.4915 -0.0183 -0.1885
 7893SOL     OW35140   1.799   4.529   6.401  0.2940  0.1892  0.2831
 7893SOL    HW135141   1.787   4.458   6.464 -2.5747  0.2546 -0.1758
 7893SOL    HW235142   1.877   4.494   6.357 -0.0765  0.3763 -0.5230
 7894SOL     OW35143   2.717   3.876   6.969 -0.1917  1.0497  0.8277
 7894SOL    HW135144   2.646   3.940   6.973  0.6771  2.1636 -1.3147
 7894SOL    HW235145   2.710   3.838   7.056 -1.5864  1.0559  0.7139
 7895SOL     OW35146   2.636   3.745   5.753 -0.1153  0.1059 -0.1912
 7895SOL    HW135147   2.723   3.736   5.791  1.3150  1.1519 -3.2352
 7895SOL    HW235148   2.650   3.800   5.676  1.7562  1.8981  1.4121
 7896SOL     OW35149   3.454   1.060   3.959 -0.0567 -0.0550  0.1695
 7896SOL    HW135150   3.414   1.028   4.040  0.9518 -1.4500  0.1216
 7896SOL    HW235151   3.466   1.152   3.983  1.4187  0.0414 -0.9151
 7897SOL     OW35152   2.801   2.324   5.042 -0.2589  0.2795  0.0023
 7897SOL    HW135153   2.711   2.291   5.053 -0.0201 -0.1993  0.5191
 7897SOL    HW235154   2.808   2.385   5.115 -1.9258 -1.7080  1.8449
 7898SOL     OW35155   4.610   2.260   0.268 -0.0747 -0.1282 -0.3169
 7898SOL    HW135156   4.581   2.283   0.356 -2.0306  0.7836 -1.1930
 7898SOL    HW235157   4.703   2.281   0.277  0.7332 -3.3926 -1.0898
 7899SOL     OW35158   2.242   1.300   2.183  0.0734  0.1069 -0.3317
 7899SOL    HW135159   2.209   1.245   2.111 -0.6377 -0.3186  0.3183
 7899SOL    HW235160   2.332   1.309   2.151  0.4409  0.4475  0.8285
 7900SOL     OW35161   3.781   4.311   5.614  0.0884 -0.6886  0.3744
 7900SOL    HW135162   3.801   4.237   5.557  1.8592 -0.5395  0.8054
 7900SOL    HW235163   3.849   4.371   5.583 -1.9569  0.5116 -1.7930
 7901SOL     OW35164   3.065   0.063   4.778  0.3753 -0.0984  0.0199
 7901SOL    HW135165   3.085   0.119   4.853  0.6134  1.8223 -1.4739
 7901SOL    HW235166   2.984   0.102   4.745  0.6253  0.0917 -0.3683
 7902SOL     OW35167   4.353   2.232  16.560 -0.2009  0.3537  0.0481
 7902SOL    HW135168   4.385   2.314  16.522  0.2115 -0.9007 -2.2785
 7902SOL    HW235169   4.382   2.174  16.490 -2.9829 -1.0752  0.0741
 7903SOL     OW35170   1.351   2.160   3.303 -0.2469  0.2863 -0.2275
 7903SOL    HW135171   1.368   2.111   3.383 -1.3085 -1.4742 -1.0798
 7903SOL    HW235172   1.270   2.208   3.320  0.3082  0.9198  0.5922
 7904SOL     OW35173   1.342   1.994   3.559  0.4430 -0.3172  0.4779
 7904SOL    HW135174   1.345   2.039   3.644 -2.4931  0.4861  0.1637
 7904SOL    HW235175   1.274   1.930   3.578  1.0522 -0.4938  2.0319
 7905SOL     OW35176   1.845   2.109  11.766 -0.1372  0.2249  0.1667
 7905SOL    HW135177   1.770   2.111  11.707 -0.2721  1.2812  0.3861
 7905SOL    HW235178   1.852   2.014  11.777  0.6054  0.2056 -0.4458
 7906SOL     OW35179   2.416   4.497  14.917 -0.7937  0.0703 -0.0069
 7906SOL    HW135180   2.445   4.466  14.831 -1.5557 -0.4894 -0.0669
 7906SOL    HW235181   2.485   4.561  14.934 -2.5043  2.3911 -1.8549
 7907SOL     OW35182   0.965   1.290   2.197  0.1646  0.1942  0.7514
 7907SOL    HW135183   0.904   1.232   2.243 -0.1780  0.1014  0.1730
 7907SOL    HW235184   0.920   1.292   2.113  1.3049  2.9814  0.2104
 7908SOL     OW35185   1.758   2.671   8.792  0.0845 -0.1958  0.4043
 7908SOL    HW135186   1.807   2.601   8.836 -1.3991 -0.0467  2.2756
 7908SOL    HW235187   1.800   2.673   8.706  1.2159 -0.4348  0.9566
 7909SOL     OW35188   1.954   0.558  11.406  0.5409  0.0100  0.9897
 7909SOL    HW135189   1.905   0.603  11.475 -0.9494 -1.3625  0.8262
 7909SOL    HW235190   2.043   0.553  11.442  0.8735  2.0117  0.4745
 7910SOL     OW35191   0.340   3.792   7.808  0.0563 -0.0245 -0.1658
 7910SOL    HW135192   0.389   3.868   7.778 -2.0994  1.2943 -0.3162
 7910SOL    HW235193   0.271   3.779   7.743  0.6486 -0.2466 -0.7498
 7911SOL     OW35194   3.500   4.313  16.892  0.2207  0.1979 -0.0430
 7911SOL    HW135195   3.524   4.362  16.814 -0.5037  1.9742  0.8574
 7911SOL    HW235196   3.405   4.318  16.896  0.2845 -0.8745  2.7917
 7912SOL     OW35197   4.021   3.009  12.993 -1.0283  0.0564 -0.4161
 7912SOL    HW135198   3.932   3.014  13.027 -0.8928  0.8382 -0.1791
 7912SOL    HW235199   4.061   3.081  13.042 -0.7437 -0.7763  0.6053
 7913SOL     OW35200   2.516   4.660   5.595  0.1380  0.2202  0.1677
 7913SOL    HW135201   2.575   4.607   5.649 -0.1801 -0.2624  0.0338
 7913SOL    HW235202   2.524   4.619   5.509  0.7778  0.0608  0.3045
 7914SOL     OW35203   4.572   1.602   6.695  0.6316 -0.1331 -0.5585
 7914SOL    HW135204   4.616   1.598   6.780  2.6969 -0.4539 -1.6375
 7914SOL    HW235205   4.529   1.687   6.703  0.6807 -0.2162  0.5713
 7915SOL     OW35206   3.789   2.149   4.418 -0.0094  0.0464  0.1994
 7915SOL    HW135207   3.740   2.231   4.412 -0.5759 -0.1913  1.7416
 7915SOL    HW235208   3.863   2.179   4.470  0.9309  0.5093 -1.4211
 7916SOL     OW35209   1.888   1.964   1.860 -0.1996  0.4859 -0.6595
 7916SOL    HW135210   1.968   2.013   1.877 -0.4289 -0.0991  2.1197
 7916SOL    HW235211   1.927   1.878   1.873 -0.1874  0.6127  0.1388
 7917SOL     OW35212   4.631   4.655   9.242  0.2884  0.2671  0.1885
 7917SOL    HW135213   4.638   4.635   9.335 -0.5245 -1.2370 -0.0710
 7917SOL    HW235214   4.682   0.011   9.235  0.1364  0.3048 -0.5343
 7918SOL     OW35215   0.792   1.663  10.741 -0.1037 -0.1569  0.0281
 7918SOL    HW135216   0.867   1.693  10.690 -0.7684 -1.9453 -1.9992
 7918SOL    HW235217   0.755   1.593  10.688 -0.5429 -1.6826  2.3642
 7919SOL     OW35218   3.043   1.600  12.417 -0.4788 -0.3485  0.2978
 7919SOL    HW135219   3.007   1.550  12.345 -0.6056 -0.0836  0.1778
 7919SOL    HW235220   3.024   1.545  12.494 -0.6101 -0.9368 -0.1580
 7920SOL     OW35221   4.702   2.272  10.618 -0.5202  0.0887  0.5550
 7920SOL    HW135222   4.691   2.314  10.532 -1.5240  0.0883  0.6894
 7920SOL    HW235223   0.070   2.290  10.630  0.1821 -3.0735 -0.2747
 7921SOL     OW35224   1.927   0.274  12.458  0.2300 -0.3626 -0.7807
 7921SOL    HW135225   1.979   0.352  12.436 -0.0616  0.1924  0.5216
 7921SOL    HW235226   1.979   0.222  12.519 -0.9535 -0.2471  0.3142
 7922SOL     OW35227   2.393   2.148   5.712 -0.3503  0.1412  0.4408
 7922SOL    HW135228   2.300   2.125   5.713 -0.2907 -0.1308 -0.9210
 7922SOL    HW235229   2.425   2.080   5.654  0.1364  2.9454 -2.5330
 7923SOL     OW35230   3.538   1.118   2.221  0.1680 -0.1253 -0.0627
 7923SOL    HW135231   3.578   1.055   2.281 -1.9744  0.3213  1.8391
 7923SOL    HW235232   3.582   1.202   2.233 -3.2111  2.0535 -2.8181
 7924SOL     OW35233   0.307   2.910   6.847 -0.5362  0.1571  0.2701
 7924SOL    HW135234   0.304   2.909   6.942 -0.4449  1.1303  0.2807
 7924SOL    HW235235   0.275   2.823   6.821  1.4216 -0.6491  0.5566
 7925SOL     OW35236   0.160   3.435  11.256 -0.3047 -0.4265  0.1662
 7925SOL    HW135237   0.161   3.509  11.317  1.4584 -0.0716 -0.2759
 7925SOL    HW235238   0.169   3.477  11.171 -0.1119 -0.2893  0.2534
 7926SOL     OW35239   2.308   1.281   4.621  0.1360 -0.1385 -0.1478
 7926SOL    HW135240   2.251   1.358   4.615  0.7003  0.2705 -0.1635
 7926SOL    HW235241   2.288   1.235   4.539 -1.2945  1.6952 -0.8119
 7927SOL     OW35242   2.019   0.882  13.937  0.0585  0.1208  0.5569
 7927SOL    HW135243   1.964   0.957  13.912 -0.6077 -1.0916 -1.5765
 7927SOL    HW235244   2.099   0.920  13.972  0.9761 -0.3024 -1.0670
 7928SOL     OW35245   1.336   3.223   0.204 -0.2752 -0.4041 -0.0787
 7928SOL    HW135246   1.360   3.138   0.167  1.1910  0.7372 -1.7364
 7928SOL    HW235247   1.415   3.263   0.240 -0.8253  1.2370 -0.7244
 7929SOL     OW35248   2.196   0.213   8.216 -0.0666 -0.0845 -0.0688
 7929SOL    HW135249   2.235   0.205   8.129 -1.5865  0.5110 -0.8002
 7929SOL    HW235250   2.129   0.276   8.188  0.3663  0.0928 -0.7166
 7930SOL     OW35251   3.289   1.585   5.007 -0.3283 -0.0630  0.1842
 7930SOL    HW135252   3.350   1.520   4.972 -1.0057  0.4312 -1.8999
 7930SOL    HW235253   3.345   1.629   5.071  0.4293  0.0397 -0.5451
 7931SOL     OW35254   3.709   2.414   0.869 -0.6037 -0.4055 -0.2200
 7931SOL    HW135255   3.761   2.344   0.828  1.1986  1.3507 -0.9528
 7931SOL    HW235256   3.760   2.492   0.845 -1.6185 -0.9450 -4.1742
 7932SOL     OW35257   4.550   2.127   3.557 -0.6444  0.1091  0.5479
 7932SOL    HW135258   4.607   2.089   3.491 -2.1164  1.2070 -1.3665
 7932SOL    HW235259   4.473   2.140   3.500 -0.4931  1.4467  0.6575
 7933SOL     OW35260   4.078   3.138   8.408  0.3282  0.0529 -0.3014
 7933SOL    HW135261   4.127   3.058   8.426 -0.9826 -0.5909  0.4047
 7933SOL    HW235262   4.150   3.199   8.393 -0.5621  1.1667 -0.1114
 7934SOL     OW35263   0.790   4.134  17.395 -0.2529  0.2501  0.0204
 7934SOL    HW135264   0.810   4.053  17.348 -1.1608  1.0197 -1.7010
 7934SOL    HW235265   0.751   4.187  17.325  0.4588 -0.8397 -1.2002
 7935SOL     OW35266   2.905   1.340   2.531 -0.3089 -0.0091 -0.2255
 7935SOL    HW135267   2.932   1.429   2.510  0.9457  0.3997  3.1486
 7935SOL    HW235268   2.864   1.303   2.452  0.7295 -2.3529  0.3389
 7936SOL     OW35269   2.989   0.925   3.131 -0.1993 -0.2363  0.4180
 7936SOL    HW135270   3.027   0.875   3.204  1.1271  1.3573  0.8307
 7936SOL    HW235271   3.041   0.904   3.054 -0.1527 -0.4239  0.5001
 7937SOL     OW35272   3.262   2.774   2.775 -0.0603 -0.1494  0.3525
 7937SOL    HW135273   3.232   2.711   2.710 -0.3500 -1.3155  1.6120
 7937SOL    HW235274   3.222   2.850   2.734  0.8441 -0.8067 -1.7481
 7938SOL     OW35275   1.603   0.603   0.907 -0.2148  0.2362  0.4116
 7938SOL    HW135276   1.619   0.687   0.949  1.2969 -0.0888  0.4860
 7938SOL    HW235277   1.572   0.631   0.821  0.9439  1.9891  0.5574
 7939SOL     OW35278   2.066   0.027   4.396  0.3023 -0.3354  0.1500
 7939SOL    HW135279   2.097   0.110   4.432  0.3328 -0.2572 -0.0550
 7939SOL    HW235280   2.036   4.699   4.469  2.5170 -1.8285 -0.0310
 7940SOL     OW35281   0.474   1.315   4.179 -0.1977  0.3609 -0.7258
 7940SOL    HW135282   0.528   1.316   4.258 -0.7148  0.9470 -0.3812
 7940SOL    HW235283   0.395   1.266   4.202 -0.5102  2.1385  1.9425
 7941SOL     OW35284   4.456   1.705  10.059 -0.0578 -0.0611  1.0849
 7941SOL    HW135285   4.408   1.627  10.088 -0.1228 -0.5004 -0.1994
 7941SOL    HW235286   4.382   1.755  10.024 -0.2299 -0.7780  0.4345
 7942SOL     OW35287   1.037   0.874   8.617 -0.2002  0.2958 -0.0175
 7942SOL    HW135288   0.974   0.814   8.657  1.8871 -1.1587  1.0601
 7942SOL    HW235289   1.047   0.937   8.688 -0.5696  0.8821 -0.4888
 7943SOL     OW35290   1.161   2.064   2.444  0.4575  0.1376 -0.5152
 7943SOL    HW135291   1.231   2.014   2.402 -0.2091  0.0388 -1.5043
 7943SOL    HW235292   1.108   2.077   2.366  0.8843  1.0957 -0.6457
 7944SOL     OW35293   0.373   4.377   2.465  0.2767  0.4373  0.1159
 7944SOL    HW135294   0.390   4.470   2.448  0.3308  0.3731 -0.1861
 7944SOL    HW235295   0.323   4.349   2.388 -0.3778  0.4135  0.5517
 7945SOL     OW35296   3.191   3.109   9.716  0.1784 -0.1291 -0.0867
 7945SOL    HW135297   3.097   3.127   9.707 -0.4990 -2.1691  2.8280
 7945SOL    HW235298   3.222   3.091   9.628  2.2312 -0.2132  0.6670
 7946SOL     OW35299   0.206   0.127   5.469  0.1792  0.1516 -0.0444
 7946SOL    HW135300   0.180   0.068   5.399 -2.0255  1.5030 -0.3306
 7946SOL    HW235301   0.298   0.103   5.481 -0.6596 -2.3383  1.4573
 7947SOL     OW35302   0.965   3.806   4.765  0.2961 -0.0792  0.5897
 7947SOL    HW135303   0.910   3.820   4.842 -0.4672 -0.7688  0.1692
 7947SOL    HW235304   0.997   3.891   4.734  1.9623 -1.1949 -0.7975
 7948SOL     OW35305   1.466   2.772  12.136 -0.1660 -0.0330 -0.5770
 7948SOL    HW135306   1.538   2.766  12.199  1.1854 -2.0110 -2.2968
 7948SOL    HW235307   1.516   2.832  12.080  0.6511  0.3738  0.5946
 7949SOL     OW35308   2.640   1.637   4.147  0.1770 -0.0295 -0.0717
 7949SOL    HW135309   2.586   1.716   4.148  0.0920 -0.0896  0.1668
 7949SOL    HW235310   2.721   1.684   4.129 -0.2988  0.0206 -2.0123
 7950SOL     OW35311   0.895   3.664  16.967  0.1428  0.4282  0.2172
 7950SOL    HW135312   0.854   3.624  16.890 -0.0369 -1.4172  1.2789
 7950SOL    HW235313   0.846   3.746  16.978 -0.0964  0.5227 -1.5090
 7951SOL     OW35314   4.149   2.023   2.335  0.3434  0.0112  0.4761
 7951SOL    HW135315   4.060   2.058   2.333 -0.0992 -1.0717  1.1867
 7951SOL    HW235316   4.131   1.929   2.336  0.6509 -0.0377  1.1803
 7952SOL     OW35317   1.860   0.299  11.047  0.1722 -0.1798  0.0689
 7952SOL    HW135318   1.830   0.348  11.123 -0.9016 -0.4342 -0.1922
 7952SOL    HW235319   1.954   0.313  11.052  0.0769  0.8914 -1.0114
 7953SOL     OW35320   1.919   0.654  12.006 -0.3479  0.4630  0.2549
 7953SOL    HW135321   1.991   0.712  11.982  0.6290 -1.8585 -2.3871
 7953SOL    HW235322   1.972   0.583  12.043  0.1378  0.5147 -0.3482
 7954SOL     OW35323   3.211   1.792   8.836  0.3097  0.0241 -0.6208
 7954SOL    HW135324   3.275   1.858   8.809 -2.6467  2.3883 -1.9643
 7954SOL    HW235325   3.130   1.835   8.808  1.5046  2.3674 -0.4541
 7955SOL     OW35326   4.572   0.371  12.984 -0.9113  0.0754  0.2761
 7955SOL    HW135327   4.479   0.392  12.995 -1.0655 -0.8548  0.7886
 7955SOL    HW235328   4.567   0.277  12.965  1.5962 -0.3695  1.8387
 7956SOL     OW35329   2.615   0.759   2.032 -0.0378  0.0744 -0.1147
 7956SOL    HW135330   2.638   0.755   2.125 -0.8400  0.0442  0.0908
 7956SOL    HW235331   2.553   0.687   2.020  1.1023 -0.9813  0.4704
 7957SOL     OW35332   3.406   3.610   5.379  0.3104  0.0681  0.2259
 7957SOL    HW135333   3.391   3.532   5.327  0.1400  1.3192 -1.5958
 7957SOL    HW235334   3.414   3.573   5.467 -2.6161 -2.1823 -0.4585
 7958SOL     OW35335   2.166   2.664   6.260 -0.2705 -0.1091 -0.1815
 7958SOL    HW135336   2.173   2.573   6.289  2.3189 -0.2648 -1.3207
 7958SOL    HW235337   2.073   2.670   6.282  0.6305 -2.4063  4.3707
 7959SOL     OW35338   3.835   2.124   4.878 -0.4193 -0.1990  0.1195
 7959SOL    HW135339   3.894   2.067   4.829 -1.3108 -1.6392  0.7070
 7959SOL    HW235340   3.861   2.213   4.855  0.3871 -0.6906 -0.8361
 7960SOL     OW35341   3.683   0.839  16.890  0.6756 -0.2274 -0.4662
 7960SOL    HW135342   3.607   0.784  16.869  1.5635 -2.0007  1.0331
 7960SOL    HW235343   3.651   0.894  16.962 -1.8759 -4.3077  1.5102
 7961SOL     OW35344   3.360   3.200   1.823 -0.3765 -0.2939 -0.0488
 7961SOL    HW135345   3.446   3.212   1.862 -0.9557 -0.4799  1.2747
 7961SOL    HW235346   3.378   3.246   1.741  0.2966 -0.0646  0.2341
 7962SOL     OW35347   3.862   1.488   6.582  0.5735 -0.2608 -0.3714
 7962SOL    HW135348   3.848   1.564   6.639  1.8511 -0.7519  0.6102
 7962SOL    HW235349   3.947   1.466   6.620  0.6955  4.0806  1.8985
 7963SOL     OW35350   2.987   2.466   6.349 -0.5266  0.0578 -0.4420
 7963SOL    HW135351   2.935   2.538   6.383 -0.8093  0.0900 -0.9443
 7963SOL    HW235352   3.049   2.514   6.295 -0.5605  0.0896 -0.4519
 7964SOL     OW35353   3.131   3.085   7.420 -0.2258 -0.1643 -0.3162
 7964SOL    HW135354   3.116   3.000   7.462  0.1623 -0.5580 -0.9751
 7964SOL    HW235355   3.200   3.127   7.471 -1.0146  1.9236 -0.9688
 7965SOL     OW35356   4.417   3.260   7.095  0.6972 -0.2534 -0.1891
 7965SOL    HW135357   4.424   3.311   7.014 -1.3300 -1.5914 -1.2425
 7965SOL    HW235358   4.441   3.172   7.065  0.1225 -0.5009  0.0653
 7966SOL     OW35359   0.170   3.272  13.048  0.0040  0.2237  0.3483
 7966SOL    HW135360   0.253   3.258  13.003  0.3186 -1.3491  1.4050
 7966SOL    HW235361   0.165   3.193  13.102  1.7181 -1.5539 -2.0694
 7967SOL     OW35362   2.095   3.591   5.412  0.6485 -0.0405  0.7614
 7967SOL    HW135363   2.051   3.538   5.478  1.2546  0.0479  1.2371
 7967SOL    HW235364   2.074   3.540   5.333 -0.5096  1.4084  0.1375
 7968SOL     OW35365   1.392   1.173   7.334 -0.1069 -0.1014  0.6947
 7968SOL    HW135366   1.325   1.141   7.394 -1.0095  1.2412  0.3882
 7968SOL    HW235367   1.434   1.089   7.316 -0.4727 -0.3011  0.7650
 7969SOL     OW35368   1.971   2.993  10.245  0.0548  0.5828 -0.1851
 7969SOL    HW135369   1.880   2.995  10.275  0.0475  2.0439 -0.2745
 7969SOL    HW235370   1.969   2.936  10.168  0.2916 -1.8291  1.6048
 7970SOL     OW35371   4.204   2.245  11.266 -0.2689 -0.4669  0.4544
 7970SOL    HW135372   4.137   2.234  11.334 -1.3582 -0.8856 -0.6830
 7970SOL    HW235373   4.170   2.172  11.214  2.1358 -1.3893  0.1507
 7971SOL     OW35374   0.725   1.372   1.651 -0.2531 -0.1907  0.5689
 7971SOL    HW135375   0.653   1.389   1.590 -0.3574  0.0100  0.7455
 7971SOL    HW235376   0.674   1.335   1.724  1.7130 -0.8070  1.6240
 7972SOL     OW35377   2.234   2.584  14.590  0.0597  0.2109  0.1372
 7972SOL    HW135378   2.271   2.555  14.507 -0.6364 -1.2396  0.3263
 7972SOL    HW235379   2.268   2.673  14.600 -1.9312  0.6507  3.0590
 7973SOL     OW35380   1.686   0.494   5.411 -0.4469  0.4880 -0.3888
 7973SOL    HW135381   1.651   0.538   5.334  1.6227 -0.6089 -1.9865
 7973SOL    HW235382   1.617   0.512   5.475 -0.6943 -2.1342  0.1076
 7974SOL     OW35383   4.643   3.076   6.911  0.4043 -0.4653 -0.5175
 7974SOL    HW135384   4.578   3.135   6.874 -0.6230 -1.6660 -0.6058
 7974SOL    HW235385   4.675   3.027   6.835 -1.9291  1.7302 -2.8957
 7975SOL     OW35386   3.032   1.396   4.131  0.2835 -0.3288  0.2935
 7975SOL    HW135387   3.120   1.407   4.166 -1.4356  0.9337  4.1651
 7975SOL    HW235388   3.042   1.313   4.085 -0.3812 -0.1837 -0.1109
 7976SOL     OW35389   2.897   1.329   5.838 -0.7215  0.3248  0.3427
 7976SOL    HW135390   2.803   1.312   5.828 -1.0148  1.2046  1.5297
 7976SOL    HW235391   2.904   1.422   5.859  0.0800  0.1934  0.6328
 7977SOL     OW35392   3.310   3.474   5.635  0.1010 -0.1659 -0.1185
 7977SOL    HW135393   3.309   3.380   5.655 -0.5826  0.0131  0.6936
 7977SOL    HW235394   3.397   3.503   5.664  0.5908 -1.2902 -0.4570
 7978SOL     OW35395   2.912   1.961   4.598  0.1187  0.1428  0.2592
 7978SOL    HW135396   2.924   1.866   4.606 -0.6916 -0.1724 -2.1707
 7978SOL    HW235397   2.840   1.959   4.534 -0.0290 -2.1622  0.4814
 7979SOL     OW35398   3.448   2.857  10.761  0.7967  0.4898 -0.7583
 7979SOL    HW135399   3.520   2.907  10.722  0.0019  2.3671  0.1700
 7979SOL    HW235400   3.375   2.913  10.735 -0.3895  0.3666  2.2616
 7980SOL     OW35401   1.042   0.421   8.889  0.1080  0.4847 -0.0320
 7980SOL    HW135402   1.100   0.488   8.924  0.6524 -0.4612  0.8596
 7980SOL    HW235403   0.991   0.388   8.963  0.6311  1.7554  0.8799
 7981SOL     OW35404   1.293   2.483   1.983  0.3455 -0.4380  0.0128
 7981SOL    HW135405   1.375   2.530   1.997  1.7730 -3.5913  2.2638
 7981SOL    HW235406   1.299   2.442   1.896  0.8196 -2.6650  1.0989
 7982SOL     OW35407   0.637   0.447   4.312  0.1501  0.2094  0.2951
 7982SOL    HW135408   0.633   0.524   4.369 -0.7599  0.0507  0.4493
 7982SOL    HW235409   0.729   0.424   4.304 -0.4683 -2.4712  0.9562
 7983SOL     OW35410   2.621   3.654   0.412 -0.2301 -0.5619 -0.0458
 7983SOL    HW135411   2.629   3.577   0.355  0.8395 -0.8812  0.5424
 7983SOL    HW235412   2.559   3.629   0.480  1.1784  1.0708  1.8279
 7984SOL     OW35413   4.379   1.127  13.506  0.3081 -0.7601  0.3028
 7984SOL    HW135414   4.357   1.137  13.599  4.1162 -0.2848  1.1457
 7984SOL    HW235415   4.319   1.179  13.453  1.2438  1.5801  1.4866
 7985SOL     OW35416   2.871   1.031   9.692  0.1742 -0.3487  0.0090
 7985SOL    HW135417   2.955   1.020   9.735 -0.5594  1.5687  1.9204
 7985SOL    HW235418   2.873   0.970   9.618 -0.2404  0.1712 -0.4278
 7986SOL     OW35419   1.506   2.307  10.450 -0.0760  0.0924 -0.3897
 7986SOL    HW135420   1.583   2.252  10.444  0.4082  0.7989 -0.6160
 7986SOL    HW235421   1.540   2.395  10.436 -0.3030  0.1867 -0.3547
 7987SOL     OW35422   0.526   2.112  17.222  0.0990  0.2991 -0.1519
 7987SOL    HW135423   0.507   2.029  17.179  0.3587  0.4595 -0.5748
 7987SOL    HW235424   0.589   2.154  17.163 -0.1121 -0.0880 -0.6528
 7988SOL     OW35425   0.572   3.009   4.289 -0.2591  0.2260 -0.0938
 7988SOL    HW135426   0.529   3.000   4.204 -0.1146 -1.0374 -0.0398
 7988SOL    HW235427   0.651   2.960   4.268  0.8950  2.8080 -1.7345
 7989SOL     OW35428   3.052   3.300  16.617 -0.1795  0.5431  0.4445
 7989SOL    HW135429   3.099   3.381  16.595  0.1841 -0.2604 -1.8240
 7989SOL    HW235430   2.999   3.275  16.541  0.7908  1.1894 -0.4664
 7990SOL     OW35431   4.598   3.396   5.374  0.7699 -0.0002 -0.3630
 7990SOL    HW135432   4.527   3.458   5.393 -0.2817 -0.9961 -1.0354
 7990SOL    HW235433   4.667   3.417   5.437 -1.1873  1.9542  1.1610
 7991SOL     OW35434   1.535   3.230   9.044 -0.3560 -0.5466 -0.3224
 7991SOL    HW135435   1.566   3.268   9.127  0.4605 -3.1056  0.5250
 7991SOL    HW235436   1.584   3.150   9.028 -1.4240 -0.9898 -1.3427
 7992SOL     OW35437   4.196   3.470   5.292  0.5778  0.2789 -0.1882
 7992SOL    HW135438   4.256   3.519   5.348 -0.1559  1.7902 -0.7085
 7992SOL    HW235439   4.152   3.541   5.246  2.7134  1.1485 -0.8624
 7993SOL     OW35440   4.401   3.106   6.426 -0.0270  0.5416 -0.6010
 7993SOL    HW135441   4.371   3.179   6.372 -3.2491  0.8735  1.6655
 7993SOL    HW235442   4.321   3.073   6.468  0.5455 -0.7041 -0.4935
 7994SOL     OW35443   2.968   0.995  15.160  0.2701  0.0083 -0.3458
 7994SOL    HW135444   3.037   1.059  15.180 -0.4567  0.2313  1.4264
 7994SOL    HW235445   2.953   0.946  15.241 -3.0410  0.4387 -0.6970
 7995SOL     OW35446   3.804   0.405   5.161 -0.2502 -0.1198  0.4410
 7995SOL    HW135447   3.840   0.494   5.160 -1.0333  0.1428 -3.0111
 7995SOL    HW235448   3.710   0.424   5.152  0.0447 -0.0105 -2.1834
 7996SOL     OW35449   3.257   2.455   2.166  0.0037 -0.3160 -0.6176
 7996SOL    HW135450   3.292   2.400   2.235 -0.3275 -1.1321 -1.1013
 7996SOL    HW235451   3.176   2.410   2.142 -0.5327  0.6814 -0.6871
 7997SOL     OW35452   4.226   1.784  12.937  0.0722 -0.1877  0.0227
 7997SOL    HW135453   4.144   1.782  12.887 -0.2416 -0.1082  0.5312
 7997SOL    HW235454   4.297   1.811  12.879  1.2068  1.7675  2.3252
 7998SOL     OW35455   3.994   1.678   3.682  0.2342 -0.4270 -0.9208
 7998SOL    HW135456   4.024   1.587   3.678 -1.6477 -1.0489 -1.0844
 7998SOL    HW235457   3.961   1.687   3.772  0.7247 -1.0472 -0.6778
 7999SOL     OW35458   1.928   4.344   7.099 -0.3313 -0.0379  0.1539
 7999SOL    HW135459   2.015   4.333   7.060 -0.9519 -2.5705 -0.5037
 7999SOL    HW235460   1.940   4.434   7.129  1.2686 -0.4620  0.7932
 8000SOL     OW35461   3.131   1.016  17.356 -0.1273 -0.3322  0.8113
 8000SOL    HW135462   3.188   0.939  17.355  0.2423 -0.0622  1.4028
 8000SOL    HW235463   3.178   1.090  17.318  1.1044 -1.0861  0.8711
 8001SOL     OW35464   2.891   4.400   7.829 -0.4262 -0.0752  0.0249
 8001SOL    HW135465   2.906   4.408   7.735  0.8967  0.3562  0.2718
 8001SOL    HW235466   2.977   4.429   7.859  0.5646 -3.0759  0.1570
 8002SOL     OW35467   0.054   0.520   3.819  0.1088 -0.0610 -0.9020
 8002SOL    HW135468   0.010   0.583   3.761 -1.5425  0.0214  0.4569
 8002SOL    HW235469   0.041   0.555   3.907 -1.1592 -1.3122 -0.5852
 8003SOL     OW35470   2.645   4.248  13.107 -0.0307 -0.2962  0.4057
 8003SOL    HW135471   2.597   4.328  13.084 -0.1269 -1.2694 -2.7423
 8003SOL    HW235472   2.730   4.285  13.132  1.6744 -3.9611  0.0812
 8004SOL     OW35473   2.727   2.259   5.400 -0.1530  0.5890  0.3329
 8004SOL    HW135474   2.689   2.273   5.486 -0.9703 -0.1314  0.0853
 8004SOL    HW235475   2.667   2.195   5.362 -0.3338  0.0916  1.4720
 8005SOL     OW35476   1.859   0.539   6.415 -0.0476  0.0434  0.2984
 8005SOL    HW135477   1.915   0.580   6.481 -0.6595 -1.4715  1.7419
 8005SOL    HW235478   1.788   0.503   6.468 -1.1874 -0.6868 -1.7451
 8006SOL     OW35479   1.803   4.704   6.096  0.5775  0.2678  0.2904
 8006SOL    HW135480   1.818   4.616   6.062 -4.9191 -0.8802  0.9146
 8006SOL    HW235481   1.876   0.025   6.056 -0.5116 -0.8965 -3.0064
 8007SOL     OW35482   3.282   0.278   2.867 -0.2843  0.0898 -0.1606
 8007SOL    HW135483   3.264   0.342   2.936 -0.4670 -3.0723  2.6965
 8007SOL    HW235484   3.222   0.299   2.795 -0.5150  0.7056  0.2063
 8008SOL     OW35485   0.905   0.201  14.636  0.0650  0.3834  0.0124
 8008SOL    HW135486   0.949   0.119  14.615  1.6176  1.3031 -0.2763
 8008SOL    HW235487   0.882   0.246  14.555 -2.0685 -2.0142 -0.7139
 8009SOL     OW35488   2.429   2.739  12.273  0.3523 -0.1840 -0.1749
 8009SOL    HW135489   2.411   2.831  12.254 -0.3536  0.0329  1.5684
 8009SOL    HW235490   2.455   2.706  12.187  2.0312  1.9560 -0.4943
 8010SOL     OW35491   1.237   0.987   8.985  0.5806 -0.0966  0.0874
 8010SOL    HW135492   1.243   0.950   8.896  2.8940  2.6364 -0.8836
 8010SOL    HW235493   1.287   0.919   9.031  3.5119 -0.6410 -3.8806
 8011SOL     OW35494   1.616   2.192   8.620 -0.0056 -0.0409  0.4755
 8011SOL    HW135495   1.668   2.239   8.686 -0.7569  1.3037  0.1194
 8011SOL    HW235496   1.642   2.101   8.632  1.4547  0.0243 -2.4511
 8012SOL     OW35497   2.505   3.794   5.129  0.2019  0.2642  0.2896
 8012SOL    HW135498   2.442   3.747   5.074  0.2844  2.8762 -2.0595
 8012SOL    HW235499   2.508   3.732   5.202 -2.0265  0.1271  0.2650
 8013SOL     OW35500   2.138   4.223   8.497 -0.0639  0.0347  0.8141
 8013SOL    HW135501   2.066   4.218   8.559 -0.5619 -0.1085  0.2268
 8013SOL    HW235502   2.119   4.306   8.453  2.0743  0.1641  0.1269
 8014SOL     OW35503   3.729   4.479   5.279  0.0900 -0.1090 -0.4489
 8014SOL    HW135504   3.757   4.409   5.220 -1.4819 -0.6353 -0.5815
 8014SOL    HW235505   3.694   4.543   5.216 -0.3786  2.7606  2.7191
 8015SOL     OW35506   0.710   1.832   7.254 -0.4966  0.6416  0.1321
 8015SOL    HW135507   0.780   1.864   7.311  1.0686  1.0328 -2.0204
 8015SOL    HW235508   0.755   1.814   7.171  1.3127  3.2460  0.5639
 8016SOL     OW35509   1.181   0.640   1.578  0.1599  0.0864  0.4590
 8016SOL    HW135510   1.148   0.658   1.666 -0.5160  0.0989  0.2048
 8016SOL    HW235511   1.159   0.724   1.537 -0.6302 -0.3515 -0.0043
 8017SOL     OW35512   1.490   1.435   3.072  1.0645 -0.2173  0.1340
 8017SOL    HW135513   1.420   1.383   3.111  0.5540 -0.1525 -0.6935
 8017SOL    HW235514   1.447   1.478   2.997 -0.3681  0.3259  1.2656
 8018SOL     OW35515   1.000   4.286  10.492  0.0216  0.0855 -0.1993
 8018SOL    HW135516   1.034   4.333  10.568  0.1501 -0.6773  0.2135
 8018SOL    HW235517   0.964   4.209  10.535 -1.0813  0.5694 -0.2582
 8019SOL     OW35518   4.239   1.226  15.391 -0.5879 -0.0514 -0.6830
 8019SOL    HW135519   4.169   1.161  15.385 -0.0295 -0.9878  2.7203
 8019SOL    HW235520   4.317   1.172  15.380 -1.3726 -0.8925 -2.0166
 8020SOL     OW35521   2.664   3.152   8.915 -0.0261 -0.1175 -0.3026
 8020SOL    HW135522   2.743   3.127   8.962  0.1893 -0.6667 -0.9657
 8020SOL    HW235523   2.662   3.083   8.849 -1.4779  0.4595 -0.8696
 8021SOL     OW35524   1.828   2.499   5.438 -0.4424 -0.0384 -0.2281
 8021SOL    HW135525   1.873   2.415   5.434  1.7533  1.0431  1.2373
 8021SOL    HW235526   1.739   2.472   5.418 -0.3679 -1.1397  0.9190
 8022SOL     OW35527   3.964   3.620   9.138 -0.4069  0.0490 -0.7544
 8022SOL    HW135528   3.952   3.526   9.124 -0.8130 -0.1888  1.1768
 8022SOL    HW235529   4.059   3.626   9.151 -0.2323  2.1302 -2.9213
 8023SOL     OW35530   2.351   4.325  17.363 -0.1981  0.2140 -0.0403
 8023SOL    HW135531   2.293   4.250  17.379 -1.4278  1.1555 -0.1208
 8023SOL    HW235532   2.356   4.361  17.451 -2.3499 -1.6151  0.8421
 8024SOL     OW35533   0.091   0.303   1.231  0.5855 -0.2898  0.0572
 8024SOL    HW135534   0.020   0.254   1.190  0.7371 -0.8962  0.5175
 8024SOL    HW235535   0.144   0.329   1.156  0.0339 -1.3131 -0.7040
 8025SOL     OW35536   3.237   4.578   3.396 -0.1007  0.0731 -0.3351
 8025SOL    HW135537   3.280   4.570   3.311 -1.3235  3.5506 -1.2929
 8025SOL    HW235538   3.271   4.502   3.443 -1.5646 -0.6297 -0.3912
 8026SOL     OW35539   2.254   1.218  14.314  0.3601 -0.5078  0.8699
 8026SOL    HW135540   2.250   1.285  14.246 -4.3922 -0.6866  0.9481
 8026SOL    HW235541   2.185   1.158  14.286  0.4744  0.7238 -2.0698
 8027SOL     OW35542   1.292   0.638   1.973  0.0729 -0.1599  0.1395
 8027SOL    HW135543   1.328   0.726   1.981 -0.0032 -0.0190 -1.0981
 8027SOL    HW235544   1.229   0.633   2.045  2.7261  0.7115  2.5091
 8028SOL     OW35545   3.738   2.651   8.152 -0.8892  0.1202  0.1836
 8028SOL    HW135546   3.710   2.652   8.243  1.1577 -1.0614  0.8261
 8028SOL    HW235547   3.764   2.559   8.152  1.4162  0.7661 -0.2597
 8029SOL     OW35548   3.031   2.852   4.176 -0.2134  0.1181 -0.0306
 8029SOL    HW135549   3.023   2.903   4.096 -1.6644  2.0445  1.3459
 8029SOL    HW235550   2.951   2.801   4.189 -0.7329  0.9897  0.1765
 8030SOL     OW35551   0.505   4.099  11.414 -0.1644  0.1175  0.3984
 8030SOL    HW135552   0.478   4.181  11.374 -0.0345 -0.2969 -0.5281
 8030SOL    HW235553   0.435   4.086  11.479  0.0567 -0.2754  0.5613
 8031SOL     OW35554   1.580   1.590  16.790 -0.6773  0.4921 -0.3485
 8031SOL    HW135555   1.658   1.628  16.749  0.8587 -2.5329 -0.2471
 8031SOL    HW235556   1.518   1.662  16.781  0.5942  1.6451  0.0258
 8032SOL     OW35557   1.728   3.060  15.637  0.2761 -0.0548  0.0851
 8032SOL    HW135558   1.819   3.080  15.661 -0.0152 -0.6776  1.6830
 8032SOL    HW235559   1.750   3.041  15.545 -2.2250 -2.0394 -0.1204
 8033SOL     OW35560   3.270   4.708   2.398  0.0336 -0.1333  0.0822
 8033SOL    HW135561   3.322   4.711   2.318 -2.0232 -0.5110 -1.2625
 8033SOL    HW235562   3.274   4.617   2.426  0.9652 -0.1955 -0.2566
 8034SOL     OW35563   4.624   3.544  16.825 -0.0959  0.5877 -0.2023
 8034SOL    HW135564   4.632   3.595  16.906  2.1182 -0.9471  0.5840
 8034SOL    HW235565   4.545   3.496  16.848 -0.6599  0.9989 -1.3353
 8035SOL     OW35566   3.641   0.535   3.630  0.1664 -0.1616  0.3284
 8035SOL    HW135567   3.575   0.467   3.619  0.2790 -0.4503  1.4672
 8035SOL    HW235568   3.697   0.521   3.554 -2.0366 -1.5906 -1.0220
 8036SOL     OW35569   3.459   3.584  15.785  0.6118 -0.5691 -0.7465
 8036SOL    HW135570   3.453   3.514  15.720  0.1031 -1.9874  0.8434
 8036SOL    HW235571   3.554   3.600  15.783  0.6750 -1.1314 -2.2553
 8037SOL     OW35572   0.531   2.487   3.760 -0.3317  0.3190  0.3988
 8037SOL    HW135573   0.438   2.471   3.746 -0.2061 -2.2187  2.3742
 8037SOL    HW235574   0.559   2.411   3.708  1.6519  0.5068  1.1794
 8038SOL     OW35575   1.996   3.029  15.602 -0.0566  0.1725  0.2638
 8038SOL    HW135576   2.085   3.054  15.627  1.0252 -2.5803 -0.8352
 8038SOL    HW235577   2.005   2.935  15.617  3.0363  0.7096  1.8270
 8039SOL     OW35578   0.075   0.599   7.816  0.4602 -0.2758  0.2529
 8039SOL    HW135579   0.106   0.647   7.893  2.4844 -0.5279 -0.4230
 8039SOL    HW235580   4.707   0.593   7.838  0.1045  0.6532 -0.9965
 8040SOL     OW35581   1.784   0.934   1.290 -0.1550  0.2383  0.1289
 8040SOL    HW135582   1.874   0.909   1.309  0.8210  3.5332 -0.2396
 8040SOL    HW235583   1.723   0.863   1.313  0.5569 -0.6903 -0.8853
 8041SOL     OW35584   2.491   1.237   6.802  0.2089 -0.5031  0.3597
 8041SOL    HW135585   2.566   1.179   6.815  0.9259  0.3063 -0.1064
 8041SOL    HW235586   2.525   1.314   6.848 -0.9562 -0.1293  0.5957
 8042SOL     OW35587   3.174   3.049   7.144 -0.0067 -0.1892  0.3112
 8042SOL    HW135588   3.116   3.053   7.220 -0.6826 -2.0941 -0.0866
 8042SOL    HW235589   3.256   3.065   7.190  1.6615  1.8887 -3.3583
 8043SOL     OW35590   3.359   2.589   6.275  0.1313  0.5860 -0.3917
 8043SOL    HW135591   3.398   2.502   6.278 -0.9114  0.1224 -0.0674
 8043SOL    HW235592   3.290   2.563   6.213 -0.3835 -0.9227  0.8217
 8044SOL     OW35593   0.912   3.234   6.001  0.0225 -0.5723 -0.3691
 8044SOL    HW135594   0.982   3.287   6.041  0.1600 -0.9426 -0.1228
 8044SOL    HW235595   0.903   3.254   5.908  1.4308  0.9593 -0.1845
 8045SOL     OW35596   2.285   4.619   6.049  0.7124 -0.0261  0.0807
 8045SOL    HW135597   2.289   4.701   6.099  0.8897  0.3029 -0.4786
 8045SOL    HW235598   2.303   4.651   5.961 -0.1405 -0.4243 -0.2315
 8046SOL     OW35599   1.913   1.108  10.408  0.1373 -0.1474  0.3773
 8046SOL    HW135600   1.835   1.146  10.367  0.4628 -0.2408 -0.3292
 8046SOL    HW235601   1.983   1.132  10.348 -0.7336 -0.5574 -0.7869
 8047SOL     OW35602   2.056   2.786   9.794 -0.7376  0.0512  0.3406
 8047SOL    HW135603   1.975   2.790   9.844 -0.7919  0.0914  0.2484
 8047SOL    HW235604   2.121   2.748   9.854 -1.0164 -1.6117 -0.4114
 8048SOL     OW35605   4.188   0.248   6.721 -0.4496  0.8617  0.1916
 8048SOL    HW135606   4.224   0.286   6.641  2.2759 -0.9383  0.5476
 8048SOL    HW235607   4.110   0.206   6.685  0.1494 -1.0416  1.1003
 8049SOL     OW35608   1.519   2.192   6.066  0.2328  0.2601 -0.5230
 8049SOL    HW135609   1.467   2.113   6.049  2.1356 -0.8189 -1.3133
 8049SOL    HW235610   1.543   2.165   6.154  0.7363  0.3060 -0.6479
 8050SOL     OW35611   2.593   3.315   7.070 -0.0499 -1.0757  0.2782
 8050SOL    HW135612   2.564   3.250   7.134  1.0853 -1.1172  0.7612
 8050SOL    HW235613   2.634   3.379   7.128  3.1018 -0.3864 -2.6876
 8051SOL     OW35614   2.584   2.499   2.534 -0.0233 -0.2091  0.5040
 8051SOL    HW135615   2.625   2.568   2.482  1.5126 -1.7562 -0.3136
 8051SOL    HW235616   2.529   2.544   2.599 -3.6927 -0.4016 -2.4375
 8052SOL     OW35617   0.817   0.162   8.421  0.1200  0.2442 -0.4738
 8052SOL    HW135618   0.722   0.147   8.423  0.0226  0.7359 -1.2902
 8052SOL    HW235619   0.835   0.134   8.331  0.1608 -0.3715 -0.2691
 8053SOL     OW35620   1.149   3.858  10.745 -0.4647  0.0516  0.4488
 8053SOL    HW135621   1.090   3.808  10.801  1.3063 -1.5549  0.8646
 8053SOL    HW235622   1.230   3.852  10.795  0.6215  0.0132 -1.3105
 8054SOL     OW35623   4.716   4.161   7.697  0.4636 -0.7533 -0.4344
 8054SOL    HW135624   4.721   4.071   7.730 -0.0018 -0.5971  0.0656
 8054SOL    HW235625   4.622   4.172   7.686  0.7401  2.4009  0.3046
 8055SOL     OW35626   3.576   0.700   3.359  0.5492 -0.1989  0.1188
 8055SOL    HW135627   3.646   0.763   3.376  1.2121 -1.2630  1.3357
 8055SOL    HW235628   3.607   0.615   3.390  0.6590 -0.0075  0.5466
 8056SOL     OW35629   4.601   3.644   4.850  0.2642  0.4544 -0.3368
 8056SOL    HW135630   4.526   3.585   4.851  1.0309 -0.5144  0.3545
 8056SOL    HW235631   4.609   3.660   4.756  0.3381 -1.8095 -0.7154
 8057SOL     OW35632   2.025   1.340   2.898  0.6503 -0.1627  0.3198
 8057SOL    HW135633   1.948   1.395   2.907  0.1475 -0.7433 -0.4721
 8057SOL    HW235634   2.078   1.357   2.976  2.1667 -2.5602 -0.1744
 8058SOL     OW35635   4.530   1.996  12.570  0.1216 -0.2014  0.7260
 8058SOL    HW135636   4.534   2.090  12.553  1.8693 -0.5148 -0.5727
 8058SOL    HW235637   4.613   1.958  12.542 -1.0092 -0.4404 -2.3156
 8059SOL     OW35638   2.787   2.877   4.851  0.8224 -0.2944 -0.3867
 8059SOL    HW135639   2.705   2.880   4.900 -0.2893 -0.6681 -2.2169
 8059SOL    HW235640   2.818   2.790   4.875 -0.6947 -1.3699 -2.2999
 8060SOL     OW35641   0.023   1.141   7.430 -0.2883 -0.3900 -0.0616
 8060SOL    HW135642   0.105   1.189   7.435 -0.5678  0.0912 -0.0211
 8060SOL    HW235643   0.001   1.095   7.511  1.7148  0.1506  0.7741
 8061SOL     OW35644   0.853   1.481   4.857  0.4101 -0.0757 -0.0397
 8061SOL    HW135645   0.876   1.506   4.946  0.0016 -0.7329  0.2536
 8061SOL    HW235646   0.864   1.565   4.812 -1.6208 -0.5287 -1.3946
 8062SOL     OW35647   1.178   4.676   1.794 -0.0091  0.3238  0.6495
 8062SOL    HW135648   1.089   4.680   1.830  0.8827  2.8220  2.5177
 8062SOL    HW235649   1.210   4.587   1.812 -1.0907 -0.3988 -0.9673
 8063SOL     OW35650   4.011   0.409   3.151 -0.7333  0.1969  0.0399
 8063SOL    HW135651   3.952   0.368   3.215  0.5333 -0.2716  0.8965
 8063SOL    HW235652   4.098   0.398   3.188  0.1977 -0.1428 -2.2770
 8064SOL     OW35653   0.177   0.480   8.645 -0.7888 -0.5430  0.0205
 8064SOL    HW135654   0.180   0.484   8.549  0.0460  2.0636  0.1334
 8064SOL    HW235655   0.144   0.569   8.659  0.9138  0.4673 -2.2213
 8065SOL     OW35656   1.953   4.647  15.035  0.3705  0.6507 -0.1881
 8065SOL    HW135657   1.997   4.681  14.957  0.9895  1.8731  0.6937
 8065SOL    HW235658   1.958   4.553  15.018  0.3533  0.3460  1.4845
 8066SOL     OW35659   4.443   0.169   4.438  0.1176 -0.3289 -0.0582
 8066SOL    HW135660   4.488   0.229   4.378  2.2954  0.0805  1.9851
 8066SOL    HW235661   4.351   0.172   4.412  0.2206  0.1293 -0.3612
 8067SOL     OW35662   2.073   4.087   3.295 -0.0243  0.0694  0.1264
 8067SOL    HW135663   2.104   4.127   3.377  0.8653  2.5180 -1.3867
 8067SOL    HW235664   2.085   4.167   3.243 -1.6378 -0.2164 -0.6867
 8068SOL     OW35665   1.455   4.032   4.996  0.3536  0.5760  0.3768
 8068SOL    HW135666   1.442   4.064   5.085  0.6885  0.5217  0.4450
 8068SOL    HW235667   1.382   3.971   4.986  2.0294 -1.1171 -1.4896
 8069SOL     OW35668   3.644   4.360   6.357 -0.2929  0.0411 -0.3656
 8069SOL    HW135669   3.623   4.268   6.343 -2.5287  0.3442  1.0220
 8069SOL    HW235670   3.699   4.375   6.280 -1.2754  4.2879 -0.2480
 8070SOL     OW35671   3.959   1.445   9.019  0.4792 -0.3213 -0.5672
 8070SOL    HW135672   4.044   1.465   9.058  0.0540  0.0483  0.1615
 8070SOL    HW235673   3.983   1.386   8.948 -3.4467  0.6065 -2.7071
 8071SOL     OW35674   2.750   3.951   2.472  0.0062 -0.0371  0.4914
 8071SOL    HW135675   2.725   3.869   2.430 -2.8365  1.7903 -1.3249
 8071SOL    HW235676   2.685   4.007   2.429  0.0829  0.4867  1.0525
 8072SOL     OW35677   0.530   1.039   6.401  0.1551 -0.7065  0.0450
 8072SOL    HW135678   0.460   1.070   6.343  1.6409  0.8697 -0.9097
 8072SOL    HW235679   0.558   1.126   6.428 -0.6096 -0.7177  0.8573
 8073SOL     OW35680   1.010   1.588  11.700  0.0188 -0.0102 -0.2088
 8073SOL    HW135681   0.969   1.503  11.719  1.2531 -0.7892 -1.0778
 8073SOL    HW235682   1.012   1.633  11.784  2.9369 -1.0130  0.2583
 8074SOL     OW35683   2.955   0.679   1.321 -1.4553  0.8586 -0.4376
 8074SOL    HW135684   2.933   0.771   1.329 -0.8936  0.9635 -0.0835
 8074SOL    HW235685   2.865   0.646   1.312 -1.2621  0.4494 -0.9114
 8075SOL     OW35686   3.048   1.721   4.871 -0.1912 -0.1123  0.1972
 8075SOL    HW135687   3.106   1.713   4.946 -1.7466  1.8504  1.5866
 8075SOL    HW235688   2.964   1.690   4.905 -0.3042 -0.2386 -0.1941
 8076SOL     OW35689   2.612   0.071   2.560  0.3051  0.3362 -0.6489
 8076SOL    HW135690   2.589   0.042   2.648  1.2982  1.7300  0.0769
 8076SOL    HW235691   2.651   4.715   2.530 -0.5479  0.3367 -1.7440
 8077SOL     OW35692   1.340   0.185   4.057 -0.2835 -0.3404  0.0825
 8077SOL    HW135693   1.396   0.184   3.979 -0.6269  0.5771 -0.1786
 8077SOL    HW235694   1.259   0.226   4.027 -1.2095 -0.5851  2.2774
 8078SOL     OW35695   0.712   0.662  11.247  0.4034  0.0196  0.1885
 8078SOL    HW135696   0.641   0.655  11.184  0.3349  0.6007  0.2051
 8078SOL    HW235697   0.759   0.736  11.208  0.6661 -0.3852 -0.2712
 8079SOL     OW35698   4.715   3.617   6.461  0.4599  0.1623  0.1399
 8079SOL    HW135699   4.650   3.616   6.391  0.8696  1.2438 -0.2542
 8079SOL    HW235700   0.023   3.707   6.465 -1.1291  0.7984 -0.9957
 8080SOL     OW35701   3.551   0.989   1.627 -0.6483  0.1966 -0.4152
 8080SOL    HW135702   3.548   0.898   1.656 -0.1869  1.3474  3.2200
 8080SOL    HW235703   3.462   1.007   1.598 -0.5120  4.2719  1.6486
 8081SOL     OW35704   3.824   2.863  17.043  0.0886  0.7824 -0.1853
 8081SOL    HW135705   3.798   2.808  17.117  2.3032 -1.5607 -1.1281
 8081SOL    HW235706   3.834   2.799  16.972  1.3568  1.7453 -0.8737
 8082SOL     OW35707   1.442   4.702   3.800 -0.5231  0.2436  0.3109
 8082SOL    HW135708   1.466   4.610   3.811 -0.5914  0.2034  0.1298
 8082SOL    HW235709   1.451   4.716   3.705 -0.6358  1.9605  0.5561
 8083SOL     OW35710   0.797   2.432   0.226  0.4310  0.5627 -0.3294
 8083SOL    HW135711   0.837   2.348   0.247 -0.0223 -0.2655 -2.7595
 8083SOL    HW235712   0.703   2.412   0.228  0.8318 -1.5336 -2.5657
 8084SOL     OW35713   3.328   1.412   6.729  0.0424 -0.1943  0.5886
 8084SOL    HW135714   3.347   1.358   6.652  1.8509 -1.0809  1.6245
 8084SOL    HW235715   3.233   1.402   6.736  0.0643 -1.4649 -0.8399
 8085SOL     OW35716   1.447   4.395   3.768 -0.3055 -0.5214  0.7360
 8085SOL    HW135717   1.524   4.343   3.745 -0.1381  0.0720 -0.0635
 8085SOL    HW235718   1.383   4.375   3.700  0.6743  2.7931 -1.1605
 8086SOL     OW35719   0.575   3.375   0.389  0.1638  0.6062  0.4125
 8086SOL    HW135720   0.502   3.316   0.409  2.0055 -1.4597  1.0678
 8086SOL    HW235721   0.653   3.321   0.374  0.4539  1.0795  0.2242
 8087SOL     OW35722   3.740   1.365   3.961 -0.3776 -0.2186  0.0953
 8087SOL    HW135723   3.826   1.323   3.955 -1.2106 -1.9769  0.6825
 8087SOL    HW235724   3.766   1.434   4.022  0.6185 -2.4024  2.1042
 8088SOL     OW35725   1.832   0.390   8.142  0.1455  0.0138 -0.9500
 8088SOL    HW135726   1.864   0.391   8.233 -2.6312 -2.0252  0.0664
 8088SOL    HW235727   1.906   0.421   8.091  0.6611 -1.8273 -1.2977
 8089SOL     OW35728   2.209   2.918   3.176  0.7189 -0.6174  0.0720
 8089SOL    HW135729   2.146   2.846   3.179  0.6922 -0.5910  0.1561
 8089SOL    HW235730   2.278   2.874   3.127 -1.8517 -1.8359 -2.3953
 8090SOL     OW35731   1.428   1.356   5.485  1.0887  0.4352  0.4069
 8090SOL    HW135732   1.342   1.314   5.478  2.0517 -1.3858 -0.4904
 8090SOL    HW235733   1.421   1.422   5.416 -0.1581  0.1283  0.2235
 8091SOL     OW35734   3.039   3.034   8.433  0.0508 -0.9384  0.7754
 8091SOL    HW135735   3.112   3.081   8.393  0.3558 -1.7504  0.3595
 8091SOL    HW235736   3.017   3.076   8.515  0.2851  0.7677 -0.0417
 8092SOL     OW35737   2.427   1.919   4.344 -0.5992 -0.5633  0.4907
 8092SOL    HW135738   2.400   1.852   4.281  0.1122  1.0834 -1.5549
 8092SOL    HW235739   2.381   1.892   4.424  0.3411  0.7631  1.4930
 8093SOL     OW35740   3.911   0.117   7.298  0.0844 -0.3976  0.1181
 8093SOL    HW135741   3.899   0.081   7.210 -1.7119 -1.7474  0.9279
 8093SOL    HW235742   4.000   0.152   7.303  0.0220 -0.2207  0.0066
 8094SOL     OW35743   0.144   2.480   4.154  0.0752  0.2323  0.2108
 8094SOL    HW135744   0.071   2.420   4.141 -0.0925  0.2522  1.0780
 8094SOL    HW235745   0.143   2.515   4.065 -0.4991 -0.6663 -0.1352
 8095SOL     OW35746   0.252   1.707   9.439  0.4033  0.0862  0.1034
 8095SOL    HW135747   0.185   1.751   9.491  0.6154 -2.3183  2.4176
 8095SOL    HW235748   0.197   1.640   9.399  1.4669  0.1052 -1.3925
 8096SOL     OW35749   4.249   1.608  14.302  0.4205  0.4310  0.2795
 8096SOL    HW135750   4.245   1.696  14.266 -0.2109  0.4335  0.3510
 8096SOL    HW235751   4.280   1.564  14.223 -0.9436 -1.0884  0.5818
 8097SOL     OW35752   1.422   2.056  12.063 -0.0432  0.4268  0.0498
 8097SOL    HW135753   1.362   2.126  12.089  3.0490  2.7340  0.9944
 8097SOL    HW235754   1.492   2.101  12.016  0.1981 -0.2376 -0.2260
 8098SOL     OW35755   0.641   1.771  10.923  0.2161  0.3279  0.1446
 8098SOL    HW135756   0.709   1.733  10.867  1.0680 -2.0037  2.7975
 8098SOL    HW235757   0.572   1.789  10.859  0.0155  0.7970  0.4879
 8099SOL     OW35758   0.529   2.028  17.485  0.3412  0.0970  0.6082
 8099SOL    HW135759   0.575   1.950  17.454 -2.1119 -0.9954 -0.2943
 8099SOL    HW235760   0.517   2.073  17.402  2.5609 -1.1250 -0.3731
 8100SOL     OW35761   2.974   1.621  17.159  0.0240  0.3037 -0.1052
 8100SOL    HW135762   2.896   1.584  17.118  0.6451  1.4342 -2.3277
 8100SOL    HW235763   2.981   1.553  17.226  0.8700  1.4743  0.9737
 8101SOL     OW35764   3.933   3.927  17.023 -0.6059  0.0667  0.8302
 8101SOL    HW135765   3.887   3.995  16.974 -0.1377 -0.5519 -0.4692
 8101SOL    HW235766   3.863   3.910  17.086  0.0094 -2.9927  0.6784
 8102SOL     OW35767   3.570   4.099  12.799  0.0036  0.2504 -0.3414
 8102SOL    HW135768   3.520   4.156  12.857 -0.2942  0.2203 -0.5708
 8102SOL    HW235769   3.652   4.149  12.800  0.6306 -0.7801  1.4219
 8103SOL     OW35770   1.451   1.195  15.066 -0.3300 -0.1788 -0.0578
 8103SOL    HW135771   1.357   1.188  15.050  0.1660 -3.3398 -1.4148
 8103SOL    HW235772   1.467   1.257  14.995 -0.6484 -0.8678 -0.7276
 8104SOL     OW35773   0.492   2.574   4.516 -0.2557 -0.4358  0.3840
 8104SOL    HW135774   0.467   2.552   4.606 -1.5511  0.9427  0.3799
 8104SOL    HW235775   0.474   2.668   4.517 -2.0837 -0.8014  2.2566
 8105SOL     OW35776   2.712   3.431   8.891 -0.5093  0.1716 -0.0605
 8105SOL    HW135777   2.704   3.399   8.801  0.5456 -1.7827  0.5349
 8105SOL    HW235778   2.673   3.356   8.935  0.0917  0.5282  1.0705
 8106SOL     OW35779   0.410   2.976   6.262 -0.0579 -0.3020 -0.2513
 8106SOL    HW135780   0.366   3.059   6.247  0.3192 -0.4065 -1.8760
 8106SOL    HW235781   0.481   2.982   6.198 -1.6081  0.4070 -1.8886
 8107SOL     OW35782   2.374   0.984   5.084 -0.1529  0.5164  0.1729
 8107SOL    HW135783   2.436   1.046   5.122  1.1964 -1.3523  1.0212
 8107SOL    HW235784   2.359   0.928   5.160 -0.7198 -1.3768 -1.3221
 8108SOL     OW35785   4.614   3.186   9.497 -0.1380 -0.2891  0.5063
 8108SOL    HW135786   4.709   3.191   9.487  0.2505 -0.6609  3.7767
 8108SOL    HW235787   4.589   3.194   9.405  3.2927  1.2865 -0.3086
 8109SOL     OW35788   0.072   1.052   3.244 -0.2457  0.1551 -0.2591
 8109SOL    HW135789   0.046   0.960   3.231  2.1824 -0.3903 -1.1183
 8109SOL    HW235790   0.098   1.064   3.336  2.0841  0.1162 -0.9303
 8110SOL     OW35791   0.074   4.712   0.108 -0.2757  0.2361 -0.2084
 8110SOL    HW135792   0.061   4.679   0.197  0.9419 -1.3228 -0.6201
 8110SOL    HW235793   4.720   0.037   0.090 -0.0631  0.8003  0.4121
 8111SOL     OW35794   2.423   3.644   8.193  0.0601 -0.5738 -0.1589
 8111SOL    HW135795   2.362   3.707   8.156 -0.4943  0.3329  2.2960
 8111SOL    HW235796   2.384   3.645   8.280 -1.2845 -1.7850 -0.7541
 8112SOL     OW35797   0.569   4.536   8.172 -0.8426  0.1812 -0.1102
 8112SOL    HW135798   0.554   4.446   8.144  0.8087  0.2352 -1.2053
 8112SOL    HW235799   0.514   4.575   8.104 -1.6459 -1.1277 -0.2184
 8113SOL     OW35800   3.473   1.819   7.918 -0.3700  0.0291  0.1031
 8113SOL    HW135801   3.425   1.890   7.961  0.1004 -0.3621  1.2796
 8113SOL    HW235802   3.526   1.795   7.994 -0.6320 -1.3840 -0.1474
 8114SOL     OW35803   4.419   4.653   7.474 -0.7664 -0.0298  0.4142
 8114SOL    HW135804   4.333   4.656   7.432 -0.7324  0.6351  0.3810
 8114SOL    HW235805   4.436   0.021   7.461 -4.2060  0.2096 -2.3185
 8115SOL     OW35806   4.377   3.139   2.251  0.4567 -0.0651  0.5158
 8115SOL    HW135807   4.415   3.117   2.166  0.1821  0.9039  0.1332
 8115SOL    HW235808   4.404   3.066   2.306 -1.2560 -0.1092  1.2949
 8116SOL     OW35809   2.080   0.218   7.206 -0.1591 -0.5762 -0.7456
 8116SOL    HW135810   2.018   0.252   7.142  2.3506  0.7764 -2.4547
 8116SOL    HW235811   2.131   0.160   7.150  1.1222  0.7647 -0.9524
 8117SOL     OW35812   2.133   0.537   0.251 -0.4221  0.3943 -0.3452
 8117SOL    HW135813   2.044   0.559   0.279  0.2434  0.5417  1.6330
 8117SOL    HW235814   2.161   0.615   0.202  0.6941 -0.2766 -0.7577
 8118SOL     OW35815   1.955   4.248   6.479  0.5195 -0.6252 -0.0885
 8118SOL    HW135816   1.969   4.328   6.428  2.0954  0.1656  1.5906
 8118SOL    HW235817   1.961   4.184   6.407 -1.3327 -0.2721 -0.5560
 8119SOL     OW35818   1.478   3.656   9.530 -0.1276  0.4124  0.1901
 8119SOL    HW135819   1.459   3.663   9.436 -2.2481  0.5124  0.6270
 8119SOL    HW235820   1.572   3.641   9.521 -0.0653  0.2805  1.0900
 8120SOL     OW35821   4.618   0.299   5.183  0.0388 -0.2032 -0.2132
 8120SOL    HW135822   4.673   0.266   5.112  0.6158 -0.2119  0.2311
 8120SOL    HW235823   4.533   0.310   5.140 -0.8920 -1.6835  1.2736
 8121SOL     OW35824   0.927   1.215   6.770 -0.1860 -0.1755 -0.2597
 8121SOL    HW135825   0.882   1.134   6.746 -0.9113  0.4959 -1.1718
 8121SOL    HW235826   0.999   1.183   6.825  0.6824  0.3394 -1.0898
 8122SOL     OW35827   2.114   2.145   7.428  0.6492 -0.5564 -0.2103
 8122SOL    HW135828   2.093   2.095   7.349  0.7730  0.2291 -0.7397
 8122SOL    HW235829   2.200   2.105   7.444  0.9578  1.1364  2.4446
 8123SOL     OW35830   2.727   0.836  10.123  0.3206 -0.1839  0.0498
 8123SOL    HW135831   2.637   0.837  10.092  0.1501  0.9450  0.5744
 8123SOL    HW235832   2.730   0.889  10.203 -0.8775  0.2697 -0.2056
 8124SOL     OW35833   2.275   2.305  10.241  0.2303  0.4505 -0.9805
 8124SOL    HW135834   2.252   2.384  10.192 -1.0453  1.1395  0.6959
 8124SOL    HW235835   2.215   2.318  10.315  1.1260 -2.2587  0.2179
 8125SOL     OW35836   2.133   3.780  16.925  0.4710  0.3301 -0.2553
 8125SOL    HW135837   2.055   3.834  16.914 -0.0376 -0.5238 -0.9248
 8125SOL    HW235838   2.111   3.731  17.004  0.0573  1.7668  0.5120
 8126SOL     OW35839   2.428   2.950   6.618 -0.1049 -0.0136  0.2695
 8126SOL    HW135840   2.486   2.891   6.571 -0.0170  0.4237 -0.1711
 8126SOL    HW235841   2.493   3.018   6.637 -1.0301  1.1719 -0.8212
 8127SOL     OW35842   0.471   2.553  10.938  0.3335  0.3338 -0.4024
 8127SOL    HW135843   0.379   2.529  10.944  0.7966 -0.7730  2.0423
 8127SOL    HW235844   0.453   2.647  10.942 -1.8310 -0.1079  0.3184
 8128SOL     OW35845   3.206   2.097  12.562 -0.0562 -0.1539  0.2388
 8128SOL    HW135846   3.213   2.004  12.539 -1.0949  1.0488 -5.0065
 8128SOL    HW235847   3.128   2.119  12.510 -0.9495  1.0960  2.1220
 8129SOL     OW35848   3.015   0.545  17.613  0.1914  0.9377 -0.1316
 8129SOL    HW135849   2.981   0.480  17.551  1.8488  0.2467 -0.3192
 8129SOL    HW235850   3.087   0.491  17.646  0.0143  1.8107  1.6642
 8130SOL     OW35851   2.510   0.004  12.054  0.1886  0.4646 -0.0991
 8130SOL    HW135852   2.514   4.698  11.964  0.8234  1.2817 -0.3587
 8130SOL    HW235853   2.419   4.715  12.077  0.4189  1.6030  1.5069
 8131SOL     OW35854   2.301   3.148   4.602 -0.0027 -0.3996 -0.2769
 8131SOL    HW135855   2.217   3.175   4.564 -0.2285 -0.5589  0.1145
 8131SOL    HW235856   2.348   3.222   4.565  0.5282 -0.3250  0.5484
 8132SOL     OW35857   3.500   1.531   4.254  0.2811  0.0811 -0.0373
 8132SOL    HW135858   3.579   1.531   4.307  1.9946  1.1305 -2.5932
 8132SOL    HW235859   3.517   1.624   4.240  1.5888 -0.0345  0.8149
 8133SOL     OW35860   0.393   1.581   2.893  0.6020  0.3744 -0.6809
 8133SOL    HW135861   0.382   1.572   2.798  1.0249 -1.1287 -0.5857
 8133SOL    HW235862   0.478   1.624   2.909 -0.2231  0.6259  2.9483
 8134SOL     OW35863   3.320   0.829  17.299  0.3119  0.6120 -0.7127
 8134SOL    HW135864   3.294   0.834  17.207 -0.8055  0.1392 -0.4188
 8134SOL    HW235865   3.412   0.854  17.291  0.5004  0.5789  1.3749
 8135SOL     OW35866   4.557   3.951   8.141 -0.0691  0.0957  0.0532
 8135SOL    HW135867   4.596   4.030   8.105  2.6789 -0.1522  2.5104
 8135SOL    HW235868   4.470   3.980   8.169  0.3292 -0.8371  2.2282
 8136SOL     OW35869   0.124   2.947   9.906 -0.0755  0.6407  0.4936
 8136SOL    HW135870   0.056   3.005   9.938 -1.6941 -1.1803  0.3991
 8136SOL    HW235871   0.075   2.927   9.826  0.8364 -2.0419  0.5847
 8137SOL     OW35872   1.393   0.582   9.242 -0.0308 -0.2629 -0.3055
 8137SOL    HW135873   1.392   0.518   9.314  1.3365  0.2430  0.1656
 8137SOL    HW235874   1.406   0.664   9.291 -2.3196  0.2890 -0.6640
 8138SOL     OW35875   1.583   4.266  15.655  0.1122 -0.6061  0.2272
 8138SOL    HW135876   1.561   4.324  15.727 -2.5390  1.6250 -2.3911
 8138SOL    HW235877   1.546   4.310  15.579 -1.2667 -0.3913  1.0277
 8139SOL     OW35878   3.384   2.045   2.873 -0.5566  0.5503 -0.0042
 8139SOL    HW135879   3.356   2.127   2.913 -0.0028  1.3245 -1.1863
 8139SOL    HW235880   3.300   1.999   2.866 -1.0687  1.4879 -0.0099
 8140SOL     OW35881   2.490   0.428   5.091  0.1396  0.2431  0.6417
 8140SOL    HW135882   2.532   0.363   5.146  0.2502  0.4872  0.8431
 8140SOL    HW235883   2.485   0.389   5.003  0.8095 -0.4478  0.9055
 8141SOL     OW35884   1.313   0.817   8.433 -0.3216 -0.5043 -0.4035
 8141SOL    HW135885   1.362   0.772   8.364  1.4963  2.0877 -0.7890
 8141SOL    HW235886   1.225   0.779   8.428 -0.4998  0.0763 -1.5276
 8142SOL     OW35887   4.715   2.214   4.891  0.3981 -0.0510 -0.1364
 8142SOL    HW135888   4.696   2.203   4.798  1.7321 -0.3825 -0.3791
 8142SOL    HW235889   4.638   2.209   4.947 -0.2738 -3.2750 -1.3327
 8143SOL     OW35890   2.727   0.386   6.596 -0.5085 -0.1141  0.0682
 8143SOL    HW135891   2.780   0.434   6.660 -1.0080  0.0321  0.3729
 8143SOL    HW235892   2.791   0.369   6.527  0.1920  0.4259  0.5905
 8144SOL     OW35893   0.541   1.902   8.166 -0.1141 -0.0016  0.3835
 8144SOL    HW135894   0.449   1.887   8.145 -0.2277  0.1549  0.7657
 8144SOL    HW235895   0.550   1.850   8.246  2.0059  0.0894  0.2207
 8145SOL     OW35896   2.393   4.447   4.466 -0.3202  0.4768  0.0692
 8145SOL    HW135897   2.438   4.532   4.465  0.7820 -0.1146 -0.8741
 8145SOL    HW235898   2.329   4.465   4.397  2.4499  0.3090 -2.5426
 8146SOL     OW35899   1.391   0.863  15.231  0.6269  0.1241 -0.1107
 8146SOL    HW135900   1.447   0.794  15.266 -0.6004  0.9021  3.4282
 8146SOL    HW235901   1.383   0.927  15.302  1.5428  0.3483 -0.2055
 8147SOL     OW35902   0.431   1.779   4.595  0.0552 -0.3237  0.1673
 8147SOL    HW135903   0.401   1.834   4.522  0.8368  2.0556  1.6628
 8147SOL    HW235904   0.348   1.756   4.636  0.2385 -0.6315  0.3691
 8148SOL     OW35905   0.682   1.365   5.420 -0.0174 -0.4380 -0.4612
 8148SOL    HW135906   0.728   1.382   5.338 -1.7747  4.7784 -0.3496
 8148SOL    HW235907   0.605   1.422   5.415 -0.3504 -0.8210  0.3603
 8149SOL     OW35908   1.819   4.025   5.534 -0.1088  0.2555 -0.8530
 8149SOL    HW135909   1.805   3.958   5.601  1.3801 -0.0505 -0.8343
 8149SOL    HW235910   1.771   4.098   5.575 -0.1497 -1.7354  2.6945
 8150SOL     OW35911   0.653   2.601   5.285 -0.3036  0.3804  0.1523
 8150SOL    HW135912   0.694   2.523   5.248  0.0420  1.5524 -1.9758
 8150SOL    HW235913   0.729   2.659   5.277  0.0775 -0.3028 -1.3307
 8151SOL     OW35914   0.287   1.046   0.532 -0.3946  0.1019 -0.3961
 8151SOL    HW135915   0.290   1.128   0.582 -2.3629 -0.0394 -0.0343
 8151SOL    HW235916   0.282   0.969   0.588 -3.5538  0.2084 -0.5279
 8152SOL     OW35917   0.104   3.176   2.936 -0.2748 -0.2440  0.3592
 8152SOL    HW135918   0.092   3.153   2.844 -1.7294 -0.3403  0.5639
 8152SOL    HW235919   0.072   3.266   2.937 -0.4609 -0.3294  1.6728
 8153SOL     OW35920   0.596   1.818   3.986 -0.5211  0.6131  0.6401
 8153SOL    HW135921   0.578   1.781   4.073  0.7929  0.7944  0.9812
 8153SOL    HW235922   0.550   1.902   3.992 -0.1937  0.7765  0.8307
 8154SOL     OW35923   2.895   3.793   3.065  0.4136 -0.1795  0.5294
 8154SOL    HW135924   2.849   3.765   2.985 -0.8543  0.2256  1.1209
 8154SOL    HW235925   2.980   3.812   3.024  0.5360  0.2657  1.0079
 8155SOL     OW35926   1.327   1.690  15.250  0.3044 -0.2350 -0.2350
 8155SOL    HW135927   1.363   1.625  15.310  1.2425  1.1053  0.6618
 8155SOL    HW235928   1.279   1.635  15.189 -0.8040  1.3930 -0.8279
 8156SOL     OW35929   0.939   2.340   6.811  0.0732 -0.2180 -0.4514
 8156SOL    HW135930   1.000   2.370   6.744  1.4394 -1.8675  0.0356
 8156SOL    HW235931   0.951   2.246   6.798 -0.9952 -0.2042 -1.5100
 8157SOL     OW35932   3.894   0.363   4.119 -0.0291 -0.0420  0.5639
 8157SOL    HW135933   3.852   0.437   4.073 -0.7604 -0.3008  0.8154
 8157SOL    HW235934   3.930   0.316   4.043 -1.3155 -1.4673  0.8438
 8158SOL     OW35935   0.408   4.364   9.462  0.0282  0.3718 -0.1298
 8158SOL    HW135936   0.494   4.393   9.493  0.1746  1.4540 -1.5665
 8158SOL    HW235937   0.402   4.396   9.372 -0.7957 -0.1330 -0.2499
 8159SOL     OW35938   2.665   2.049   8.142 -0.6666 -0.2266  0.2054
 8159SOL    HW135939   2.644   2.102   8.219 -1.8459 -0.1842 -0.1492
 8159SOL    HW235940   2.578   2.026   8.110 -1.5391  1.0521  1.6727
 8160SOL     OW35941   0.026   2.245  17.149  0.7739 -0.0053  0.1230
 8160SOL    HW135942   0.039   2.313  17.083  1.0075 -0.3151 -0.1514
 8160SOL    HW235943   4.658   2.228  17.162  0.6380 -0.2052 -1.0972
 8161SOL     OW35944   2.488   0.698  10.060 -0.4612 -0.1424  0.0852
 8161SOL    HW135945   2.426   0.732   9.996  0.3548 -1.7894 -1.5712
 8161SOL    HW235946   2.426   0.695  10.132  1.0967 -1.1242  1.4001
 8162SOL     OW35947   1.746   1.956   0.334  0.3165 -0.1916  0.2716
 8162SOL    HW135948   1.836   1.938   0.309 -0.2788  0.5496 -2.4250
 8162SOL    HW235949   1.733   2.036   0.283  1.4098 -0.1243  0.0942
 8163SOL     OW35950   0.244   1.495   7.612 -0.2739  0.9524  0.3390
 8163SOL    HW135951   0.287   1.579   7.625 -0.2541  0.9636  0.2099
 8163SOL    HW235952   0.189   1.483   7.689 -0.6511 -0.3417 -0.1230
 8164SOL     OW35953   4.373   1.746   7.830  0.6804  0.1758 -0.4323
 8164SOL    HW135954   4.289   1.734   7.873 -0.3975  1.4294 -2.2168
 8164SOL    HW235955   4.412   1.660   7.840  1.0205  0.4145  0.3383
 8165SOL     OW35956   3.086   1.360   0.649  0.7954  0.8176 -0.4496
 8165SOL    HW135957   3.130   1.320   0.574 -0.1943 -0.6885 -0.2344
 8165SOL    HW235958   3.028   1.424   0.606 -0.9969  0.7599  1.9204
 8166SOL     OW35959   0.630   2.317   4.958 -0.1106  0.3433  0.3711
 8166SOL    HW135960   0.541   2.339   4.987 -0.0738  0.6540  0.2510
 8166SOL    HW235961   0.612   2.224   4.970 -0.2469  0.6520  2.4204
 8167SOL     OW35962   4.110   4.556   0.300  0.0657 -0.5311  0.5990
 8167SOL    HW135963   4.047   4.625   0.323 -0.7754 -1.3941  0.8852
 8167SOL    HW235964   4.138   4.526   0.387  0.3460  0.9769  1.0326
 8168SOL     OW35965   0.452   2.527   0.512 -0.6252  1.0801 -0.1343
 8168SOL    HW135966   0.543   2.553   0.526 -0.3566 -0.2490  0.5404
 8168SOL    HW235967   0.411   2.534   0.599  0.6202  1.4983  0.4173
 8169SOL     OW35968   4.700   0.738   4.184  0.6307  0.5077  0.4594
 8169SOL    HW135969   4.619   0.768   4.224 -0.1078 -1.0210  0.1219
 8169SOL    HW235970   0.034   0.801   4.224 -1.3688  2.4667  0.3395
 8170SOL     OW35971   0.828   4.682  10.455  0.1832  0.0693  0.0058
 8170SOL    HW135972   0.784   4.649  10.377  1.7693 -1.8940 -0.0706
 8170SOL    HW235973   0.790   4.621  10.519  2.8055 -1.4274  0.1549
 8171SOL     OW35974   4.682   2.684   8.498  0.2561  0.2682  0.1869
 8171SOL    HW135975   0.006   2.684   8.580 -1.2078 -0.8339  1.0760
 8171SOL    HW235976   4.600   2.729   8.522 -0.6983 -1.9671  1.1418
 8172SOL     OW35977   2.255   3.858   8.161  0.1903  0.8562 -0.3446
 8172SOL    HW135978   2.257   3.954   8.161 -1.2223  0.8759 -0.6920
 8172SOL    HW235979   2.203   3.850   8.241 -1.9376  1.9299 -1.6231
 8173SOL     OW35980   2.395   0.619   3.881 -0.3135  0.2496  0.2573
 8173SOL    HW135981   2.382   0.710   3.905 -0.6495 -0.4937  2.9323
 8173SOL    HW235982   2.460   0.630   3.812  0.4708 -0.2958  0.9048
 8174SOL     OW35983   0.609   1.091  15.545 -0.0369  0.4871  0.1818
 8174SOL    HW135984   0.668   1.148  15.593  0.1176  1.0550 -0.6876
 8174SOL    HW235985   0.570   1.148  15.479  0.0607  0.9324  0.5121
 8175SOL     OW35986   4.455   3.764   4.567 -0.0560  0.7113 -0.1556
 8175SOL    HW135987   4.473   3.857   4.553  0.5137  0.5874 -0.2599
 8175SOL    HW235988   4.360   3.757   4.562 -0.2197  4.1163 -1.7813
 8176SOL     OW35989   1.680   1.239   4.620  0.0480  0.0990  0.0660
 8176SOL    HW135990   1.708   1.232   4.711 -0.3958  0.7090  0.2497
 8176SOL    HW235991   1.683   1.333   4.607  3.2554 -0.1049 -0.7382
 8177SOL     OW35992   0.277   2.078  17.546 -0.6488 -0.1170  0.1986
 8177SOL    HW135993   0.281   2.136  17.469  2.1423  0.7956  1.0184
 8177SOL    HW235994   0.367   2.049  17.530 -0.4920  0.6181 -0.3052
 8178SOL     OW35995   3.778   1.729   2.991  0.5303  0.1278  0.7609
 8178SOL    HW135996   3.851   1.763   2.939  0.6349 -0.2137  0.6831
 8178SOL    HW235997   3.716   1.800   2.977  0.6129  0.3691  1.6202
 8179SOL     OW35998   4.086   3.300  17.355  0.1750  0.3298  0.0243
 8179SOL    HW135999   4.033   3.363  17.308 -0.8271 -0.2746  0.3404
 8179SOL    HW236000   4.030   3.278  17.430 -1.3611  1.1464 -0.8964
 8180SOL     OW36001   2.612   1.803   2.105 -0.1295 -0.4522 -0.2117
 8180SOL    HW136002   2.624   1.866   2.034  1.1908 -0.0247  0.3919
 8180SOL    HW236003   2.703   1.780   2.120 -0.2049 -1.2560 -1.0030
 8181SOL     OW36004   0.210   3.293  14.895  0.3119 -0.2833 -0.1197
 8181SOL    HW136005   0.263   3.370  14.917 -1.0495 -0.2949  3.1006
 8181SOL    HW236006   0.266   3.244  14.834 -1.5783  0.1224 -2.1612
 8182SOL     OW36007   1.617   0.625   6.199  0.4979  0.8098 -0.8280
 8182SOL    HW136008   1.610   0.622   6.294 -1.1597  2.7341 -0.8832
 8182SOL    HW236009   1.674   0.702   6.190  0.1817  1.0242 -0.9828
 8183SOL     OW36010   4.468   0.997   3.095  0.6113  0.2518  0.7085
 8183SOL    HW136011   4.474   0.920   3.151  0.2707 -1.3934 -1.5162
 8183SOL    HW236012   4.491   1.072   3.149 -1.6007 -0.0825  2.1045
 8184SOL     OW36013   0.735   3.999   3.889  0.1929  0.4386 -0.3822
 8184SOL    HW136014   0.808   3.967   3.941  0.7709  0.5391 -1.1196
 8184SOL    HW236015   0.671   3.931   3.910  0.0708  1.3462  2.1705
 8185SOL     OW36016   2.444   2.331   6.719  0.9397  0.7591  0.1340
 8185SOL    HW136017   2.454   2.237   6.702  0.1196  0.7808 -0.4666
 8185SOL    HW236018   2.367   2.327   6.775  1.7223  0.2287  1.1574
 8186SOL     OW36019   2.013   4.131  15.950  0.0401 -0.1372  0.1960
 8186SOL    HW136020   2.042   4.061  16.009 -1.7471  0.5677  1.9132
 8186SOL    HW236021   1.918   4.120  15.945  0.1531 -1.3382  0.7927
 8187SOL     OW36022   4.635   4.161   8.013 -0.5736  0.8780 -0.5162
 8187SOL    HW136023   4.635   4.162   7.917  3.3407 -0.9294 -0.5287
 8187SOL    HW236024   4.582   4.237   8.036 -2.5628 -1.0333  1.2878
 8188SOL     OW36025   3.309   2.819   8.884  0.6223 -0.0530 -1.1013
 8188SOL    HW136026   3.346   2.867   8.959 -1.4758 -2.3182  1.3740
 8188SOL    HW236027   3.380   2.829   8.821  0.7979 -2.4619 -1.2664
 8189SOL     OW36028   4.563   0.881   6.473 -0.2554 -0.1607 -0.0554
 8189SOL    HW136029   4.656   0.859   6.467 -0.6451 -1.4278 -1.3724
 8189SOL    HW236030   4.534   0.901   6.384 -0.8241 -0.8028 -0.0126
 8190SOL     OW36031   3.643   3.553   8.725  0.5744 -0.0163 -0.2665
 8190SOL    HW136032   3.726   3.506   8.725  0.4571 -0.2148  0.5156
 8190SOL    HW236033   3.639   3.624   8.789  0.9991 -0.4016  0.1777
 8191SOL     OW36034   3.126   3.734   8.095  0.5388 -0.2808 -0.0435
 8191SOL    HW136035   3.202   3.790   8.103  0.7451 -0.4646 -0.7044
 8191SOL    HW236036   3.144   3.677   8.170 -1.6563 -0.7625  0.1210
 8192SOL     OW36037   3.030   2.616   2.386  0.0972  0.6686  0.4897
 8192SOL    HW136038   3.004   2.539   2.335 -0.7103  2.0958 -1.2237
 8192SOL    HW236039   2.948   2.664   2.391  0.5102  1.3171  1.1380
 8193SOL     OW36040   2.701   2.536  12.512  0.2143 -0.4747 -0.4334
 8193SOL    HW136041   2.675   2.479  12.585  0.4308  2.4014  1.8794
 8193SOL    HW236042   2.773   2.483  12.477  1.8573  1.7169 -0.4053
 8194SOL     OW36043   4.691   0.071   3.238 -0.3940 -0.1001  0.1771
 8194SOL    HW136044   4.688   4.705   3.210 -0.5485 -0.0829  0.1379
 8194SOL    HW236045   0.019   0.068   3.318  1.9817 -1.2399 -1.4461
 8195SOL     OW36046   4.689   0.606   5.587 -0.2825  0.6386  0.1159
 8195SOL    HW136047   0.004   0.670   5.528 -2.3974 -0.1040 -2.1485
 8195SOL    HW236048   4.626   0.567   5.527  1.5919 -0.4402 -1.1552
 8196SOL     OW36049   3.573   0.703  15.314 -0.2821 -0.2693  0.1346
 8196SOL    HW136050   3.499   0.652  15.283 -0.0808 -0.8341  0.5898
 8196SOL    HW236051   3.559   0.785  15.266  1.8172 -1.3105 -2.2137
 8197SOL     OW36052   4.653   4.696   2.833 -0.5367  0.1258  0.2964
 8197SOL    HW136053   0.016   0.009   2.829  0.2649 -1.6597  0.9043
 8197SOL    HW236054   4.662   4.643   2.754  0.1303 -1.6492  1.5552
 8198SOL     OW36055   3.696   1.243   6.158  0.2812 -0.2061  0.2048
 8198SOL    HW136056   3.677   1.286   6.074 -2.7135 -0.5188  0.7337
 8198SOL    HW236057   3.666   1.308   6.221 -0.6801 -1.2029  0.7551
 8199SOL     OW36058   1.550   4.427   5.486  0.0730  0.4950 -0.7735
 8199SOL    HW136059   1.638   4.466   5.495  0.0348  0.3888  0.0344
 8199SOL    HW236060   1.568   4.349   5.538 -0.5585  1.4901  0.9220
 8200SOL     OW36061   2.415   3.355   5.303 -0.0118 -0.3212 -0.6224
 8200SOL    HW136062   2.353   3.287   5.276 -0.1325 -0.4991  0.0862
 8200SOL    HW236063   2.497   3.308   5.318 -0.9314 -1.7897 -0.1861
 8201SOL     OW36064   2.560   1.015   0.292  0.3608  0.7487 -0.0566
 8201SOL    HW136065   2.543   1.106   0.267  0.0752  0.6920 -0.0644
 8201SOL    HW236066   2.593   0.991   0.205  0.6040  0.2902  0.1616
 8202SOL     OW36067   1.684   0.890   4.157  0.4614 -0.1627  0.5292
 8202SOL    HW136068   1.777   0.912   4.167  1.2406 -1.9275 -3.0018
 8202SOL    HW236069   1.672   0.879   4.063 -0.9599  2.8155  0.3575
 8203SOL     OW36070   4.058   0.492   7.108 -0.0541  0.3061  0.2406
 8203SOL    HW136071   4.030   0.561   7.168 -0.9116 -0.2250  0.4391
 8203SOL    HW236072   4.068   0.410   7.157  1.6389  0.4195  0.0912
 8204SOL     OW36073   0.985   1.795  16.683  0.1190 -0.0712 -0.1258
 8204SOL    HW136074   1.038   1.735  16.630  0.6395  0.1915  0.1003
 8204SOL    HW236075   0.995   1.880  16.642  3.2410  0.3656  1.5669
 8205SOL     OW36076   1.912   1.061  11.903  0.0238 -0.2322 -0.2171
 8205SOL    HW136077   1.841   1.121  11.882  0.3267  0.1313 -0.2034
 8205SOL    HW236078   1.933   1.080  11.994 -0.4379 -0.6311 -0.0263
 8206SOL     OW36079   2.828   4.345  10.316 -0.2078  0.4699 -0.2053
 8206SOL    HW136080   2.800   4.436  10.331 -0.8988  0.2405 -0.0778
 8206SOL    HW236081   2.851   4.357  10.224 -0.5224 -0.2381 -0.3762
 8207SOL     OW36082   4.703   2.613   4.975 -0.2586  0.7487 -0.3968
 8207SOL    HW136083   0.046   2.548   4.992 -0.6018  0.7081  0.7968
 8207SOL    HW236084   0.023   2.667   4.911  0.5949 -0.0474 -0.4584
 8208SOL     OW36085   2.746   1.765  13.261 -0.5131 -0.2029 -0.0358
 8208SOL    HW136086   2.776   1.856  13.258 -1.1167  0.0144  0.5365
 8208SOL    HW236087   2.662   1.773  13.306  0.7982  3.0686  1.7973
 8209SOL     OW36088   4.607   2.054   3.955 -0.3138  0.8445 -0.3016
 8209SOL    HW136089   4.545   2.015   3.894  0.6962 -2.5640  0.8745
 8209SOL    HW236090   4.649   2.124   3.904 -1.8500  1.4381 -0.7425
 8210SOL     OW36091   1.408   1.400   1.453  0.3520 -0.0655 -0.0384
 8210SOL    HW136092   1.493   1.411   1.411  0.1132  0.6627 -0.3224
 8210SOL    HW236093   1.420   1.463   1.524  0.4143 -1.7654  1.4637
 8211SOL     OW36094   2.880   1.973   6.598  0.2424 -0.6069 -0.0197
 8211SOL    HW136095   2.931   1.910   6.648  2.6242 -1.6086 -3.6707
 8211SOL    HW236096   2.917   1.968   6.510 -0.2216 -1.1721 -0.1777
 8212SOL     OW36097   3.770   3.235   6.523 -0.1860  0.0492  0.0796
 8212SOL    HW136098   3.702   3.188   6.571  0.8632 -1.8572 -0.2956
 8212SOL    HW236099   3.845   3.218   6.580 -0.4710 -1.3814  0.0189
 8213SOL     OW36100   3.870   1.558   0.344  0.6134  0.0144 -0.2710
 8213SOL    HW136101   3.847   1.484   0.288  0.5329 -0.2336  0.0928
 8213SOL    HW236102   3.785   1.600   0.361 -0.7305 -3.1791  0.9282
 8214SOL     OW36103   1.505   3.262   4.885  0.1183 -0.6348 -0.1504
 8214SOL    HW136104   1.568   3.194   4.908  1.3177  0.6984  0.4869
 8214SOL    HW236105   1.426   3.212   4.864 -0.9495  1.1303 -0.3889
 8215SOL     OW36106   4.025   2.268  11.536 -0.9271  0.3168  0.0252
 8215SOL    HW136107   3.972   2.311  11.468  1.8709  1.5356 -1.3581
 8215SOL    HW236108   4.072   2.350  11.549 -0.9038 -0.0125  2.0161
 8216SOL     OW36109   4.663   3.291   9.221  0.3242 -0.9725  0.2200
 8216SOL    HW136110   0.007   3.329   9.167  1.0981 -0.3473  1.6436
 8216SOL    HW236111   4.593   3.356   9.230  2.3116  1.0004  1.5777
 8217SOL     OW36112   4.500   1.468  13.826 -0.5914  0.0708  1.0492
 8217SOL    HW136113   4.562   1.408  13.785 -1.2039  0.7982 -0.9132
 8217SOL    HW236114   4.421   1.449  13.775 -0.6273  1.6635  0.5094
 8218SOL     OW36115   2.469   0.297   6.586 -0.1051  0.5067 -0.2327
 8218SOL    HW136116   2.559   0.327   6.571 -0.1606  1.0994  0.6082
 8218SOL    HW236117   2.425   0.325   6.506 -0.4591 -1.8610 -0.8452
 8219SOL     OW36118   0.070   1.784  16.092 -0.5218 -0.3427 -0.6670
 8219SOL    HW136119   0.135   1.851  16.115 -1.0812 -0.3555  0.9035
 8219SOL    HW236120   0.117   1.743  16.019 -0.5867 -1.5325 -0.0399
 8220SOL     OW36121   4.455   0.863   3.346  0.3021  0.3588 -0.1414
 8220SOL    HW136122   4.483   0.877   3.437 -2.0711  1.1691  0.4529
 8220SOL    HW236123   4.362   0.885   3.352 -0.2888 -2.7239  1.9278
 8221SOL     OW36124   4.672   2.372   4.020 -0.0241  0.7247 -0.3615
 8221SOL    HW136125   4.644   2.336   3.936 -1.4319  0.4330  0.2230
 8221SOL    HW236126   4.624   2.455   4.017  2.5947  2.3493  1.9524
 8222SOL     OW36127   2.625   0.511  13.977  0.1186  0.1266 -0.4525
 8222SOL    HW136128   2.636   0.606  13.970  3.8199 -0.2133  1.2142
 8222SOL    HW236129   2.690   0.488  14.043 -0.4371  0.3674  0.1815
 8223SOL     OW36130   1.160   2.916   8.334  0.9014 -0.1826 -0.2542
 8223SOL    HW136131   1.068   2.910   8.358  1.6127 -0.3278  2.5026
 8223SOL    HW236132   1.182   2.950   8.421 -1.6481 -1.4188  0.8820
 8224SOL     OW36133   3.671   4.602  13.818 -0.4903  0.4056  0.1680
 8224SOL    HW136134   3.699   4.596  13.727 -0.0277  1.8717  0.2058
 8224SOL    HW236135   3.744   4.569  13.872 -0.3182  2.2137  1.0469
 8225SOL     OW36136   3.822   3.212   5.729 -0.5001 -0.4262  0.3055
 8225SOL    HW136137   3.743   3.159   5.742 -0.8433 -0.3322 -1.3480
 8225SOL    HW236138   3.893   3.155   5.700 -0.6362 -0.4651  0.0500
 8226SOL     OW36139   0.013   3.532  13.071  0.4669  0.4579 -0.7166
 8226SOL    HW136140   0.068   3.464  13.112  1.7771  2.6458  1.1551
 8226SOL    HW236141   4.648   3.517  13.099  0.5321  0.4068 -0.5289
 8227SOL     OW36142   4.008   3.849  16.755  0.2801  0.5654 -0.6706
 8227SOL    HW136143   3.917   3.849  16.727  0.6945  0.6177 -2.0490
 8227SOL    HW236144   4.004   3.888  16.842  0.0839 -1.4770  0.2393
 8228SOL     OW36145   3.240   3.416   5.947 -0.5288  0.1268  0.4858
 8228SOL    HW136146   3.288   3.414   6.030 -2.2362 -1.1675  1.4508
 8228SOL    HW236147   3.291   3.350   5.901 -0.9270 -0.8428  1.4291
 8229SOL     OW36148   1.417   1.475   9.631  0.2986  0.3237  0.3262
 8229SOL    HW136149   1.359   1.551   9.640 -1.6767 -1.3014  1.3124
 8229SOL    HW236150   1.473   1.524   9.571 -0.8819 -0.1221 -1.1389
 8230SOL     OW36151   1.095   1.222   7.806 -0.9861  0.6372 -0.1431
 8230SOL    HW136152   1.101   1.193   7.897 -2.4284  0.2685 -0.1656
 8230SOL    HW236153   1.173   1.272   7.786  0.0569 -1.1010 -0.3735
 8231SOL     OW36154   3.984   3.685  13.084 -0.0223  0.2044  0.1781
 8231SOL    HW136155   3.961   3.769  13.045 -4.1248 -0.8282  0.3510
 8231SOL    HW236156   3.926   3.627  13.033  1.1774  0.7143 -1.7541
 8232SOL     OW36157   0.213   1.534   3.462 -0.0248  0.1608 -0.5383
 8232SOL    HW136158   0.286   1.581   3.500 -0.5769 -0.0814  0.8286
 8232SOL    HW236159   0.158   1.551   3.539 -1.4019  1.1621 -1.7329
 8233SOL     OW36160   1.616   2.573   3.043  0.4625 -0.3029  0.0401
 8233SOL    HW136161   1.552   2.501   3.040  2.8506 -2.3440 -2.1584
 8233SOL    HW236162   1.563   2.643   3.081  1.4566  0.2838  0.3348
 8234SOL     OW36163   2.110   1.955   6.249  0.6638  0.5142 -0.4635
 8234SOL    HW136164   2.139   2.046   6.256  1.7591  0.1038  0.4535
 8234SOL    HW236165   2.060   1.944   6.168 -1.2639  0.9557  0.6851
 8235SOL     OW36166   1.633   0.307   7.958 -0.0076  0.0573  0.1157
 8235SOL    HW136167   1.667   0.365   8.027  1.7182  0.4034 -1.0224
 8235SOL    HW236168   1.693   0.233   7.972  0.6845  0.4967 -0.5314
 8236SOL     OW36169   1.562   0.374   7.447  0.0359  0.1906 -0.2546
 8236SOL    HW136170   1.651   0.362   7.413  0.5046  2.8803  0.0790
 8236SOL    HW236171   1.586   0.406   7.534  0.4231  0.9072 -0.6219
 8237SOL     OW36172   2.236   4.458  11.289  0.6235  0.5972 -0.1863
 8237SOL    HW136173   2.233   4.494  11.377  1.7388  0.7437 -0.2121
 8237SOL    HW236174   2.259   4.538  11.241 -0.1913  0.6502 -0.4878
 8238SOL     OW36175   0.264   0.815   0.686  0.1331 -0.2600  0.1423
 8238SOL    HW136176   0.300   0.773   0.764 -0.4381  0.2260  0.6593
 8238SOL    HW236177   0.174   0.834   0.710  0.4952 -0.4267  1.6283
 8239SOL     OW36178   3.225   2.043   6.554 -0.0879  0.5650 -0.2011
 8239SOL    HW136179   3.206   2.131   6.586 -0.0523  0.3287  0.4655
 8239SOL    HW236180   3.303   2.030   6.607 -0.3995 -2.1493 -0.4233
 8240SOL     OW36181   1.315   4.408   9.488 -0.2789  0.1621 -0.0929
 8240SOL    HW136182   1.329   4.501   9.507 -0.4977  1.0003 -3.8693
 8240SOL    HW236183   1.287   4.418   9.396 -2.0183 -0.3238  0.3801
 8241SOL     OW36184   2.011   3.776   6.763 -0.4941 -0.6489 -0.3398
 8241SOL    HW136185   1.934   3.778   6.820 -0.2655 -2.2175  0.0180
 8241SOL    HW236186   2.073   3.767   6.835  0.0009 -1.2652 -0.8414
 8242SOL     OW36187   1.305   2.629   2.936  0.0838  0.8744  0.1571
 8242SOL    HW136188   1.272   2.575   2.865 -1.3335  2.8246 -0.6710
 8242SOL    HW236189   1.370   2.686   2.895  1.7338 -0.5415  0.7981
 8243SOL     OW36190   0.913   4.299  15.404 -0.2898  0.6961 -0.0911
 8243SOL    HW136191   0.971   4.234  15.364  2.5963  0.5174  4.3676
 8243SOL    HW236192   0.936   4.296  15.497 -1.7933  0.1543  0.2719
 8244SOL     OW36193   3.240   4.622   3.702 -0.2304 -0.3997 -0.4567
 8244SOL    HW136194   3.187   4.573   3.639 -0.5548 -0.7714  0.1168
 8244SOL    HW236195   3.181   4.662   3.766 -1.0299 -0.0959 -1.3827
 8245SOL     OW36196   0.298   2.784   2.470  0.3840  0.7728  0.5003
 8245SOL    HW136197   0.222   2.743   2.428 -2.1687  1.3733  4.5100
 8245SOL    HW236198   0.260   2.872   2.463  0.3232  0.8602  1.9490
 8246SOL     OW36199   3.806   3.350   3.162  0.1436 -0.2045 -0.4562
 8246SOL    HW136200   3.826   3.266   3.202  2.8175 -0.2996 -1.9828
 8246SOL    HW236201   3.742   3.328   3.094 -1.5304  0.6037  0.8470
 8247SOL     OW36202   3.565   1.216   3.730  0.3131  0.2856  0.0483
 8247SOL    HW136203   3.574   1.181   3.819 -0.7814 -0.4906 -0.1471
 8247SOL    HW236204   3.559   1.132   3.685 -1.0527  0.4987 -0.1652
 8248SOL     OW36205   1.899   1.367   3.297 -0.1083  0.4034  0.4400
 8248SOL    HW136206   1.873   1.421   3.371 -0.8607 -0.8329  1.0909
 8248SOL    HW236207   1.843   1.398   3.226 -1.1196 -0.3278  0.9111
 8249SOL     OW36208   2.661   2.235   7.626  0.1201  0.5031 -0.1936
 8249SOL    HW136209   2.693   2.316   7.586 -0.0210  0.8593  0.4141
 8249SOL    HW236210   2.578   2.263   7.663  0.1551 -1.6872  1.5011
 8250SOL     OW36211   2.580   0.485   5.484 -0.4926  0.1715  0.3708
 8250SOL    HW136212   2.673   0.472   5.465 -0.6123 -3.5537  2.3003
 8250SOL    HW236213   2.559   0.392   5.488 -1.5343  0.2717 -2.6213
 8251SOL     OW36214   1.124   1.846   1.423  0.0387 -0.0766 -0.1428
 8251SOL    HW136215   1.212   1.874   1.398  0.2775 -0.9923 -0.3277
 8251SOL    HW236216   1.141   1.858   1.516 -1.0096  1.1212 -0.0935
 8252SOL     OW36217   3.852   0.657  17.525  0.9040  0.8977  0.2311
 8252SOL    HW136218   3.871   0.564  17.516  0.2855  0.6520  1.4849
 8252SOL    HW236219   3.911   0.664  17.601  1.6336 -0.7872 -0.1757
 8253SOL     OW36220   0.273   2.027   2.900  0.1116  0.3884 -0.1953
 8253SOL    HW136221   0.266   2.031   2.804 -0.2213 -0.4259 -0.1985
 8253SOL    HW236222   0.362   2.059   2.917  0.2162  0.7931 -1.4471
 8254SOL     OW36223   1.661   4.309   8.261  0.0550 -0.2323  0.0187
 8254SOL    HW136224   1.753   4.303   8.234  0.3789 -0.3936  1.1832
 8254SOL    HW236225   1.641   4.215   8.261 -4.4863  0.7404  1.0023
 8255SOL     OW36226   4.052   3.649   4.323  0.1909  0.3390 -0.0026
 8255SOL    HW136227   3.993   3.640   4.247  1.8293 -0.1471 -1.2122
 8255SOL    HW236228   4.029   3.571   4.374  1.4033 -0.7249 -1.1028
 8256SOL     OW36229   0.503   3.402  17.592  0.8970 -0.4741  0.0302
 8256SOL    HW136230   0.504   3.355  17.508 -2.3833  0.7602 -0.7145
 8256SOL    HW236231   0.412   3.430  17.585  0.8718 -1.3301 -3.1078
 8257SOL     OW36232   0.310   3.007   7.876  0.8093  0.2385  0.2146
 8257SOL    HW136233   0.312   3.091   7.922 -2.2611 -0.4945  1.7244
 8257SOL    HW236234   0.314   3.037   7.785  2.2009 -3.2999 -0.9025
 8258SOL     OW36235   2.496   2.530   5.710  0.3093 -0.0077  0.6246
 8258SOL    HW136236   2.442   2.502   5.784  0.0364 -1.2146 -0.0380
 8258SOL    HW236237   2.433   2.583   5.661  0.3766 -0.9849 -0.5359
 8259SOL     OW36238   3.811   0.662  15.205  0.3251 -0.9840  0.0016
 8259SOL    HW136239   3.726   0.635  15.240  0.0031  0.2035  0.1056
 8259SOL    HW236240   3.785   0.735  15.149 -0.6878 -0.9457  0.5220
 8260SOL     OW36241   3.073   2.776   5.923 -0.6347  0.5286  0.9267
 8260SOL    HW136242   3.127   2.843   5.881 -2.3865  1.6793  0.5060
 8260SOL    HW236243   3.019   2.827   5.983 -0.4274  2.9425 -0.9467
 8261SOL     OW36244   2.616   1.198   9.277  0.0591 -0.0075  0.2431
 8261SOL    HW136245   2.532   1.203   9.323  0.3244  1.0676  0.6099
 8261SOL    HW236246   2.637   1.105   9.268 -0.4826 -0.4108  3.2636
 8262SOL     OW36247   2.976   3.105   4.972 -0.9838 -0.3005  0.0704
 8262SOL    HW136248   3.004   3.063   4.891 -1.1278  1.3169 -0.8286
 8262SOL    HW236249   2.941   3.035   5.028 -2.9469  1.5328  1.1282
 8263SOL     OW36250   2.052   0.063   6.719 -0.2778 -0.3149 -0.1322
 8263SOL    HW136251   2.029   0.124   6.648 -1.8560 -0.0271  0.6225
 8263SOL    HW236252   2.126   0.013   6.684 -0.7590 -0.8808 -0.3513
 8264SOL     OW36253   2.166   2.484   2.744 -0.4420 -0.0255  0.2440
 8264SOL    HW136254   2.235   2.418   2.738  0.5823  1.0039  0.5548
 8264SOL    HW236255   2.212   2.538   2.680  1.1543  0.2230  1.5900
 8265SOL     OW36256   2.412   0.000   8.081 -0.0485 -0.4279 -0.1985
 8265SOL    HW136257   2.321   0.021   8.060 -0.3398 -1.0741  0.4320
 8265SOL    HW236258   2.455   0.029   8.000  0.7378 -1.3373 -0.1035
 8266SOL     OW36259   1.138   1.882  13.921  0.5246 -0.5348 -0.0893
 8266SOL    HW136260   1.145   1.789  13.897  0.8068  0.1299 -2.5952
 8266SOL    HW236261   1.058   1.913  13.880  0.6478 -0.9766 -0.6605
 8267SOL     OW36262   2.153   0.321   0.058 -0.3862  0.1605  0.2555
 8267SOL    HW136263   2.217   0.365   0.114  0.6034 -1.5665  0.4814
 8267SOL    HW236264   2.185   0.345  17.674  0.2716  0.2050  0.5084
 8268SOL     OW36265   1.772   1.568   8.911 -0.7234  0.9767  0.5227
 8268SOL    HW136266   1.737   1.481   8.928  0.3401  0.6011  0.7750
 8268SOL    HW236267   1.692   1.621   8.911 -1.7323 -0.4889  3.0563
 8269SOL     OW36268   1.105   0.494  16.737 -0.0902 -0.3618  0.0575
 8269SOL    HW136269   1.064   0.409  16.725  0.5252 -0.2283 -3.0090
 8269SOL    HW236270   1.077   0.540  16.658  0.8738  1.7868  0.9527
 8270SOL     OW36271   0.180   0.032   2.808  0.0542 -0.4159 -0.0112
 8270SOL    HW136272   0.240   0.072   2.745 -0.2471  0.5898  0.3392
 8270SOL    HW236273   0.243   0.024   2.880  1.3316  1.6774 -0.8813
 8271SOL     OW36274   2.035   1.144   3.171  0.6202 -0.2452 -0.8446
 8271SOL    HW136275   1.988   1.225   3.191 -0.9557 -1.1777 -0.7554
 8271SOL    HW236276   2.103   1.190   3.121  1.6581 -1.6371 -0.7138
 8272SOL     OW36277   1.651   0.922   7.595 -0.0644  0.2306  0.6188
 8272SOL    HW136278   1.670   1.015   7.610 -3.0001  0.6881  1.7049
 8272SOL    HW236279   1.555   0.932   7.591  0.1014  1.1605 -1.1355
 8273SOL     OW36280   2.955   1.999   1.676  0.2272 -0.1032 -0.2354
 8273SOL    HW136281   3.024   2.055   1.711 -0.1760  0.2596 -0.0291
 8273SOL    HW236282   2.969   1.915   1.721  0.2005  0.4865  0.8703
 8274SOL     OW36283   1.113   3.218   9.915 -0.4050  0.8209 -0.7992
 8274SOL    HW136284   1.083   3.127   9.912  0.6539  0.5148 -1.9413
 8274SOL    HW236285   1.152   3.209  10.002 -2.4636  0.0909  0.0424
 8275SOL     OW36286   0.992   2.682   1.900 -0.3131 -0.6261  0.3068
 8275SOL    HW136287   0.998   2.751   1.834  0.1987 -0.1970  0.8026
 8275SOL    HW236288   1.015   2.730   1.979  1.0665 -2.6323  1.1114
 8276SOL     OW36289   1.212   4.040  10.569 -0.4476 -0.1689  0.1756
 8276SOL    HW136290   1.174   3.984  10.637 -1.2608 -0.1487 -0.2625
 8276SOL    HW236291   1.282   4.083  10.619  0.6149 -0.3378 -1.1561
 8277SOL     OW36292   4.397   2.131   4.763  0.0965 -0.1505  0.1245
 8277SOL    HW136293   4.381   2.142   4.669  0.8406  1.2980  0.1734
 8277SOL    HW236294   4.324   2.181   4.800  0.9103 -1.0306  2.9785
 8278SOL     OW36295   1.345   1.137   3.913 -0.0666 -0.0938 -0.0802
 8278SOL    HW136296   1.292   1.196   3.860 -0.0801 -1.0172 -1.0983
 8278SOL    HW236297   1.307   1.055   3.880  2.0935 -0.5100 -1.5798
 8279SOL     OW36298   0.146   3.805   7.627  0.7562  0.0148  0.7542
 8279SOL    HW136299   0.117   3.888   7.590  0.0094 -1.3016 -1.5972
 8279SOL    HW236300   0.084   3.795   7.700 -0.2370  0.1589 -0.0651
 8280SOL     OW36301   2.427   3.976   2.701 -0.2808 -0.1834 -0.6315
 8280SOL    HW136302   2.378   3.976   2.783 -0.4532  0.2981 -0.7324
 8280SOL    HW236303   2.439   3.884   2.676 -0.7183 -0.0181 -1.4678
 8281SOL     OW36304   0.398   0.711  13.297 -0.4923 -0.9971 -0.1663
 8281SOL    HW136305   0.430   0.772  13.230  2.1094  0.7668  2.6428
 8281SOL    HW236306   0.473   0.652  13.306  0.5105  0.2002 -0.5420
 8282SOL     OW36307   2.376   1.949   8.093 -0.6888  0.2917 -0.4388
 8282SOL    HW136308   2.297   1.961   8.146 -1.0591 -0.7886 -0.7574
 8282SOL    HW236309   2.338   1.905   8.018 -1.2511 -2.7136  1.6068
 8283SOL     OW36310   4.379   3.753   1.771 -0.3467 -0.1985 -0.2889
 8283SOL    HW136311   4.320   3.683   1.744 -2.1804  0.2406  2.6169
 8283SOL    HW236312   4.363   3.758   1.865  2.5989  0.6341  0.1670
 8284SOL     OW36313   2.786   2.490   8.707 -0.4960  0.2290  0.2671
 8284SOL    HW136314   2.699   2.530   8.716 -0.3900  0.0219  2.1730
 8284SOL    HW236315   2.843   2.563   8.731 -0.0687 -0.2814  0.8145
 8285SOL     OW36316   2.120   1.349   7.452  0.2583 -0.1528 -0.1171
 8285SOL    HW136317   2.214   1.362   7.467 -0.2067  1.4705  1.3949
 8285SOL    HW236318   2.118   1.278   7.388  0.9063 -1.6212  1.4879
 8286SOL     OW36319   4.648   0.501   6.493  0.1445  0.1831 -0.4191
 8286SOL    HW136320   4.639   0.474   6.585  2.5040 -1.8337 -0.7765
 8286SOL    HW236321   4.704   0.578   6.505 -0.1842  0.4106 -0.3722
 8287SOL     OW36322   0.993   2.132  14.819 -0.0894 -0.2420  0.2394
 8287SOL    HW136323   0.941   2.052  14.810 -0.5094  0.2803 -2.0156
 8287SOL    HW236324   0.932   2.205  14.809 -0.3895 -0.5002  0.1933
 8288SOL     OW36325   4.501   2.707  16.661  0.0603 -0.0420 -0.2031
 8288SOL    HW136326   4.508   2.611  16.658  1.7194  0.0977 -0.3220
 8288SOL    HW236327   4.565   2.722  16.730  0.1428  0.4269 -0.3869
 8289SOL     OW36328   1.179   4.100  16.416 -0.1492  0.0317  0.0028
 8289SOL    HW136329   1.232   4.161  16.467  0.5840  0.5956 -1.4330
 8289SOL    HW236330   1.243   4.032  16.393  0.3798  1.8139 -3.8719
 8290SOL     OW36331   4.459   3.935   6.520 -0.3797 -0.0409 -0.2646
 8290SOL    HW136332   4.494   3.873   6.585 -1.1262  1.2380  1.3568
 8290SOL    HW236333   4.536   3.990   6.508 -0.1220 -0.5262 -0.8622
 8291SOL     OW36334   4.702   0.941   5.941 -0.5190 -0.0183 -0.0416
 8291SOL    HW136335   4.653   0.861   5.921 -0.8350  1.1461 -3.9746
 8291SOL    HW236336   0.013   0.944   5.852  1.2802 -3.3923  0.6012
 8292SOL     OW36337   2.435   2.997   3.750  0.2847  0.1157 -0.3778
 8292SOL    HW136338   2.487   2.922   3.718 -2.5212 -1.0067 -2.2855
 8292SOL    HW236339   2.399   3.021   3.665 -1.3889  0.5160  0.4447
 8293SOL     OW36340   2.252   2.379  16.759 -0.2576  0.1063  0.2141
 8293SOL    HW136341   2.309   2.366  16.684  0.4107 -0.4608  0.8269
 8293SOL    HW236342   2.309   2.413  16.828 -1.2318  1.9694  0.1063
 8294SOL     OW36343   1.217   3.258   6.021 -0.0143  0.5057 -0.1984
 8294SOL    HW136344   1.209   3.163   6.007  0.7526 -0.0117  2.8707
 8294SOL    HW236345   1.241   3.280   5.931 -0.5638 -0.3649 -0.5624
 8295SOL     OW36346   3.502   1.133   5.514  0.1170  0.6429 -0.7136
 8295SOL    HW136347   3.540   1.160   5.430  0.9428 -0.6368 -0.7415
 8295SOL    HW236348   3.491   1.043   5.486 -1.6244  0.7761 -0.4617
 8296SOL     OW36349   1.466   4.126   5.547 -0.3140  0.6768  0.0899
 8296SOL    HW136350   1.555   4.130   5.584 -1.1607  0.6568  2.1270
 8296SOL    HW236351   1.414   4.169   5.614 -0.9860  2.7461 -1.7641
 8297SOL     OW36352   2.739   0.684   7.170  0.5601 -0.2069 -0.3135
 8297SOL    HW136353   2.777   0.753   7.115  0.8056  1.1291  1.5442
 8297SOL    HW236354   2.656   0.671   7.125  0.9867  0.1017 -1.2026
 8298SOL     OW36355   2.598   3.512   2.966 -0.3477 -0.3854 -0.1725
 8298SOL    HW136356   2.627   3.572   2.898 -0.2662  4.2404  3.9997
 8298SOL    HW236357   2.682   3.481   2.999 -0.8180  1.0190  2.2931
 8299SOL     OW36358   2.166   1.508   9.637  0.0021  0.0727  0.0391
 8299SOL    HW136359   2.252   1.485   9.602 -0.4161  0.3517 -1.1544
 8299SOL    HW236360   2.182   1.489   9.730  1.5559 -0.3966 -0.3331
 8300SOL     OW36361   0.216   2.095   8.389  0.2328  0.1999  0.7195
 8300SOL    HW136362   0.278   2.127   8.455  1.2549  1.9487 -1.0874
 8300SOL    HW236363   0.157   2.169   8.372  0.2302  0.2949  1.1209
 8301SOL     OW36364   3.163   2.517   0.317 -0.1526  0.1309 -0.2152
 8301SOL    HW136365   3.194   2.593   0.367 -0.6569  0.1476  0.0744
 8301SOL    HW236366   3.130   2.562   0.240  2.0539  1.8265 -0.1907
 8302SOL     OW36367   1.364   1.664   3.710  0.1180 -0.3871 -0.6756
 8302SOL    HW136368   1.301   1.603   3.749 -0.9485  1.0487 -0.1623
 8302SOL    HW236369   1.303   1.702   3.647  0.8287 -0.8731 -1.6477
 8303SOL     OW36370   4.709   0.371   6.264 -0.1449  0.1382  0.2018
 8303SOL    HW136371   4.679   0.414   6.344 -1.4775  0.2111 -0.3252
 8303SOL    HW236372   0.077   0.374   6.280 -0.3078 -0.4844  1.2761
 8304SOL     OW36373   0.247   3.951   6.606  0.8500  0.0094  0.0906
 8304SOL    HW136374   0.238   3.892   6.531  0.8671 -1.3502  1.1565
 8304SOL    HW236375   0.338   3.974   6.584 -0.0612  1.9658 -1.6325
 8305SOL     OW36376   2.124   2.104   0.904 -0.2495 -0.0875  0.6355
 8305SOL    HW136377   2.140   2.165   0.976 -1.1162 -0.9318  1.5525
 8305SOL    HW236378   2.154   2.165   0.837 -1.1610 -1.0782 -0.6568
 8306SOL     OW36379   4.191   1.161  13.757  0.5057 -0.9048 -0.1424
 8306SOL    HW136380   4.223   1.141  13.845  2.9547  0.5943 -0.7048
 8306SOL    HW236381   4.189   1.256  13.752 -2.0482 -0.8919  1.0606
 8307SOL     OW36382   3.894   0.261   6.488  0.0458 -0.3079  0.3577
 8307SOL    HW136383   3.876   0.176   6.447 -0.4412  0.3276 -0.7526
 8307SOL    HW236384   3.837   0.272   6.564 -0.8692 -0.5693 -0.2884
 8308SOL     OW36385   1.442   4.327   4.785  0.0619  0.0856 -0.1785
 8308SOL    HW136386   1.524   4.345   4.739  0.5984 -2.8086 -0.3738
 8308SOL    HW236387   1.456   4.368   4.870 -0.4274 -1.1112  0.4739
 8309SOL     OW36388   2.280   4.033   7.502  0.1291 -0.0083 -0.3364
 8309SOL    HW136389   2.290   3.947   7.460 -0.0503 -0.7407  1.1099
 8309SOL    HW236390   2.317   4.012   7.587  2.7077 -1.2025 -1.7644
 8310SOL     OW36391   0.366   2.196   9.300  0.8026  0.3926  0.9285
 8310SOL    HW136392   0.368   2.221   9.393  1.2376  1.7835  0.5345
 8310SOL    HW236393   0.386   2.102   9.301 -0.3364  0.1433  0.4973
 8311SOL     OW36394   1.336   3.066  16.957 -0.8008  0.2951  0.6944
 8311SOL    HW136395   1.258   3.016  16.980 -0.0242 -1.5263 -0.6381
 8311SOL    HW236396   1.317   3.151  16.996 -0.8939  0.9519 -0.7726
 8312SOL     OW36397   0.280   2.294   6.385  0.4212  0.3642 -0.3104
 8312SOL    HW136398   0.330   2.306   6.304  1.8895 -0.6247  0.4387
 8312SOL    HW236399   0.270   2.200   6.399 -0.0832  0.5457  0.5525
 8313SOL     OW36400   4.090   0.820   5.911  0.0689 -0.0266  0.2191
 8313SOL    HW136401   4.089   0.890   5.976 -1.2429  1.4316 -1.3810
 8313SOL    HW236402   4.165   0.850   5.859  0.5412 -1.5390  0.0207
 8314SOL     OW36403   0.568   1.650  13.029 -0.3689  0.2285  0.4752
 8314SOL    HW136404   0.607   1.704  12.961  0.9336 -1.3265 -0.0071
 8314SOL    HW236405   0.623   1.572  13.034  1.9303  1.7776 -0.7709
 8315SOL     OW36406   3.178   3.305   6.274 -0.0555 -0.1911 -0.4981
 8315SOL    HW136407   3.223   3.276   6.353  0.3544  0.9975 -0.3013
 8315SOL    HW236408   3.162   3.398   6.288 -1.8024 -0.4842 -0.5743
 8316SOL     OW36409   2.226   2.993  12.698 -0.0458  0.3029 -0.3376
 8316SOL    HW136410   2.240   2.901  12.718  1.2354  0.4098 -0.7896
 8316SOL    HW236411   2.155   2.981  12.634 -0.7026  0.7372  0.3122
 8317SOL     OW36412   0.086   3.987   3.529 -0.4604 -0.4148  0.1409
 8317SOL    HW136413   0.128   3.956   3.449  2.0497  1.0918  0.8655
 8317SOL    HW236414   0.102   3.916   3.591  2.3018  0.2162  0.1359
 8318SOL     OW36415   2.389   3.347  13.608 -0.0036 -0.1987 -0.1304
 8318SOL    HW136416   2.429   3.346  13.521 -1.8136  3.2424 -0.9955
 8318SOL    HW236417   2.297   3.357  13.583 -0.2981 -1.5623  0.3836
 8319SOL     OW36418   1.487   2.394   6.949 -0.1064 -0.2485  0.6002
 8319SOL    HW136419   1.408   2.426   6.904  0.1816  0.1840  0.3994
 8319SOL    HW236420   1.455   2.335   7.017 -1.4828  1.2200  1.2435
 8320SOL     OW36421   1.924   4.330   4.799  0.0256 -0.3819 -0.6212
 8320SOL    HW136422   1.981   4.302   4.727  0.0356  1.4335 -1.3242
 8320SOL    HW236423   1.919   4.250   4.852 -0.0870  0.3239  0.4344
 8321SOL     OW36424   4.277   1.380   1.305 -0.4278  0.0264  0.1436
 8321SOL    HW136425   4.307   1.430   1.229 -1.1553  1.2217  0.6340
 8321SOL    HW236426   4.295   1.288   1.291 -1.1270  0.0073 -0.6623
 8322SOL     OW36427   4.001   2.018   4.676  0.0967  0.2538  0.0447
 8322SOL    HW136428   3.983   2.079   4.605  1.0535  0.7299  0.2061
 8322SOL    HW236429   4.097   2.018   4.678  0.1479  0.0663 -2.1373
 8323SOL     OW36430   1.971   0.830  11.651  0.2478 -0.4131  0.1556
 8323SOL    HW136431   1.932   0.878  11.724  0.6744 -2.3460  1.6636
 8323SOL    HW236432   2.064   0.828  11.672  0.0996 -1.9108  0.6676
 8324SOL     OW36433   0.434   0.166   8.155  0.3397  0.2361  0.3011
 8324SOL    HW136434   0.508   0.206   8.110  0.5223  0.2521  0.6106
 8324SOL    HW236435   0.435   0.080   8.113 -1.7263  0.5765 -0.4412
 8325SOL     OW36436   0.230   1.985   3.473 -0.2607 -0.1235  0.5825
 8325SOL    HW136437   0.313   1.943   3.449 -1.2996 -1.1137 -1.3125
 8325SOL    HW236438   0.176   1.967   3.396  0.1502  1.8358 -0.1546
 8326SOL     OW36439   2.070   2.293  17.088  0.2909  0.3462  0.2160
 8326SOL    HW136440   2.129   2.367  17.101 -0.6506  1.3934 -1.5531
 8326SOL    HW236441   2.078   2.278  16.994 -0.8307 -0.6926  0.2837
 8327SOL     OW36442   0.140   4.545   7.684  0.3799  0.0629 -0.3971
 8327SOL    HW136443   0.154   4.450   7.683 -1.1672 -0.1722  0.1592
 8327SOL    HW236444   0.047   4.550   7.660  0.2997  2.2608  0.3289
 8328SOL     OW36445   4.093   1.995   5.678 -0.0330 -0.2448 -0.7127
 8328SOL    HW136446   4.036   1.945   5.620  0.5442 -0.9552 -0.6631
 8328SOL    HW236447   4.178   1.984   5.636  0.6515 -2.3919  1.2766
 8329SOL     OW36448   2.198   3.070   4.131  0.0936  0.2586 -0.1568
 8329SOL    HW136449   2.252   3.146   4.155  1.2409 -0.4910 -0.3298
 8329SOL    HW236450   2.110   3.103   4.148 -0.2955  0.2023 -2.1555
 8330SOL     OW36451   4.471   1.528   2.575 -0.2970  0.0495  0.1621
 8330SOL    HW136452   4.394   1.585   2.576  1.3166  2.1748  2.6439
 8330SOL    HW236453   4.433   1.443   2.552 -1.1790  0.1816  1.1427
 8331SOL     OW36454   1.501   1.121   0.446  0.1332 -0.1477 -0.3679
 8331SOL    HW136455   1.533   1.119   0.535  0.3216  1.9642 -0.3725
 8331SOL    HW236456   1.573   1.173   0.410  1.3198  0.1553  2.4774
 8332SOL     OW36457   0.897   0.379   8.198  0.5298 -0.1547  0.4244
 8332SOL    HW136458   0.971   0.390   8.138 -0.0566 -0.1955 -0.3113
 8332SOL    HW236459   0.951   0.357   8.273 -0.5822 -2.6415  0.5184
 8333SOL     OW36460   2.358   4.138  14.013 -1.0427  0.1420  0.7493
 8333SOL    HW136461   2.409   4.147  13.932 -1.4309 -0.2437  0.4591
 8333SOL    HW236462   2.379   4.052  14.050  1.7124 -0.1135 -1.3909
 8334SOL     OW36463   1.022   0.301   0.841  0.2622 -0.3757  0.1464
 8334SOL    HW136464   1.042   0.392   0.818  0.1678 -0.5522 -0.6231
 8334SOL    HW236465   0.997   0.262   0.758  1.0406 -3.3329  1.2973
 8335SOL     OW36466   1.885   2.209   7.144 -0.2473 -0.1577 -0.0556
 8335SOL    HW136467   1.925   2.291   7.115 -0.6310 -0.1901 -0.6782
 8335SOL    HW236468   1.961   2.151   7.149  0.2059  0.3694 -0.8273
 8336SOL     OW36469   1.226   1.425   7.391  0.4530 -0.0754  0.3772
 8336SOL    HW136470   1.277   1.503   7.370 -0.5323  0.8065  1.2346
 8336SOL    HW236471   1.296   1.359   7.395 -1.0734 -1.9209 -3.4872
 8337SOL     OW36472   3.536   1.740   6.382  0.2887 -0.5713  0.4077
 8337SOL    HW136473   3.567   1.740   6.473 -0.0911 -1.4822  0.5362
 8337SOL    HW236474   3.492   1.655   6.375  0.4455 -0.4877 -1.4408
 8338SOL     OW36475   3.381   3.992   5.562  0.0104 -0.3034  0.3828
 8338SOL    HW136476   3.344   3.925   5.505  1.6476 -0.6130 -0.3324
 8338SOL    HW236477   3.422   3.943   5.634 -1.2389 -0.5992  0.8851
 8339SOL     OW36478   1.720   2.621  11.243 -0.1070  0.4712 -0.2756
 8339SOL    HW136479   1.806   2.655  11.216  0.5956 -1.3592 -0.3150
 8339SOL    HW236480   1.727   2.541  11.296 -2.0039 -0.4717 -1.4667
 8340SOL     OW36481   0.384   4.047  16.316  0.4947  0.3919 -0.2846
 8340SOL    HW136482   0.337   3.974  16.277 -1.4905  0.9238  1.0651
 8340SOL    HW236483   0.324   4.122  16.313  1.4916  1.2037 -0.0568
 8341SOL     OW36484   4.431   1.205   6.001 -0.6411 -0.2911 -0.5948
 8341SOL    HW136485   4.451   1.269   5.933 -1.1546 -1.0311 -1.4364
 8341SOL    HW236486   4.338   1.224   6.014 -0.3203  0.5456  0.4384
 8342SOL     OW36487   1.173   2.448   8.407  0.5925  0.0477  0.0490
 8342SOL    HW136488   1.105   2.516   8.404  0.6744  0.2853  3.4989
 8342SOL    HW236489   1.134   2.391   8.473 -1.7813  1.6627  0.0578
 8343SOL     OW36490   3.687   1.402   5.418 -0.5523  0.0593 -0.2116
 8343SOL    HW136491   3.721   1.373   5.503  2.9348 -1.8436 -2.2111
 8343SOL    HW236492   3.736   1.344   5.359 -1.8102 -0.6036 -0.6140
 8344SOL     OW36493   3.166   1.462  13.713 -0.0244  0.4200  0.5176
 8344SOL    HW136494   3.107   1.528  13.678 -0.8657 -1.6280 -1.9561
 8344SOL    HW236495   3.247   1.511  13.719  0.5607 -0.0022 -3.7806
 8345SOL     OW36496   1.149   1.295  14.798  0.4458 -0.2769  0.3341
 8345SOL    HW136497   1.233   1.327  14.832 -0.7384  1.8080  1.2885
 8345SOL    HW236498   1.173   1.207  14.768  2.3880  0.0183  1.0641
 8346SOL     OW36499   1.743   0.196   4.782 -0.3009 -0.0605 -0.1012
 8346SOL    HW136500   1.783   0.244   4.710 -1.1324 -0.8076 -1.0739
 8346SOL    HW236501   1.810   0.218   4.846 -2.1342  0.5175  1.6418
 8347SOL     OW36502   2.080   0.169   0.897 -0.5897  0.0429 -0.3441
 8347SOL    HW136503   2.140   0.243   0.907 -0.7776 -0.0230  1.4370
 8347SOL    HW236504   2.085   0.153   0.803 -2.7569  0.0016 -0.4414
 8348SOL     OW36505   2.234   4.127   3.569 -0.5046  0.3834  0.5848
 8348SOL    HW136506   2.278   4.203   3.531 -0.3856  0.2310  0.4204
 8348SOL    HW236507   2.148   4.164   3.589 -0.4959 -0.1059  1.5519
 8349SOL     OW36508   0.650   3.895   6.831 -0.4680 -0.4498 -0.1071
 8349SOL    HW136509   0.743   3.875   6.839  0.0743  1.6654 -1.1145
 8349SOL    HW236510   0.637   3.927   6.920  0.2880 -1.3219  0.3044
 8350SOL     OW36511   3.492   3.765  13.109 -0.1853  0.3914 -0.6737
 8350SOL    HW136512   3.555   3.837  13.111  1.8018 -1.3556  0.6260
 8350SOL    HW236513   3.415   3.822  13.111  1.5637  2.7486 -1.2304
 8351SOL     OW36514   2.520   4.165   4.439 -0.2021 -0.3297  0.5076
 8351SOL    HW136515   2.428   4.164   4.411  0.1666  0.0535 -0.7232
 8351SOL    HW236516   2.527   4.251   4.481  0.2132 -0.0255 -0.1846
 8352SOL     OW36517   2.478   2.135   7.121 -0.1668  0.5919 -0.0817
 8352SOL    HW136518   2.434   2.220   7.121 -0.3765  0.4845  0.2752
 8352SOL    HW236519   2.445   2.095   7.040 -1.1956 -0.3757  0.8089
 8353SOL     OW36520   3.486   1.686  12.592 -0.0346  0.5874 -0.0546
 8353SOL    HW136521   3.423   1.750  12.560 -1.1310 -1.4024 -1.8760
 8353SOL    HW236522   3.418   1.624  12.620  1.9774 -0.9308  1.4798
 8354SOL     OW36523   0.979   0.277   7.372 -0.2302 -0.4250 -0.2164
 8354SOL    HW136524   1.021   0.191   7.363  1.0577  0.6844 -4.3750
 8354SOL    HW236525   0.893   0.256   7.410  0.3859 -1.8791  0.3910
 8355SOL     OW36526   0.059   0.285   7.136  0.1048  0.0492 -0.2983
 8355SOL    HW136527   4.722   0.294   7.064 -0.4057  0.7582  0.2363
 8355SOL    HW236528   0.063   0.360   7.195  0.5236 -0.3659  0.2049
 8356SOL     OW36529   4.558   0.109  17.016 -0.8146 -0.4071 -0.1677
 8356SOL    HW136530   4.592   0.066  17.095  0.0993 -2.5836 -1.7481
 8356SOL    HW236531   4.472   0.071  17.000 -0.8659 -0.2587 -0.2456
 8357SOL     OW36532   0.123   2.824   4.841 -0.0386  0.0993 -0.7087
 8357SOL    HW136533   0.208   2.817   4.885  0.0175  4.1364 -0.2126
 8357SOL    HW236534   0.149   2.815   4.749  0.9070  1.1689 -0.5440
 8358SOL     OW36535   1.397   2.522   2.318 -0.2002 -0.2991  0.3015
 8358SOL    HW136536   1.441   2.442   2.288  0.8662  0.6269 -0.5995
 8358SOL    HW236537   1.456   2.588   2.282  0.0362 -1.2640 -1.1004
 8359SOL     OW36538   1.360   3.544  10.299 -0.2051  0.1369 -0.9011
 8359SOL    HW136539   1.366   3.584  10.386 -4.2168 -0.2088 -0.4811
 8359SOL    HW236540   1.286   3.486  10.315  0.5684 -0.0104  2.0162
 8360SOL     OW36541   3.849   3.816   3.539 -0.6967  0.0673  0.1981
 8360SOL    HW136542   3.929   3.800   3.589 -0.3607  2.7761  0.5180
 8360SOL    HW236543   3.892   3.852   3.462 -0.4855 -0.9495 -0.1598
 8361SOL     OW36544   1.659   1.692   7.765 -0.4023  0.0236  0.6019
 8361SOL    HW136545   1.609   1.753   7.820 -0.4298  1.1626 -0.6667
 8361SOL    HW236546   1.675   1.747   7.688 -0.8427 -3.0898 -1.6828
 8362SOL     OW36547   0.439   1.024  13.403 -0.0512  0.4071 -0.2683
 8362SOL    HW136548   0.455   1.107  13.359  1.4108 -0.1486 -0.7478
 8362SOL    HW236549   0.344   1.027  13.419  0.2971  2.4534  1.4051
 8363SOL     OW36550   1.577   0.429   7.719  0.2524  0.9335  0.5371
 8363SOL    HW136551   1.589   0.401   7.810  2.1358  2.5621  0.7895
 8363SOL    HW236552   1.540   0.517   7.725  2.4105  2.0908 -3.5635
 8364SOL     OW36553   2.027   1.696   1.893  0.4905 -0.1360 -0.3543
 8364SOL    HW136554   2.112   1.686   1.936 -1.0573 -1.7982  2.3700
 8364SOL    HW236555   2.029   1.650   1.809 -0.4725  1.8317 -1.4437
 8365SOL     OW36556   0.996   2.672   5.455  0.2005 -0.2515 -0.5627
 8365SOL    HW136557   0.979   2.580   5.475 -0.9315  0.2181  0.6411
 8365SOL    HW236558   1.062   2.688   5.523 -1.7489 -0.4330  1.3553
 8366SOL     OW36559   1.050   0.432  12.486 -0.1254 -0.4284  0.1920
 8366SOL    HW136560   1.024   0.494  12.419  0.0151 -0.5323  0.0408
 8366SOL    HW236561   0.965   0.411  12.526 -0.1282 -0.4443  0.1776
 8367SOL     OW36562   1.696   4.371  13.114 -0.5234  0.2939  0.1782
 8367SOL    HW136563   1.649   4.306  13.061  0.6851  0.3341 -0.9399
 8367SOL    HW236564   1.637   4.387  13.187 -1.3167  0.3609 -0.4769
 8368SOL     OW36565   0.115   4.654   0.383 -0.1763 -0.1544  0.1415
 8368SOL    HW136566   0.172   4.724   0.417 -1.3639  0.0926  1.6216
 8368SOL    HW236567   0.089   4.603   0.460 -4.0397 -1.3060 -1.9407
 8369SOL     OW36568   2.876   3.889   7.599  0.6829 -0.5900 -0.5524
 8369SOL    HW136569   2.859   3.853   7.686 -0.6293 -0.4064 -0.7366
 8369SOL    HW236570   2.898   3.981   7.609  1.4393 -0.9926  1.4110
 8370SOL     OW36571   4.188   1.368   6.021  0.0999  0.0009 -0.6059
 8370SOL    HW136572   4.166   1.355   6.113  0.0393  1.0836 -0.4647
 8370SOL    HW236573   4.185   1.462   6.006 -1.9149  0.3150  1.8214
 8371SOL     OW36574   1.376   3.968   2.990  0.2526 -0.0126 -0.3138
 8371SOL    HW136575   1.365   4.063   3.000  0.5849  0.0056 -0.1075
 8371SOL    HW236576   1.395   3.961   2.897  2.1129 -1.9246  0.2158
 8372SOL     OW36577   1.584   4.417   4.254 -0.1865 -0.2730 -0.2870
 8372SOL    HW136578   1.567   4.368   4.173  0.1335  0.4310 -0.7826
 8372SOL    HW236579   1.678   4.435   4.247 -0.5365  2.1868  1.4927
 8373SOL     OW36580   4.357   4.569   3.796  0.3926  0.5174 -0.2406
 8373SOL    HW136581   4.313   4.640   3.843 -0.6332 -0.8262  0.8247
 8373SOL    HW236582   4.431   4.617   3.758 -1.7384  1.8470 -2.7422
 8374SOL     OW36583   1.401   1.179   4.574  0.3680  0.0499  0.3217
 8374SOL    HW136584   1.398   1.138   4.488 -0.6288 -0.1807  0.4601
 8374SOL    HW236585   1.492   1.208   4.580  0.4385  0.0590 -0.7999
 8375SOL     OW36586   0.625   3.369   1.964  0.1151  0.5034 -0.0898
 8375SOL    HW136587   0.627   3.344   1.872  2.0560 -0.5394  0.2211
 8375SOL    HW236588   0.533   3.354   1.983  0.7667 -1.4695  1.4984
 8376SOL     OW36589   0.820   0.785   7.633  0.0242  0.0658 -0.2809
 8376SOL    HW136590   0.902   0.768   7.588 -0.4837 -0.8325 -0.8723
 8376SOL    HW236591   0.849   0.874   7.651  3.8333 -1.1596 -0.4234
 8377SOL     OW36592   3.552   0.305   6.159 -0.1510  0.8256 -0.4362
 8377SOL    HW136593   3.559   0.309   6.064  2.0717  0.0153 -0.2987
 8377SOL    HW236594   3.459   0.326   6.167 -0.5532 -0.4362 -1.8460
 8378SOL     OW36595   1.976   4.308   3.133 -0.9483  0.3928 -0.0343
 8378SOL    HW136596   1.954   4.400   3.145  0.1072  0.3592  2.2193
 8378SOL    HW236597   2.066   4.312   3.100 -1.0908 -2.0563 -0.7474
 8379SOL     OW36598   1.610   0.172   5.385 -0.1497  0.0835  0.2117
 8379SOL    HW136599   1.633   0.259   5.352 -1.3491 -1.1295 -3.8338
 8379SOL    HW236600   1.569   0.190   5.469  0.1530 -0.2823  0.4358
 8380SOL     OW36601   4.008   1.026   5.573  0.1842  0.1317  0.2895
 8380SOL    HW136602   3.957   0.960   5.618 -2.2204  0.5306 -1.8904
 8380SOL    HW236603   4.043   1.083   5.642 -0.5575 -1.2289  1.7862
 8381SOL     OW36604   1.549   2.786   3.987  0.3175  0.0606  0.1009
 8381SOL    HW136605   1.618   2.828   3.935  0.7249  0.7788  1.2275
 8381SOL    HW236606   1.601   2.761   4.063  1.3443  1.5904 -0.1015
 8382SOL     OW36607   3.973   2.807   2.648  0.2565  0.1185 -0.0385
 8382SOL    HW136608   3.888   2.794   2.690  1.5458 -1.5021  2.0806
 8382SOL    HW236609   3.943   2.761   2.569 -1.0762  3.1093 -1.2681
 8383SOL     OW36610   3.349   0.017   0.736 -0.5166 -0.5116 -0.2345
 8383SOL    HW136611   3.325   0.013   0.829  3.1639  2.6765  0.8864
 8383SOL    HW236612   3.429   4.691   0.726 -0.4733 -0.7646  1.3538
 8384SOL     OW36613   4.712   2.309  13.126 -0.2914 -0.4772 -0.2726
 8384SOL    HW136614   4.703   2.251  13.201  0.6701  1.1729  1.0991
 8384SOL    HW236615   0.036   2.255  13.064  0.5841 -1.0585  0.9255
 8385SOL     OW36616   3.763   1.237  14.754  0.2732  0.5921 -0.0779
 8385SOL    HW136617   3.774   1.197  14.668  1.2584  0.9475 -0.1156
 8385SOL    HW236618   3.727   1.162  14.802 -1.6824  2.3159  1.1522
 8386SOL     OW36619   2.109   4.386   0.200 -0.9285 -0.0078  0.2973
 8386SOL    HW136620   2.041   4.453   0.189 -1.6439 -1.0576 -1.7097
 8386SOL    HW236621   2.129   4.403   0.292  0.6852  1.8117 -0.3801
 8387SOL     OW36622   2.213   2.818   2.814 -0.2481 -0.3685  0.0383
 8387SOL    HW136623   2.270   2.787   2.884 -0.8910 -0.9802  0.2998
 8387SOL    HW236624   2.261   2.895   2.784  1.7681 -1.2262  1.1156
 8388SOL     OW36625   1.469   1.761  14.523  0.1223  0.7269 -0.0728
 8388SOL    HW136626   1.496   1.837  14.471 -1.4674  1.6406  0.4481
 8388SOL    HW236627   1.484   1.794  14.612 -2.2954  0.1437  0.5584
 8389SOL     OW36628   0.152   1.400   2.702  0.2709  0.7589 -0.2940
 8389SOL    HW136629   0.111   1.485   2.719  0.2823  0.0823  2.9642
 8389SOL    HW236630   0.179   1.364   2.786  1.0890  0.5317 -0.6480
 8390SOL     OW36631   2.629   2.931   5.545  0.0086 -0.4543 -0.0286
 8390SOL    HW136632   2.647   2.875   5.620 -1.4965  0.3717  0.9557
 8390SOL    HW236633   2.701   2.994   5.546 -0.2794 -0.1430  1.3431
 8391SOL     OW36634   3.615   3.036   3.707  0.4401  0.0744  0.2033
 8391SOL    HW136635   3.601   3.114   3.654  2.1833  0.2663  0.0078
 8391SOL    HW236636   3.559   2.969   3.668  1.3815 -1.4763  1.5018
 8392SOL     OW36637   0.873   0.167   3.550 -0.7337  0.4664  0.0796
 8392SOL    HW136638   0.964   0.184   3.525 -0.8716  1.3067  0.1411
 8392SOL    HW236639   0.866   0.074   3.530  1.5150  0.1847  0.5252
 8393SOL     OW36640   3.731   0.704   0.700 -0.1794 -0.3028 -0.3786
 8393SOL    HW136641   3.740   0.700   0.605 -1.4114  0.7993 -0.5431
 8393SOL    HW236642   3.670   0.635   0.725 -0.5675  0.0596 -0.3398
 8394SOL     OW36643   1.367   3.667  10.592 -0.4027 -0.3564  0.2843
 8394SOL    HW136644   1.281   3.631  10.614 -0.2806 -0.9010 -0.1293
 8394SOL    HW236645   1.372   3.742  10.650  3.2461 -1.1600  0.9878
 8395SOL     OW36646   3.168   4.564  11.867 -0.1370  0.9537  0.5600
 8395SOL    HW136647   3.240   4.564  11.929 -1.1115 -0.9015  1.7151
 8395SOL    HW236648   3.097   4.607  11.915 -0.1111 -0.5796  1.9792
 8396SOL     OW36649   3.078   0.273   4.434  0.5445  0.2886  0.0348
 8396SOL    HW136650   3.070   0.368   4.434  1.8103  0.3988 -0.5352
 8396SOL    HW236651   2.990   0.241   4.455  1.3291 -0.4130  2.2279
 8397SOL     OW36652   1.404   2.249  11.775  0.0522 -0.0612 -0.4051
 8397SOL    HW136653   1.365   2.336  11.763  1.7242  1.0260  2.2285
 8397SOL    HW236654   1.403   2.244  11.870 -0.8050 -0.9599 -0.4573
 8398SOL     OW36655   2.474   0.341  15.704  0.0738 -0.2032  0.5886
 8398SOL    HW136656   2.401   0.293  15.744  0.1412 -2.2313 -1.7165
 8398SOL    HW236657   2.446   0.351  15.613 -0.1665  2.2112  0.9303
 8399SOL     OW36658   4.006   1.929   8.952  0.0485 -0.3038 -0.3946
 8399SOL    HW136659   3.984   1.841   8.982  0.2172  0.3054  1.5079
 8399SOL    HW236660   3.964   1.917   8.866  1.1904  0.0969 -1.0005
 8400SOL     OW36661   0.122   4.420   6.592  0.2555  0.3045 -0.3733
 8400SOL    HW136662   0.037   4.445   6.629  0.6422 -0.7800  1.2735
 8400SOL    HW236663   0.184   4.433   6.664  1.0187  0.1219 -1.0127
 8401SOL     OW36664   2.951   4.126   2.294  0.1290  0.4419 -0.3715
 8401SOL    HW136665   2.946   4.034   2.270 -0.4903  0.3280  0.1870
 8401SOL    HW236666   3.039   4.155   2.270  0.2158  0.5453  0.0780
 8402SOL     OW36667   3.019   3.953   6.916 -0.4229 -1.0698  0.1868
 8402SOL    HW136668   3.082   3.898   6.870 -0.5393 -1.4349  0.4622
 8402SOL    HW236669   2.996   3.900   6.993 -1.5086  0.4329  0.9180
 8403SOL     OW36670   3.668   4.040   6.785  0.2404 -0.2083  0.5861
 8403SOL    HW136671   3.688   4.032   6.692 -0.8386  0.8760  0.2456
 8403SOL    HW236672   3.690   4.130   6.808  2.6734 -1.0409  1.4372
 8404SOL     OW36673   4.678   0.290   7.653 -0.4582 -0.1300  0.4285
 8404SOL    HW136674   4.613   0.317   7.718  0.4535  0.5058  1.0786
 8404SOL    HW236675   4.629   0.211   7.629  2.6394 -2.4281  1.7760
 8405SOL     OW36676   1.171   2.322   7.257 -0.0432  0.3075  0.2313
 8405SOL    HW136677   1.140   2.312   7.346 -0.3099 -0.2855  0.0676
 8405SOL    HW236678   1.097   2.337   7.199  0.7255  1.6823 -0.4061
 8406SOL     OW36679   1.577   1.233   2.609  0.5406 -0.1253 -0.2195
 8406SOL    HW136680   1.619   1.245   2.524  0.5429 -1.3113 -0.3721
 8406SOL    HW236681   1.621   1.155   2.644  0.8125 -0.2668 -0.8800
 8407SOL     OW36682   3.495   4.030   6.985 -0.3707 -0.1908  0.5940
 8407SOL    HW136683   3.480   3.938   7.005  2.6292 -0.4211  1.6853
 8407SOL    HW236684   3.532   4.028   6.896 -1.0991  1.4468  0.2375
 8408SOL     OW36685   3.380   0.326   2.549  0.1100 -0.3739  0.4552
 8408SOL    HW136686   3.429   0.245   2.536 -0.2580 -0.2977 -1.3693
 8408SOL    HW236687   3.407   0.365   2.466 -1.3290  3.0862  1.6189
 8409SOL     OW36688   0.561   0.942   4.357 -0.1063 -0.1556  0.0113
 8409SOL    HW136689   0.560   1.001   4.432 -1.8465 -0.2780  0.0949
 8409SOL    HW236690   0.517   0.990   4.287  1.7772 -1.3306 -1.9599
 8410SOL     OW36691   4.229   4.081   5.286 -0.5694 -0.1347  0.0003
 8410SOL    HW136692   4.175   4.050   5.213 -0.0331 -1.0112 -0.0349
 8410SOL    HW236693   4.314   4.101   5.247 -0.9938  0.0017 -0.8420
 8411SOL     OW36694   1.073   0.121   3.162  0.0505  0.3541 -0.5594
 8411SOL    HW136695   1.002   0.071   3.203  0.7032 -0.9016 -0.9458
 8411SOL    HW236696   1.111   0.061   3.098  0.6179  0.0251  0.0839
 8412SOL     OW36697   1.342   0.955   5.516 -0.1218  0.4472  0.7777
 8412SOL    HW136698   1.347   1.049   5.535  1.1344  0.7301 -0.9420
 8412SOL    HW236699   1.285   0.914   5.581 -0.1039 -2.1740 -0.8286
 8413SOL     OW36700   2.141   1.699   6.298 -0.2933  0.3901  0.3735
 8413SOL    HW136701   2.101   1.786   6.296  0.5277  0.7346 -1.7009
 8413SOL    HW236702   2.220   1.719   6.248 -0.0954  1.9370  1.2742
 8414SOL     OW36703   0.137   2.255   1.128 -0.6325  0.3928 -0.3928
 8414SOL    HW136704   0.210   2.251   1.190 -1.8054 -1.3388  0.8565
 8414SOL    HW236705   0.171   2.207   1.053 -0.9092 -1.1753  0.4864
 8415SOL     OW36706   4.428   2.334  10.187  0.3434  0.2904  0.3286
 8415SOL    HW136707   4.513   2.348  10.146 -0.2479  1.6858 -0.4217
 8415SOL    HW236708   4.416   2.240  10.200 -2.9108  0.9739  2.4965
 8416SOL     OW36709   3.635   0.283   5.887 -0.4447  0.1619  0.1396
 8416SOL    HW136710   3.722   0.316   5.866  0.0487 -0.2289  1.5796
 8416SOL    HW236711   3.649   0.189   5.879 -0.7487  0.1495 -0.2611
 8417SOL     OW36712   4.359   0.000   6.494 -0.7095 -0.1378 -1.0018
 8417SOL    HW136713   4.303   4.693   6.564 -2.8469  2.6768 -1.4198
 8417SOL    HW236714   4.377   4.646   6.444 -0.0294 -2.0110  2.1925
 8418SOL     OW36715   1.488   2.757   2.773 -0.3729  0.1445  0.3168
 8418SOL    HW136716   1.558   2.817   2.746  0.9254 -0.8966  1.3690
 8418SOL    HW236717   1.508   2.674   2.728  0.1467  0.2971  0.2708
 8419SOL     OW36718   4.264   0.349   5.653 -0.6785  0.4889  0.5380
 8419SOL    HW136719   4.330   0.316   5.714 -0.6859 -0.4795  0.0410
 8419SOL    HW236720   4.265   0.438   5.687  2.3771  0.6972 -0.1193
 8420SOL     OW36721   3.647   0.047   9.199 -0.2355  0.5395 -0.4335
 8420SOL    HW136722   3.571   4.718   9.222 -0.0057  0.8105  1.0044
 8420SOL    HW236723   3.637   0.119   9.261 -1.4029 -0.8782  1.0213
 8421SOL     OW36724   3.353   3.608  13.420 -0.2178 -0.3650 -0.1390
 8421SOL    HW136725   3.277   3.558  13.447  0.2050  0.5797  2.7911
 8421SOL    HW236726   3.311   3.691  13.396  2.0612  0.2873 -1.9327
 8422SOL     OW36727   1.313   2.474   4.434  0.0213  0.2753 -0.5854
 8422SOL    HW136728   1.266   2.408   4.384 -0.2672 -0.7209  1.0188
 8422SOL    HW236729   1.399   2.431   4.431  0.4842  1.0070  1.9064
 8423SOL     OW36730   2.550   4.101  12.901 -0.7961 -0.1297  0.3283
 8423SOL    HW136731   2.571   4.138  12.987 -0.6659  1.6799 -0.4900
 8423SOL    HW236732   2.605   4.023  12.897 -0.2246  0.3536 -1.3526
 8424SOL     OW36733   0.584   2.272  15.346 -0.4077 -0.1085 -0.2460
 8424SOL    HW136734   0.635   2.193  15.329 -2.2635 -1.6494  1.4027
 8424SOL    HW236735   0.655   2.336  15.352 -1.3958  0.8503  1.3702
 8425SOL     OW36736   0.623   1.737  12.779 -0.0734  0.4055  0.3424
 8425SOL    HW136737   0.612   1.814  12.724  0.3965 -0.6527 -1.2242
 8425SOL    HW236738   0.614   1.668  12.714  2.1813  0.7612 -0.3367
 8426SOL     OW36739   2.623   2.087  12.053 -0.3445 -0.2322  0.0479
 8426SOL    HW136740   2.678   2.061  11.979 -2.8345  0.1016 -1.9040
 8426SOL    HW236741   2.569   2.013  12.079  1.3812 -2.0134 -1.4628
 8427SOL     OW36742   3.494   3.492   6.862  0.1582  0.5970  0.6799
 8427SOL    HW136743   3.407   3.455   6.847 -0.2524  2.0268 -0.5461
 8427SOL    HW236744   3.538   3.441   6.930  1.3647  0.2377 -0.3660
 8428SOL     OW36745   1.105   2.453  15.019 -0.3091 -0.2587 -0.2944
 8428SOL    HW136746   1.146   2.456  14.932 -0.5159  2.1164 -0.2903
 8428SOL    HW236747   1.119   2.362  15.047  0.5896  0.3409  1.1855
 8429SOL     OW36748   4.638   1.772  13.378 -0.1625 -0.1422 -0.5957
 8429SOL    HW136749   4.563   1.716  13.399 -1.3452  1.9014  0.6261
 8429SOL    HW236750   4.617   1.793  13.287 -0.4937  1.1764 -0.2233
 8430SOL     OW36751   4.516   2.551   5.173  0.5052 -0.0078 -0.4538
 8430SOL    HW136752   4.565   2.574   5.094  1.0313  0.6298  0.0722
 8430SOL    HW236753   4.511   2.636   5.215 -0.7124 -0.7479  0.9046
 8431SOL     OW36754   2.834   0.243   3.284  0.2329  0.1528  0.3203
 8431SOL    HW136755   2.830   0.304   3.357 -2.3235 -2.5088  2.3982
 8431SOL    HW236756   2.890   0.293   3.225  0.3508  1.3500  1.4429
 8432SOL     OW36757   3.302   2.762   7.048  0.0326 -0.2415  0.3692
 8432SOL    HW136758   3.288   2.707   6.971  1.0427  1.2406 -0.8825
 8432SOL    HW236759   3.249   2.837   7.021 -1.5628 -2.0553 -1.5513
 8433SOL     OW36760   2.550   2.159   2.133 -0.3725  0.3569  0.1842
 8433SOL    HW136761   2.472   2.123   2.176  0.1476  0.5185  1.2513
 8433SOL    HW236762   2.596   2.083   2.098 -1.7252  0.7052 -2.3977
 8434SOL     OW36763   1.866   1.592   2.909  0.0026 -0.2580  0.4969
 8434SOL    HW136764   1.890   1.683   2.893 -0.8454 -0.0661  0.2939
 8434SOL    HW236765   1.865   1.563   2.817  1.2519  2.6634 -0.4294
 8435SOL     OW36766   3.390   4.262   3.272 -0.2631  0.6423 -0.3034
 8435SOL    HW136767   3.452   4.201   3.232  0.4564  0.1044  1.6377
 8435SOL    HW236768   3.418   4.260   3.364 -0.4982 -0.2306 -0.2535
 8436SOL     OW36769   1.367   1.386  15.851  0.0516 -0.0941  0.0629
 8436SOL    HW136770   1.283   1.421  15.819 -0.1835 -0.7374 -0.0279
 8436SOL    HW236771   1.411   1.414  15.771 -2.4759  2.6462 -0.3772
 8437SOL     OW36772   1.375   4.643   6.919  0.1567  0.0598  0.0624
 8437SOL    HW136773   1.309   4.585   6.883 -0.1172  1.3983 -1.5864
 8437SOL    HW236774   1.325   4.707   6.970  0.3753  1.1750 -1.1198
 8438SOL     OW36775   4.070   3.943  10.814 -0.0109 -0.1589  0.2592
 8438SOL    HW136776   4.137   3.875  10.817  0.2289  0.1313  1.4474
 8438SOL    HW236777   4.038   3.912  10.729  1.3640  2.0578 -1.0780
 8439SOL     OW36778   2.479   2.413  12.097 -0.0655 -0.3748 -0.2487
 8439SOL    HW136779   2.446   2.482  12.040  1.1053  1.3243  1.1127
 8439SOL    HW236780   2.402   2.357  12.109 -0.5332  0.2446 -0.3736
 8440SOL     OW36781   0.014   3.833   2.404  0.1482  0.8049  0.2077
 8440SOL    HW136782   4.704   3.790   2.481  1.9675 -2.0583 -0.5429
 8440SOL    HW236783   0.106   3.805   2.397 -0.1378 -0.2539  0.6685
 8441SOL     OW36784   2.318   1.285   2.507  0.0893 -0.0553  0.4910
 8441SOL    HW136785   2.327   1.224   2.434 -0.6578  0.9810 -0.4721
 8441SOL    HW236786   2.271   1.236   2.574 -0.1877 -2.3668 -1.3848
 8442SOL     OW36787   2.323   2.551   5.326  0.3578  0.6610  0.2039
 8442SOL    HW136788   2.280   2.466   5.340 -0.1680  0.7613 -0.8310
 8442SOL    HW236789   2.401   2.535   5.272  0.5518  2.1222  0.0493
 8443SOL     OW36790   2.145   0.405   8.581  0.0992  0.1712 -0.7402
 8443SOL    HW136791   2.153   0.423   8.675  0.7126  0.1597 -0.7872
 8443SOL    HW236792   2.083   0.474   8.560 -0.6027 -0.4019 -0.5771
 8444SOL     OW36793   0.145   3.429   8.471 -0.0217 -0.2262 -0.2071
 8444SOL    HW136794   0.159   3.512   8.516  1.8360  0.1980 -1.5661
 8444SOL    HW236795   0.062   3.436   8.425  0.5157  0.0520 -1.1481
 8445SOL     OW36796   2.103   2.094   9.005 -0.3262  0.0860  0.1525
 8445SOL    HW136797   2.080   2.151   9.078 -0.4804  0.3783 -0.1261
 8445SOL    HW236798   2.195   2.074   9.021  0.3706  2.7789 -0.5835
 8446SOL     OW36799   3.109   0.673   9.149  0.4702 -0.1478 -0.2825
 8446SOL    HW136800   3.128   0.756   9.193 -0.1694  0.5385 -1.3146
 8446SOL    HW236801   3.121   0.616   9.225  1.9134  1.7422  0.9146
 8447SOL     OW36802   2.744   1.376  15.821  0.4076 -0.3157  0.3628
 8447SOL    HW136803   2.827   1.335  15.797 -0.4580 -0.7535 -1.8370
 8447SOL    HW236804   2.734   1.366  15.916  0.8280 -1.0828  0.3237
 8448SOL     OW36805   0.769   0.909  13.688 -0.3044  0.4655 -0.0920
 8448SOL    HW136806   0.820   0.990  13.684  0.0946  0.2064 -0.2347
 8448SOL    HW236807   0.735   0.917  13.598 -0.0991  2.1081 -0.0212
 8449SOL     OW36808   1.805   1.515   3.523  0.0993 -0.0311 -0.0703
 8449SOL    HW136809   1.808   1.591   3.464 -0.1804 -0.4622 -0.6357
 8449SOL    HW236810   1.714   1.508   3.555  1.3982 -2.9190  2.9534
 8450SOL     OW36811   0.133   2.612  10.351  0.8187 -0.2582 -0.3022
 8450SOL    HW136812   0.118   2.677  10.282 -1.4057  0.5375  0.9180
 8450SOL    HW236813   0.139   2.665  10.431 -0.7975 -1.5798  0.6967
 8451SOL     OW36814   1.452   1.341  16.404  0.1807 -0.9616  0.0654
 8451SOL    HW136815   1.418   1.358  16.317  2.4912 -1.6526 -0.9833
 8451SOL    HW236816   1.547   1.357  16.405 -0.2913  2.0253 -2.4214
 8452SOL     OW36817   2.972   1.231  17.108 -0.1768 -0.7108 -0.5253
 8452SOL    HW136818   3.034   1.264  17.173 -0.7688 -0.0779 -0.2747
 8452SOL    HW236819   2.895   1.282  17.134 -0.0480 -0.1684 -1.2067
 8453SOL     OW36820   2.041   1.877   8.660 -0.2476 -0.5276 -1.0184
 8453SOL    HW136821   2.007   1.808   8.718  1.1189 -1.1697 -0.9901
 8453SOL    HW236822   2.080   1.936   8.724  1.6389 -0.7879 -1.9269
 8454SOL     OW36823   1.341   1.158  14.101  0.1881  0.1917 -0.3168
 8454SOL    HW136824   1.430   1.144  14.069  0.5578  1.1659  0.3020
 8454SOL    HW236825   1.360   1.208  14.180 -1.5330  0.1464  0.1266
 8455SOL     OW36826   1.171   1.406  11.439 -0.1114 -0.5044  0.2642
 8455SOL    HW136827   1.203   1.342  11.375 -1.9816  1.4120 -2.6398
 8455SOL    HW236828   1.077   1.395  11.426  0.0377  0.5217 -1.6422
 8456SOL     OW36829   0.232   3.747   4.706  0.5406  0.1925 -0.4753
 8456SOL    HW136830   0.203   3.659   4.732  0.5165  0.1501 -0.6422
 8456SOL    HW236831   0.152   3.796   4.725  0.2437 -0.9794  1.3339
 8457SOL     OW36832   3.289   2.947   4.282 -0.0807 -0.0804  0.1789
 8457SOL    HW136833   3.200   2.913   4.292 -0.6986  0.9282 -1.8048
 8457SOL    HW236834   3.336   2.878   4.235 -1.3239 -1.4997  1.0471
 8458SOL     OW36835   3.580   3.950   4.266  0.2948 -0.1940 -0.1994
 8458SOL    HW136836   3.577   4.046   4.260 -0.3956 -0.1937  0.2107
 8458SOL    HW236837   3.581   3.936   4.361 -0.6447 -0.0597 -0.1758
 8459SOL     OW36838   4.677   3.765  10.096 -0.0388 -0.2998  0.3846
 8459SOL    HW136839   0.034   3.741  10.137  0.5203 -0.5908 -0.9338
 8459SOL    HW236840   4.663   3.851  10.136 -0.5734 -1.1204  1.9804
 8460SOL     OW36841   3.949   0.735   8.531 -0.0683  0.0858  0.1233
 8460SOL    HW136842   4.019   0.671   8.521  2.0725  2.5432 -0.8107
 8460SOL    HW236843   3.933   0.728   8.625 -2.4169 -1.0570 -0.3451
 8461SOL     OW36844   0.196   3.663   8.611 -0.3421  0.1775 -0.1068
 8461SOL    HW136845   0.269   3.659   8.674 -0.0426  0.8379 -0.4103
 8461SOL    HW236846   0.226   3.726   8.546  1.0105  0.5843  0.8935
 8462SOL     OW36847   4.586   3.807   6.735  0.3991  0.2258 -0.1254
 8462SOL    HW136848   4.547   3.826   6.820 -0.9831 -1.3004 -0.4366
 8462SOL    HW236849   4.678   3.812   6.762  0.3916 -2.0182  0.2441
 8463SOL     OW36850   3.207   3.683   5.824 -0.5666  0.1770  0.1637
 8463SOL    HW136851   3.232   3.661   5.734  0.6635 -0.8945  0.7558
 8463SOL    HW236852   3.189   3.598   5.865 -0.5310 -0.0168 -0.2118
 8464SOL     OW36853   0.448   0.278   7.124  0.6235  0.0785 -0.0580
 8464SOL    HW136854   0.467   0.228   7.045 -0.0286 -0.9155  0.4089
 8464SOL    HW236855   0.352   0.282   7.134  0.6902 -0.6455  0.9093
 8465SOL     OW36856   0.588   1.099   0.072 -0.2929 -0.2355  0.0534
 8465SOL    HW136857   0.526   1.073   0.140  0.4691 -0.5214  0.6447
 8465SOL    HW236858   0.630   1.017   0.045  2.0322  1.1136 -0.4498
 8466SOL     OW36859   0.200   1.843   8.911  0.4960 -0.0539  0.5732
 8466SOL    HW136860   0.175   1.934   8.898 -0.1256 -0.2453  0.4206
 8466SOL    HW236861   0.293   1.845   8.891 -0.0983 -0.6688 -2.1544
 8467SOL     OW36862   3.617   0.279  11.283  0.1011 -0.0041  0.0006
 8467SOL    HW136863   3.689   0.221  11.259 -0.2502 -0.2351 -0.4983
 8467SOL    HW236864   3.625   0.283  11.378  0.6182  0.0911 -0.0462
 8468SOL     OW36865   2.352   0.978  14.618  0.2520  0.1566 -0.0525
 8468SOL    HW136866   2.366   0.951  14.528 -0.7214  0.1234 -0.1981
 8468SOL    HW236867   2.428   1.034  14.636  1.3456 -1.0142 -1.0898
 8469SOL     OW36868   2.915   0.496   4.865  0.2926 -0.0848 -0.3599
 8469SOL    HW136869   2.974   0.437   4.819 -1.2969 -2.5362  0.7157
 8469SOL    HW236870   2.926   0.578   4.817  0.8942  0.3929  0.5934
 8470SOL     OW36871   0.155   3.640   3.968  0.9126 -0.2633 -0.1203
 8470SOL    HW136872   0.065   3.614   3.983  0.6069  0.3637 -0.8959
 8470SOL    HW236873   0.194   3.557   3.943 -1.2481 -1.9610  2.1450
 8471SOL     OW36874   1.991   4.680  14.101 -0.0200  0.3960  0.5566
 8471SOL    HW136875   2.074   0.002  14.111  0.3198  0.5447 -2.8366
 8471SOL    HW236876   1.949   0.006  14.033  1.4313  1.2068  0.2606
 8472SOL     OW36877   4.282   3.878  12.306  0.3341 -0.0860 -0.0444
 8472SOL    HW136878   4.288   3.950  12.369  0.1507 -0.5255  0.4643
 8472SOL    HW236879   4.253   3.803  12.357  2.0976 -0.1591  0.8460
 8473SOL     OW36880   3.152   4.688   1.630 -0.2202 -0.1209  0.2044
 8473SOL    HW136881   3.231   4.645   1.664 -1.3535 -1.3464  1.3111
 8473SOL    HW236882   3.194   0.024   1.570 -0.7637  0.9293  0.8983
 8474SOL     OW36883   2.372   4.625  14.365 -0.3113  0.0425  0.3785
 8474SOL    HW136884   2.384   4.534  14.391 -0.3131  0.1455  0.7549
 8474SOL    HW236885   2.281   4.608  14.340  0.6956 -2.1330 -1.6967
 8475SOL     OW36886   1.271   0.549   8.589 -0.0852  0.0435 -0.2427
 8475SOL    HW136887   1.232   0.462   8.600  2.4275 -0.9202  1.0622
 8475SOL    HW236888   1.222   0.584   8.514 -0.2147  0.6937  0.1479
 8476SOL     OW36889   2.615   1.817   1.176  0.1825  0.2666 -0.2300
 8476SOL    HW136890   2.637   1.724   1.174  3.3811  1.0508 -2.0817
 8476SOL    HW236891   2.597   1.833   1.268 -2.0166 -0.1574 -0.5990
 8477SOL     OW36892   2.381   3.623  12.891 -0.3120 -0.2675  0.3683
 8477SOL    HW136893   2.290   3.593  12.888  0.3789 -2.1834 -1.3766
 8477SOL    HW236894   2.422   3.582  12.815  0.3533 -0.4841  0.8437
 8478SOL     OW36895   4.196   0.924   3.306 -0.0557 -0.0079 -0.7099
 8478SOL    HW136896   4.127   0.987   3.326  0.3183 -0.1575  1.0499
 8478SOL    HW236897   4.149   0.886   3.232  0.3117  0.3568 -1.1293
 8479SOL     OW36898   0.828   3.952  12.085  0.3991 -0.0346 -0.2828
 8479SOL    HW136899   0.849   3.960  11.992 -0.8573  1.9359 -0.4019
 8479SOL    HW236900   0.778   4.034  12.084  0.0646 -0.2290  0.7932
 8480SOL     OW36901   4.153   3.794   8.025  0.2582  0.9149  0.5416
 8480SOL    HW136902   4.059   3.813   8.027  0.0456 -0.2727  1.8065
 8480SOL    HW236903   4.191   3.858   8.085  0.2460 -0.3081  1.8419
 8481SOL     OW36904   3.769   0.892   2.983 -0.1470  0.1968  0.4919
 8481SOL    HW136905   3.683   0.865   3.016  0.7375 -1.7583  1.1181
 8481SOL    HW236906   3.827   0.824   3.015  0.2952 -0.2476 -1.2320
 8482SOL     OW36907   3.429   3.597   4.510  0.1312 -0.2583  0.3090
 8482SOL    HW136908   3.478   3.528   4.466 -0.3974 -0.5984  0.2547
 8482SOL    HW236909   3.412   3.569   4.600  0.2103  0.8995  0.6915
 8483SOL     OW36910   4.543   2.692   9.942  0.3607 -0.1302 -0.4252
 8483SOL    HW136911   4.460   2.660   9.978 -0.5611 -0.7153 -3.0407
 8483SOL    HW236912   4.566   2.761  10.005  0.0956 -0.1818 -0.2727
 8484SOL     OW36913   2.319   3.633   6.961 -0.8444  0.2006  0.1854
 8484SOL    HW136914   2.248   3.686   6.996 -0.3939  1.3518 -0.6633
 8484SOL    HW236915   2.375   3.638   7.038 -0.7847 -2.6139  0.3292
 8485SOL     OW36916   3.275   2.834  17.171 -0.4081  0.4284  0.1473
 8485SOL    HW136917   3.265   2.845  17.266  0.0280 -2.7439  0.5688
 8485SOL    HW236918   3.312   2.745  17.169  0.6393  0.8094  2.2233
 8486SOL     OW36919   4.475   3.662   9.385 -0.1078 -0.0223 -0.4282
 8486SOL    HW136920   4.509   3.740   9.341  1.3364 -1.3575 -1.6936
 8486SOL    HW236921   4.382   3.682   9.398  0.3280  0.7130  1.4963
 8487SOL     OW36922   3.452   4.231   9.906  0.5033  0.7342  0.3442
 8487SOL    HW136923   3.512   4.306   9.905  0.6752  0.5903  0.0063
 8487SOL    HW236924   3.458   4.188   9.822 -4.1852 -1.2075  1.0049
 8488SOL     OW36925   1.674   1.799   1.433 -0.4127  0.0923  0.3654
 8488SOL    HW136926   1.675   1.769   1.342 -1.4381  0.1864  0.3292
 8488SOL    HW236927   1.689   1.892   1.421 -0.1675  0.0197  0.0960
 8489SOL     OW36928   1.682   1.234  11.833  0.3284 -0.1566 -0.8152
 8489SOL    HW136929   1.701   1.323  11.860 -1.3137 -0.1162  0.2304
 8489SOL    HW236930   1.591   1.226  11.862  0.2959  0.7577 -0.6808
 8490SOL     OW36931   1.560   1.885   4.477  0.0812  0.0759  0.4289
 8490SOL    HW136932   1.608   1.961   4.444  0.5308 -0.5512 -0.3552
 8490SOL    HW236933   1.604   1.819   4.424 -0.5539 -0.1601  0.1928
 8491SOL     OW36934   1.103   3.502   6.622  0.1780 -0.6128  0.1610
 8491SOL    HW136935   1.010   3.486   6.639  0.1732 -1.4718 -0.6856
 8491SOL    HW236936   1.115   3.583   6.672  0.8369 -1.6692  1.6865
 8492SOL     OW36937   1.214   0.441   7.000 -0.1608  0.1880 -0.4146
 8492SOL    HW136938   1.292   0.391   6.976  0.6091  1.0190  0.4227
 8492SOL    HW236939   1.156   0.401   6.935 -0.3048 -0.4652  0.1128
 8493SOL     OW36940   0.578   3.257   5.625  0.0294 -0.4838  0.1929
 8493SOL    HW136941   0.564   3.352   5.622 -2.3366 -0.8010  1.0723
 8493SOL    HW236942   0.612   3.241   5.537  0.0223 -0.2013  0.1381
 8494SOL     OW36943   0.380   4.397   4.528  0.4672 -0.2629 -0.1319
 8494SOL    HW136944   0.415   4.483   4.504 -0.1963 -0.3712 -1.4454
 8494SOL    HW236945   0.444   4.370   4.595 -0.1670 -0.5964  0.3395
 8495SOL     OW36946   3.594   1.858   2.001 -0.4937 -0.0397 -0.1321
 8495SOL    HW136947   3.627   1.929   2.056  0.4346 -1.1221  0.6836
 8495SOL    HW236948   3.636   1.782   2.041 -1.8198  0.0909  1.4549
 8496SOL     OW36949   4.279   2.661   3.038  0.0828  0.2806  0.3908
 8496SOL    HW136950   4.251   2.704   2.958 -0.3271 -2.6228 -1.0079
 8496SOL    HW236951   4.301   2.574   3.006 -0.2959 -0.0283  0.9711
 8497SOL     OW36952   0.134   3.457   5.476 -0.0498  0.3276 -0.5242
 8497SOL    HW136953   0.158   3.400   5.549  0.6359 -0.9573 -1.7335
 8497SOL    HW236954   0.196   3.429   5.408 -0.8009  1.6807 -1.7872
 8498SOL     OW36955   3.550   0.777   3.103  0.1834 -0.1957  0.0569
 8498SOL    HW136956   3.553   0.740   3.191 -0.0347 -1.5369 -0.4968
 8498SOL    HW236957   3.523   0.697   3.057 -0.5672 -0.8344  1.6014
 8499SOL     OW36958   3.888   2.655  16.081 -0.3143  0.0198 -0.4297
 8499SOL    HW136959   3.832   2.720  16.037  0.7210 -0.0971 -1.9262
 8499SOL    HW236960   3.832   2.580  16.062 -0.9891  0.3497  0.2345
 8500SOL     OW36961   4.255   3.947   9.189 -0.2858 -0.1745  0.0309
 8500SOL    HW136962   4.244   4.036   9.156 -1.6921 -0.5064 -0.3783
 8500SOL    HW236963   4.258   3.973   9.281 -2.4363  1.1563 -0.2893
 8501SOL     OW36964   2.374   2.393   7.415 -0.0424 -0.1406 -0.0465
 8501SOL    HW136965   2.454   2.443   7.400  0.5438 -1.1433 -0.2274
 8501SOL    HW236966   2.335   2.394   7.327  2.3978 -0.4088 -1.1274
 8502SOL     OW36967   3.447   0.466   5.803  0.5306  0.4319  0.0819
 8502SOL    HW136968   3.520   0.407   5.819  2.2421  2.1153 -1.6218
 8502SOL    HW236969   3.418   0.489   5.892  1.0172  0.4391  0.2401
 8503SOL     OW36970   3.903   1.421   6.931  0.5571  0.0744  0.0960
 8503SOL    HW136971   3.839   1.364   6.890  0.4768  0.7481 -0.7200
 8503SOL    HW236972   3.964   1.448   6.862  0.8660 -1.4937 -0.2400
 8504SOL     OW36973   4.152   0.660   6.235  0.0438  0.6159  0.0386
 8504SOL    HW136974   4.119   0.583   6.280 -1.0153  1.3849  0.6007
 8504SOL    HW236975   4.083   0.723   6.258 -2.4850 -1.9454 -0.5826
 8505SOL     OW36976   2.785   0.026   5.303  0.0523  0.2655 -0.3024
 8505SOL    HW136977   2.743   4.672   5.337  0.0535 -0.1058 -1.1852
 8505SOL    HW236978   2.786   0.009   5.209  0.3945 -1.0698 -0.0651
 8506SOL     OW36979   0.711   0.187   5.910 -0.8996 -0.0058 -0.2426
 8506SOL    HW136980   0.795   0.233   5.908 -1.8427  1.6812 -1.2186
 8506SOL    HW236981   0.659   0.268   5.911 -0.1819  0.4607 -0.6256
 8507SOL     OW36982   2.630   1.070  14.681 -0.1381  0.1336 -0.5972
 8507SOL    HW136983   2.598   1.146  14.632  0.9266  0.4473 -0.8193
 8507SOL    HW236984   2.721   1.071  14.652 -0.2318 -1.2658 -0.9093
 8508SOL     OW36985   3.650   2.583   4.787 -0.6491  0.0710 -0.1655
 8508SOL    HW136986   3.595   2.602   4.711 -0.3706  1.1260 -0.1001
 8508SOL    HW236987   3.587   2.585   4.859 -1.5329  0.6816 -0.9681
 8509SOL     OW36988   1.094   1.788  14.156 -0.0650  0.0350  0.6188
 8509SOL    HW136989   1.052   1.715  14.110 -1.9875  0.7185  1.2967
 8509SOL    HW236990   1.115   1.841  14.080  1.2334 -1.1147  0.1646
 8510SOL     OW36991   1.503   0.022   8.242 -0.2239  0.3466  0.1785
 8510SOL    HW136992   1.504   0.018   8.146  3.8336 -0.2293  0.2321
 8510SOL    HW236993   1.573   0.086   8.260  1.2162 -1.3728  0.6492
 8511SOL     OW36994   1.535   4.057   6.708  0.3493  0.1162  0.9304
 8511SOL    HW136995   1.626   4.033   6.727 -0.7432 -3.4797  1.5579
 8511SOL    HW236996   1.527   4.054   6.613 -1.0833  0.2294  1.0457
 8512SOL     OW36997   3.227   0.206   8.837 -0.6952 -0.3909 -0.1401
 8512SOL    HW136998   3.308   0.241   8.799 -0.4328  0.8593  1.5526
 8512SOL    HW236999   3.252   0.114   8.826 -0.7470 -0.9323  4.2768
 8513SOL     OW37000   3.011   3.369  14.552  0.0551  0.2615 -0.9270
 8513SOL    HW137001   3.037   3.426  14.479 -2.3697 -0.3170 -2.2689
 8513SOL    HW237002   3.087   3.375  14.610  0.0987  1.9870 -1.1478
 8514SOL     OW37003   4.249   1.827   8.879 -0.3684  0.3654 -0.2797
 8514SOL    HW137004   4.269   1.815   8.972  1.0532 -2.1154 -0.8811
 8514SOL    HW237005   4.168   1.877   8.869  0.1907  1.2371 -0.3354
 8515SOL     OW37006   0.986   1.302  15.102  0.1008 -0.8473  0.2205
 8515SOL    HW137007   0.963   1.264  15.017  1.1002 -0.5714 -0.1780
 8515SOL    HW237008   1.063   1.246  15.112 -1.9122 -3.5136  0.5612
 8516SOL     OW37009   3.813   0.144  16.175 -0.0811 -0.1066 -0.5724
 8516SOL    HW137010   3.762   0.164  16.253  0.4717  0.4852 -0.3615
 8516SOL    HW237011   3.744   0.096  16.129 -0.7656 -1.7089  2.1450
 8517SOL     OW37012   1.427   0.200   7.264  0.3498  0.8753  0.3017
 8517SOL    HW137013   1.492   0.252   7.216 -0.0775 -0.4923 -1.7587
 8517SOL    HW237014   1.416   0.250   7.344 -3.5720  1.0311 -0.3368
 8518SOL     OW37015   1.216   2.723  12.116 -0.1915  0.7577 -0.1147
 8518SOL    HW137016   1.311   2.736  12.119 -0.5492  3.2827 -0.1351
 8518SOL    HW237017   1.201   2.787  12.046  0.5501 -0.7392 -1.6690
 8519SOL     OW37018   3.194   4.395   4.594 -0.4924  0.5281  0.0590
 8519SOL    HW137019   3.124   4.370   4.534 -0.5808  0.8351  0.0346
 8519SOL    HW237020   3.246   4.315   4.596  1.1767  1.6287  0.9334
 8520SOL     OW37021   3.196   2.527   7.401  0.1516  0.3162  0.1435
 8520SOL    HW137022   3.147   2.545   7.320  1.8692  2.3198 -0.4564
 8520SOL    HW237023   3.119   2.479   7.432 -0.2306  0.1481 -1.0636
 8521SOL     OW37024   2.647   1.715   2.683 -0.3241  0.5480  0.7531
 8521SOL    HW137025   2.631   1.627   2.650  1.3320 -0.3051  2.1968
 8521SOL    HW237026   2.731   1.695   2.725 -1.0712 -1.6789  1.2063
 8522SOL     OW37027   2.117   0.327   7.648  0.0501 -0.0090  0.1694
 8522SOL    HW137028   2.141   0.251   7.595  0.0086  1.0470 -1.3750
 8522SOL    HW237029   2.022   0.333   7.638 -0.0181 -1.2380  0.0611
 8523SOL     OW37030   1.915   3.272   5.820 -0.4837 -0.3462  0.4452
 8523SOL    HW137031   1.987   3.299   5.764 -0.5262  0.8505  0.9744
 8523SOL    HW237032   1.920   3.181   5.792 -0.9534 -0.9439  2.2658
 8524SOL     OW37033   4.062   0.887   6.971  0.0108  0.2721  0.1227
 8524SOL    HW137034   4.144   0.839   6.961 -0.5147 -0.7791  0.9527
 8524SOL    HW237035   4.033   0.873   7.061  2.2304 -0.1647  0.7607
 8525SOL     OW37036   3.568   3.531   5.666 -0.1256 -0.1299  0.0766
 8525SOL    HW137037   3.619   3.528   5.585 -1.2919  3.8857 -0.7929
 8525SOL    HW237038   3.641   3.522   5.728  1.5158  2.0703 -1.5292
 8526SOL     OW37039   1.264   0.998  10.885  0.1726  0.1236  0.2446
 8526SOL    HW137040   1.260   1.086  10.848 -2.3789 -0.8444 -1.8699
 8526SOL    HW237041   1.245   1.011  10.977  0.9613 -0.9191  0.5607
 8527SOL     OW37042   1.938   4.615   0.147 -0.4895  0.2280  0.5961
 8527SOL    HW137043   1.916   4.674   0.219 -1.2005  2.0055 -1.0535
 8527SOL    HW237044   2.003   4.670   0.103  2.7194 -2.3040  2.3018
 8528SOL     OW37045   4.046   0.555   6.552 -0.4327 -0.6736 -0.3744
 8528SOL    HW137046   3.951   0.564   6.548 -0.3224  0.5276 -0.4222
 8528SOL    HW237047   4.068   0.520   6.466 -1.1151 -1.1740 -0.3423
 8529SOL     OW37048   4.060   3.574   3.815 -0.2248  0.0483 -0.5401
 8529SOL    HW137049   4.111   3.610   3.888  1.5292  0.6089 -2.0499
 8529SOL    HW237050   4.060   3.644   3.750  2.3956  0.9362  0.4245
 8530SOL     OW37051   3.358   0.891  17.685 -0.2551 -0.2029  0.1657
 8530SOL    HW137052   3.281   0.940  17.658 -1.9649 -1.7412  2.2283
 8530SOL    HW237053   3.326   0.800  17.679 -1.4072  0.1554  0.9310
 8531SOL     OW37054   2.391   3.181   8.874 -0.0015  0.0407 -0.3515
 8531SOL    HW137055   2.365   3.098   8.835 -0.2169  0.0334 -0.1954
 8531SOL    HW237056   2.484   3.164   8.887 -0.1244 -0.6824 -0.4233
 8532SOL     OW37057   1.714   4.220  16.674  0.1935  0.5626  0.3913
 8532SOL    HW137058   1.726   4.146  16.614 -0.5874 -0.5557  1.6201
 8532SOL    HW237059   1.654   4.179  16.736  0.0199 -0.5580 -0.5211
 8533SOL     OW37060   4.276   2.817   1.899 -0.6582  0.1685 -0.1475
 8533SOL    HW137061   4.339   2.869   1.948  0.1116  0.4405 -1.4210
 8533SOL    HW237062   4.199   2.873   1.894 -0.8990 -0.3353 -2.0935
 8534SOL     OW37063   4.698   2.906   5.687 -0.6299  0.4006 -0.4997
 8534SOL    HW137064   0.029   2.830   5.705 -1.2104  0.2009  0.4879
 8534SOL    HW237065   4.618   2.879   5.733 -2.0975  1.7498 -2.2885
 8535SOL     OW37066   1.072   1.754  16.938  0.2349 -0.1966  0.1302
 8535SOL    HW137067   1.032   1.786  16.857  1.0131  2.3991  0.7618
 8535SOL    HW237068   1.122   1.677  16.913  1.8868  0.4841  1.3383
 8536SOL     OW37069   1.178   1.568  10.893  0.2924  0.0290 -0.4901
 8536SOL    HW137070   1.130   1.592  10.814 -0.4501 -0.3466 -0.1461
 8536SOL    HW237071   1.144   1.635  10.952  0.1955  0.2698 -0.8187
 8537SOL     OW37072   3.655   1.215   4.861  0.6436 -0.4470 -0.2950
 8537SOL    HW137073   3.569   1.187   4.830 -0.9194  2.7587  1.2012
 8537SOL    HW237074   3.708   1.135   4.853  1.0409 -0.4001  1.8478
 8538SOL     OW37075   3.479   4.196  17.382  0.3280 -0.8618 -0.1503
 8538SOL    HW137076   3.403   4.148  17.416  0.9553 -1.9485 -0.2832
 8538SOL    HW237077   3.462   4.182  17.289 -1.1191  3.3367 -0.5336
 8539SOL     OW37078   2.246   2.162   8.503 -0.2018 -0.0849  0.0821
 8539SOL    HW137079   2.197   2.239   8.532  0.1032  0.6674 -1.3796
 8539SOL    HW237080   2.254   2.103   8.578 -1.3757 -2.4370 -1.6571
 8540SOL     OW37081   4.575   2.494   4.423 -0.0616 -0.3002 -0.6455
 8540SOL    HW137082   4.568   2.580   4.466  1.8684 -0.5766  0.2356
 8540SOL    HW237083   4.646   2.506   4.359 -0.4123  1.8428 -0.6561
 8541SOL     OW37084   2.184   2.384  11.590 -0.2019 -0.0268  0.1524
 8541SOL    HW137085   2.234   2.316  11.545 -2.6757 -1.2369 -0.7571
 8541SOL    HW237086   2.182   2.455  11.527  0.7981  1.4017  1.7374
 8542SOL     OW37087   1.498   2.017   8.208  0.3312 -0.2479 -0.1542
 8542SOL    HW137088   1.502   2.098   8.259  1.4938 -0.7343  0.5434
 8542SOL    HW237089   1.412   2.027   8.167 -0.6421 -0.6676  1.7548
 8543SOL     OW37090   2.024   1.081   0.061  0.3670 -0.1688  0.3749
 8543SOL    HW137091   2.060   0.999   0.027  0.3074  0.4347 -1.1209
 8543SOL    HW237092   1.971   1.047   0.133 -2.8675  1.9518 -1.0411
 8544SOL     OW37093   2.269   3.187   3.250  0.3537 -0.8983  0.0608
 8544SOL    HW137094   2.193   3.204   3.306 -1.5862 -2.3427 -2.1556
 8544SOL    HW237095   2.265   3.094   3.229 -1.0883 -0.8254 -0.0381
 8545SOL     OW37096   4.041   2.777   9.536 -0.0203 -0.3372 -0.7642
 8545SOL    HW137097   4.021   2.861   9.495  0.2364  0.7604  1.3089
 8545SOL    HW237098   4.136   2.782   9.537  0.0894 -2.8858 -0.4421
 8546SOL     OW37099   3.686   1.068   5.698 -0.3832  0.4369  0.2964
 8546SOL    HW137100   3.726   1.154   5.684  0.6550 -0.2240 -0.7611
 8546SOL    HW237101   3.610   1.083   5.642 -0.0076 -0.0942 -0.3511
 8547SOL     OW37102   3.766   4.062   4.822 -0.1871 -0.4094  0.3580
 8547SOL    HW137103   3.701   4.132   4.819 -1.5963 -1.7390 -0.3715
 8547SOL    HW237104   3.848   4.099   4.854  0.1448 -0.0018 -0.9439
 8548SOL     OW37105   2.176   0.307   5.166 -0.1000 -0.5896 -0.4092
 8548SOL    HW137106   2.191   0.381   5.106  2.0660  0.6744  1.7081
 8548SOL    HW237107   2.244   0.250   5.131  1.7957 -0.1769  2.6229
 8549SOL     OW37108   4.609   4.326   6.762  0.3954 -0.0125  0.0283
 8549SOL    HW137109   4.658   4.270   6.823 -1.0664 -0.9356  0.3626
 8549SOL    HW237110   4.556   4.265   6.711  0.5693  0.5977 -0.8696
 8550SOL     OW37111   1.954   3.287  12.820  0.1424 -0.3780  0.2249
 8550SOL    HW137112   1.960   3.265  12.913 -0.2180  0.2393  0.3927
 8550SOL    HW237113   1.881   3.349  12.818  1.1790  0.8273  0.1504
 8551SOL     OW37114   1.662   3.002   4.924 -0.4039 -0.2290  0.1862
 8551SOL    HW137115   1.589   2.978   4.867  0.0252 -2.1258  0.4397
 8551SOL    HW237116   1.651   2.932   4.988  2.6034 -1.1801 -0.3440
 8552SOL     OW37117   4.251   1.465   8.040 -0.6328 -0.7987 -0.2149
 8552SOL    HW137118   4.324   1.453   7.979 -1.0182  1.0738 -1.0358
 8552SOL    HW237119   4.256   1.553   8.077 -0.8250 -1.2547  0.8990
 8553SOL     OW37120   1.113   3.109  13.065 -0.2242  0.1690 -0.0543
 8553SOL    HW137121   1.081   3.061  12.988  2.4748 -2.8846  0.6865
 8553SOL    HW237122   1.063   3.076  13.140 -1.2739  1.3344 -0.2523
 8554SOL     OW37123   0.422   0.135   6.380  0.1170 -0.6048 -0.1514
 8554SOL    HW137124   0.382   0.054   6.413 -2.8204  1.0557  0.3627
 8554SOL    HW237125   0.437   0.112   6.288 -0.7603 -2.2883  0.1068
 8555SOL     OW37126   1.172   2.105   8.476 -0.0339  0.2628 -0.1105
 8555SOL    HW137127   1.207   2.153   8.401 -1.9535 -0.1045 -1.2385
 8555SOL    HW237128   1.083   2.140   8.471 -0.3668 -0.7646 -1.6045
 8556SOL     OW37129   1.634   3.967   8.460  0.2468  0.0216  0.2548
 8556SOL    HW137130   1.643   3.916   8.541 -1.4797 -0.9047 -0.1232
 8556SOL    HW237131   1.611   4.053   8.494  1.8913  0.6373 -0.1762
 8557SOL     OW37132   0.671   1.695   2.629 -0.3304  0.2990  0.3081
 8557SOL    HW137133   0.647   1.604   2.642 -0.0002 -0.0205 -1.3893
 8557SOL    HW237134   0.733   1.707   2.701 -0.1021 -0.7719  0.2846
 8558SOL     OW37135   1.485   2.677   1.350  0.4803  0.5564  0.2956
 8558SOL    HW137136   1.443   2.749   1.398 -1.2034 -0.1360 -0.1201
 8558SOL    HW237137   1.465   2.706   1.261 -1.2925 -0.9462  0.2090
 8559SOL     OW37138   2.324   1.594   4.367  0.2052 -0.7399 -0.1661
 8559SOL    HW137139   2.255   1.529   4.355 -1.9421  1.8071 -1.6023
 8559SOL    HW237140   2.299   1.651   4.295  0.5066 -0.0051  0.3183
 8560SOL     OW37141   2.161   0.480   4.927  0.4320  0.2676 -0.2277
 8560SOL    HW137142   2.107   0.556   4.903  1.0058  0.3298 -1.3184
 8560SOL    HW237143   2.245   0.519   4.901  0.5402  1.2662  1.5615
 8561SOL     OW37144   3.454   0.495   9.366  0.0873  0.0113  0.1235
 8561SOL    HW137145   3.395   0.442   9.313 -3.4015  1.0425  3.0117
 8561SOL    HW237146   3.407   0.494   9.450  0.2843  0.3931  0.2399
 8562SOL     OW37147   4.537   2.426   8.009  0.0965 -0.3105  0.2169
 8562SOL    HW137148   4.466   2.378   7.968  1.7120 -1.3626 -1.3474
 8562SOL    HW237149   4.594   2.421   7.932 -2.2184 -0.3019 -1.4616
 8563SOL     OW37150   1.941   0.990   4.147  0.0942 -0.2349  0.4585
 8563SOL    HW137151   1.980   1.069   4.185  1.3281 -0.8690  0.4977
 8563SOL    HW237152   1.987   0.996   4.063  1.5488  1.0523  1.3568
 8564SOL     OW37153   4.446   4.471   2.189 -0.4289 -0.3279 -0.6899
 8564SOL    HW137154   4.486   4.514   2.114  0.1625  0.3073 -0.0116
 8564SOL    HW237155   4.381   4.538   2.213  1.2608  1.2628 -0.5957
 8565SOL     OW37156   1.310   4.696   7.522  0.1480 -0.3456  0.6013
 8565SOL    HW137157   1.382   4.699   7.459 -0.9873 -0.5659 -0.6866
 8565SOL    HW237158   1.323   0.056   7.563 -0.8186  0.9783 -1.9019
 8566SOL     OW37159   1.763   4.582   3.896 -0.4874  0.0006 -0.2946
 8566SOL    HW137160   1.732   4.586   3.805  0.8930 -3.1242 -0.8958
 8566SOL    HW237161   1.734   4.672   3.914  2.3031  0.6771  0.8897
 8567SOL     OW37162   3.983   0.670  11.676  0.3376  0.3290 -0.2425
 8567SOL    HW137163   3.914   0.676  11.742  0.0521 -2.9107 -0.2433
 8567SOL    HW237164   4.041   0.741  11.703  1.1765 -0.5548  0.2526
 8568SOL     OW37165   2.263   0.980   6.128  0.7227 -0.9733 -0.4492
 8568SOL    HW137166   2.304   0.899   6.159  0.7947 -0.4854  0.7195
 8568SOL    HW237167   2.226   0.933   6.053 -1.2312 -1.2565  0.6775
 8569SOL     OW37168   1.292   4.080  10.877  0.3668  0.2665  0.0510
 8569SOL    HW137169   1.355   4.015  10.846 -1.1633 -2.2376  2.2189
 8569SOL    HW237170   1.359   4.133  10.919 -0.0782  1.4246 -0.6959
 8570SOL     OW37171   3.232   2.860   8.519 -0.5158 -0.1817 -0.3328
 8570SOL    HW137172   3.140   2.885   8.523 -0.1981  0.6071  2.1993
 8570SOL    HW237173   3.262   2.921   8.452 -0.5299  2.3315  1.9855
 8571SOL     OW37174   2.569   1.834  15.003 -0.1024 -0.5164  0.2382
 8571SOL    HW137175   2.514   1.757  14.987 -0.3591 -0.3511  0.3169
 8571SOL    HW237176   2.605   1.821  15.090  0.1197 -5.1110 -0.5291
 8572SOL     OW37177   1.956   2.891  12.544 -0.4764  0.5576  0.6050
 8572SOL    HW137178   2.028   2.851  12.496 -1.5674  0.0951 -0.6811
 8572SOL    HW237179   1.948   2.818  12.605  0.9728 -0.9718 -1.0158
 8573SOL     OW37180   3.774   0.993   4.819  0.0382  0.1773 -0.5368
 8573SOL    HW137181   3.758   0.935   4.744 -0.8515  0.1552 -0.3225
 8573SOL    HW237182   3.809   0.927   4.879 -2.3516  0.3782  1.0460
 8574SOL     OW37183   2.590   2.205  12.331  0.0380  0.4471 -0.5588
 8574SOL    HW137184   2.526   2.144  12.295  1.3593 -1.2245 -0.0561
 8574SOL    HW237185   2.542   2.226  12.411  1.0087  0.3436  0.0516
 8575SOL     OW37186   3.892   0.368   7.701 -1.0467  0.4645  0.3352
 8575SOL    HW137187   3.799   0.348   7.685 -1.0389 -0.7364  1.7259
 8575SOL    HW237188   3.891   0.463   7.701  0.5233  0.4629 -2.0509
 8576SOL     OW37189   0.008   2.833   2.594 -0.1506  0.1098  0.2832
 8576SOL    HW137190   0.030   2.758   2.539  0.1104 -0.3245  0.9830
 8576SOL    HW237191   4.647   2.809   2.628 -0.2597 -0.7291 -0.6069
 8577SOL     OW37192   2.601   1.452   2.550  0.6265  0.3526  0.1002
 8577SOL    HW137193   2.665   1.430   2.482  1.9671  1.7988  0.8982
 8577SOL    HW237194   2.531   1.487   2.495  1.7312  1.6011 -0.5073
 8578SOL     OW37195   0.267   0.825  14.645  0.2207 -0.4667 -0.0425
 8578SOL    HW137196   0.357   0.795  14.628  1.3201  2.7763 -0.0289
 8578SOL    HW237197   0.258   0.817  14.740 -0.7419  1.7126  0.0294
 8579SOL     OW37198   3.937   4.637   4.088  0.1406 -0.3341 -0.0081
 8579SOL    HW137199   3.868   4.631   4.154  1.9685 -1.4409  1.7957
 8579SOL    HW237200   4.015   4.632   4.142 -0.7313  1.2907  1.4144
 8580SOL     OW37201   1.293   1.612   5.651  0.2130 -0.5889 -0.8522
 8580SOL    HW137202   1.316   1.521   5.670  0.9539  0.1579  1.8942
 8580SOL    HW237203   1.378   1.644   5.621 -0.8828 -0.4384 -3.8321
 8581SOL     OW37204   3.306   1.033   1.470 -0.9366 -0.0647 -0.1642
 8581SOL    HW137205   3.297   0.997   1.382  0.5066 -0.0889 -0.3022
 8581SOL    HW237206   3.292   1.127   1.455  1.6544  0.6335  1.7403
 8582SOL     OW37207   1.954   3.849  14.691 -0.5306  0.1419 -0.2829
 8582SOL    HW137208   1.970   3.892  14.607  1.8942  0.5053  0.3842
 8582SOL    HW237209   1.870   3.803  14.681  0.3856 -1.8285  1.1800
 8583SOL     OW37210   1.638   3.150   8.056 -0.8121 -0.2861 -0.6317
 8583SOL    HW137211   1.729   3.160   8.027  0.8701 -3.6783  3.5288
 8583SOL    HW237212   1.601   3.147   7.967 -2.4409  3.6059 -0.0949
 8584SOL     OW37213   3.727   3.576  15.739 -0.0162  0.6326 -0.6002
 8584SOL    HW137214   3.803   3.629  15.761  0.0737 -0.4299  1.6173
 8584SOL    HW237215   3.750   3.495  15.785 -0.7679 -0.6444 -2.4492
 8585SOL     OW37216   2.441   2.289   4.503  0.1099  0.4357 -0.5088
 8585SOL    HW137217   2.536   2.303   4.499 -0.0168  0.8180 -2.0500
 8585SOL    HW237218   2.445   2.208   4.555 -0.7528  0.1914 -0.8200
 8586SOL     OW37219   1.330   3.391   9.529  0.5106  0.1920  0.5935
 8586SOL    HW137220   1.399   3.457   9.527  0.2155  0.4234 -2.1658
 8586SOL    HW237221   1.288   3.412   9.612 -1.0151  0.4208 -0.2257
 8587SOL     OW37222   0.403   0.677   1.137  0.2369 -0.1940  0.2264
 8587SOL    HW137223   0.471   0.742   1.155  0.4452 -0.2192 -0.4868
 8587SOL    HW237224   0.368   0.651   1.222 -1.1871  1.9110  0.2988
 8588SOL     OW37225   0.030   2.679   7.092  0.0190  0.6787  0.4325
 8588SOL    HW137226   0.064   2.594   7.065 -0.3383  0.7574 -0.2537
 8588SOL    HW237227   0.082   2.704   7.168 -0.4273 -0.5743  1.1584
 8589SOL     OW37228   3.923   3.719  16.510  0.1876  0.2659 -0.2055
 8589SOL    HW137229   3.962   3.761  16.587  0.7149  0.6976 -0.7092
 8589SOL    HW237230   3.854   3.783  16.493  0.0722  0.8244  2.3485
 8590SOL     OW37231   0.701   2.688   3.222  0.3788  0.3519  0.0068
 8590SOL    HW137232   0.635   2.737   3.271 -0.5378 -0.4049 -0.4642
 8590SOL    HW237233   0.651   2.649   3.151 -0.2898 -1.8980  1.7225
 8591SOL     OW37234   2.093   2.127   3.532  0.2639  0.0431  0.0829
 8591SOL    HW137235   2.046   2.044   3.532  0.3338  0.0134 -1.3917
 8591SOL    HW237236   2.027   2.187   3.568 -0.0344  1.0135 -2.0834
 8592SOL     OW37237   0.208   3.244   8.232  0.1460  0.0657  0.3224
 8592SOL    HW137238   0.219   3.287   8.316 -0.6690 -0.9046  0.9280
 8592SOL    HW237239   0.121   3.276   8.209  0.7138  1.0842 -0.3637
 8593SOL     OW37240   3.188   3.309   8.261  0.0030  0.2258  0.0362
 8593SOL    HW137241   3.169   3.362   8.338  0.7675 -1.2620  1.2317
 8593SOL    HW237242   3.259   3.355   8.215  1.6751  0.0094  2.3946
 8594SOL     OW37243   4.367   4.526   5.731 -0.0825  0.0096  0.3542
 8594SOL    HW137244   4.342   4.555   5.643  0.6271 -3.0921 -0.8681
 8594SOL    HW237245   4.303   4.578   5.779 -1.2584 -2.4158  1.4227
 8595SOL     OW37246   2.100   1.020  14.230 -0.2590 -0.0127 -0.7504
 8595SOL    HW137247   2.088   1.008  14.324  1.7657  1.4212 -0.2857
 8595SOL    HW237248   2.149   0.943  14.200  1.2455  1.4332 -2.0467
 8596SOL     OW37249   4.264   0.247  17.165  0.0993  0.0507 -0.9477
 8596SOL    HW137250   4.273   0.159  17.128  2.5328 -0.1545  0.1470
 8596SOL    HW237251   4.188   0.242  17.222 -0.4338 -0.3647 -1.6852
 8597SOL     OW37252   3.943   4.443  13.880 -0.0156  0.2189  0.1538
 8597SOL    HW137253   3.930   4.447  13.786 -0.9363  0.5561  0.2934
 8597SOL    HW237254   4.035   4.471  13.884 -0.8275  2.9279 -0.2176
 8598SOL     OW37255   0.242   1.489   5.664  0.3278  0.6290 -0.1480
 8598SOL    HW137256   0.336   1.500   5.670  0.4165  0.8754 -1.9063
 8598SOL    HW237257   0.217   1.540   5.587 -0.1536  1.6907  0.7011
 8599SOL     OW37258   0.859   0.657  11.817  0.6235 -0.4054 -0.0410
 8599SOL    HW137259   0.845   0.645  11.723  1.5618 -0.2377 -0.1951
 8599SOL    HW237260   0.948   0.625  11.828  0.4639 -1.6326 -2.2942
 8600SOL     OW37261   2.984   0.313  17.107 -0.2355  0.6196 -0.2246
 8600SOL    HW137262   3.016   0.362  17.031  1.7873  0.6937  0.6681
 8600SOL    HW237263   2.899   0.353  17.123  0.0875  1.5485 -0.8236
 8601SOL     OW37264   0.038   1.201   8.619  0.1484 -0.3870 -0.3567
 8601SOL    HW137265   4.681   1.152   8.622  0.1812 -0.4901 -1.0657
 8601SOL    HW237266   0.090   1.165   8.547  1.2357  1.1073 -0.3082
 8602SOL     OW37267   3.479   2.610  12.810  0.0463 -0.3062 -0.7860
 8602SOL    HW137268   3.541   2.567  12.751  1.8067 -0.8885  1.5055
 8602SOL    HW237269   3.486   2.552  12.886 -0.2303  0.1771 -0.3956
 8603SOL     OW37270   0.404   0.348  11.363 -0.7815  0.2083 -0.5334
 8603SOL    HW137271   0.496   0.364  11.384 -0.5476 -0.3032 -1.1758
 8603SOL    HW237272   0.410   0.267  11.313 -0.4992 -0.3930  0.4617
 8604SOL     OW37273   1.312   1.989   6.939 -0.0321 -0.3671 -0.4727
 8604SOL    HW137274   1.318   2.066   6.994  1.2694 -1.4527  0.9123
 8604SOL    HW237275   1.310   1.924   7.009 -0.2052  0.6341  0.4399
 8605SOL     OW37276   0.870   1.849   6.628  0.1697 -0.3862  0.2977
 8605SOL    HW137277   0.961   1.845   6.657  0.2878  0.0894 -0.0093
 8605SOL    HW237278   0.830   1.765   6.651  2.1055 -0.7796  2.2854
 8606SOL     OW37279   2.195   1.222   0.864  0.1227  0.2928 -0.4273
 8606SOL    HW137280   2.177   1.311   0.835  2.0887  0.7002 -0.3489
 8606SOL    HW237281   2.187   1.171   0.783 -2.6070 -0.7903  0.5138
 8607SOL     OW37282   2.245   0.025  16.748  0.0846 -0.3349  0.2872
 8607SOL    HW137283   2.183   4.683  16.718  1.0679 -2.0010  2.0251
 8607SOL    HW237284   2.204   0.049  16.831  2.4766 -0.6641  1.5583
 8608SOL     OW37285   3.652   4.227   7.610 -0.0273 -0.0370  0.0102
 8608SOL    HW137286   3.642   4.199   7.702  4.8853  0.2146  0.6253
 8608SOL    HW237287   3.565   4.266   7.606 -0.4310 -0.7870  1.2301
 8609SOL     OW37288   2.360   3.324   8.531  0.3481  0.2084 -0.1402
 8609SOL    HW137289   2.421   3.391   8.562 -0.9950  1.8246 -1.0104
 8609SOL    HW237290   2.300   3.320   8.605 -1.1497 -2.2101 -1.4846
 8610SOL     OW37291   4.584   0.717   5.840 -0.2099 -0.0109 -0.4857
 8610SOL    HW137292   4.590   0.648   5.906  1.5783 -0.9640 -1.6224
 8610SOL    HW237293   4.631   0.670   5.770 -2.0673 -1.3122 -0.8626
 8611SOL     OW37294   3.373   2.167   7.438  0.0501 -0.3780 -0.7625
 8611SOL    HW137295   3.305   2.176   7.505  2.9662  0.7431  2.0550
 8611SOL    HW237296   3.337   2.121   7.363 -2.1202 -2.6860  1.6872
 8612SOL     OW37297   0.400   0.301   3.695  0.1577  0.1152 -0.0321
 8612SOL    HW137298   0.494   0.316   3.687  0.1620 -0.4727 -0.9537
 8612SOL    HW237299   0.369   0.385   3.731 -0.5441 -0.0098 -0.3544
 8613SOL     OW37300   1.553   0.443   6.475 -0.0729 -0.2681  0.4292
 8613SOL    HW137301   1.520   0.373   6.533  0.4455  0.0044  1.0601
 8613SOL    HW237302   1.512   0.522   6.511 -0.1785  0.0237 -0.3520
 8614SOL     OW37303   3.780   3.198   8.972  0.1858  0.1864  0.1570
 8614SOL    HW137304   3.698   3.186   9.020 -0.1884  0.4152 -0.4360
 8614SOL    HW237305   3.752   3.187   8.881  2.3176  0.4513 -0.5415
 8615SOL     OW37306   1.283   1.759   7.121 -0.8167 -0.5855  0.0870
 8615SOL    HW137307   1.238   1.674   7.127 -0.1171 -0.9704 -0.0753
 8615SOL    HW237308   1.366   1.714   7.140 -0.1994  1.6491  2.6023
 8616SOL     OW37309   2.277   4.144   8.141 -0.6893  0.4821 -0.1268
 8616SOL    HW137310   2.363   4.127   8.102 -0.9806 -1.5563  0.1265
 8616SOL    HW237311   2.267   4.239   8.127  1.5509  0.5269 -1.4204
 8617SOL     OW37312   2.400   1.743  10.847  0.2546  0.5645 -0.4571
 8617SOL    HW137313   2.312   1.729  10.882  0.0085  0.7044 -1.0290
 8617SOL    HW237314   2.398   1.696  10.764  1.7147  1.7799 -1.1690
 8618SOL     OW37315   4.702   0.954   8.355 -0.2387 -0.4632 -0.0966
 8618SOL    HW137316   4.669   0.958   8.444  2.6487 -2.0623  1.0411
 8618SOL    HW237317   0.056   1.007   8.363 -0.9948  0.3499  1.9983
 8619SOL     OW37318   2.710   0.551   3.166 -0.2626  0.0067 -0.1376
 8619SOL    HW137319   2.698   0.575   3.258  1.0823  1.0674 -0.2398
 8619SOL    HW237320   2.713   0.639   3.129  0.8653  0.8930  2.0394
 8620SOL     OW37321   3.911   0.826  16.131  0.0964  0.0420  0.0190
 8620SOL    HW137322   3.835   0.799  16.182 -1.3071  0.3870 -1.9077
 8620SOL    HW237323   3.952   0.740  16.134  0.5208  0.2271 -0.4689
 8621SOL     OW37324   3.500   2.290   8.495 -0.1933  0.4944 -0.1817
 8621SOL    HW137325   3.422   2.234   8.494 -0.0835  0.3225  0.6708
 8621SOL    HW237326   3.570   2.228   8.472 -0.6710 -0.3099  0.5156
 8622SOL     OW37327   3.812   0.461  11.420  0.2469 -0.2116 -0.1782
 8622SOL    HW137328   3.768   0.465  11.335 -1.7455  1.0479  0.9122
 8622SOL    HW237329   3.847   0.549  11.434 -2.2495  1.0079 -1.7568
 8623SOL     OW37330   4.000   0.609   7.722  0.2422  0.2466  0.3704
 8623SOL    HW137331   3.991   0.648   7.810  2.5265  3.6093 -0.9000
 8623SOL    HW237332   4.089   0.621   7.689  0.0996 -1.4246 -0.6264
 8624SOL     OW37333   4.319   1.778  13.277  0.7085 -0.1442  0.5181
 8624SOL    HW137334   4.355   1.694  13.305  0.6986 -0.3476 -0.0823
 8624SOL    HW237335   4.227   1.760  13.299  0.9950 -0.7835  1.2211
 8625SOL     OW37336   0.095   1.645  14.015 -0.3619 -0.5448 -0.2650
 8625SOL    HW137337   0.121   1.700  14.089 -1.6978 -1.6389  1.0118
 8625SOL    HW237338   0.010   1.686  14.001  0.6107  2.1033  1.5071
 8626SOL     OW37339   1.882   2.716   7.647 -0.6937  0.5158 -0.1480
 8626SOL    HW137340   1.863   2.810   7.643 -2.9738  0.0486 -0.4114
 8626SOL    HW237341   1.931   2.709   7.729  0.5619 -0.1232 -0.9573
 8627SOL     OW37342   4.531   3.385   3.379  0.2445  0.3682 -0.5341
 8627SOL    HW137343   4.601   3.444   3.352  1.2916 -0.9418 -0.6871
 8627SOL    HW237344   4.509   3.435   3.457  1.3893  0.0789 -0.0347
 8628SOL     OW37345   4.480   0.425  15.960 -0.5157  0.0820 -0.7372
 8628SOL    HW137346   4.528   0.464  16.032 -0.2495  0.6804 -1.2363
 8628SOL    HW237347   4.396   0.472  15.964 -1.2587 -1.2279 -0.8318
 8629SOL     OW37348   0.182   2.505  10.900  0.3416  0.2853 -0.2870
 8629SOL    HW137349   0.168   2.420  10.859  0.6663 -1.0939  2.5494
 8629SOL    HW237350   0.113   2.562  10.864 -0.9809 -2.1671 -1.5942
 8630SOL     OW37351   0.250   0.516   2.136 -0.7182 -0.3037  0.2384
 8630SOL    HW137352   0.200   0.468   2.203 -2.3738  1.9902  0.6508
 8630SOL    HW237353   0.188   0.494   2.067 -3.2089 -0.3341  2.4630
 8631SOL     OW37354   3.840   1.119   9.084  0.8349 -0.3448  0.7099
 8631SOL    HW137355   3.918   1.174   9.074  0.0838  0.6530  0.3159
 8631SOL    HW237356   3.867   1.049   9.025 -3.1157  0.7936 -2.4714
 8632SOL     OW37357   3.638   2.796   8.428 -0.4841  0.3999  0.2146
 8632SOL    HW137358   3.722   2.828   8.460 -0.5525  1.7662 -0.9735
 8632SOL    HW237359   3.607   2.755   8.509  0.0823  0.4491  0.4565
 8633SOL     OW37360   2.317   0.421   8.841  0.3157  0.2136 -0.0483
 8633SOL    HW137361   2.352   0.341   8.803 -2.2794 -1.1346  0.4282
 8633SOL    HW237362   2.268   0.376   8.910 -0.2308  0.4438 -0.2844
 8634SOL     OW37363   3.159   1.857   4.259  0.1436  0.0555 -0.1740
 8634SOL    HW137364   3.190   1.890   4.344 -0.2516  3.4535 -1.3630
 8634SOL    HW237365   3.235   1.804   4.236  2.6218  3.3894  0.4767
 8635SOL     OW37366   1.182   2.655  10.617 -0.5366  0.3663 -0.8155
 8635SOL    HW137367   1.166   2.560  10.611 -0.0291  0.2745 -0.6625
 8635SOL    HW237368   1.117   2.677  10.684 -0.2389 -2.3740  0.3866
 8636SOL     OW37369   2.206   3.215   8.332 -0.0037 -0.2759  0.2659
 8636SOL    HW137370   2.250   3.280   8.388 -1.3035 -0.4988  1.5475
 8636SOL    HW237371   2.225   3.134   8.379 -3.9074 -1.0999  0.4286
 8637SOL     OW37372   3.971   3.358   6.933 -0.4475  0.3484  0.4152
 8637SOL    HW137373   4.030   3.347   7.009  0.1834  1.1216  0.0437
 8637SOL    HW237374   4.022   3.414   6.875 -0.8669  0.4133  0.1121
 8638SOL     OW37375   3.898   4.069  14.776 -0.7186 -0.0771  0.1537
 8638SOL    HW137376   3.916   4.163  14.770  0.2201 -0.2261  0.7222
 8638SOL    HW237377   3.910   4.025  14.692  1.9707 -2.9565  2.0580
 8639SOL     OW37378   4.341   3.929   5.805 -0.5845  0.2181 -0.1266
 8639SOL    HW137379   4.419   3.972   5.769 -0.2063 -0.2387  0.1367
 8639SOL    HW237380   4.283   3.920   5.730 -0.4619  2.2633 -0.4652
 8640SOL     OW37381   2.064   1.504  12.400 -0.5759 -0.2565  0.1987
 8640SOL    HW137382   1.995   1.563  12.369 -1.1788 -0.7573  0.5861
 8640SOL    HW237383   2.143   1.535  12.356 -0.1337 -1.1642  0.3538
 8641SOL     OW37384   0.555   0.882   5.943  0.0100 -0.5017 -0.4177
 8641SOL    HW137385   0.623   0.943   5.916  1.0175 -1.6923 -0.5866
 8641SOL    HW237386   0.482   0.941   5.960 -0.6619 -1.3952 -0.1885
 8642SOL     OW37387   4.579   1.338   5.419 -0.6505  0.0748  0.0157
 8642SOL    HW137388   4.588   1.245   5.439 -0.1276  0.0116 -0.5142
 8642SOL    HW237389   4.633   1.345   5.340 -0.2712  2.5553  0.5128
 8643SOL     OW37390   3.121   3.408   5.094  0.4094  0.5234 -0.5143
 8643SOL    HW137391   3.095   3.497   5.120 -0.4236  0.1276  0.0072
 8643SOL    HW237392   3.198   3.405   5.151  0.8443  1.1901 -1.0718
 8644SOL     OW37393   4.077   2.326  12.674  0.6263  0.3464  0.5186
 8644SOL    HW137394   3.993   2.282  12.661  1.1415  0.1071 -2.1545
 8644SOL    HW237395   4.113   2.266  12.740  2.4614 -0.5837 -1.3069
 8645SOL     OW37396   1.777   2.156  10.640 -0.8386 -0.3535  0.0320
 8645SOL    HW137397   1.776   2.082  10.580  3.0175  0.2869 -0.8145
 8645SOL    HW237398   1.754   2.121  10.726  2.2274  0.3199  1.1161
 8646SOL     OW37399   3.264   3.752   3.331 -0.4192  0.1231 -0.6495
 8646SOL    HW137400   3.308   3.782   3.252 -1.3810  2.0576 -0.4649
 8646SOL    HW237401   3.325   3.764   3.404 -1.0886  0.7254 -0.1909
 8647SOL     OW37402   1.480   4.472   7.873 -0.3010  0.3591  0.0699
 8647SOL    HW137403   1.482   4.439   7.963  1.0745  2.0193  0.6440
 8647SOL    HW237404   1.461   4.395   7.819 -0.6688 -0.3291  1.1727
 8648SOL     OW37405   1.289   2.502   2.609  0.0901 -0.0455  0.2326
 8648SOL    HW137406   1.330   2.483   2.524 -0.1073  0.0709  0.1094
 8648SOL    HW237407   1.212   2.552   2.579 -0.3057 -1.6952 -1.4769
 8649SOL     OW37408   0.663   1.889  12.289  0.2457  0.2825  0.1090
 8649SOL    HW137409   0.623   1.803  12.297  2.3869 -0.6696  0.6494
 8649SOL    HW237410   0.611   1.935  12.355 -0.4220 -3.1469  1.9598
 8650SOL     OW37411   2.931   4.235  10.049  0.2725  0.0037  0.0807
 8650SOL    HW137412   2.926   4.140  10.032  0.5413 -0.0667  0.3924
 8650SOL    HW237413   3.018   4.263  10.024 -0.5983  2.2256 -0.4137
 8651SOL     OW37414   2.196   3.264   5.072 -0.5818  0.1279  0.5812
 8651SOL    HW137415   2.129   3.331   5.084  0.5816  1.0241  2.2112
 8651SOL    HW237416   2.166   3.192   5.128 -0.2675 -0.5606 -0.1425
 8652SOL     OW37417   4.125   4.424   5.276  0.4203  0.2560 -0.1222
 8652SOL    HW137418   4.065   4.479   5.326 -1.4491  0.5628 -2.7112
 8652SOL    HW237419   4.108   4.335   5.308  2.7781  0.6252  2.1092
 8653SOL     OW37420   1.875   3.913  17.528  0.0293  0.3136  0.0272
 8653SOL    HW137421   1.801   3.852  17.529 -0.8396  1.4166  1.9492
 8653SOL    HW237422   1.897   3.923  17.435 -0.3862  0.6845 -0.0336
 8654SOL     OW37423   2.620   2.165   6.120 -0.3263  0.1935 -0.1673
 8654SOL    HW137424   2.679   2.234   6.091  0.3685 -1.0116 -1.6421
 8654SOL    HW237425   2.581   2.210   6.195  0.9341 -2.5184  2.1334
 8655SOL     OW37426   3.035   1.902  12.730 -0.7651 -0.3533 -0.4638
 8655SOL    HW137427   3.052   1.902  12.636 -0.7264  0.3951 -0.4556
 8655SOL    HW237428   3.059   1.814  12.757  0.0842  0.0599  0.1132
 8656SOL     OW37429   4.232   3.605   1.288  0.5482  0.5972  0.2904
 8656SOL    HW137430   4.160   3.664   1.310 -0.3522  0.6244 -2.7402
 8656SOL    HW237431   4.301   3.637   1.346  0.4290  2.0065 -0.3476
 8657SOL     OW37432   4.111   2.975   4.118 -0.1744  0.1998 -0.2599
 8657SOL    HW137433   4.162   2.905   4.076 -0.7488 -0.5401  0.2995
 8657SOL    HW237434   4.155   3.051   4.080  4.1180 -2.0165  0.2507
 8658SOL     OW37435   0.466   3.161  16.484 -0.1469 -0.6398 -0.2698
 8658SOL    HW137436   0.542   3.103  16.489  0.2689 -0.0468  0.3055
 8658SOL    HW237437   0.445   3.138  16.394 -0.3001 -0.0869 -0.3710
 8659SOL     OW37438   2.111   2.099   1.927  0.1806  0.0616  0.0690
 8659SOL    HW137439   2.150   2.085   2.013  1.0613  1.7128 -0.0576
 8659SOL    HW237440   2.173   2.158   1.885 -1.0960  2.6080  1.7036
 8660SOL     OW37441   4.061   4.146   6.150 -0.0980  0.6172 -0.1862
 8660SOL    HW137442   4.095   4.062   6.120 -1.6702 -0.4954  1.1642
 8660SOL    HW237443   4.070   4.200   6.072 -0.4971  1.1598  0.1440
 8661SOL     OW37444   4.051   0.977   2.580 -0.5642 -0.5818  0.1566
 8661SOL    HW137445   4.018   1.012   2.498  1.0075 -0.7617 -0.5437
 8661SOL    HW237446   4.057   1.059   2.628 -0.9276 -0.3889 -0.1290
 8662SOL     OW37447   0.950   3.795   1.913 -0.1453 -1.1871 -0.2018
 8662SOL    HW137448   0.917   3.724   1.968 -1.1175 -1.0800 -0.6578
 8662SOL    HW237449   0.891   3.786   1.838  0.6852 -1.2100 -0.8521
 8663SOL     OW37450   1.713   1.809   6.284 -0.0898 -0.9519 -0.4271
 8663SOL    HW137451   1.620   1.802   6.302 -0.1357 -2.0985 -1.1016
 8663SOL    HW237452   1.719   1.753   6.206 -0.5920 -2.2249  0.4602
 8664SOL     OW37453   3.893   4.671   2.963  0.4725 -0.4034  0.4464
 8664SOL    HW137454   3.949   0.001   2.909  1.1783 -1.4842  0.0658
 8664SOL    HW237455   3.925   4.582   2.951 -0.0156 -0.6906  1.2547
 8665SOL     OW37456   2.291   1.863   3.350  0.6141 -0.2537 -0.4105
 8665SOL    HW137457   2.365   1.921   3.332  0.3305  0.3871  0.4915
 8665SOL    HW237458   2.223   1.924   3.378  0.6701 -0.6418  0.5524
 8666SOL     OW37459   0.479   3.160   8.778  0.4742  0.3149  0.5729
 8666SOL    HW137460   0.419   3.207   8.720 -0.6215 -0.8123  0.7679
 8666SOL    HW237461   0.560   3.168   8.729 -0.0267  3.1332  0.2115
 8667SOL     OW37462   2.779   4.247   4.585 -0.1340  0.1216  0.0784
 8667SOL    HW137463   2.712   4.215   4.644 -2.1420  1.8396 -1.2643
 8667SOL    HW237464   2.850   4.207   4.635  0.4683  3.0116  1.5529
 8668SOL     OW37465   3.381   2.314   6.269  0.2281  0.3962 -0.3565
 8668SOL    HW137466   3.447   2.266   6.320 -0.8205  0.7028  1.3075
 8668SOL    HW237467   3.312   2.247   6.269  0.7428 -0.1355 -1.9244
 8669SOL     OW37468   0.862   0.077   4.792  0.0064  0.7771 -0.2274
 8669SOL    HW137469   0.926   0.021   4.747 -0.9303  0.5814 -1.2994
 8669SOL    HW237470   0.801   0.010   4.822  0.0035  0.5314 -0.7762
 8670SOL     OW37471   0.332   1.383   5.195  0.1624 -0.2278  0.3979
 8670SOL    HW137472   0.272   1.448   5.159  0.6058 -0.8855 -1.5345
 8670SOL    HW237473   0.386   1.359   5.119 -1.3851 -0.1326 -0.7292
 8671SOL     OW37474   2.844   3.150   4.678  0.4371  0.1637  0.7776
 8671SOL    HW137475   2.765   3.173   4.726 -0.2132  4.2894 -2.3104
 8671SOL    HW237476   2.839   3.203   4.598  0.0925 -0.1534  0.5902
 8672SOL     OW37477   3.549   4.112   9.175  0.5315 -0.0079  0.3856
 8672SOL    HW137478   3.497   4.033   9.158  0.5798 -0.0811  0.5769
 8672SOL    HW237479   3.484   4.152   9.232  0.7864 -0.3310  0.9040
 8673SOL     OW37480   4.686   1.740   5.609  0.4812  0.1908 -0.3060
 8673SOL    HW137481   4.678   1.805   5.679 -1.1237 -1.3175  0.9227
 8673SOL    HW237482   4.600   1.748   5.567  0.7711  0.4181 -0.8482
 8674SOL     OW37483   0.914   4.037   7.999 -0.4376 -0.3061 -0.1632
 8674SOL    HW137484   0.944   4.003   8.084  0.1007  1.4214  0.3447
 8674SOL    HW237485   0.958   3.971   7.947  0.6978  0.4221 -0.1336
 8675SOL     OW37486   1.356   4.655   6.513  0.1159  0.0143 -0.4461
 8675SOL    HW137487   1.326   4.630   6.425  0.7067 -0.7479 -0.4260
 8675SOL    HW237488   1.273   4.692   6.543 -0.1674 -1.2022  0.2665
 8676SOL     OW37489   3.673   1.542   2.783  0.6678  0.1642  0.4073
 8676SOL    HW137490   3.616   1.525   2.857 -0.3017 -2.9173 -1.0428
 8676SOL    HW237491   3.715   1.624   2.810 -2.1989  0.3802  4.0289
 8677SOL     OW37492   2.947   3.204   9.711  0.2825  0.1908  0.0872
 8677SOL    HW137493   2.870   3.245   9.673 -0.1139  0.8120  1.5919
 8677SOL    HW237494   2.910   3.116   9.701 -0.6851  0.4227  1.6767
 8678SOL     OW37495   1.514   3.259  16.173 -0.3449 -0.0795  0.0780
 8678SOL    HW137496   1.504   3.354  16.170  2.5420  0.2073 -0.3838
 8678SOL    HW237497   1.530   3.237  16.081 -0.1254  1.1048 -0.1721
 8679SOL     OW37498   0.446   1.627   3.800  0.0070  0.1197  0.1084
 8679SOL    HW137499   0.490   1.681   3.865  2.2892  0.1411 -1.4415
 8679SOL    HW237500   0.466   1.535   3.816 -0.0981  0.1334  0.3069
 8680SOL     OW37501   1.658   4.631   7.707  0.0606 -0.1547  0.0493
 8680SOL    HW137502   1.589   4.569   7.731 -0.1350 -0.0176 -0.1677
 8680SOL    HW237503   1.616   4.716   7.717 -0.2883 -0.3793  0.5309
 8681SOL     OW37504   0.735   4.404   9.053  0.0154 -0.5825 -0.9645
 8681SOL    HW137505   0.674   4.372   8.987 -0.4969 -0.8471 -0.3555
 8681SOL    HW237506   0.736   4.329   9.112 -0.2091 -0.6828 -1.0893
 8682SOL     OW37507   4.028   2.910   2.972 -0.2942  0.3204 -0.2431
 8682SOL    HW137508   4.023   2.903   3.067 -1.8309 -2.5488 -0.5354
 8682SOL    HW237509   3.943   2.873   2.948 -0.0636  0.6394 -1.6057
 8683SOL     OW37510   1.140   4.268   2.012 -0.9290  0.0401 -0.1687
 8683SOL    HW137511   1.148   4.218   1.931 -1.8983  2.5472 -1.7967
 8683SOL    HW237512   1.093   4.344   1.977 -2.7481 -0.2388  1.6437
 8684SOL     OW37513   2.968   0.834   4.491 -0.2134  0.5712 -0.6023
 8684SOL    HW137514   3.063   0.825   4.485 -0.2001 -1.0476  1.8669
 8684SOL    HW237515   2.934   0.810   4.405 -0.2676 -0.5981 -0.2613
 8685SOL     OW37516   2.184   3.138  11.318  0.0555  0.3684 -0.7611
 8685SOL    HW137517   2.089   3.147  11.310  0.0463  1.2059  0.2522
 8685SOL    HW237518   2.181   3.099  11.405 -0.4031 -1.1061 -1.4515
 8686SOL     OW37519   2.228   1.473   8.832  0.2129 -0.3062 -0.2154
 8686SOL    HW137520   2.139   1.505   8.815  0.2937  0.0311 -0.0006
 8686SOL    HW237521   2.226   1.435   8.920 -0.1606  1.7235  0.6629
 8687SOL     OW37522   2.164   3.154   5.458  0.3105 -0.4861  0.0232
 8687SOL    HW137523   2.130   3.139   5.370 -1.1177 -0.0950  0.5078
 8687SOL    HW237524   2.256   3.132   5.452  0.9159  1.5585  1.5431
 8688SOL     OW37525   0.609   0.472  11.572 -0.0839  0.6161 -0.2378
 8688SOL    HW137526   0.545   0.536  11.602 -0.1256 -0.6580  2.4046
 8688SOL    HW237527   0.685   0.529  11.567  0.8336 -0.7615 -2.0550
 8689SOL     OW37528   2.929   2.017   6.057 -0.1377  0.2790 -0.2402
 8689SOL    HW137529   2.858   2.080   6.048  0.0231  0.4678 -0.1913
 8689SOL    HW237530   2.986   2.051   5.988  0.7766 -0.1169  0.3277
 8690SOL     OW37531   2.867   1.249   1.862 -0.1138 -0.0607  0.5701
 8690SOL    HW137532   2.823   1.327   1.897  1.5312  0.4367  1.5220
 8690SOL    HW237533   2.923   1.222   1.934  2.7720  1.9040 -0.9175
 8691SOL     OW37534   2.844   2.030  13.331  0.5116 -0.0382  0.2378
 8691SOL    HW137535   2.832   2.125  13.329  0.9454 -0.0426 -2.7457
 8691SOL    HW237536   2.928   2.039  13.286  1.4209 -1.9618  1.5483
 8692SOL     OW37537   3.699   2.168   3.630 -0.1158  0.2810 -0.0996
 8692SOL    HW137538   3.751   2.222   3.570 -1.2062  1.2591 -0.1554
 8692SOL    HW237539   3.664   2.106   3.567  0.7325  0.6090 -0.9054
 8693SOL     OW37540   0.817   1.603  11.189 -0.0720 -0.1786 -0.4236
 8693SOL    HW137541   0.795   1.530  11.131 -0.6343  1.4790 -2.3110
 8693SOL    HW237542   0.736   1.632  11.230  0.9004  0.2225  1.2492
 8694SOL     OW37543   4.669   4.525   1.885 -0.3688  0.5304  0.0795
 8694SOL    HW137544   4.674   4.430   1.896 -0.7810  0.6359  1.2340
 8694SOL    HW237545   4.637   4.518   1.795 -0.6194  2.5042  0.0057
 8695SOL     OW37546   1.895   0.523  14.606  0.2449  0.1662 -0.1137
 8695SOL    HW137547   1.964   0.536  14.670 -1.1596 -2.0989  1.8781
 8695SOL    HW237548   1.921   0.582  14.535 -0.3744 -1.3752 -1.6145
 8696SOL     OW37549   3.388   0.708  15.071 -0.2228  0.0955  0.6981
 8696SOL    HW137550   3.326   0.753  15.013  0.4832  1.0340  0.6720
 8696SOL    HW237551   3.435   0.783  15.106 -1.7698  1.6672 -0.5582
 8697SOL     OW37552   4.090   3.278  16.124  0.4467 -0.4048 -0.0006
 8697SOL    HW137553   4.106   3.366  16.091  1.6905 -1.3639 -1.9623
 8697SOL    HW237554   4.173   3.236  16.150  0.8903  1.0530  0.9263
 8698SOL     OW37555   0.025   0.282   4.930  0.0760  0.4156  0.0335
 8698SOL    HW137556   0.000   0.254   4.842  2.6324 -1.4879 -0.0853
 8698SOL    HW237557   0.118   0.298   4.916  0.2876 -1.4993 -0.7175
 8699SOL     OW37558   4.536   1.870  16.155  0.0732 -0.0105  1.0287
 8699SOL    HW137559   4.628   1.846  16.167 -0.4832 -1.3069  2.5980
 8699SOL    HW237560   4.511   1.793  16.105 -0.9320  0.7124  0.4174
 8700SOL     OW37561   3.028   4.503  16.819 -0.5185 -0.1609  0.3522
 8700SOL    HW137562   3.093   4.561  16.859 -2.2191  2.5327 -0.8295
 8700SOL    HW237563   2.980   4.562  16.761  0.1372 -0.3887 -0.4139
 8701SOL     OW37564   4.441   2.106   2.719  0.0174  0.5558  0.6977
 8701SOL    HW137565   4.402   2.025   2.751 -0.4132  0.1195 -0.9405
 8701SOL    HW237566   4.532   2.077   2.729  0.3825  1.1084 -1.1105
 8702SOL     OW37567   0.426   3.241   0.112 -0.6081  0.1710  0.5377
 8702SOL    HW137568   0.470   3.301   0.052 -0.2314  0.1124  0.7588
 8702SOL    HW237569   0.422   3.163   0.056  1.7500 -0.1480  0.8125
 8703SOL     OW37570   1.566   0.254   2.003  0.0205 -0.0774 -0.1052
 8703SOL    HW137571   1.631   0.323   1.986  0.5800 -0.8016 -0.8806
 8703SOL    HW237572   1.491   0.303   2.039 -0.5288 -0.1802 -1.1187
 8704SOL     OW37573   3.634   4.628   6.613 -0.4413  0.8730  0.4124
 8704SOL    HW137574   3.640   4.689   6.539  1.9636 -0.4575 -0.4738
 8704SOL    HW237575   3.540   4.617   6.627 -0.0347 -2.3567  0.5411
 8705SOL     OW37576   2.467   4.024   4.969 -0.1049 -0.0385 -0.4697
 8705SOL    HW137577   2.398   4.002   4.906  0.7810  0.7247 -1.7031
 8705SOL    HW237578   2.477   3.943   5.019  0.3739  0.5209  0.3287
 8706SOL     OW37579   3.893   2.692   3.182 -0.4745 -0.4543  0.9526
 8706SOL    HW137580   3.841   2.769   3.158  1.8703  0.5546 -0.9866
 8706SOL    HW237581   3.859   2.630   3.118  2.2194 -1.7467  0.7735
 8707SOL     OW37582   0.428   1.841   5.079  0.2932  0.0513 -0.4878
 8707SOL    HW137583   0.459   1.762   5.034  0.1766 -0.9994  1.2975
 8707SOL    HW237584   0.443   1.905   5.010  1.1032 -1.0899 -1.3788
 8708SOL     OW37585   0.888   2.842   3.058  0.3853  0.2243 -0.3946
 8708SOL    HW137586   0.976   2.809   3.077 -0.7080 -2.6281 -0.2971
 8708SOL    HW237587   0.844   2.810   3.136  2.6909 -1.0325  0.3857
 8709SOL     OW37588   2.921   1.040   7.546  0.5130 -0.2306 -0.3000
 8709SOL    HW137589   2.968   1.093   7.610  0.0069  0.4943 -0.5250
 8709SOL    HW237590   2.970   0.958   7.543 -1.0452 -1.2859  2.9046
 8710SOL     OW37591   0.762   2.375  16.563  0.5132  0.4320 -0.2293
 8710SOL    HW137592   0.772   2.317  16.639 -2.0099 -1.0361 -0.9911
 8710SOL    HW237593   0.850   2.386  16.527  0.6915 -0.8646 -0.2149
 8711SOL     OW37594   3.543   2.875   1.955  0.0963 -0.9118 -0.0146
 8711SOL    HW137595   3.454   2.878   1.919 -0.2910 -0.3358  0.9997
 8711SOL    HW237596   3.574   2.963   1.933 -1.8430 -0.7724 -2.2016
 8712SOL     OW37597   3.930   1.698   9.024  0.3807 -0.1693  0.1243
 8712SOL    HW137598   3.835   1.686   9.020  0.2346  0.4422  1.7422
 8712SOL    HW237599   3.954   1.606   9.016 -0.4999 -0.5313  1.7386
 8713SOL     OW37600   2.419   3.876   2.254 -0.4397 -0.6487  0.6344
 8713SOL    HW137601   2.381   3.789   2.245  3.0634 -2.1794  0.9239
 8713SOL    HW237602   2.502   3.873   2.300  0.7924  0.0641 -1.5369
 8714SOL     OW37603   4.367   2.369  13.454 -0.2569  0.0870 -0.2305
 8714SOL    HW137604   4.360   2.335  13.365 -1.8438 -3.9184  1.4236
 8714SOL    HW237605   4.276   2.392  13.472 -0.0222  0.3438  0.6523
 8715SOL     OW37606   1.437   3.887   3.245 -0.0156  0.2683  0.7112
 8715SOL    HW137607   1.522   3.849   3.225  0.1012  2.7013 -3.2024
 8715SOL    HW237608   1.410   3.926   3.162  1.1858  1.7866  1.0483
 8716SOL     OW37609   4.716   0.113   4.715  0.0271 -0.3104 -0.3381
 8716SOL    HW137610   4.652   0.082   4.650 -0.9636  0.0895  0.4600
 8716SOL    HW237611   0.035   0.029   4.724  0.1410 -0.2945 -0.7180
 8717SOL     OW37612   4.552   2.826   3.036  1.0473 -0.7781  0.0688
 8717SOL    HW137613   4.470   2.777   3.025 -0.4933  2.2861 -2.3177
 8717SOL    HW237614   4.617   2.774   2.989  1.7969 -1.1929  1.5600
 8718SOL     OW37615   2.092   1.917   4.462 -0.0063  0.3923 -0.1325
 8718SOL    HW137616   2.149   1.990   4.435 -0.0003  0.3925 -0.1191
 8718SOL    HW237617   2.053   1.887   4.380 -0.2975 -0.1937  0.2240
 8719SOL     OW37618   1.864   0.886   7.411  0.0842 -0.1757  0.4935
 8719SOL    HW137619   1.799   0.912   7.476  0.4986 -3.7610  2.3251
 8719SOL    HW237620   1.852   0.792   7.420  3.0430 -0.6587 -0.5577
 8720SOL     OW37621   3.771   2.823   4.926  0.2898  0.6300 -0.1109
 8720SOL    HW137622   3.734   2.812   4.839 -3.7321 -1.4282  1.8801
 8720SOL    HW237623   3.712   2.771   4.980 -0.4092  0.4333 -1.0653
 8721SOL     OW37624   3.095   3.330  10.099 -0.4449  0.0536 -0.0032
 8721SOL    HW137625   3.053   3.301  10.180 -1.8755  3.9652  0.6743
 8721SOL    HW237626   3.180   3.288  10.114 -1.0044 -0.8747  0.5649
 8722SOL     OW37627   1.174   2.296   4.274  0.5634  0.1530  0.3989
 8722SOL    HW137628   1.085   2.329   4.262 -0.0926 -1.8031 -0.2087
 8722SOL    HW237629   1.210   2.314   4.187 -0.1483 -0.0705  0.0573
 8723SOL     OW37630   3.222   0.721   2.736 -0.3084  0.0368 -0.1424
 8723SOL    HW137631   3.298   0.663   2.737 -0.6227 -0.3620  0.4695
 8723SOL    HW237632   3.214   0.731   2.641  1.3169  0.8504 -0.1881
 8724SOL     OW37633   1.642   2.758  15.993  0.5080 -0.1953 -0.1729
 8724SOL    HW137634   1.572   2.796  16.047  0.4661  1.4829 -1.3999
 8724SOL    HW237635   1.650   2.671  16.032  2.5513  1.3151  2.7958
 8725SOL     OW37636   3.143   4.019   3.623 -0.3100 -0.2230  0.0567
 8725SOL    HW137637   3.061   3.985   3.659 -0.5700  1.0032  0.6152
 8725SOL    HW237638   3.138   4.110   3.653 -1.7108 -0.7918  1.5294
 8726SOL     OW37639   3.350   3.128   4.485 -0.0806 -0.1597 -0.6320
 8726SOL    HW137640   3.329   3.067   4.414 -1.4889 -0.1162 -0.2496
 8726SOL    HW237641   3.368   3.064   4.554 -2.5531 -0.5484 -0.3548
 8727SOL     OW37642   0.081   2.821   3.543 -0.3375 -0.3531 -0.0960
 8727SOL    HW137643   0.059   2.912   3.524 -3.5206 -1.3561 -1.1477
 8727SOL    HW237644   0.102   2.833   3.636  0.9933 -4.2257  0.1110
 8728SOL     OW37645   3.902   2.705  16.818 -0.1723  0.3537 -0.6103
 8728SOL    HW137646   3.940   2.724  16.732  0.6271 -0.0544 -0.3425
 8728SOL    HW237647   3.869   2.616  16.805 -1.5190  0.3968  2.5035
 8729SOL     OW37648   4.255   1.847  14.194 -0.3257  0.0600 -0.0997
 8729SOL    HW137649   4.270   1.862  14.100 -1.0515 -0.1128 -0.2430
 8729SOL    HW237650   4.298   1.922  14.236 -0.1838  0.8671 -1.6853
 8730SOL     OW37651   4.599   1.061  15.598 -0.9571 -0.1478  0.2394
 8730SOL    HW137652   4.678   1.104  15.565  0.0169 -1.7338  0.5001
 8730SOL    HW237653   4.586   1.100  15.684  2.3425  1.4012  0.0557
 8731SOL     OW37654   0.296   3.413  16.335  0.5478 -0.2262  0.4186
 8731SOL    HW137655   0.215   3.463  16.343  0.2075 -0.7457  0.2426
 8731SOL    HW237656   0.318   3.381  16.423  2.1352 -1.3811 -0.3902
 8732SOL     OW37657   0.443   3.221  12.942 -0.4371  0.0584  0.3476
 8732SOL    HW137658   0.499   3.218  12.865  0.7808  0.5758  1.2226
 8732SOL    HW237659   0.418   3.128  12.943  0.0164 -0.0645 -0.7336
 8733SOL     OW37660   1.784   3.344   4.598  0.7116  0.2106  0.0882
 8733SOL    HW137661   1.782   3.353   4.503  2.3241  1.7795  0.2086
 8733SOL    HW237662   1.690   3.342   4.618  0.6885 -2.6239 -0.2142
 8734SOL     OW37663   1.905   2.737   4.770  0.1979  0.0273 -0.2286
 8734SOL    HW137664   1.980   2.691   4.734  1.1815  0.6315  1.0512
 8734SOL    HW237665   1.910   2.725   4.865 -0.6478  0.3693 -0.1340
 8735SOL     OW37666   1.381   4.326   6.235 -0.1267  0.4052  0.2069
 8735SOL    HW137667   1.344   4.412   6.256  2.2821  1.9385 -1.8336
 8735SOL    HW237668   1.435   4.296   6.308  0.1227  0.0996 -0.1057
 8736SOL     OW37669   4.363   1.520   4.610 -0.0235 -0.4831 -0.2217
 8736SOL    HW137670   4.406   1.606   4.604  1.2761 -1.2476 -1.7794
 8736SOL    HW237671   4.325   1.530   4.698  0.2275 -0.3662 -0.1240
 8737SOL     OW37672   4.191   3.795   8.364 -0.1087  0.0349  0.2507
 8737SOL    HW137673   4.224   3.854   8.297 -0.1888 -1.3317 -0.9912
 8737SOL    HW237674   4.217   3.709   8.330  0.8574  1.0483 -1.5485
 8738SOL     OW37675   3.988   4.183  15.143  0.0071 -0.2204 -0.0097
 8738SOL    HW137676   3.903   4.221  15.121  0.4740  1.0175  0.3123
 8738SOL    HW237677   3.961   4.112  15.202 -1.1664 -0.1906 -0.5073
 8739SOL     OW37678   1.706   1.482   0.120 -0.0040 -0.2173  0.0997
 8739SOL    HW137679   1.681   1.489   0.028 -1.5012  0.8159  0.5780
 8739SOL    HW237680   1.684   1.568   0.157  0.5023 -0.5861  1.2708
 8740SOL     OW37681   4.502   3.503   1.974  0.2790  0.8517 -0.2497
 8740SOL    HW137682   4.443   3.576   1.995 -1.5667 -0.9541  0.7839
 8740SOL    HW237683   4.444   3.432   2.000  0.6022  0.5221 -0.4399
 8741SOL     OW37684   0.043   4.100   0.456 -0.5227  0.0932 -0.2260
 8741SOL    HW137685   4.673   4.091   0.446 -0.7224  2.6001 -0.5208
 8741SOL    HW237686   0.053   4.183   0.503 -1.0363 -0.2051  0.4215
 8742SOL     OW37687   1.686   2.839   4.471 -0.0305  0.1088  0.6229
 8742SOL    HW137688   1.636   2.920   4.475  2.2301  1.4610  1.3318
 8742SOL    HW237689   1.671   2.806   4.383  1.3669 -0.4664  0.5964
 8743SOL     OW37690   2.245   0.786   1.830  0.0335 -0.3189  0.0207
 8743SOL    HW137691   2.270   0.694   1.818  0.3234 -0.3217  0.6513
 8743SOL    HW237692   2.152   0.770   1.818  0.4425  0.2497 -4.0057
 8744SOL     OW37693   4.293   4.147   7.947 -0.4898 -0.2451 -0.2218
 8744SOL    HW137694   4.308   4.237   7.919 -1.5556 -0.1516 -0.4708
 8744SOL    HW237695   4.223   4.129   7.884  0.6003 -0.1132 -1.4860
 8745SOL     OW37696   0.917   1.044   5.292  0.5765 -0.3970  0.0582
 8745SOL    HW137697   0.896   1.091   5.373  0.7991 -1.8185  0.9436
 8745SOL    HW237698   0.896   0.958   5.326  0.4551  0.3609  1.9001
 8746SOL     OW37699   2.686   2.745  17.683  0.1709 -0.2004  0.0262
 8746SOL    HW137700   2.655   2.821  17.633  0.5916 -0.5918 -0.8192
 8746SOL    HW237701   2.687   2.780   0.070  0.6560  2.3347 -0.9646
 8747SOL     OW37702   0.412   0.868   8.688  0.2773 -0.4309 -0.3761
 8747SOL    HW137703   0.460   0.825   8.617  1.7773  1.9466 -0.8115
 8747SOL    HW237704   0.486   0.924   8.712 -2.1089  0.9563  3.6564
 8748SOL     OW37705   1.489   3.742   1.831 -0.7159  0.0863 -0.1587
 8748SOL    HW137706   1.394   3.758   1.833 -0.5848  0.7995  0.7820
 8748SOL    HW237707   1.522   3.829   1.808  1.5406 -0.1366  2.1865
 8749SOL     OW37708   4.559   2.164   4.181  0.2988  0.5275 -0.8893
 8749SOL    HW137709   4.597   2.248   4.155  1.9203  0.4509  1.2354
 8749SOL    HW237710   4.553   2.119   4.097  1.9997 -0.9514 -0.1968
 8750SOL     OW37711   3.469   2.974   4.696  0.1267 -0.2084 -0.3439
 8750SOL    HW137712   3.553   2.935   4.676  1.0289  1.6683 -0.2374
 8750SOL    HW237713   3.453   2.954   4.789  0.9599  0.5471 -0.0358
 8751SOL     OW37714   3.602   2.454  13.818  0.2116 -0.2311 -0.5367
 8751SOL    HW137715   3.663   2.513  13.861 -0.3056 -0.2829  0.2728
 8751SOL    HW237716   3.585   2.518  13.749 -1.1754  0.9202  0.8682
 8752SOL     OW37717   4.254   1.621   6.545  0.0185 -0.1635 -0.0222
 8752SOL    HW137718   4.297   1.604   6.629 -0.5059  0.6631  0.4069
 8752SOL    HW237719   4.235   1.531   6.518  0.6724 -0.7866  1.5531
 8753SOL     OW37720   3.989   3.127   0.300  0.5281 -0.4225  0.4939
 8753SOL    HW137721   3.907   3.165   0.267  0.4216  0.7941  2.0925
 8753SOL    HW237722   3.955   3.047   0.340  1.2631 -0.8686  0.2245
 8754SOL     OW37723   2.051   4.712   3.937 -0.5491 -0.0606  0.7803
 8754SOL    HW137724   2.051   0.040   4.016 -2.1191  1.1097 -0.0160
 8754SOL    HW237725   1.990   4.645   3.965  0.8565 -1.0147  1.5719
 8755SOL     OW37726   4.206   4.541   6.621  0.2025  0.6590 -0.4377
 8755SOL    HW137727   4.194   4.580   6.708 -2.2566 -1.4412  0.1566
 8755SOL    HW237728   4.157   4.459   6.626  0.5802  0.3280 -2.3052
 8756SOL     OW37729   2.653   4.018  13.275 -0.0249 -0.1663 -0.1871
 8756SOL    HW137730   2.559   4.026  13.292 -0.2278  1.6855 -2.2634
 8756SOL    HW237731   2.662   4.097  13.222 -0.5359  1.2199  1.8005
 8757SOL     OW37732   3.389   2.607   9.972 -0.6376  0.3656 -0.0787
 8757SOL    HW137733   3.430   2.687   9.939 -1.6457  0.2509 -1.6008
 8757SOL    HW237734   3.452   2.578  10.038  0.5227 -0.3793 -1.5316
 8758SOL     OW37735   3.620   1.916   2.943 -0.1338 -0.4332  0.1075
 8758SOL    HW137736   3.536   1.937   2.901 -1.2779 -2.0992  1.5315
 8758SOL    HW237737   3.613   1.976   3.018  0.8207 -1.5127  1.0483
 8759SOL     OW37738   2.200   2.523  17.104  0.1711 -0.6202  0.3998
 8759SOL    HW137739   2.268   2.567  17.156  1.5907 -0.7023 -1.4167
 8759SOL    HW237740   2.265   2.499  17.038  0.0898  1.1352 -0.3101
 8760SOL     OW37741   3.400   1.170   1.915 -0.3105  0.0457 -0.6631
 8760SOL    HW137742   3.373   1.214   1.834 -1.8098 -1.9526 -1.2408
 8760SOL    HW237743   3.455   1.239   1.952  0.3477 -0.4922 -0.6312
 8761SOL     OW37744   1.731   3.809   4.545 -0.0207  0.8025 -0.2076
 8761SOL    HW137745   1.662   3.772   4.601  0.4077  0.5666  0.1652
 8761SOL    HW237746   1.717   3.760   4.464 -2.0612  2.5980 -0.9583
 8762SOL     OW37747   1.009   0.171   6.143 -0.0154 -0.4726 -0.7742
 8762SOL    HW137748   0.983   0.091   6.098  3.1560 -0.3992 -2.7259
 8762SOL    HW237749   1.102   0.183   6.121  0.1951  1.5422  1.2883
 8763SOL     OW37750   4.227   0.578   4.077  0.1694 -0.8561  0.6337
 8763SOL    HW137751   4.192   0.555   4.163  2.3368  0.1803  1.8117
 8763SOL    HW237752   4.322   0.576   4.093  0.1622  0.1027  0.7942
 8764SOL     OW37753   0.654   2.319   1.054 -0.0664  0.2429  0.6119
 8764SOL    HW137754   0.582   2.257   1.044 -1.4546  2.4860 -3.2943
 8764SOL    HW237755   0.623   2.404   1.023 -1.5476 -1.2408 -2.0224
 8765SOL     OW37756   3.324   2.967   5.252 -0.2659  0.3626  0.2271
 8765SOL    HW137757   3.372   3.003   5.177  0.8510 -1.1956  0.2098
 8765SOL    HW237758   3.315   3.047   5.304  0.4854  1.0850 -0.7517
 8766SOL     OW37759   0.440   1.410  13.112 -0.1047 -0.0042 -0.0577
 8766SOL    HW137760   0.477   1.482  13.062 -1.8984  0.6693 -0.4155
 8766SOL    HW237761   0.345   1.421  13.107 -0.2053 -0.5908  0.5526
 8767SOL     OW37762   1.537   3.263   5.622 -0.7207 -0.3622 -0.0719
 8767SOL    HW137763   1.589   3.279   5.543 -2.2637  0.2437 -0.9641
 8767SOL    HW237764   1.551   3.346   5.668 -0.4191  0.1948 -1.1578
 8768SOL     OW37765   1.843   0.337  14.800 -0.1519 -0.2973 -0.1405
 8768SOL    HW137766   1.863   0.414  14.747  1.5687 -1.6337 -1.4110
 8768SOL    HW237767   1.909   0.272  14.777 -0.7797 -0.8718 -0.3378
 8769SOL     OW37768   3.756   0.533   6.577 -0.1373 -0.0366 -0.1473
 8769SOL    HW137769   3.731   0.445   6.605 -1.7903  0.1161 -1.1758
 8769SOL    HW237770   3.726   0.534   6.486  2.8797 -2.0970 -1.1932
 8770SOL     OW37771   4.306   0.696   7.212 -0.4483 -0.2899  0.2516
 8770SOL    HW137772   4.376   0.706   7.276  1.1571  0.0582 -1.5435
 8770SOL    HW237773   4.228   0.681   7.266  0.7409 -0.7957  1.8170
 8771SOL     OW37774   4.172   2.935   5.458 -0.0442  0.0847 -0.3617
 8771SOL    HW137775   4.263   2.940   5.487 -0.3468  2.0745  0.1937
 8771SOL    HW237776   4.169   2.853   5.408 -0.4457  0.5944 -1.1679
 8772SOL     OW37777   0.999   2.719   1.488  0.4355 -0.1331  0.1254
 8772SOL    HW137778   1.087   2.745   1.460  0.3109 -1.1004 -1.1380
 8772SOL    HW237779   0.987   2.789   1.553  0.7620 -1.4234  1.5666
 8773SOL     OW37780   2.196   1.819   7.908  0.3082  0.3522 -0.6691
 8773SOL    HW137781   2.258   1.748   7.927  2.1074  1.9051 -0.7621
 8773SOL    HW237782   2.130   1.785   7.847 -0.4549 -0.1488  0.4374
 8774SOL     OW37783   3.991   2.286   3.105 -0.0776  0.1854  0.1231
 8774SOL    HW137784   3.968   2.209   3.053 -0.1807 -0.5299  1.2380
 8774SOL    HW237785   3.904   2.324   3.117 -1.3763 -2.5101 -0.8028
 8775SOL     OW37786   1.588   0.648   7.068 -0.4640  0.6301 -0.3282
 8775SOL    HW137787   1.542   0.633   7.150 -2.1046 -0.8702 -1.5333
 8775SOL    HW237788   1.567   0.562   7.032 -2.1612  0.5749  0.8382
 8776SOL     OW37789   0.301   2.049   5.737  0.0480  0.3086 -0.5624
 8776SOL    HW137790   0.360   1.973   5.735  2.2971  2.0296  0.7288
 8776SOL    HW237791   0.367   2.117   5.750  0.6905 -0.2259 -0.9652
 8777SOL     OW37792   0.244   3.292   5.668  0.3054  0.6242  0.0507
 8777SOL    HW137793   0.218   3.212   5.713 -1.0323  0.1151 -1.6199
 8777SOL    HW237794   0.294   3.331   5.740  1.0044  0.2454 -0.2246
 8778SOL     OW37795   0.237   0.842   3.548 -0.3212 -0.2839  0.3576
 8778SOL    HW137796   0.224   0.937   3.539 -0.6784 -0.3122  0.5663
 8778SOL    HW237797   0.307   0.827   3.485  0.6052  1.4678  0.9645
 8779SOL     OW37798   2.566   4.643   3.618  0.0609 -0.8753  0.5737
 8779SOL    HW137799   2.606   4.661   3.703 -0.7407 -0.1948  0.8145
 8779SOL    HW237800   2.627   4.581   3.578 -0.9415 -0.9941 -0.7932
 8780SOL     OW37801   1.374   2.032   3.863 -0.0852 -0.4739 -0.3761
 8780SOL    HW137802   1.291   2.080   3.863  0.0004 -0.2996 -2.8329
 8780SOL    HW237803   1.437   2.102   3.846  0.0087 -0.5739 -0.4423
 8781SOL     OW37804   0.626   2.542   1.782  0.5074 -0.6419  0.3299
 8781SOL    HW137805   0.694   2.475   1.786  1.8318  0.5510 -2.4384
 8781SOL    HW237806   0.553   2.483   1.800  1.5868 -1.8391  0.7937
 8782SOL     OW37807   0.953   0.528  12.258 -0.3057  0.2215 -0.2694
 8782SOL    HW137808   0.991   0.471  12.191 -1.0499 -2.3728  1.4921
 8782SOL    HW237809   0.865   0.491  12.244 -0.3876 -0.2560  1.4703
 8783SOL     OW37810   4.260   1.687   0.278 -0.5002  0.5624 -0.3129
 8783SOL    HW137811   4.207   1.631   0.335  0.0368 -1.2311 -1.5913
 8783SOL    HW237812   4.244   1.641   0.195 -0.2517  1.5085 -0.8843
 8784SOL     OW37813   2.621   2.781   3.957 -0.1857  0.0945 -0.4571
 8784SOL    HW137814   2.547   2.736   3.997  0.1950  0.1773  0.3307
 8784SOL    HW237815   2.617   2.865   4.003  1.0274 -0.0644 -0.0643
 8785SOL     OW37816   0.022   4.326   9.523 -0.0792 -0.0442 -0.2504
 8785SOL    HW137817   0.021   4.340   9.618  0.5867 -0.1907 -0.2262
 8785SOL    HW237818   0.064   4.408   9.496  1.8786 -0.6005  1.1185
 8786SOL     OW37819   1.963   2.434   3.508 -0.4483  0.0383  0.5817
 8786SOL    HW137820   1.915   2.473   3.435 -1.2913 -1.0990  0.5178
 8786SOL    HW237821   2.032   2.406   3.447 -1.3620  1.7147 -1.2222
 8787SOL     OW37822   1.711   2.295   5.180 -0.2925  0.1339  0.4929
 8787SOL    HW137823   1.654   2.349   5.235 -1.0317  0.7164 -0.8340
 8787SOL    HW237824   1.733   2.221   5.236 -0.6130  0.1329  0.6163
 8788SOL     OW37825   2.440   1.256   1.756 -0.1874  0.1149 -0.2053
 8788SOL    HW137826   2.491   1.189   1.800 -1.3334 -0.3095  0.4848
 8788SOL    HW237827   2.451   1.328   1.818 -0.3485  0.3580 -0.4532
 8789SOL     OW37828   3.417   2.410   3.696 -0.8557  0.6372 -0.0365
 8789SOL    HW137829   3.386   2.377   3.780 -1.3638  0.2250 -0.3885
 8789SOL    HW237830   3.408   2.324   3.655  2.0968  0.4607 -0.2785
 8790SOL     OW37831   1.708   1.915   8.659  0.2422  0.0032  0.0921
 8790SOL    HW137832   1.706   1.838   8.602 -2.5206 -1.0322  1.6081
 8790SOL    HW237833   1.787   1.962   8.634  1.0518 -1.6627 -0.5031
 8791SOL     OW37834   0.827   2.066   2.444  0.6214 -0.3579 -0.8294
 8791SOL    HW137835   0.796   2.108   2.364 -2.9261 -1.1722  0.1292
 8791SOL    HW237836   0.811   1.974   2.425 -1.2028 -0.0271 -0.8679
 8792SOL     OW37837   4.392   0.264   4.943  0.2624 -0.3892 -0.2958
 8792SOL    HW137838   4.317   0.285   4.998  0.0088 -0.3550 -0.6533
 8792SOL    HW237839   4.416   0.174   4.965 -0.7719 -0.3550  0.9006
 8793SOL     OW37840   4.242   2.973  12.205 -0.4729  0.6433  0.0831
 8793SOL    HW137841   4.325   2.937  12.235 -1.3824 -1.8258 -0.3449
 8793SOL    HW237842   4.209   2.895  12.160  1.6708 -1.2009  1.7550
 8794SOL     OW37843   3.721   3.866  16.633 -0.4303 -0.2480 -0.3435
 8794SOL    HW137844   3.700   3.948  16.678 -0.6846 -0.5961  0.1793
 8794SOL    HW237845   3.638   3.828  16.603 -1.0854 -0.0641  1.2074
 8795SOL     OW37846   1.793   0.010   6.803 -0.0124 -0.4610 -0.3343
 8795SOL    HW137847   1.734   4.677   6.754  0.1854 -0.1175 -0.9875
 8795SOL    HW237848   1.875   0.002   6.753  0.9326  0.1402  1.1334
 8796SOL     OW37849   2.240   2.964   1.261 -0.0491  0.0313  1.1610
 8796SOL    HW137850   2.309   2.898   1.268  0.1245  0.1494  0.5554
 8796SOL    HW237851   2.239   2.981   1.167 -0.5594 -1.2321  0.9355
 8797SOL     OW37852   4.273   1.031  11.023 -0.2739 -0.9703 -0.0063
 8797SOL    HW137853   4.283   1.000  10.933  0.9435 -2.3756  0.6026
 8797SOL    HW237854   4.352   0.986  11.051 -1.2030 -2.8037 -0.3220
 8798SOL     OW37855   0.054   1.661   9.819  0.0176 -0.5152  0.1735
 8798SOL    HW137856   0.117   1.600   9.856  1.7933  1.0650 -0.2894
 8798SOL    HW237857   0.033   1.718   9.893  2.7256  0.1103  0.4399
 8799SOL     OW37858   2.246   0.879  16.084 -0.1229 -0.2053  0.6127
 8799SOL    HW137859   2.321   0.821  16.072  0.0505 -0.0882  1.1499
 8799SOL    HW237860   2.229   0.863  16.176  0.3865  0.7903  0.8759
 8800SOL     OW37861   3.975   0.230  10.186  0.7459  0.0756  0.5828
 8800SOL    HW137862   3.992   0.324  10.190 -1.1339  0.2925  3.2336
 8800SOL    HW237863   4.010   0.198  10.103 -2.6882 -1.4731 -0.2999
 8801SOL     OW37864   0.077   3.690  15.034 -0.0445 -0.0040 -0.7282
 8801SOL    HW137865   0.007   3.668  14.973  0.5048  1.4332 -1.8991
 8801SOL    HW237866   0.095   3.784  15.027 -0.2671  0.1556  0.8505
 8802SOL     OW37867   3.917   2.252   0.806  0.9612 -0.0857 -0.2601
 8802SOL    HW137868   3.939   2.241   0.714 -1.9990 -0.7679 -0.9111
 8802SOL    HW237869   3.930   2.164   0.841 -1.0641  0.2854  1.4882
 8803SOL     OW37870   3.621   0.516   6.355 -0.7724  0.1075 -0.0669
 8803SOL    HW137871   3.620   0.445   6.291  1.5152  0.9635 -1.0404
 8803SOL    HW237872   3.604   0.588   6.294  1.2626 -0.3320 -1.1358
 8804SOL     OW37873   4.094   0.251   3.688 -0.1981 -0.0638 -0.1630
 8804SOL    HW137874   4.167   0.238   3.628 -0.3356  0.4466 -0.4515
 8804SOL    HW237875   4.078   0.168   3.732 -1.2880  1.1443  1.7522
 8805SOL     OW37876   3.954   1.151   4.667  0.0018  0.5541  0.3211
 8805SOL    HW137877   4.038   1.154   4.713 -0.4221 -0.7654  1.1782
 8805SOL    HW237878   3.896   1.111   4.731  1.0829 -0.9658  0.3480
 8806SOL     OW37879   0.791   0.461   3.478  0.3415 -0.3973  0.5720
 8806SOL    HW137880   0.714   0.405   3.488 -0.1987  0.1139 -0.6876
 8806SOL    HW237881   0.775   0.486   3.387  1.6344  1.0102  0.7470
 8807SOL     OW37882   1.617   2.095   6.292  0.4132 -0.1468  0.5259
 8807SOL    HW137883   1.664   2.020   6.328 -0.2702 -1.3647 -1.1442
 8807SOL    HW237884   1.600   2.143   6.374  0.1324 -2.7649  1.9964
 8808SOL     OW37885   2.355   0.246   3.917  0.0269 -0.7575 -0.0714
 8808SOL    HW137886   2.324   0.318   3.973  1.0976 -0.8050  0.5741
 8808SOL    HW237887   2.363   0.179   3.985 -1.5027  0.4462  1.2954
 8809SOL     OW37888   0.286   2.171  13.799 -0.0907 -0.7409 -0.5054
 8809SOL    HW137889   0.223   2.241  13.779  1.1451  0.9124  1.2550
 8809SOL    HW237890   0.223   2.102  13.783 -1.1019 -0.1550  0.8888
 8810SOL     OW37891   3.125   3.358   0.131  0.1173  0.1520 -0.3594
 8810SOL    HW137892   3.209   3.323   0.158  0.2433  0.4254 -0.3999
 8810SOL    HW237893   3.073   3.284   0.162  0.1607 -0.3859 -1.5862
 8811SOL     OW37894   0.437   2.212   5.214 -0.4388  0.0831  0.2657
 8811SOL    HW137895   0.355   2.162   5.211 -0.0769 -0.4560 -0.6188
 8811SOL    HW237896   0.424   2.262   5.294  1.5827  2.3063 -0.7991
 8812SOL     OW37897   3.534   4.203   5.311  0.2299 -0.5445  0.0140
 8812SOL    HW137898   3.485   4.257   5.249  2.8843  3.2346  1.2185
 8812SOL    HW237899   3.509   4.118   5.276 -1.6517 -0.2706  0.6830
 8813SOL     OW37900   0.704   2.754  17.496  0.0765 -0.1297  0.2277
 8813SOL    HW137901   0.763   2.722  17.428 -0.7584  1.5545 -1.3077
 8813SOL    HW237902   0.660   2.832  17.461  2.3483  0.4016 -1.4285
 8814SOL     OW37903   4.445   4.138   7.625  0.2014  0.5331 -0.1177
 8814SOL    HW137904   4.357   4.169   7.649 -0.8038 -2.5970  0.2652
 8814SOL    HW237905   4.461   4.053   7.665  0.3422 -0.3623 -2.1054
 8815SOL     OW37906   4.155   0.143   6.329 -0.1234 -0.2741 -0.9626
 8815SOL    HW137907   4.225   0.109   6.384  1.7773 -0.3947 -3.4705
 8815SOL    HW237908   4.198   0.142   6.243  1.2968  0.8724 -0.2530
 8816SOL     OW37909   2.642   1.377  16.111 -0.6805  0.1850 -0.1341
 8816SOL    HW137910   2.607   1.296  16.148  3.3540 -0.5670  1.9907
 8816SOL    HW237911   2.563   1.417  16.074 -2.7474 -1.4854  2.3909
 8817SOL     OW37912   2.142   3.364   5.637  0.5052  0.0620  0.1145
 8817SOL    HW137913   2.145   3.303   5.564 -1.0272 -1.8115  1.6482
 8817SOL    HW237914   2.234   3.394   5.638 -0.0813  1.8979  0.1372
 8818SOL     OW37915   2.771   0.186   3.590  0.1871 -0.0937  0.1245
 8818SOL    HW137916   2.709   0.156   3.524  0.6073 -2.1428  0.6657
 8818SOL    HW237917   2.778   0.117   3.655 -2.9920 -0.9801 -0.4774
 8819SOL     OW37918   2.105   0.143   5.379  0.3885  0.3067 -0.3710
 8819SOL    HW137919   2.100   0.209   5.309  1.2589  0.9456  0.1819
 8819SOL    HW237920   2.137   0.198   5.450 -0.3787  0.0318  0.1795
 8820SOL     OW37921   4.646   1.311   2.609 -0.1934 -0.3094  0.1815
 8820SOL    HW137922   0.014   1.325   2.622 -0.4111  0.5985  0.7833
 8820SOL    HW237923   4.616   1.397   2.639 -0.3948  0.1380 -1.2737
 8821SOL     OW37924   3.471   2.555  14.037 -0.6056 -0.1774 -0.2699
 8821SOL    HW137925   3.406   2.540  13.968  1.0043 -2.1439 -1.3508
 8821SOL    HW237926   3.437   2.477  14.079 -0.9757  0.2835  0.2817
 8822SOL     OW37927   4.272   4.517   8.177 -0.0220 -0.3708  0.0128
 8822SOL    HW137928   4.185   4.481   8.195 -1.3931  1.3754 -3.0841
 8822SOL    HW237929   4.271   4.605   8.213  1.9499 -0.6032  0.5993
 8823SOL     OW37930   3.136   4.699   8.322  0.0560 -0.1005 -0.7241
 8823SOL    HW137931   3.158   4.710   8.229 -2.8449  1.0558 -1.2561
 8823SOL    HW237932   3.043   4.717   8.332  0.0911 -0.0470 -0.4873
 8824SOL     OW37933   4.463   2.689   3.409  0.2568  0.5263  0.5758
 8824SOL    HW137934   4.515   2.621   3.452  0.2880 -1.1563 -2.1410
 8824SOL    HW237935   4.465   2.764   3.469  3.3465  0.5346  0.4446
 8825SOL     OW37936   3.915   0.492  16.361  0.7096 -0.2298  0.3244
 8825SOL    HW137937   3.834   0.487  16.310  0.2272 -1.5141  1.2179
 8825SOL    HW237938   3.982   0.506  16.294 -0.8548  3.1187 -0.5363
 8826SOL     OW37939   0.456   2.965   4.041 -0.4551  0.4150 -0.0041
 8826SOL    HW137940   0.473   2.948   3.948 -1.7784 -0.4447 -0.0893
 8826SOL    HW237941   0.458   2.873   4.067  0.3778  0.4908  0.2320
 8827SOL     OW37942   1.502   0.658   0.031  0.0752 -0.5529  0.3116
 8827SOL    HW137943   1.447   0.728  17.697  2.4259  2.5246  2.6119
 8827SOL    HW237944   1.562   0.697   0.095 -1.5101  1.6637  0.4610
 8828SOL     OW37945   3.319   1.221   6.520  0.4164 -0.2123 -0.0366
 8828SOL    HW137946   3.368   1.141   6.540 -1.3486 -1.0032  1.1005
 8828SOL    HW237947   3.243   1.195   6.468  1.1950  3.1692 -2.9004
 8829SOL     OW37948   3.313   4.181   7.425  0.7543  0.3075 -0.3857
 8829SOL    HW137949   3.322   4.270   7.459  2.3386  1.1491 -2.9736
 8829SOL    HW237950   3.324   4.188   7.330  0.8231  1.3238 -0.3071
 8830SOL     OW37951   2.419   2.124  15.074  0.4176  0.6039 -0.1548
 8830SOL    HW137952   2.441   2.042  15.120  1.7291  0.7316 -0.5513
 8830SOL    HW237953   2.507   2.148  15.046  0.1389 -0.8001 -2.2921
 8831SOL     OW37954   2.181   0.926   0.384 -0.0484  0.2265 -0.2801
 8831SOL    HW137955   2.120   0.982   0.431 -0.1021 -1.2996  1.4703
 8831SOL    HW237956   2.125   0.862   0.340 -0.4353  0.3379  0.0562
 8832SOL     OW37957   2.780   1.090  15.934 -0.0440 -0.1200 -0.4797
 8832SOL    HW137958   2.851   1.138  15.891  0.0751 -0.6634 -0.8954
 8832SOL    HW237959   2.734   1.056  15.857 -0.5485 -0.1114 -0.1770
 8833SOL     OW37960   2.026   3.484   7.774  0.0741  0.0880 -0.1091
 8833SOL    HW137961   2.074   3.490   7.856 -0.3385 -0.1032  0.1434
 8833SOL    HW237962   1.933   3.480   7.799 -0.7436 -0.8388 -3.2517
 8834SOL     OW37963   2.776   1.423  17.140  0.1802 -0.3827 -0.2899
 8834SOL    HW137964   2.732   1.469  17.069 -0.7678  1.0848  1.2395
 8834SOL    HW237965   2.742   1.463  17.220 -1.3711 -0.5353 -0.8752
 8835SOL     OW37966   0.955   0.595   7.234 -0.1585 -0.0558  0.5562
 8835SOL    HW137967   0.897   0.519   7.246 -2.7810  1.6957 -1.2790
 8835SOL    HW237968   0.917   0.634   7.156 -1.4829  2.1727  2.3332
 8836SOL     OW37969   0.805   1.976  12.595  0.1069  0.1071  0.2452
 8836SOL    HW137970   0.839   2.010  12.512 -1.1111 -1.0671 -0.7264
 8836SOL    HW237971   0.888   1.939  12.627  0.0111 -0.4288 -0.1240
 8837SOL     OW37972   3.476   0.890  10.970 -0.0604  0.2737  0.4806
 8837SOL    HW137973   3.486   0.983  10.952  2.0961 -0.0809 -0.2670
 8837SOL    HW237974   3.383   0.875  10.984  0.0005 -1.1604 -0.6013
 8838SOL     OW37975   2.228   0.822  12.682 -0.1211 -0.5751  0.2920
 8838SOL    HW137976   2.294   0.784  12.624 -1.5952 -0.3757 -1.5356
 8838SOL    HW237977   2.157   0.758  12.674 -1.1619  0.5047  0.8655
 8839SOL     OW37978   3.186   0.796   9.955 -0.3328 -0.7262  0.3945
 8839SOL    HW137979   3.141   0.815  10.037 -0.2472  1.1761 -0.0035
 8839SOL    HW237980   3.278   0.795   9.981 -0.7500  1.9543  2.0099
 8840SOL     OW37981   3.097   0.444   2.719  0.2108 -0.2089  0.9117
 8840SOL    HW137982   3.003   0.463   2.717  0.0915 -0.9229 -0.0253
 8840SOL    HW237983   3.145   0.526   2.730  0.8086 -0.1733 -2.1387
 8841SOL     OW37984   2.504   0.422   1.206 -0.2946  0.0257  0.7442
 8841SOL    HW137985   2.440   0.492   1.221 -1.2506 -0.7501  0.2917
 8841SOL    HW237986   2.483   0.366   1.280  0.0244 -1.7173 -0.5025
 8842SOL     OW37987   0.693   0.652   6.041  0.3055  0.3530  0.1149
 8842SOL    HW137988   0.637   0.727   6.020 -2.1041 -2.1632 -2.3625
 8842SOL    HW237989   0.782   0.687   6.035  0.0890  0.4283 -2.4618
 8843SOL     OW37990   0.796   1.444  10.948  0.7032  0.6310  0.2227
 8843SOL    HW137991   0.804   1.478  10.859  3.2235  0.2353  0.3083
 8843SOL    HW237992   0.708   1.407  10.946  0.9553 -0.1267  2.4306
 8844SOL     OW37993   2.720   1.383   2.306 -0.2139 -0.1468  0.6192
 8844SOL    HW137994   2.653   1.355   2.244  2.3164 -1.3688 -1.5874
 8844SOL    HW237995   2.769   1.449   2.256 -3.1606 -0.2150 -2.3428
 8845SOL     OW37996   1.301   3.283   5.768  0.1839  0.4316  0.2416
 8845SOL    HW137997   1.282   3.372   5.737 -1.9719 -0.2411 -0.3572
 8845SOL    HW237998   1.381   3.284   5.714 -0.1060  0.5018 -0.1885
 8846SOL     OW37999   3.660   1.617  15.255  0.0651  0.8450  0.6020
 8846SOL    HW138000   3.658   1.560  15.332  0.9631 -0.1499 -0.1160
 8846SOL    HW238001   3.698   1.555  15.193 -1.9340  0.0098  0.2106
 8847SOL     OW38002   1.239   3.044   2.502 -0.1887 -0.7248  0.2186
 8847SOL    HW138003   1.161   3.085   2.464  0.2624  0.9069  1.0428
 8847SOL    HW238004   1.215   2.952   2.499 -0.3459 -0.6312 -1.5788
 8848SOL     OW38005   4.568   3.048   1.684  0.9665  0.0349  0.0415
 8848SOL    HW138006   4.577   3.090   1.770 -0.6657 -0.6540  0.5500
 8848SOL    HW238007   4.595   2.958   1.703 -1.0798 -0.4101  0.8472
 8849SOL     OW38008   0.776   3.103   0.180 -0.2251 -0.2769 -0.2833
 8849SOL    HW138009   0.802   3.163   0.250  0.5763  1.3080 -1.9547
 8849SOL    HW238010   0.708   3.055   0.227 -1.1454  1.5573  0.2535
 8850SOL     OW38011   0.706   2.922   4.995 -0.1830  0.0889 -0.1123
 8850SOL    HW138012   0.663   2.836   4.997 -0.6031  0.2321 -2.2661
 8850SOL    HW238013   0.633   2.980   4.976  0.2199  0.2956 -1.0205
 8851SOL     OW38014   0.919   0.992   4.585 -0.0176  0.0587  0.5485
 8851SOL    HW138015   1.011   0.970   4.600 -0.1885 -1.8115 -1.0956
 8851SOL    HW238016   0.923   1.081   4.619 -2.5922  1.0856 -1.8403
 8852SOL     OW38017   4.718   0.690  15.841 -0.0278  0.4302 -0.2507
 8852SOL    HW138018   0.015   0.740  15.920  1.0243  0.1270 -0.3705
 8852SOL    HW238019   0.008   0.753  15.770 -0.4544  0.2481 -0.5068
 8853SOL     OW38020   3.580   3.048   6.593  0.4023 -0.6106 -0.2321
 8853SOL    HW138021   3.581   3.014   6.503 -2.1233 -0.9823 -0.1284
 8853SOL    HW238022   3.573   2.967   6.643 -1.0979  0.5326  1.4027
 8854SOL     OW38023   3.252   2.206   8.198  1.0741  0.2617  0.2443
 8854SOL    HW138024   3.204   2.169   8.272 -0.4868  1.6089 -0.0909
 8854SOL    HW238025   3.293   2.281   8.240  2.7636 -2.0398  2.6622
 8855SOL     OW38026   3.962   2.272   5.215 -0.0285 -0.3165 -0.5018
 8855SOL    HW138027   3.946   2.307   5.303  1.6373  1.0608 -0.7288
 8855SOL    HW238028   3.975   2.179   5.233  0.2941  0.2601  2.2341
 8856SOL     OW38029   4.642   2.194   5.675 -0.0868 -0.4259  0.1116
 8856SOL    HW138030   4.609   2.239   5.753 -2.5458 -0.3922 -0.9561
 8856SOL    HW238031   4.555   2.184   5.638 -0.4530 -0.9228  1.1221
 8857SOL     OW38032   4.189   0.316   1.857  0.1636 -0.2242 -0.6992
 8857SOL    HW138033   4.140   0.254   1.803  0.1605 -0.7199 -0.1185
 8857SOL    HW238034   4.115   0.348   1.909 -0.3838  4.1529 -4.1339
 8858SOL     OW38035   4.723   3.215   8.615 -0.3355 -0.2087 -0.0201
 8858SOL    HW138036   0.083   3.194   8.578  0.0862  2.1129 -0.3796
 8858SOL    HW238037   4.697   3.281   8.551 -4.0822 -1.9653 -0.3155
 8859SOL     OW38038   4.494   2.927  10.456  1.0454 -0.1172 -0.0916
 8859SOL    HW138039   4.495   2.948  10.550 -1.0149  2.9471 -0.7531
 8859SOL    HW238040   4.405   2.949  10.428  1.2955 -1.1268 -1.6528
 8860SOL     OW38041   1.093   1.096  16.247 -0.3099  0.2952 -0.4154
 8860SOL    HW138042   1.104   1.187  16.220 -4.2444  0.9876  0.3971
 8860SOL    HW238043   1.156   1.099  16.319 -0.1322  2.0693 -0.6465
 8861SOL     OW38044   2.704   1.098   1.507 -0.3777  0.1971  0.1146
 8861SOL    HW138045   2.622   1.048   1.506 -0.5751  0.4914  1.3814
 8861SOL    HW238046   2.671   1.187   1.499  4.1705  1.7821 -0.7199
 8862SOL     OW38047   1.430   2.565  16.139  0.3781  0.3434 -0.4343
 8862SOL    HW138048   1.464   2.644  16.182  0.9446 -0.4146  0.4875
 8862SOL    HW238049   1.513   2.525  16.115  0.3142  0.3626 -0.6917
 8863SOL     OW38050   1.682   3.477   8.745  0.0630 -0.4397  0.1888
 8863SOL    HW138051   1.623   3.408   8.716 -1.4413  2.3636 -3.5351
 8863SOL    HW238052   1.742   3.485   8.671  0.8431 -3.1618  0.5437
 8864SOL     OW38053   0.260   3.015  13.836 -0.1817  0.1481 -1.1018
 8864SOL    HW138054   0.175   3.056  13.825  0.3461  1.6819  0.7223
 8864SOL    HW238055   0.241   2.947  13.901  0.9983  1.3139  0.4323
 8865SOL     OW38056   0.038   3.382   6.945  0.3885 -0.1746 -0.3880
 8865SOL    HW138057   0.111   3.346   6.895 -1.1924 -0.1801 -2.6972
 8865SOL    HW238058   4.697   3.384   6.876 -0.3623 -3.1881  0.2213
 8866SOL     OW38059   0.242   1.173   4.700 -0.0820 -0.1056  0.7448
 8866SOL    HW138060   0.197   1.098   4.660 -0.3176 -1.2038  3.1054
 8866SOL    HW238061   0.312   1.129   4.749 -0.2496 -0.7845  0.3871
 8867SOL     OW38062   0.594   4.482   4.077  0.0189 -0.4628  0.4884
 8867SOL    HW138063   0.544   4.420   4.025  0.1227  1.4237 -1.8561
 8867SOL    HW238064   0.594   4.437   4.162 -0.4602  1.4754  1.5243
 8868SOL     OW38065   3.152   2.796   0.900 -0.2382 -0.2770 -0.6294
 8868SOL    HW138066   3.183   2.845   0.976  0.9529 -1.5397 -0.2991
 8868SOL    HW238067   3.060   2.772   0.916 -0.5995  1.1361 -0.6456
 8869SOL     OW38068   0.286   3.662   9.955  0.2523  0.8471 -0.7583
 8869SOL    HW138069   0.197   3.677   9.924 -0.5046  0.5649  1.2807
 8869SOL    HW238070   0.303   3.579   9.910 -1.4077  0.6196 -0.9662
 8870SOL     OW38071   1.092   0.538   1.349 -0.3275  0.3576 -0.2767
 8870SOL    HW138072   1.140   0.457   1.367 -0.8293  0.2259  0.4928
 8870SOL    HW238073   1.096   0.578   1.436 -1.5672  0.8391 -0.4463
 8871SOL     OW38074   0.457   4.098   4.124  0.4993  0.0878 -0.3937
 8871SOL    HW138075   0.375   4.106   4.075  0.4181  0.9555 -0.1203
 8871SOL    HW238076   0.435   4.169   4.185 -0.1531 -0.0168 -0.5065
 8872SOL     OW38077   3.434   0.911  14.675 -0.3096  0.4493 -0.3164
 8872SOL    HW138078   3.380   0.836  14.651 -0.1787 -0.4368  2.2116
 8872SOL    HW238079   3.509   0.863  14.712  0.4012  0.7577 -1.3614
 8873SOL     OW38080   0.826   0.328   4.913 -0.3260 -0.5226 -0.4410
 8873SOL    HW138081   0.848   0.254   4.857 -1.1814 -2.3833  1.6771
 8873SOL    HW238082   0.744   0.357   4.873 -1.8705 -3.4724  0.5600
 8874SOL     OW38083   0.412   0.520   7.439 -0.0045  0.2664 -0.9995
 8874SOL    HW138084   0.399   0.484   7.527  0.9905  2.4385  0.0357
 8874SOL    HW238085   0.480   0.581   7.466 -1.7117  0.9944  1.7229
 8875SOL     OW38086   1.318   1.299   7.077 -0.0700 -0.1125  0.5785
 8875SOL    HW138087   1.356   1.256   7.154  1.0872  0.0935  0.1234
 8875SOL    HW238088   1.292   1.219   7.032 -0.6610  2.0232 -2.8812
 8876SOL     OW38089   3.251   4.065  16.915 -0.5242  0.0534 -0.0945
 8876SOL    HW138090   3.202   4.019  16.983 -1.0962 -1.4460 -1.5286
 8876SOL    HW238091   3.326   4.008  16.901 -0.6149 -0.7668  2.7473
 8877SOL     OW38092   3.084   1.260   5.644 -0.3821  0.4364 -0.2775
 8877SOL    HW138093   3.141   1.334   5.662  2.1071 -1.3740 -0.6106
 8877SOL    HW238094   3.042   1.257   5.730  2.5712 -0.8208  1.1418
 8878SOL     OW38095   2.147   4.011  15.104 -0.0691  0.1080 -0.2753
 8878SOL    HW138096   2.183   3.993  15.191  0.8726 -0.7472 -0.8373
 8878SOL    HW238097   2.057   4.042  15.118  0.0931  0.4748 -0.0701
 8879SOL     OW38098   3.118   2.631   4.002 -0.0314  0.4346  0.2877
 8879SOL    HW138099   3.027   2.611   3.982 -0.4748  2.3831  0.3163
 8879SOL    HW238100   3.113   2.656   4.095 -3.5918  0.2331  0.1505
 8880SOL     OW38101   1.615   2.948   9.053  0.2896 -0.7589 -0.3251
 8880SOL    HW138102   1.558   2.872   9.043  1.3166 -1.7592  1.5306
 8880SOL    HW238103   1.613   2.956   9.148 -0.1539 -0.6623 -0.3400
 8881SOL     OW38104   0.630   0.418   4.733  0.1990 -0.2823  0.1574
 8881SOL    HW138105   0.611   0.506   4.703 -1.3615 -0.4956  0.5005
 8881SOL    HW238106   0.612   0.368   4.653 -0.9391  1.4145 -0.6384
 8882SOL     OW38107   2.661   4.504   5.787 -0.1230 -0.1910 -0.0865
 8882SOL    HW138108   2.648   4.417   5.825  0.8302  0.0308  0.7482
 8882SOL    HW238109   2.663   4.559   5.865 -0.6202  0.9900 -0.9090
 8883SOL     OW38110   0.841   2.099   9.056 -0.0098 -0.1210  0.8797
 8883SOL    HW138111   0.891   2.168   9.013  1.8553 -1.8559  0.2791
 8883SOL    HW238112   0.753   2.109   9.020 -0.0583  0.5806  1.1938
 8884SOL     OW38113   2.815   3.268   2.450 -0.6443 -0.0941  0.1119
 8884SOL    HW138114   2.727   3.303   2.435 -0.6117 -0.7140 -1.5674
 8884SOL    HW238115   2.850   3.354   2.473 -3.6914  1.5935 -1.5336
 8885SOL     OW38116   4.153   2.873   4.825 -0.1848  0.8129  0.4050
 8885SOL    HW138117   4.097   2.822   4.884 -0.2019 -0.3705 -0.6149
 8885SOL    HW238118   4.198   2.936   4.881  0.9882 -0.7042  1.1854
 8886SOL     OW38119   3.967   3.021   9.417 -0.8605 -0.4469 -0.1227
 8886SOL    HW138120   3.924   3.106   9.406  1.1383  0.5872  0.0294
 8886SOL    HW238121   4.051   3.053   9.449 -0.6925  0.0197 -1.0393
 8887SOL     OW38122   1.883   2.433   5.863  0.2615 -0.1886  0.3914
 8887SOL    HW138123   1.797   2.398   5.887 -0.1323  1.5080  1.4498
 8887SOL    HW238124   1.940   2.365   5.899  0.1726 -0.3975  0.1378
 8888SOL     OW38125   0.161   1.683  14.938 -0.5566  0.3141 -0.2319
 8888SOL    HW138126   0.104   1.607  14.928  0.8168 -0.8315  0.7762
 8888SOL    HW238127   0.105   1.757  14.962 -0.6565  0.3854 -0.6724
 8889SOL     OW38128   2.589   4.546   3.033  0.4247 -0.1174  0.1539
 8889SOL    HW138129   2.642   4.599   2.974 -1.1427  2.6974  1.2703
 8889SOL    HW238130   2.617   4.578   3.119 -0.0203 -1.3590  0.7543
 8890SOL     OW38131   3.872   2.302  17.329 -0.1017 -0.1499 -0.1622
 8890SOL    HW138132   3.897   2.261  17.411 -0.5244  0.2474  0.1692
 8890SOL    HW238133   3.961   2.312  17.296 -0.4943  3.0667 -0.3279
 8891SOL     OW38134   0.629   0.598   2.586 -0.5963 -0.0947 -0.3788
 8891SOL    HW138135   0.616   0.669   2.523 -2.3531  1.3686  1.6473
 8891SOL    HW238136   0.552   0.542   2.575 -1.0301  0.2537  0.9325
 8892SOL     OW38137   3.488   1.575   5.920  0.7153  0.0979  0.2822
 8892SOL    HW138138   3.420   1.626   5.963 -0.5844  1.5166 -3.4761
 8892SOL    HW238139   3.540   1.640   5.873  0.8130 -0.9254 -1.0429
 8893SOL     OW38140   4.482   1.487   4.915 -0.3538  0.6253  0.1792
 8893SOL    HW138141   4.508   1.395   4.919 -3.5417 -0.3317 -0.9367
 8893SOL    HW238142   4.388   1.476   4.928 -0.5446  0.9527 -0.8978
 8894SOL     OW38143   3.318   3.669   6.255 -0.1015  0.3004 -0.0379
 8894SOL    HW138144   3.379   3.653   6.328  2.4881 -1.4160 -2.5845
 8894SOL    HW238145   3.256   3.597   6.265 -0.0505  0.7440  3.7423
 8895SOL     OW38146   1.727   4.685  12.274 -0.2422  0.1357  0.3846
 8895SOL    HW138147   1.724   4.638  12.358  0.9187  2.9015  1.9483
 8895SOL    HW238148   1.806   4.647  12.235 -0.7896  0.3627 -0.9489
 8896SOL     OW38149   2.490   4.009  11.343  0.7635  0.1242 -0.3924
 8896SOL    HW138150   2.439   4.089  11.329 -0.6928 -0.5290  1.2108
 8896SOL    HW238151   2.578   4.048  11.345 -0.7431  3.5651 -0.9515
 8897SOL     OW38152   2.623   1.170  14.080  0.2525 -0.5697  0.2617
 8897SOL    HW138153   2.708   1.161  14.036  0.8744  1.6468  1.0127
 8897SOL    HW238154   2.648   1.240  14.140 -1.7291 -0.5199  0.9991
 8898SOL     OW38155   2.822   0.419   1.167 -0.8101 -0.1331  0.3006
 8898SOL    HW138156   2.802   0.468   1.247  1.1874  1.6368 -0.2896
 8898SOL    HW238157   2.869   0.346   1.209 -0.2643 -0.6536 -1.2085
 8899SOL     OW38158   1.228   2.968   8.587 -0.2810 -0.2527  0.4833
 8899SOL    HW138159   1.283   3.025   8.641 -0.7563  0.0753  0.6133
 8899SOL    HW238160   1.250   2.883   8.626 -0.7147 -0.9225 -0.7256
 8900SOL     OW38161   0.811   2.634  14.787  0.4401  0.2402  0.2224
 8900SOL    HW138162   0.762   2.700  14.739 -0.2677  0.1686  0.8466
 8900SOL    HW238163   0.885   2.639  14.726  0.7436  0.0650  0.5767
 8901SOL     OW38164   1.492   2.090   1.540  0.2039  0.2297  0.1023
 8901SOL    HW138165   1.574   2.113   1.497 -0.8075  0.3288 -1.7634
 8901SOL    HW238166   1.457   2.018   1.487 -0.4450  0.9052 -0.3837
 8902SOL     OW38167   1.914   4.587   7.877 -0.3388 -0.1400 -0.5773
 8902SOL    HW138168   1.998   4.574   7.835 -0.3980 -0.5260 -0.5751
 8902SOL    HW238169   1.853   4.559   7.809 -1.0577 -1.0781  0.4594
 8903SOL     OW38170   3.682   1.574   2.497 -0.2147 -0.0544 -0.0980
 8903SOL    HW138171   3.761   1.627   2.490  0.9604 -1.9872 -1.4643
 8903SOL    HW238172   3.687   1.559   2.591 -0.7064 -1.3430 -0.2729
 8904SOL     OW38173   0.144   2.170  14.077 -0.1363  0.4331  0.2891
 8904SOL    HW138174   0.228   2.145  14.116 -0.1651 -0.4141 -0.1856
 8904SOL    HW238175   0.176   2.232  14.012  1.1450 -0.4414  0.0622
 8905SOL     OW38176   0.126   4.422   1.670  0.7480  0.4593  0.5317
 8905SOL    HW138177   0.094   4.345   1.622  1.4069 -1.3855  3.0609
 8905SOL    HW238178   0.216   4.418   1.638 -0.0791 -1.3199 -1.5923
 8906SOL     OW38179   0.837   0.598   2.159  0.1298  0.0719  0.1403
 8906SOL    HW138180   0.779   0.663   2.118 -0.7206 -0.4779  0.4749
 8906SOL    HW238181   0.881   0.658   2.219 -1.3082 -0.0282  1.3078
 8907SOL     OW38182   3.189   0.831   6.760  0.0732 -0.1284  0.3281
 8907SOL    HW138183   3.265   0.815   6.704 -0.1112  4.1116 -1.1908
 8907SOL    HW238184   3.125   0.845   6.691  0.3591  0.9875  0.2894
 8908SOL     OW38185   0.558   4.205   4.684 -0.1270 -0.0357 -0.1271
 8908SOL    HW138186   0.639   4.220   4.732  0.0800 -0.9555 -0.1861
 8908SOL    HW238187   0.504   4.144   4.735  0.6944 -1.1600 -0.5976
 8909SOL     OW38188   2.654   4.604   4.123 -0.3088 -0.4023  0.5493
 8909SOL    HW138189   2.709   4.640   4.193  0.8611  1.0965 -1.1582
 8909SOL    HW238190   2.656   4.511   4.148 -1.1196 -0.8241 -0.9415
 8910SOL     OW38191   2.219   0.616   7.586 -0.1286 -0.1672 -0.3507
 8910SOL    HW138192   2.259   0.612   7.673  0.0882  1.1640 -0.3829
 8910SOL    HW238193   2.146   0.555   7.597  0.0030 -0.5778 -1.7877
 8911SOL     OW38194   2.422   2.014   0.832  0.3436 -0.0320  0.0986
 8911SOL    HW138195   2.453   2.037   0.920 -0.9283  3.3843 -0.3453
 8911SOL    HW238196   2.335   1.977   0.851  0.6024 -1.8344 -2.2075
 8912SOL     OW38197   0.335   2.160   4.795 -0.4583 -0.8196 -0.1212
 8912SOL    HW138198   0.329   2.139   4.702  4.4663  0.3739 -0.7318
 8912SOL    HW238199   0.246   2.175   4.825 -0.2997  0.4741 -0.2955
 8913SOL     OW38200   0.252   4.084  11.535 -0.5659 -0.4767  0.0807
 8913SOL    HW138201   0.172   4.109  11.489 -1.2481 -0.6978  1.1499
 8913SOL    HW238202   0.217   4.023  11.599  1.8707 -0.2671  1.6134
 8914SOL     OW38203   1.616   4.040   4.357 -0.2589  0.6823  0.0583
 8914SOL    HW138204   1.588   3.970   4.416  0.6360 -0.2883 -0.6555
 8914SOL    HW238205   1.572   4.120   4.386 -1.0619 -0.2143  1.2825
 8915SOL     OW38206   0.723   2.585   7.797  0.4772 -0.5863 -0.0044
 8915SOL    HW138207   0.764   2.501   7.818 -0.6040 -1.4403 -1.3160
 8915SOL    HW238208   0.628   2.578   7.786  0.5968 -3.0948  0.4301
 8916SOL     OW38209   2.384   1.114   3.279  0.0132  0.1296  0.0984
 8916SOL    HW138210   2.310   1.060   3.306 -0.9002  0.4901 -1.6225
 8916SOL    HW238211   2.437   1.046   3.237 -0.6253 -0.1989 -0.1692
 8917SOL     OW38212   4.539   1.819  13.135  0.0477  0.2803 -0.3319
 8917SOL    HW138213   4.450   1.824  13.171  0.7764  3.1121  1.1077
 8917SOL    HW238214   4.546   1.903  13.090  0.1328  0.9833  0.9687
 8918SOL     OW38215   3.931   2.260  11.020 -0.2188  0.0409 -0.3525
 8918SOL    HW138216   3.864   2.198  10.992 -2.0850  1.9231 -0.0600
 8918SOL    HW238217   4.006   2.206  10.995 -0.5070 -1.4142  1.9811
 8919SOL     OW38218   1.914   1.286  11.192  0.3026  0.4326 -0.2147
 8919SOL    HW138219   1.983   1.274  11.257 -0.8352 -0.8090  0.7873
 8919SOL    HW238220   1.835   1.244  11.227  1.1649  0.7813  2.1131
 8920SOL     OW38221   2.121   2.372  17.479 -0.2022 -0.0868 -0.5813
 8920SOL    HW138222   2.139   2.466  17.489  0.1388 -0.0192 -1.7748
 8920SOL    HW238223   2.190   2.333  17.532 -0.2965  2.6376  1.5208
 8921SOL     OW38224   1.691   1.287   0.316  0.1115  0.1215  0.0100
 8921SOL    HW138225   1.784   1.303   0.332  0.3456 -0.1076 -1.1686
 8921SOL    HW238226   1.681   1.350   0.245  3.1038  0.7272  0.1571
 8922SOL     OW38227   1.931   2.118   2.343 -0.3395  0.3440  0.3102
 8922SOL    HW138228   1.961   2.209   2.351  0.8833  0.0703 -1.3158
 8922SOL    HW238229   2.011   2.071   2.323 -0.5301 -0.6423  1.8462
 8923SOL     OW38230   0.743   2.334   4.041  0.0387  0.1460  0.0004
 8923SOL    HW138231   0.696   2.262   4.081 -0.3720  0.7095  0.5390
 8923SOL    HW238232   0.765   2.309   3.951 -1.1290  2.3150 -0.8976
 8924SOL     OW38233   1.873   3.043  16.627 -0.1020 -0.4745 -0.3498
 8924SOL    HW138234   1.925   2.991  16.688 -0.1006  0.3682  0.3553
 8924SOL    HW238235   1.900   3.133  16.644  1.0046 -0.4177 -2.3707
 8925SOL     OW38236   1.042   3.942   8.250  0.5132 -0.6284 -0.5688
 8925SOL    HW138237   1.100   3.879   8.207  0.3213 -1.1411 -0.0777
 8925SOL    HW238238   1.114   3.996   8.284  0.5160 -0.7023 -0.4551
 8926SOL     OW38239   1.177   2.930   9.798  0.5350 -0.5060  0.5435
 8926SOL    HW138240   1.176   2.868   9.725  1.7446 -0.5153  0.5253
 8926SOL    HW238241   1.087   2.943   9.828  0.3076 -1.4825  0.2985
 8927SOL     OW38242   0.095   3.010   2.132 -0.1738  0.0983 -0.0613
 8927SOL    HW138243   0.061   3.048   2.051  0.3555 -2.1445 -1.3309
 8927SOL    HW238244   0.188   3.014   2.110  0.1012 -0.8152  0.9726
 8928SOL     OW38245   0.172   3.515   4.820 -0.5128 -0.0894 -0.0859
 8928SOL    HW138246   0.099   3.527   4.880 -1.3482  1.3406 -1.3729
 8928SOL    HW238247   0.246   3.522   4.880  0.4564  2.4224 -1.5813
 8929SOL     OW38248   3.672   3.971   1.477 -0.3658  0.5639 -0.2882
 8929SOL    HW138249   3.589   3.984   1.431 -0.3929 -4.2284 -1.5952
 8929SOL    HW238250   3.720   4.046   1.440 -4.5399  2.7250 -1.2979
 8930SOL     OW38251   2.243   3.783   4.880 -0.0026 -0.0998 -0.4668
 8930SOL    HW138252   2.210   3.774   4.970 -0.7662  2.0926 -0.5398
 8930SOL    HW238253   2.172   3.836   4.845  0.0455 -0.0154 -0.4372
 8931SOL     OW38254   2.221   1.508  10.759 -0.1889 -0.2200 -0.0652
 8931SOL    HW138255   2.297   1.452  10.773  1.4800  2.3039  1.1193
 8931SOL    HW238256   2.223   1.569  10.833  2.1057  0.7313 -0.8987
 8932SOL     OW38257   2.032   1.973   7.223 -0.2410 -0.2490 -0.5449
 8932SOL    HW138258   2.071   1.905   7.168 -1.5384 -0.4891 -1.1707
 8932SOL    HW238259   2.001   1.928   7.301 -0.4508 -1.0471 -1.0776
 8933SOL     OW38260   2.724   1.019  13.745  0.0975 -0.1975 -0.4577
 8933SOL    HW138261   2.779   1.017  13.667 -0.0762 -1.0104 -0.5591
 8933SOL    HW238262   2.780   1.073  13.801  0.8687  0.0683 -1.5040
 8934SOL     OW38263   3.300   4.691   4.629  0.1616  0.2302 -0.5699
 8934SOL    HW138264   3.345   4.624   4.681 -2.4931 -0.5805  0.6751
 8934SOL    HW238265   3.252   0.006   4.700  0.2566 -1.1144  0.2580
 8935SOL     OW38266   4.436   4.541   4.606  0.4000 -0.1436  0.3813
 8935SOL    HW138267   4.373   4.584   4.664  0.2851 -1.2228  1.0366
 8935SOL    HW238268   4.476   4.490   4.675 -0.5594 -0.8069  0.4392
 8936SOL     OW38269   4.678   0.383  10.261  0.6701  0.2780  0.0762
 8936SOL    HW138270   4.717   0.358  10.178 -0.2023 -1.3860  0.1730
 8936SOL    HW238271   4.671   0.296  10.299  0.5715 -0.0323 -0.6551
 8937SOL     OW38272   1.252   2.078  11.607  0.2944 -0.7100 -0.1116
 8937SOL    HW138273   1.331   2.031  11.577  0.9451 -0.2189  0.8339
 8937SOL    HW238274   1.295   2.122  11.680 -0.2672 -1.0233  0.4062
 8938SOL     OW38275   0.172   2.306   5.787 -0.1439 -0.8614 -0.5288
 8938SOL    HW138276   0.248   2.248   5.796  1.1779  0.6706 -1.6613
 8938SOL    HW238277   0.102   2.252   5.751 -0.2388 -2.5404  2.1789
 8939SOL     OW38278   4.052   3.185   3.025  0.2975 -0.5993 -0.3580
 8939SOL    HW138279   4.062   3.182   3.120 -2.0676  1.0840 -0.0624
 8939SOL    HW238280   4.025   3.094   3.011  0.2273 -0.4603 -1.1182
 8940SOL     OW38281   2.715   0.511  12.099 -0.0980  0.4524  0.4110
 8940SOL    HW138282   2.675   0.424  12.099 -0.3588  0.5792 -0.7761
 8940SOL    HW238283   2.756   0.526  12.014  0.2599  0.3925  0.5714
 8941SOL     OW38284   4.084   0.429  16.661 -0.5984 -0.0166 -0.0088
 8941SOL    HW138285   4.005   0.462  16.704 -1.7824 -2.2132 -0.5286
 8941SOL    HW238286   4.109   0.511  16.618  0.8700  0.0737  1.0084
 8942SOL     OW38287   1.974   3.519   9.473  0.3527 -0.5489 -0.1160
 8942SOL    HW138288   2.015   3.487   9.393  1.8767  1.5554 -0.1842
 8942SOL    HW238289   2.010   3.608   9.470 -1.1862  0.0516 -0.6174
 8943SOL     OW38290   0.443   2.949  12.019  0.0461 -0.0542 -0.2210
 8943SOL    HW138291   0.411   3.030  12.059 -1.6260 -0.5485 -0.5389
 8943SOL    HW238292   0.358   2.911  11.997  0.2881 -0.4013 -0.5488
 8944SOL     OW38293   3.624   3.596   9.564  0.2586 -0.7980 -0.6308
 8944SOL    HW138294   3.591   3.658   9.629  0.3799 -1.1353 -0.2519
 8944SOL    HW238295   3.667   3.652   9.499  1.2869 -2.0695 -1.0573
 8945SOL     OW38296   0.334   1.651   5.953  0.1015 -0.8751  0.2658
 8945SOL    HW138297   0.369   1.705   6.023  0.8286  0.5570 -1.1987
 8945SOL    HW238298   0.255   1.703   5.938 -0.3375 -1.6714 -0.2201
 8946SOL     OW38299   0.540   2.797  13.876  0.3021 -0.3460  0.2102
 8946SOL    HW138300   0.470   2.735  13.893  0.7944 -0.0228  3.4988
 8946SOL    HW238301   0.606   2.746  13.923  1.6379 -0.5494 -1.8761
 8947SOL     OW38302   2.477   2.578  12.969 -0.0114  0.1642 -0.0172
 8947SOL    HW138303   2.536   2.650  12.948 -0.8059  0.6124 -0.7426
 8947SOL    HW238304   2.464   2.592  13.063 -1.3325 -0.3032 -0.1271
 8948SOL     OW38305   0.580   2.907   5.333 -0.4132  0.1672 -0.1825
 8948SOL    HW138306   0.522   2.836   5.307 -1.0560 -0.2107  2.2707
 8948SOL    HW238307   0.544   2.984   5.289 -0.8069 -0.6722 -1.3347
 8949SOL     OW38308   2.222   4.501   4.248 -0.1777 -0.0476 -0.1927
 8949SOL    HW138309   2.259   4.524   4.162  0.2443  0.8169  0.2149
 8949SOL    HW238310   2.197   4.590   4.274 -2.5683 -0.9692  0.6693
 8950SOL     OW38311   0.113   3.209   6.548  0.2735 -0.2505  0.1265
 8950SOL    HW138312   0.167   3.135   6.521  0.1853  0.3807 -1.7768
 8950SOL    HW238313   0.146   3.215   6.637 -1.7274  0.5541  0.8128
 8951SOL     OW38314   0.914   1.621   7.152 -0.0446  0.4171  0.3426
 8951SOL    HW138315   0.970   1.621   7.074 -0.7646 -2.1620 -0.1803
 8951SOL    HW238316   0.877   1.533   7.144  0.7530  0.2099 -1.1382
 8952SOL     OW38317   3.815   1.942  10.015 -0.1373  0.3802  0.2735
 8952SOL    HW138318   3.878   1.909   9.952 -0.5271  2.0600 -1.0032
 8952SOL    HW238319   3.737   1.903   9.976 -0.3388  1.5007 -0.4540
 8953SOL     OW38320   4.263   3.807   4.231  0.0391  0.1394  0.4875
 8953SOL    HW138321   4.197   3.742   4.253  0.0097 -0.9616 -2.8582
 8953SOL    HW238322   4.208   3.885   4.239  1.3671  1.0442  0.8342
 8954SOL     OW38323   1.248   2.946   6.441  0.5874  0.0858  0.1589
 8954SOL    HW138324   1.214   2.977   6.357 -1.6810 -2.4798  0.1119
 8954SOL    HW238325   1.238   3.026   6.492  0.1446  0.5087 -0.5975
 8955SOL     OW38326   2.810   2.235   5.930 -0.4400  0.0733 -0.1243
 8955SOL    HW138327   2.833   2.297   5.999  1.1619 -0.9635  0.2763
 8955SOL    HW238328   2.759   2.296   5.877  1.2755  0.8348 -0.9064
 8956SOL     OW38329   4.109   0.766  15.005 -0.6759 -0.1373 -0.0044
 8956SOL    HW138330   4.160   0.786  15.084 -1.1398  0.8929  0.0281
 8956SOL    HW238331   4.074   0.851  14.977 -0.0097 -0.0323 -0.5232
 8957SOL     OW38332   4.341   0.401   6.470 -0.1487  0.9848  0.8087
 8957SOL    HW138333   4.351   0.473   6.533 -1.3074  1.7020  0.1846
 8957SOL    HW238334   4.336   0.457   6.393 -0.0683  1.7880  1.3839
 8958SOL     OW38335   2.939   3.042  13.724 -0.5759 -0.0999 -0.2180
 8958SOL    HW138336   2.870   2.996  13.773  0.9154  0.7881  2.6977
 8958SOL    HW238337   2.951   3.116  13.783 -0.0274  0.8514 -1.5347
 8959SOL     OW38338   0.993   1.618   1.350 -0.4603  0.3099  0.6532
 8959SOL    HW138339   1.066   1.564   1.382 -0.2605  0.1040 -0.1280
 8959SOL    HW238340   1.029   1.702   1.376  1.4514 -0.4392  0.4560
 8960SOL     OW38341   2.929   2.524   7.937 -0.5837  0.0376  0.1997
 8960SOL    HW138342   2.953   2.534   8.029 -0.0055  0.5957 -0.0122
 8960SOL    HW238343   2.851   2.470   7.947 -0.5043 -0.1181 -0.0256
 8961SOL     OW38344   3.874   4.094   2.013 -0.2921  0.1460  0.4796
 8961SOL    HW138345   3.952   4.118   2.064  0.7382 -0.7215 -0.7040
 8961SOL    HW238346   3.866   4.009   2.056 -0.0611 -0.8131 -1.4182
 8962SOL     OW38347   1.320   1.756   1.056  0.0205  0.0404  0.4539
 8962SOL    HW138348   1.238   1.714   1.028  0.2613  1.2147 -2.0764
 8962SOL    HW238349   1.355   1.675   1.092 -3.1560 -1.0326  1.1114
 8963SOL     OW38350   3.679   2.691   6.401 -0.6077  0.0204  0.3106
 8963SOL    HW138351   3.646   2.703   6.490 -0.0452  1.5242  0.3206
 8963SOL    HW238352   3.615   2.634   6.359 -0.6737 -0.5262  1.1543
 8964SOL     OW38353   2.180   4.237   4.983 -0.0186  0.4497  0.0506
 8964SOL    HW138354   2.170   4.331   5.002  1.9156  0.4645  1.0205
 8964SOL    HW238355   2.245   4.222   5.052 -0.1816  0.2976  0.1699
 8965SOL     OW38356   1.488   1.452  14.030  0.4548 -0.4434  0.0055
 8965SOL    HW138357   1.561   1.394  14.008  1.2545  0.1974  0.9656
 8965SOL    HW238358   1.508   1.525  13.972  1.0214  0.3128  1.1383
 8966SOL     OW38359   2.708   0.020   6.717 -0.5342 -0.5029 -0.0677
 8966SOL    HW138360   2.767   0.093   6.696  0.1782 -0.9240  0.4599
 8966SOL    HW238361   2.767   4.670   6.718  0.8575  0.5860 -0.4696
 8967SOL     OW38362   2.507   2.043   3.272  0.1537 -0.2121 -0.1900
 8967SOL    HW138363   2.511   2.095   3.192  0.1428 -1.3120 -0.9063
 8967SOL    HW238364   2.601   2.026   3.275  0.1449 -0.4854 -1.6706
 8968SOL     OW38365   0.395   3.598   7.142 -0.2761 -0.8897  0.0046
 8968SOL    HW138366   0.307   3.576   7.170 -1.0093 -1.4882 -2.7716
 8968SOL    HW238367   0.377   3.627   7.053  0.7601  0.1777  0.1469
 8969SOL     OW38368   3.546   3.847  14.928 -0.4313 -0.3432 -0.2330
 8969SOL    HW138369   3.627   3.797  14.933 -0.1082  0.0097 -1.8192
 8969SOL    HW238370   3.561   3.898  14.848  0.5684 -4.0007 -2.3972
 8970SOL     OW38371   4.148   2.126   3.762 -0.2948  0.5750  0.3581
 8970SOL    HW138372   4.066   2.081   3.780 -0.5709  0.6613 -0.7074
 8970SOL    HW238373   4.136   2.216   3.792 -0.7488  1.0019 -1.1188
 8971SOL     OW38374   0.673   4.060   6.597  0.1269  0.0782 -0.0331
 8971SOL    HW138375   0.653   4.145   6.637  0.8730  1.0803 -1.7522
 8971SOL    HW238376   0.679   4.008   6.677  1.7668  2.0955  1.1509
 8972SOL     OW38377   1.546   1.548   6.439 -0.4691 -0.0322 -0.0651
 8972SOL    HW138378   1.633   1.528   6.472  0.0894 -2.0446 -2.6581
 8972SOL    HW238379   1.526   1.465   6.394 -0.6162 -0.4380  0.7601
 8973SOL     OW38380   3.487   0.832   5.645 -0.2546  0.5526  0.2934
 8973SOL    HW138381   3.478   0.852   5.552 -0.5868 -1.3936 -0.1121
 8973SOL    HW238382   3.565   0.881   5.668  0.4614 -0.5563  0.2588
 8974SOL     OW38383   0.922   0.057   8.184  0.4334 -0.0724 -0.4856
 8974SOL    HW138384   0.935   0.130   8.123  0.8850  0.0756 -0.2069
 8974SOL    HW238385   1.013   0.044   8.211  0.0230  0.5942  1.2191
 8975SOL     OW38386   2.590   0.900  11.913  0.5714  0.3361 -0.3753
 8975SOL    HW138387   2.621   0.852  11.989 -1.1070  0.6668  0.5190
 8975SOL    HW238388   2.565   0.829  11.853  0.4343  0.7380 -0.7957
 8976SOL     OW38389   4.375   0.479   3.062 -0.2444 -0.0425  0.1284
 8976SOL    HW138390   4.324   0.423   3.121  1.0527 -0.2028  1.1010
 8976SOL    HW238391   4.373   0.424   2.983  0.3421  1.6136 -1.0508
 8977SOL     OW38392   0.606   2.751   8.693  0.0105 -0.0461  0.0863
 8977SOL    HW138393   0.571   2.831   8.732 -0.5136 -0.8949  1.3379
 8977SOL    HW238394   0.561   2.748   8.608 -1.0480 -1.4665  0.6815
 8978SOL     OW38395   0.910   0.812   5.436  0.1860 -0.0461 -0.1765
 8978SOL    HW138396   0.827   0.777   5.467 -1.2130  2.0934 -1.5363
 8978SOL    HW238397   0.950   0.742   5.384 -3.2409 -1.6412 -0.6354
 8979SOL     OW38398   2.769   1.787   8.490  0.1943 -0.1966  0.3453
 8979SOL    HW138399   2.788   1.708   8.540 -0.4005 -0.2037  0.5569
 8979SOL    HW238400   2.727   1.833   8.563  1.3153 -1.0909  1.5592
 8980SOL     OW38401   0.361   2.743   2.903 -0.5506  0.6720 -0.0707
 8980SOL    HW138402   0.377   2.786   2.988 -3.2982 -1.2619  1.4151
 8980SOL    HW238403   0.266   2.752   2.904 -0.6072 -0.0876  2.2468
 8981SOL     OW38404   3.038   0.529   3.260  0.6125  0.1304  0.3888
 8981SOL    HW138405   2.944   0.517   3.254  0.4786  0.6218  1.4969
 8981SOL    HW238406   3.055   0.618   3.293 -0.6089  1.0380 -1.3967
 8982SOL     OW38407   2.411   2.380   5.068  0.0571  0.8489  0.0612
 8982SOL    HW138408   2.475   2.310   5.076  0.9895  1.3994 -2.3729
 8982SOL    HW238409   2.410   2.369   4.973  0.0524  1.4290 -0.0053
 8983SOL     OW38410   0.393   4.576   7.492 -0.0995 -0.0138  0.7270
 8983SOL    HW138411   0.306   4.559   7.529 -1.5145 -0.7686 -2.8834
 8983SOL    HW238412   0.369   4.654   7.442  0.5632 -1.0600 -1.2240
 8984SOL     OW38413   3.663   0.443  17.311  0.1044  0.2513 -0.2987
 8984SOL    HW138414   3.736   0.398  17.269  1.3534 -0.4244  2.6649
 8984SOL    HW238415   3.628   0.494  17.237 -1.2935  0.9852  0.8806
 8985SOL     OW38416   0.062   1.016   1.051 -0.2503  0.2931  0.3397
 8985SOL    HW138417   0.061   0.945   1.114 -0.6759  0.1810  0.2056
 8985SOL    HW238418   4.702   1.004   1.009 -0.2714  0.6566  0.2747
 8986SOL     OW38419   1.514   4.263   6.918  0.4843  0.0944 -0.2951
 8986SOL    HW138420   1.428   4.261   6.877 -0.3641 -0.1841  1.5231
 8986SOL    HW238421   1.562   4.194   6.871 -1.0924 -2.0483  1.2381
 8987SOL     OW38422   2.512   0.918  14.097  0.1873 -0.0014  0.3411
 8987SOL    HW138423   2.570   0.994  14.093  0.7846 -0.3976  1.5897
 8987SOL    HW238424   2.576   0.850  14.079  3.0009  2.6702  0.2452
 8988SOL     OW38425   3.124   1.919   3.549  0.1399 -0.0726 -0.6600
 8988SOL    HW138426   3.068   1.905   3.625 -2.0397 -2.4759 -2.6778
 8988SOL    HW238427   3.169   1.834   3.551 -0.7574 -0.5656 -1.0437
 8989SOL     OW38428   2.083   1.462   4.552 -0.1053  0.1363  0.1275
 8989SOL    HW138429   2.036   1.545   4.560  1.2801  0.8390  1.0876
 8989SOL    HW238430   2.024   1.431   4.483  1.0957 -0.0993 -0.7932
 8990SOL     OW38431   0.144   2.059   0.908  0.0487 -0.0673 -0.3498
 8990SOL    HW138432   0.191   2.059   0.824  2.5694 -0.0662  1.0673
 8990SOL    HW238433   0.202   1.995   0.949 -1.6766 -1.1653  0.4129
 8991SOL     OW38434   2.639   2.748  17.284  0.2865 -1.0700 -0.1549
 8991SOL    HW138435   2.718   2.703  17.315  0.8863 -0.1884 -0.4271
 8991SOL    HW238436   2.682   2.811  17.227 -0.1834 -0.8176 -0.2286
 8992SOL     OW38437   3.986   3.648   1.796  0.0012  0.1388  0.2430
 8992SOL    HW138438   3.942   3.703   1.731  1.6424 -0.1939 -1.1400
 8992SOL    HW238439   3.904   3.617   1.836 -0.3762  0.4774 -0.2638
 8993SOL     OW38440   0.938   4.426   1.906 -1.4052 -0.4077 -0.1433
 8993SOL    HW138441   0.876   4.371   1.954 -1.0547 -0.0287  0.7442
 8993SOL    HW238442   0.908   4.414   1.816 -0.8280  2.3622 -0.7133
 8994SOL     OW38443   0.422   2.202   3.371  0.1631 -0.3830  0.1127
 8994SOL    HW138444   0.470   2.128   3.407 -0.4281 -1.2961 -0.9569
 8994SOL    HW238445   0.446   2.203   3.278 -1.5114 -0.5476 -0.3236
 8995SOL     OW38446   1.819   3.803   6.551 -0.3534 -0.1057  0.0710
 8995SOL    HW138447   1.884   3.773   6.615  0.3196 -0.2230 -0.6750
 8995SOL    HW238448   1.813   3.726   6.494  3.0939 -1.0397  0.9806
 8996SOL     OW38449   2.606   3.297   8.169 -0.3450 -0.0652  0.4310
 8996SOL    HW138450   2.634   3.363   8.106  1.5232 -0.0146  1.2973
 8996SOL    HW238451   2.694   3.266   8.193  0.2640  0.9705 -0.5128
 8997SOL     OW38452   2.303   4.029  13.708  0.4823 -0.1668  0.1116
 8997SOL    HW138453   2.269   3.950  13.749  1.8684  0.2897  2.1481
 8997SOL    HW238454   2.385   4.042  13.757 -0.0451 -1.0497  1.2228
 8998SOL     OW38455   0.467   1.132   8.784 -0.4404  0.0488 -0.3362
 8998SOL    HW138456   0.459   1.209   8.839 -2.1631  1.6318 -2.8057
 8998SOL    HW238457   0.376   1.118   8.759 -0.6917  0.3155  0.4404
 8999SOL     OW38458   1.945   1.904   1.076  0.2795  0.8701 -0.1200
 8999SOL    HW138459   1.903   1.945   1.000  0.6864 -1.6829 -1.7102
 8999SOL    HW238460   1.931   1.970   1.144  1.6986 -0.0509  1.0523
 9000SOL     OW38461   3.279   4.264   0.829 -0.0564 -0.6921  0.0289
 9000SOL    HW138462   3.354   4.206   0.840  1.7738  1.6617 -0.1336
 9000SOL    HW238463   3.272   4.302   0.916 -1.7583  0.5717 -0.6442
 9001SOL     OW38464   1.578   2.818   7.751 -0.0264  0.1893 -0.0595
 9001SOL    HW138465   1.525   2.898   7.753 -1.8416 -1.0703  1.3343
 9001SOL    HW238466   1.660   2.869   7.752 -1.3144  2.3122 -1.2635
 9002SOL     OW38467   4.056   4.190   8.608 -0.1385  0.0490 -0.2814
 9002SOL    HW138468   4.112   4.218   8.680 -1.0210 -0.4595  0.6133
 9002SOL    HW238469   3.980   4.248   8.618  0.8976  0.8750  3.0083
 9003SOL     OW38470   4.219   1.248   3.561 -0.2313 -0.3115 -0.2223
 9003SOL    HW138471   4.218   1.230   3.467 -0.1102  0.1161 -0.3023
 9003SOL    HW238472   4.311   1.266   3.581  0.1838 -2.1261 -0.5052
 9004SOL     OW38473   4.386   3.795   3.070  0.2444  0.2365  0.0904
 9004SOL    HW138474   4.313   3.784   3.131 -0.1638  1.6765 -0.1312
 9004SOL    HW238475   4.440   3.849   3.127 -1.1206 -0.3882  1.9733
 9005SOL     OW38476   1.127   2.032   5.062 -0.4843  0.6579  0.0614
 9005SOL    HW138477   1.094   1.988   4.984 -1.3195 -0.1098  0.8388
 9005SOL    HW238478   1.079   2.115   5.059 -2.9497 -0.7898 -0.6578
 9006SOL     OW38479   0.113   3.512  12.404 -0.1231  0.3393  0.2414
 9006SOL    HW138480   0.060   3.438  12.434 -1.2837 -0.3334 -3.4254
 9006SOL    HW238481   0.194   3.496  12.452  0.7846  2.9709 -0.3967
 9007SOL     OW38482   1.772   4.236   1.460  0.1624 -0.5708 -0.3791
 9007SOL    HW138483   1.739   4.213   1.373 -0.3140  0.1771 -0.3982
 9007SOL    HW238484   1.683   4.239   1.496  0.3392  3.2679 -0.3457
 9008SOL     OW38485   1.904   4.241   6.051  0.2093  0.1849  0.1967
 9008SOL    HW138486   1.938   4.321   6.010 -0.6812 -0.3865 -1.6452
 9008SOL    HW238487   1.963   4.178   6.010 -1.1184  0.0832 -1.5271
 9009SOL     OW38488   1.256   2.024   8.079 -0.4922 -0.1598 -0.4858
 9009SOL    HW138489   1.210   2.055   8.002 -0.6796  2.3878  0.6480
 9009SOL    HW238490   1.190   2.022   8.149 -0.1626 -0.3889 -0.1774
 9010SOL     OW38491   2.969   0.565   7.768 -0.0346 -0.0173 -0.0837
 9010SOL    HW138492   2.969   0.504   7.842 -1.2829 -1.2180 -1.0627
 9010SOL    HW238493   2.874   0.573   7.762 -0.0067  0.1272 -0.3239
 9011SOL     OW38494   3.782   4.184   1.373 -0.4647 -0.0719 -0.7370
 9011SOL    HW138495   3.837   4.229   1.437  0.8063 -0.0542 -1.8300
 9011SOL    HW238496   3.755   4.260   1.321 -2.2924  0.4448  0.9677
 9012SOL     OW38497   1.051   4.299   8.970 -0.3466 -0.2353  0.3481
 9012SOL    HW138498   1.003   4.235   9.023  3.2973 -0.7136  3.0729
 9012SOL    HW238499   1.142   4.272   8.979  0.0522  0.8247 -0.5210
 9013SOL     OW38500   3.969   1.956   8.087  0.1307 -0.0198  0.3076
 9013SOL    HW138501   3.909   1.924   8.020 -0.2831 -3.1176  2.1257
 9013SOL    HW238502   3.996   2.041   8.054  0.6264 -0.3890 -0.2337
 9014SOL     OW38503   4.504   3.639   3.521  0.3894 -0.0920  0.2092
 9014SOL    HW138504   4.597   3.627   3.541  0.1989 -2.7943 -0.5029
 9014SOL    HW238505   4.479   3.694   3.595 -0.7280 -1.6842  1.0161
 9015SOL     OW38506   3.126   0.859  16.180 -0.4578 -0.1813 -0.5021
 9015SOL    HW138507   3.169   0.849  16.095  0.7839 -0.2711  0.1435
 9015SOL    HW238508   3.084   0.945  16.171 -0.6457  0.1355  3.1515
 9016SOL     OW38509   1.961   0.441   2.970  0.0878 -0.0864  0.2494
 9016SOL    HW138510   1.975   0.462   2.878 -2.4149  0.8110  0.0731
 9016SOL    HW238511   2.034   0.382   2.989  0.5275  0.0378 -1.0127
 9017SOL     OW38512   1.090   3.673  14.211  0.4060  0.2235 -0.4214
 9017SOL    HW138513   1.096   3.695  14.118 -0.2458 -0.9389 -0.7348
 9017SOL    HW238514   0.994   3.669  14.217  0.6205 -0.0831  2.6449
 9018SOL     OW38515   3.007   2.453   7.611 -0.6726 -0.3534  0.8539
 9018SOL    HW138516   2.915   2.477   7.621 -0.7279  0.1296 -0.9022
 9018SOL    HW238517   3.017   2.384   7.677 -2.1309  0.0802  1.5404
 9019SOL     OW38518   0.030   3.363   1.567 -0.5176  0.8460  0.3118
 9019SOL    HW138519   0.059   3.353   1.658  1.0843 -2.3282 -0.5707
 9019SOL    HW238520   4.697   3.288   1.553 -0.4600  0.9439 -0.4639
 9020SOL     OW38521   0.784   3.035  16.052  0.2983 -0.8877  0.2133
 9020SOL    HW138522   0.709   3.062  16.000  0.4672 -0.7967  0.0193
 9020SOL    HW238523   0.746   3.063  16.136  0.2341 -2.9260  0.8871
 9021SOL     OW38524   3.177   1.785   6.375  0.1351 -0.5771  0.1859
 9021SOL    HW138525   3.206   1.851   6.439  1.6473  0.3186 -1.4274
 9021SOL    HW238526   3.250   1.726   6.357  1.2830  0.2027  2.2329
 9022SOL     OW38527   0.351   2.646   8.892 -0.4923  0.0948 -0.0181
 9022SOL    HW138528   0.344   2.741   8.886  2.3207  0.3052 -0.3617
 9022SOL    HW238529   0.314   2.618   8.809  0.0170 -0.0698 -0.1902
 9023SOL     OW38530   2.016   4.475   3.415  0.2325 -0.4696  0.3416
 9023SOL    HW138531   1.996   4.510   3.328  1.4842  1.8303  0.9823
 9023SOL    HW238532   1.934   4.449   3.458 -0.0938  0.8149  0.4936
 9024SOL     OW38533   3.510   0.405   9.706  0.0839 -0.4802 -0.5566
 9024SOL    HW138534   3.487   0.497   9.699 -0.4070 -0.5783 -0.3164
 9024SOL    HW238535   3.458   0.367   9.635 -1.4100  1.9712 -0.7967
 9025SOL     OW38536   0.092   0.461  13.429  1.3673 -0.1147  0.0663
 9025SOL    HW138537   0.011   0.420  13.458  0.1400  3.9648  2.4995
 9025SOL    HW238538   0.116   0.419  13.346  0.3117  0.0317 -0.3032
 9026SOL     OW38539   3.124   3.382   2.297  0.0374  0.0613 -0.5698
 9026SOL    HW138540   3.078   3.319   2.242 -1.1260 -0.2169  0.7308
 9026SOL    HW238541   3.166   3.322   2.358 -0.5676 -0.3078 -0.5201
 9027SOL     OW38542   3.568   3.304   3.589 -0.2356 -0.3320  0.1505
 9027SOL    HW138543   3.480   3.339   3.594 -0.8280 -1.8655  0.5747
 9027SOL    HW238544   3.614   3.360   3.526  0.1383 -1.3976 -0.5391
 9028SOL     OW38545   2.381   3.640   4.657  0.1947  0.2972 -0.0476
 9028SOL    HW138546   2.354   3.682   4.739 -0.4886 -2.2648  1.0305
 9028SOL    HW238547   2.392   3.719   4.604  0.2396 -0.0841 -0.6001
 9029SOL     OW38548   1.885   3.245   4.834 -0.3014 -0.1183  0.0565
 9029SOL    HW138549   1.847   3.157   4.823 -2.3420  0.6628  0.9398
 9029SOL    HW238550   1.852   3.282   4.752 -0.1764 -0.5834 -0.2050
 9030SOL     OW38551   1.009   4.537   5.548  0.1503  0.2885 -0.0892
 9030SOL    HW138552   1.097   4.504   5.530 -0.2506 -1.2250  0.7291
 9030SOL    HW238553   0.969   4.450   5.550 -0.6356  0.6514 -0.1269
 9031SOL     OW38554   3.075   4.505  14.102 -0.0226  0.0221 -0.3510
 9031SOL    HW138555   3.162   4.545  14.103  0.6655 -1.4955  0.2897
 9031SOL    HW238556   3.092   4.422  14.146 -0.1369 -0.3044 -0.9255
 9032SOL     OW38557   0.755   2.925   7.367 -0.0730 -0.0238  0.1982
 9032SOL    HW138558   0.843   2.887   7.367 -0.2149 -0.3569  0.2932
 9032SOL    HW238559   0.699   2.852   7.396 -0.2830 -0.0742 -0.3370
 9033SOL     OW38560   0.491   3.486   8.473 -0.0348  0.7273 -1.1819
 9033SOL    HW138561   0.504   3.497   8.379  0.1980 -1.1336 -1.3677
 9033SOL    HW238562   0.582   3.508   8.495 -0.2262 -0.1189  0.4648
 9034SOL     OW38563   1.708   1.790   2.494 -0.2896 -0.2834 -0.2870
 9034SOL    HW138564   1.797   1.814   2.518 -0.5782  0.7681 -0.2699
 9034SOL    HW238565   1.660   1.872   2.500  0.1741  0.0823 -1.4830
 9035SOL     OW38566   2.376   0.463   8.416  0.0353  0.1017 -0.4196
 9035SOL    HW138567   2.358   0.372   8.392 -1.5869  0.1975  0.4299
 9035SOL    HW238568   2.304   0.483   8.476  0.8034  0.4387  0.3846
 9036SOL     OW38569   0.163   3.583  14.794 -0.2144  0.0433 -0.6339
 9036SOL    HW138570   0.250   3.550  14.773 -0.6335 -1.7938  0.5263
 9036SOL    HW238571   0.176   3.610  14.884  0.8104 -0.4490 -0.6375
 9037SOL     OW38572   2.460   2.085   2.986 -0.0388  0.5147 -0.3725
 9037SOL    HW138573   2.502   2.059   2.904  0.7330  1.4592 -0.2818
 9037SOL    HW238574   2.431   2.000   3.019  1.1352 -0.1083 -0.9707
 9038SOL     OW38575   2.574   3.095   8.395  0.1316 -0.1155  0.1494
 9038SOL    HW138576   2.588   3.065   8.305  2.0080 -1.0762  0.7659
 9038SOL    HW238577   2.558   3.184   8.364  1.7674 -0.6138 -2.1528
 9039SOL     OW38578   1.479   2.398   2.773  0.3374  0.3785 -0.4115
 9039SOL    HW138579   1.401   2.426   2.725 -0.2872 -3.2437 -1.5059
 9039SOL    HW238580   1.550   2.445   2.728  2.1989 -1.2025  0.9031
 9040SOL     OW38581   3.439   4.165   9.654  0.7098  0.0087  0.3956
 9040SOL    HW138582   3.355   4.191   9.616  0.3954  0.8952  1.7108
 9040SOL    HW238583   3.495   4.219   9.599 -0.1830 -0.7888 -1.3056
 9041SOL     OW38584   1.475   4.167   3.277 -0.1659 -0.1471 -0.1832
 9041SOL    HW138585   1.568   4.153   3.260 -0.0897 -0.0497  0.1525
 9041SOL    HW238586   1.443   4.077   3.270  0.4610 -0.6804  3.5859
 9042SOL     OW38587   1.357   1.327   0.732 -0.5050 -0.1648 -0.2085
 9042SOL    HW138588   1.417   1.282   0.672  0.7358  0.4267  0.5846
 9042SOL    HW238589   1.317   1.249   0.770  0.0784 -0.5273 -0.3289
 9043SOL     OW38590   0.520   4.185  12.714  0.8422 -0.1772  0.0085
 9043SOL    HW138591   0.491   4.141  12.634  3.1586 -0.6649 -0.5582
 9043SOL    HW238592   0.605   4.211  12.677 -0.2000  1.0953 -1.4920
 9044SOL     OW38593   2.803   2.983   6.122 -0.1576 -0.5924 -0.1520
 9044SOL    HW138594   2.871   3.049   6.128 -0.0616 -0.7700  0.6747
 9044SOL    HW238595   2.792   2.978   6.217  1.5707 -1.3207  0.0070
 9045SOL     OW38596   3.502   4.677  14.461  0.1228  0.7968  0.5599
 9045SOL    HW138597   3.544   4.640  14.384 -1.6726  1.2537 -0.6334
 9045SOL    HW238598   3.475   0.033  14.419 -1.8168  0.0223  0.2877
 9046SOL     OW38599   1.285   0.131   6.082  0.3323 -0.4671  0.2994
 9046SOL    HW138600   1.295   0.159   5.991  1.1509  1.1327  0.8842
 9046SOL    HW238601   1.334   0.197   6.131  0.5405 -0.2664 -0.1757
 9047SOL     OW38602   0.775   2.132   9.813 -0.7774  0.0775 -0.4094
 9047SOL    HW138603   0.773   2.111   9.719  0.5096 -1.8848 -0.0205
 9047SOL    HW238604   0.691   2.100   9.845 -0.8388  0.1409 -0.5067
 9048SOL     OW38605   4.555   1.003   8.859 -0.4931 -0.0980 -0.5543
 9048SOL    HW138606   4.569   0.925   8.912  2.2173 -0.1295 -1.2791
 9048SOL    HW238607   4.587   1.073   8.916 -2.1350  0.1290  0.0889
 9049SOL     OW38608   3.313   1.962   8.069  0.2055  0.0332  0.1654
 9049SOL    HW138609   3.243   1.945   8.005  1.6478  0.1027 -1.4326
 9049SOL    HW238610   3.285   2.044   8.108  1.3777  0.4389  0.1536
 9050SOL     OW38611   4.220   0.998   5.215  0.1601  0.2267  0.2410
 9050SOL    HW138612   4.174   1.075   5.183 -0.1837 -0.2824 -0.4727
 9050SOL    HW238613   4.225   1.021   5.308 -2.5895 -0.9234  0.6708
 9051SOL     OW38614   1.945   3.717   4.909 -0.4030 -0.1628  0.0575
 9051SOL    HW138615   1.863   3.685   4.871 -1.4422  0.8692  1.4435
 9051SOL    HW238616   1.960   3.793   4.854 -0.0043 -1.0289 -1.0398
 9052SOL     OW38617   4.614   3.156   8.843  0.3132 -0.1113 -0.6900
 9052SOL    HW138618   4.693   3.135   8.894 -0.3836  0.1726  0.5044
 9052SOL    HW238619   4.655   3.182   8.761 -1.6563  1.0173 -1.3048
 9053SOL     OW38620   1.188   3.330   5.033 -0.3877  0.5489 -0.1374
 9053SOL    HW138621   1.151   3.394   4.973 -0.8884  1.2406  0.9227
 9053SOL    HW238622   1.197   3.265   4.963  0.6072 -0.1243  0.6081
 9054SOL     OW38623   3.752   2.192  10.151  0.1723  0.4273  0.8167
 9054SOL    HW138624   3.699   2.153  10.220 -2.4473  3.6792  0.6452
 9054SOL    HW238625   3.777   2.116  10.098 -0.4178 -0.0392  1.2144
 9055SOL     OW38626   4.329   4.454   6.386  0.1647  0.9170 -0.0929
 9055SOL    HW138627   4.383   4.375   6.392  0.8950  1.3093 -1.4632
 9055SOL    HW238628   4.295   4.452   6.475 -1.3281  1.1115 -0.6593
 9056SOL     OW38629   1.124   4.500   8.475 -0.3694  0.3196 -0.1536
 9056SOL    HW138630   1.054   4.555   8.510 -0.3090  0.7823 -0.7426
 9056SOL    HW238631   1.113   4.426   8.534 -0.1413  1.5142  1.3704
 9057SOL     OW38632   1.104   0.480   3.811 -0.0595  0.3358  0.0330
 9057SOL    HW138633   1.191   0.508   3.782 -0.1470  1.3738  0.7949
 9057SOL    HW238634   1.056   0.511   3.734 -0.2061  0.2609  0.0946
 9058SOL     OW38635   3.296   2.018   0.897 -0.4752  0.2318 -0.0652
 9058SOL    HW138636   3.248   2.065   0.965  1.0691 -0.1243  1.2983
 9058SOL    HW238637   3.285   2.087   0.833 -1.8833  1.2564  1.2983
 9059SOL     OW38638   1.508   1.191  10.047  0.6903  0.4197  0.1928
 9059SOL    HW138639   1.432   1.139  10.071 -0.3279  1.0808 -1.6736
 9059SOL    HW238640   1.486   1.230   9.963  0.4444  1.9791  0.9739
 9060SOL     OW38641   0.914   4.105   1.985 -0.1100  0.9747 -0.0924
 9060SOL    HW138642   0.896   4.012   1.971  1.3458  0.4838  1.3336
 9060SOL    HW238643   0.950   4.123   1.899 -1.4048 -3.8981 -1.6279
 9061SOL     OW38644   2.705   3.784  13.138 -0.3164 -1.0572 -0.4543
 9061SOL    HW138645   2.737   3.823  13.056  0.1864  2.1912  1.2698
 9061SOL    HW238646   2.678   3.862  13.187 -0.2939 -1.2589 -0.1262
 9062SOL     OW38647   0.918   1.581   8.518 -0.0842 -0.2543  0.4518
 9062SOL    HW138648   0.899   1.640   8.592 -2.1274  1.7441 -1.6577
 9062SOL    HW238649   0.831   1.543   8.502 -1.3480  2.4837  0.7372
 9063SOL     OW38650   2.430   2.206   8.038  0.4367 -0.4692  0.0121
 9063SOL    HW138651   2.409   2.117   8.066 -2.3506  1.0986  2.8634
 9063SOL    HW238652   2.382   2.245   8.110 -1.3029 -1.2263 -0.7412
 9064SOL     OW38653   3.981   3.204  13.750 -0.1096 -0.1343 -0.5578
 9064SOL    HW138654   3.894   3.203  13.710 -0.7994  0.2821  0.9395
 9064SOL    HW238655   4.041   3.223  13.678  0.3726  2.2749  0.4668
 9065SOL     OW38656   3.668   1.880  15.322 -0.4191 -0.4926  0.3381
 9065SOL    HW138657   3.666   1.785  15.308 -2.7930 -0.2636 -0.8920
 9065SOL    HW238658   3.725   1.883  15.399  0.3664  0.0655 -0.2722
 9066SOL     OW38659   2.303   2.132  15.913 -0.2491 -0.3155  0.1397
 9066SOL    HW138660   2.292   2.097  15.825 -0.7636 -1.0475  0.4957
 9066SOL    HW238661   2.356   2.065  15.956 -0.9256 -1.3497 -0.6661
 9067SOL     OW38662   2.632   0.678   1.034  0.2555  0.1656  0.4847
 9067SOL    HW138663   2.652   0.744   0.967 -1.0459 -1.1948 -1.2420
 9067SOL    HW238664   2.594   0.730   1.105  1.8541  1.6999  0.2187
 9068SOL     OW38665   0.216   1.441   3.192 -0.5182 -0.0406  0.1284
 9068SOL    HW138666   0.301   1.411   3.160  0.4878  2.1472  0.6908
 9068SOL    HW238667   0.231   1.452   3.286  1.1941 -3.0130  0.1952
 9069SOL     OW38668   4.340   0.808   5.025 -0.8769  0.0487  0.2257
 9069SOL    HW138669   4.356   0.872   4.956  1.3677 -1.2653 -0.4625
 9069SOL    HW238670   4.334   0.864   5.103  0.6896  1.4994 -0.6869
 9070SOL     OW38671   0.940   3.434   3.352  0.0074 -0.1942  0.2984
 9070SOL    HW138672   0.961   3.345   3.380  1.1275 -0.0441 -0.0829
 9070SOL    HW238673   0.982   3.433   3.266 -1.7553  1.2176 -0.5885
 9071SOL     OW38674   0.143   2.323   7.442  0.1437  0.0401  0.6995
 9071SOL    HW138675   0.056   2.362   7.433 -0.1169 -0.5647  0.5759
 9071SOL    HW238676   0.137   2.288   7.531 -1.3589 -1.7248 -0.1083
 9072SOL     OW38677   1.675   0.686   6.621 -0.4067 -0.1467  0.0969
 9072SOL    HW138678   1.669   0.759   6.682 -0.5313 -0.7812  0.8482
 9072SOL    HW238679   1.585   0.695   6.589  0.5277  0.4330 -2.3595
 9073SOL     OW38680   0.872   2.193   3.346  0.1040 -0.5134 -0.0413
 9073SOL    HW138681   0.847   2.282   3.323 -0.1052 -0.6307 -0.2665
 9073SOL    HW238682   0.943   2.172   3.286  0.7490 -1.2929  0.9929
 9074SOL     OW38683   1.623   3.450   7.938  0.0319  0.0693 -0.1269
 9074SOL    HW138684   1.678   3.443   7.860 -2.2691 -2.5133 -1.5304
 9074SOL    HW238685   1.561   3.514   7.904  0.2136  0.3518  0.0798
 9075SOL     OW38686   3.635   3.189   4.758 -0.6907  0.0171 -0.1296
 9075SOL    HW138687   3.597   3.110   4.720 -3.0272  2.4211 -2.7672
 9075SOL    HW238688   3.560   3.244   4.781  0.5928  2.9006 -2.8947
 9076SOL     OW38689   2.262   0.013   3.151 -0.0500 -0.3544  0.0862
 9076SOL    HW138690   2.344   0.009   3.200 -0.1738  0.6392  0.3812
 9076SOL    HW238691   2.214   0.087   3.188 -0.1637 -1.3304  1.8676
 9077SOL     OW38692   0.757   0.170   8.781  0.3414  0.4090 -0.0186
 9077SOL    HW138693   0.701   0.217   8.843 -0.8969 -2.1985  0.8534
 9077SOL    HW238694   0.701   0.093   8.765 -2.1053  2.2175 -0.1927
 9078SOL     OW38695   1.051   1.729   2.683 -0.4490 -0.5197 -0.0851
 9078SOL    HW138696   1.112   1.784   2.730 -1.5039  1.3245 -0.8902
 9078SOL    HW238697   1.070   1.754   2.593  1.9832  1.4111  0.9836
 9079SOL     OW38698   2.007   1.660   2.325  1.1936 -0.2362  1.0148
 9079SOL    HW138699   1.995   1.578   2.277 -0.4031  0.1955  0.6748
 9079SOL    HW238700   2.073   1.622   2.383  0.6029 -0.6181  1.4387
 9080SOL     OW38701   3.612   4.223   2.036  0.1865  0.0245 -0.4804
 9080SOL    HW138702   3.545   4.175   1.987  0.7875  1.1402 -2.3707
 9080SOL    HW238703   3.694   4.177   2.016  0.2986 -0.3977  0.9585
 9081SOL     OW38704   0.315   3.565   3.451 -0.8756  0.2598  0.5796
 9081SOL    HW138705   0.337   3.517   3.371 -0.8126  0.4311  0.4938
 9081SOL    HW238706   0.339   3.655   3.428 -3.0789  0.7497  0.1717
 9082SOL     OW38707   2.074   3.820   6.247  0.2474 -0.3714 -0.2843
 9082SOL    HW138708   1.990   3.798   6.288 -0.1725 -1.4120 -1.7252
 9082SOL    HW238709   2.050   3.799   6.157 -0.5511  1.5883 -0.5331
 9083SOL     OW38710   2.631   3.816   0.175  0.0299  0.4941  0.7469
 9083SOL    HW138711   2.688   3.758   0.124 -0.0556 -3.4183  5.0826
 9083SOL    HW238712   2.649   3.777   0.260 -1.3305  3.0099  2.1478
 9084SOL     OW38713   4.152   0.373  11.338  0.1844  0.1198 -0.3046
 9084SOL    HW138714   4.140   0.465  11.314 -0.8729  0.1729  0.4580
 9084SOL    HW238715   4.182   0.388  11.428  2.6812 -1.5429 -0.8466
 9085SOL     OW38716   3.663   0.137   4.439  0.6338  0.6772  0.1375
 9085SOL    HW138717   3.642   0.171   4.526 -1.7808 -2.3607  0.7256
 9085SOL    HW238718   3.635   0.046   4.442  1.1509  0.4919 -0.4084
 9086SOL     OW38719   3.650   0.068   6.319  0.4324 -0.1016  0.1240
 9086SOL    HW138720   3.601   0.032   6.245  1.5946 -1.4081 -0.0264
 9086SOL    HW238721   3.632   0.161   6.309 -1.3321 -0.0768  3.6164
 9087SOL     OW38722   1.438   1.737  17.677  0.3395 -0.1819 -0.2402
 9087SOL    HW138723   1.494   1.741  17.599 -0.5971 -0.5943 -0.9301
 9087SOL    HW238724   1.478   1.808   0.025 -1.3880 -1.3542  2.7590
 9088SOL     OW38725   0.441   2.034   4.009 -0.5452 -0.3388  0.2521
 9088SOL    HW138726   0.395   2.065   3.932  2.3313  0.5843 -1.0814
 9088SOL    HW238727   0.424   2.103   4.073 -1.2479  2.0266 -2.4953
 9089SOL     OW38728   0.822   0.632   6.508 -0.9451  0.1171  0.1980
 9089SOL    HW138729   0.787   0.688   6.439 -0.1119 -1.8132 -1.7749
 9089SOL    HW238730   0.751   0.568   6.503  0.9190 -1.7690 -1.8840
 9090SOL     OW38731   4.477   1.582   5.370 -0.4675 -0.1853 -0.3474
 9090SOL    HW138732   4.426   1.548   5.296 -0.3480  0.4477 -0.7250
 9090SOL    HW238733   4.529   1.509   5.402  0.3618  0.2679 -0.6670
 9091SOL     OW38734   4.092   0.841  12.168 -0.3905  0.2343  0.5168
 9091SOL    HW138735   4.139   0.812  12.090  0.2453 -0.0486  0.9943
 9091SOL    HW238736   4.113   0.766  12.224 -3.1574 -0.1599  1.0001
 9092SOL     OW38737   0.156   2.616   3.119 -0.1174  0.3168  0.4611
 9092SOL    HW138738   0.097   2.676   3.164 -1.2618 -1.5997  1.4931
 9092SOL    HW238739   0.231   2.675   3.117 -0.3245  0.6310  2.1774
 9093SOL     OW38740   0.295   1.546   4.254  0.1160 -0.3940 -0.1455
 9093SOL    HW138741   0.288   1.513   4.343 -1.0181 -0.8359 -0.3899
 9093SOL    HW238742   0.363   1.489   4.217 -0.6903 -1.6801  0.3596
 9094SOL     OW38743   1.210   0.173   5.788  0.0311  0.0323  0.4139
 9094SOL    HW138744   1.268   0.124   5.729  1.5622  0.0570  1.8785
 9094SOL    HW238745   1.244   0.262   5.789 -0.9732  0.4111 -0.7653
 9095SOL     OW38746   2.645   1.776   8.813 -0.2097  0.0494 -0.8796
 9095SOL    HW138747   2.577   1.718   8.848 -2.4888  4.0149  1.2523
 9095SOL    HW238748   2.720   1.718   8.806 -0.1024 -0.1019  1.3451
 9096SOL     OW38749   1.679   1.485   6.960  0.0398  0.1637 -0.0095
 9096SOL    HW138750   1.700   1.394   6.942  0.0069  0.2041 -0.2447
 9096SOL    HW238751   1.759   1.506   7.008  1.0906 -0.0108 -1.6758
 9097SOL     OW38752   3.914   3.489  17.269 -0.3246 -0.1810 -0.5151
 9097SOL    HW138753   3.880   3.531  17.189  0.1656  1.6406  0.2415
 9097SOL    HW238754   3.841   3.512  17.325  0.8715  1.1758  0.4844
 9098SOL     OW38755   3.097   2.976   7.825 -0.1182 -0.2007  0.5150
 9098SOL    HW138756   3.098   3.069   7.847  0.5214  0.4849 -2.5039
 9098SOL    HW238757   3.192   2.962   7.826 -0.3858 -1.9923  0.9430
 9099SOL     OW38758   0.865   4.298   8.361  0.1170 -0.1738  0.2431
 9099SOL    HW138759   0.908   4.337   8.285  1.2094 -1.2596  0.3017
 9099SOL    HW238760   0.772   4.313   8.347  0.1781 -2.5900 -2.9071
 9100SOL     OW38761   4.467   2.283   5.055 -0.0483  0.1724 -0.1065
 9100SOL    HW138762   4.518   2.353   5.096 -0.8897 -1.3395  3.5180
 9100SOL    HW238763   4.449   2.220   5.125  0.0434  0.1827 -0.0736
 9101SOL     OW38764   1.809   3.148   2.908 -0.1388  0.0822  0.2185
 9101SOL    HW138765   1.875   3.080   2.897  0.3663 -0.1539  4.7313
 9101SOL    HW238766   1.843   3.226   2.865 -1.8745  1.9111  2.1683
 9102SOL     OW38767   3.661   3.467   3.390 -0.4340 -0.5699  0.2218
 9102SOL    HW138768   3.700   3.433   3.310  0.6373  0.0989  0.4669
 9102SOL    HW238769   3.570   3.472   3.362 -0.9870  0.1021  2.1233
 9103SOL     OW38770   1.906   3.867   3.297  0.0577 -0.1941  0.1166
 9103SOL    HW138771   1.835   3.919   3.258  0.5288  0.6834  0.4211
 9103SOL    HW238772   1.966   3.942   3.303 -1.7566  1.3587 -0.7721
 9104SOL     OW38773   4.724   3.524   7.563 -0.3051 -1.0390 -0.2997
 9104SOL    HW138774   4.686   3.593   7.509  0.9868 -0.4969 -0.5086
 9104SOL    HW238775   4.646   3.508   7.615  1.2096 -0.3588  2.1568
 9105SOL     OW38776   3.048   1.239   8.355  0.2611 -0.0796  0.0918
 9105SOL    HW138777   3.046   1.144   8.368  0.4837  0.1768  2.0460
 9105SOL    HW238778   2.966   1.274   8.388 -0.0318 -0.9002  0.2507
 9106SOL     OW38779   4.294   0.975   4.809 -0.0880 -0.6005 -0.2936
 9106SOL    HW138780   4.330   1.058   4.779  0.1364 -0.3533  0.6442
 9106SOL    HW238781   4.272   0.929   4.728  0.1385 -0.5913 -0.3607
 9107SOL     OW38782   3.255   0.266   3.818  0.2245 -0.7710  0.0147
 9107SOL    HW138783   3.161   0.253   3.803  0.3203  0.6357 -1.8295
 9107SOL    HW238784   3.249   0.302   3.906  1.3015 -1.1323  0.2446
 9108SOL     OW38785   0.866   0.457   2.708  0.2212  0.3111  0.4659
 9108SOL    HW138786   0.820   0.536   2.680 -0.8518 -0.6853 -0.5686
 9108SOL    HW238787   0.857   0.386   2.644 -1.1989  2.3860 -1.6225
 9109SOL     OW38788   3.493   0.609   5.331 -0.0846  0.3069  0.0097
 9109SOL    HW138789   3.535   0.554   5.397 -2.0126  0.3936  1.3170
 9109SOL    HW238790   3.504   0.570   5.244  0.7857  1.0723 -0.2229
 9110SOL     OW38791   2.913   2.359   5.645  1.0112  0.7226 -0.1706
 9110SOL    HW138792   2.823   2.327   5.645  1.0642  0.6370  2.4061
 9110SOL    HW238793   2.897   2.450   5.670  1.5463  1.3625 -2.1510
 9111SOL     OW38794   3.108   2.255  14.794  0.9854 -0.5361  0.0059
 9111SOL    HW138795   3.193   2.299  14.795  0.7686 -0.1200 -0.1446
 9111SOL    HW238796   3.131   2.172  14.837  1.7578  0.0904  0.7945
 9112SOL     OW38797   0.160   4.124  17.069 -0.1386 -0.0921 -0.8195
 9112SOL    HW138798   0.122   4.184  17.133  1.8982  0.4561 -0.1045
 9112SOL    HW238799   0.242   4.107  17.117 -0.8013  0.4240  0.5040
 9113SOL     OW38800   1.862   3.686   3.481  0.1637 -0.2552  0.1700
 9113SOL    HW138801   1.888   3.743   3.408  1.3675  0.7244  1.3744
 9113SOL    HW238802   1.843   3.750   3.549 -1.7197 -0.4994 -0.1395
 9114SOL     OW38803   3.212   0.230   7.091 -0.3827 -0.3431 -0.0459
 9114SOL    HW138804   3.239   0.142   7.119 -1.3805 -1.0172 -1.2034
 9114SOL    HW238805   3.187   0.272   7.173 -1.3515  1.7028 -1.3838
 9115SOL     OW38806   3.702   4.292   8.131 -0.0191 -0.4914  0.8294
 9115SOL    HW138807   3.705   4.243   8.213  0.6780 -0.8477  0.5942
 9115SOL    HW238808   3.675   4.380   8.160  2.5415  0.9623 -1.1750
 9116SOL     OW38809   3.853   4.292   5.096  0.1197  0.4455 -0.0673
 9116SOL    HW138810   3.880   4.248   5.176  0.8606 -0.7141 -0.9735
 9116SOL    HW238811   3.910   4.252   5.030 -1.7130 -0.0463 -1.3601
 9117SOL     OW38812   1.494   2.248   7.314  0.1630  0.1061 -0.3397
 9117SOL    HW138813   1.535   2.330   7.288 -1.1896  0.2586 -1.9655
 9117SOL    HW238814   1.569   2.209   7.359 -2.8325 -3.1177  1.9284
 9118SOL     OW38815   1.577   3.940   3.850  0.2312  0.0244  0.2565
 9118SOL    HW138816   1.564   3.968   3.941 -1.3673 -1.0857  0.3825
 9118SOL    HW238817   1.513   3.992   3.801 -1.0946 -0.5745  1.3386
 9119SOL     OW38818   4.085   2.205   2.592  0.7548  0.1124 -0.4683
 9119SOL    HW138819   4.034   2.134   2.631  1.6678 -0.2287  0.1110
 9119SOL    HW238820   4.035   2.232   2.515 -0.2785  1.7877  0.7900
 9120SOL     OW38821   3.894   2.045   3.799  0.3228 -0.5833 -0.6120
 9120SOL    HW138822   3.832   2.051   3.871  1.1543 -0.7441  0.1221
 9120SOL    HW238823   3.847   2.097   3.733 -0.9620 -0.0785  0.7213
 9121SOL     OW38824   0.019   3.927   6.428  0.1790  0.4931  0.2821
 9121SOL    HW138825   0.103   3.890   6.400 -0.2560 -0.6068  0.3981
 9121SOL    HW238826   0.023   4.021   6.414 -0.3575  0.1911 -1.8852
 9122SOL     OW38827   2.617   2.133  16.206 -0.2931 -0.3481  0.6425
 9122SOL    HW138828   2.586   2.195  16.139  0.0856 -0.0069  0.7885
 9122SOL    HW238829   2.583   2.057  16.158  2.7980  0.1893 -2.3652
 9123SOL     OW38830   1.785   4.591   2.214 -0.0621  0.0616 -0.4983
 9123SOL    HW138831   1.707   4.641   2.189 -1.7202 -2.1332  0.2333
 9123SOL    HW238832   1.786   4.604   2.308  2.2739  0.2094 -0.5538
 9124SOL     OW38833   4.026   0.476   2.437  0.2388  0.4993  0.0385
 9124SOL    HW138834   3.979   0.541   2.489 -2.0073 -0.6742 -0.5306
 9124SOL    HW238835   4.079   0.533   2.380 -1.8750  2.2223 -0.2172
 9125SOL     OW38836   2.645   3.080   2.147 -0.3422  0.4513  0.3512
 9125SOL    HW138837   2.678   3.117   2.065  2.2098  0.8871  1.5620
 9125SOL    HW238838   2.561   3.124   2.138 -1.1835 -0.9840  1.0929
 9126SOL     OW38839   1.132   2.276  12.428  0.0761 -0.3502  0.2258
 9126SOL    HW138840   1.099   2.366  12.436  0.0544 -0.6619  3.3743
 9126SOL    HW238841   1.205   2.271  12.490  0.2739 -0.5060 -0.0180
 9127SOL     OW38842   2.593   3.658   8.834 -0.8965 -0.2875 -0.3374
 9127SOL    HW138843   2.652   3.718   8.789  1.0725 -1.2954  0.8459
 9127SOL    HW238844   2.647   3.579   8.849  2.5709  2.7894  3.6859
 9128SOL     OW38845   4.462   3.919   3.978 -0.4439 -0.0766  0.3819
 9128SOL    HW138846   4.512   4.001   3.987 -0.3808 -0.1067  0.3074
 9128SOL    HW238847   4.467   3.884   4.067 -1.5682  0.7225  0.7607
 9129SOL     OW38848   0.408   1.998   6.454 -0.2293 -0.0306  0.5592
 9129SOL    HW138849   0.438   1.934   6.390  1.2680  0.3537  0.8761
 9129SOL    HW238850   0.488   2.024   6.499 -0.4989  1.1866  0.3517
 9130SOL     OW38851   2.406   0.079  15.132 -0.1900 -0.3252  0.3403
 9130SOL    HW138852   2.399   0.125  15.049  0.6708 -1.9712 -0.6361
 9130SOL    HW238853   2.452   0.143  15.186  0.4492 -1.9975  1.8136
 9131SOL     OW38854   3.573   0.019  11.172 -0.0001  0.3387 -0.0445
 9131SOL    HW138855   3.529   0.099  11.201  0.6107  0.4628  0.5267
 9131SOL    HW238856   3.661   0.054  11.162  0.5447 -0.7483  0.8795
 9132SOL     OW38857   0.373   4.611   1.596 -0.4897 -0.3044 -0.5659
 9132SOL    HW138858   0.433   4.571   1.533  2.1940 -0.0201  1.8132
 9132SOL    HW238859   0.353   4.687   1.541 -2.9267  1.4547  2.7326
 9133SOL     OW38860   3.166   0.096   5.376  0.0545 -0.1322  0.6864
 9133SOL    HW138861   3.200   0.014   5.411  0.2559  0.3619  1.6485
 9133SOL    HW238862   3.237   0.156   5.397  1.4841 -2.1053  1.4344
 9134SOL     OW38863   0.972   1.518   3.589 -0.2183  0.0064  0.2467
 9134SOL    HW138864   0.941   1.440   3.634 -0.5087 -0.2200 -0.3369
 9134SOL    HW238865   1.011   1.578   3.652 -0.7162  0.7843 -0.1848
 9135SOL     OW38866   4.593   3.178   4.996 -0.0888  0.7889 -0.3190
 9135SOL    HW138867   4.526   3.226   4.947 -1.8194 -0.4873  0.7571
 9135SOL    HW238868   4.557   3.089   4.992 -0.4669  0.9849 -1.3131
 9136SOL     OW38869   2.287   1.018  11.598 -0.5234  0.7817 -0.2252
 9136SOL    HW138870   2.239   1.040  11.518 -2.0397 -1.0795  0.1569
 9136SOL    HW238871   2.244   1.069  11.666 -0.5336  0.1762  0.2217
 9137SOL     OW38872   2.910   2.976   3.293  0.2613 -0.3213  0.4357
 9137SOL    HW138873   2.985   2.918   3.305  1.9333  1.6310 -0.5776
 9137SOL    HW238874   2.841   2.912   3.276 -0.3987  1.1572 -2.3287
 9138SOL     OW38875   3.459   0.237   5.366 -0.4249 -0.5711 -0.6053
 9138SOL    HW138876   3.397   0.283   5.422  2.2479  1.1247  0.9921
 9138SOL    HW238877   3.531   0.297   5.348 -1.9920  1.3574 -0.4003
 9139SOL     OW38878   0.532   2.831   0.694  0.9109  0.4491  0.2287
 9139SOL    HW138879   0.458   2.796   0.743  1.4059 -1.8408 -0.6630
 9139SOL    HW238880   0.556   2.760   0.634  1.9721  0.6968  0.3601
 9140SOL     OW38881   4.433   1.955   7.986  0.0865  0.4557  0.1185
 9140SOL    HW138882   4.408   1.888   7.923 -2.0663 -0.0341  1.4784
 9140SOL    HW238883   4.453   1.904   8.064 -2.4376 -0.4906  0.1639
 9141SOL     OW38884   1.362   1.907   5.514 -0.2730 -0.2934  0.5354
 9141SOL    HW138885   1.289   1.846   5.513 -0.5747  0.0480  1.5059
 9141SOL    HW238886   1.424   1.887   5.585  1.5470  0.5458 -0.8100
 9142SOL     OW38887   2.234   4.464   7.438 -0.1997  1.4093 -0.0923
 9142SOL    HW138888   2.244   4.526   7.365  3.5646 -0.2029 -0.9453
 9142SOL    HW238889   2.285   4.388   7.409 -0.3297  0.7776  1.3825
 9143SOL     OW38890   0.490   3.756  17.170 -0.3951 -0.0180  0.2273
 9143SOL    HW138891   0.578   3.746  17.206  0.1225  1.1971 -0.7274
 9143SOL    HW238892   0.492   3.850  17.156  1.0669 -0.3421 -1.6783
 9144SOL     OW38893   4.502   4.071   9.211 -0.5734 -0.1976 -0.0648
 9144SOL    HW138894   4.480   4.163   9.228  0.7614  0.6402 -2.8697
 9144SOL    HW238895   4.429   4.046   9.154 -0.7810  1.4158 -0.4971
 9145SOL     OW38896   0.967   2.607   4.053 -0.1725 -0.1428  0.5716
 9145SOL    HW138897   1.055   2.591   4.018 -0.4129 -0.2743  0.0183
 9145SOL    HW238898   0.999   2.627   4.141  0.8830  0.4807  0.0525
 9146SOL     OW38899   0.949   3.273   1.988 -0.5293  0.0746  0.1939
 9146SOL    HW138900   0.902   3.224   2.056 -0.4453 -1.7233 -1.0421
 9146SOL    HW238901   0.937   3.359   2.028  0.5773 -0.8815  2.5531
 9147SOL     OW38902   0.756   2.925   2.853 -0.5645  0.0656  0.1051
 9147SOL    HW138903   0.787   2.909   2.943  0.3789 -0.8869 -0.3955
 9147SOL    HW238904   0.842   2.934   2.811  0.6214 -2.5524  1.9796
 9148SOL     OW38905   1.009   3.184   6.849  0.0760 -0.4591 -0.2943
 9148SOL    HW138906   1.012   3.215   6.939  1.9904 -2.2765  0.2739
 9148SOL    HW238907   0.921   3.213   6.824 -1.6970 -3.8947  1.8850
 9149SOL     OW38908   2.736   2.894   4.471 -0.4289  0.2190  0.2665
 9149SOL    HW138909   2.644   2.899   4.496 -0.2198 -2.8152  1.7218
 9149SOL    HW238910   2.737   2.904   4.376 -3.0413  0.6616  0.2887
 9150SOL     OW38911   3.105   3.989  12.541  0.1366  0.4666 -0.3866
 9150SOL    HW138912   3.193   3.988  12.577  0.8337  1.2439 -2.0936
 9150SOL    HW238913   3.122   4.038  12.461 -2.5252 -0.3114 -1.4417
 9151SOL     OW38914   0.175   2.487   6.003 -0.2177 -0.2678 -0.0400
 9151SOL    HW138915   0.256   2.481   6.054  1.0435 -1.3203 -2.1689
 9151SOL    HW238916   0.188   2.418   5.937 -3.7323  0.6546 -1.7080
 9152SOL     OW38917   3.722   0.528  10.541  0.2711 -0.2929  0.8827
 9152SOL    HW138918   3.665   0.557  10.612  0.3998  0.0027  0.8638
 9152SOL    HW238919   3.810   0.552  10.571  1.2991 -0.0341 -2.3987
 9153SOL     OW38920   3.194   3.375  11.191  0.3763 -0.0467  0.1267
 9153SOL    HW138921   3.192   3.334  11.277 -2.7295  0.9988  0.5531
 9153SOL    HW238922   3.102   3.354  11.172  0.6748  1.0755 -2.4848
 9154SOL     OW38923   3.622   1.378   6.468  0.3330  0.0006 -0.2144
 9154SOL    HW138924   3.710   1.408   6.491  0.0354  0.1430  0.7075
 9154SOL    HW238925   3.610   1.297   6.516  0.2354 -0.4318 -0.9731
 9155SOL     OW38926   0.828   3.009  10.529  0.4913 -0.2512  0.3881
 9155SOL    HW138927   0.774   2.975  10.600 -1.0619 -0.4415 -0.9012
 9155SOL    HW238928   0.915   2.995  10.568 -0.1674 -0.9833  1.5715
 9156SOL     OW38929   2.284   2.023   8.724 -0.0799 -0.2793 -0.2901
 9156SOL    HW138930   2.347   2.087   8.757  1.2757 -2.6589  1.8239
 9156SOL    HW238931   2.301   1.944   8.776 -2.2085  0.1579  1.0312
 9157SOL     OW38932   3.653   3.909  15.724  0.9790 -0.2492  0.1903
 9157SOL    HW138933   3.694   3.825  15.745  0.2087 -0.8638 -0.7817
 9157SOL    HW238934   3.639   3.899  15.630  0.4703 -0.7130  0.3157
 9158SOL     OW38935   1.066   2.200   3.556  0.6017 -0.1856 -0.3290
 9158SOL    HW138936   1.159   2.223   3.560  0.6597 -0.5102  0.1527
 9158SOL    HW238937   1.045   2.213   3.463  2.2637  2.5354 -0.3233
 9159SOL     OW38938   3.478   1.854   1.010  0.0564 -0.3791  0.1362
 9159SOL    HW138939   3.469   1.768   0.969  0.3990 -1.2195  1.8156
 9159SOL    HW238940   3.402   1.899   0.973  0.2644  0.5502  0.8316
 9160SOL     OW38941   0.689   1.592   4.408  0.1785  0.8173  0.2765
 9160SOL    HW138942   0.750   1.628   4.344  1.5664 -1.5952  0.2484
 9160SOL    HW238943   0.614   1.648   4.387 -1.0932 -1.0215 -0.0725
 9161SOL     OW38944   4.638   1.693   2.406 -0.4014  0.2409 -0.9236
 9161SOL    HW138945   4.616   1.640   2.330 -0.6760 -1.2454  0.1895
 9161SOL    HW238946   4.591   1.649   2.477  0.0830  0.6652 -0.3304
 9162SOL     OW38947   1.134   3.757   3.082 -0.3496 -0.0051 -0.2743
 9162SOL    HW138948   1.080   3.688   3.043 -2.9156  0.8360  1.7659
 9162SOL    HW238949   1.138   3.819   3.009 -0.7209 -0.9760 -1.1189
 9163SOL     OW38950   0.944   0.252   7.751 -0.0859  0.3377 -0.0450
 9163SOL    HW138951   0.910   0.164   7.736 -0.4476  0.6552 -1.0708
 9163SOL    HW238952   0.996   0.238   7.830  2.7449  2.0505 -1.5859
 9164SOL     OW38953   1.651   3.366  10.487  0.4941  0.0289 -0.0982
 9164SOL    HW138954   1.709   3.351  10.412  0.8311 -1.9795  0.5580
 9164SOL    HW238955   1.595   3.289  10.493  0.2688  0.2771  1.0143
 9165SOL     OW38956   1.331   2.090   5.227  0.0975  0.1571 -0.3964
 9165SOL    HW138957   1.280   2.075   5.147  3.5406  0.9094 -2.6884
 9165SOL    HW238958   1.397   2.021   5.222 -1.2794 -1.3352  1.8126
 9166SOL     OW38959   1.698   2.490   3.812 -0.3827  0.7787  0.8410
 9166SOL    HW138960   1.641   2.550   3.764  2.6591  2.0183 -1.1833
 9166SOL    HW238961   1.691   2.506   3.906 -1.8236 -0.2673  0.9086
 9167SOL     OW38962   4.273   2.198   4.114  0.4274 -0.1010  0.2603
 9167SOL    HW138963   4.293   2.144   4.037 -2.4575 -3.0867  1.6230
 9167SOL    HW238964   4.358   2.205   4.157  1.2601 -2.7210 -0.9365
 9168SOL     OW38965   2.581   2.988   6.342  0.3183  0.1424  0.5828
 9168SOL    HW138966   2.497   2.956   6.308  1.4090 -1.1328 -0.8844
 9168SOL    HW238967   2.631   2.907   6.346 -0.0734 -0.2231 -2.0654
 9169SOL     OW38968   1.652   1.545   2.410  0.3223  0.5720 -0.7804
 9169SOL    HW138969   1.665   1.639   2.424  0.1433  0.2398  1.7669
 9169SOL    HW238970   1.563   1.540   2.375 -0.5038  0.2554  1.3445
 9170SOL     OW38971   3.790   2.722   1.737  0.5657 -0.3591  0.2492
 9170SOL    HW138972   3.715   2.774   1.711 -0.4726 -2.0139 -0.0818
 9170SOL    HW238973   3.814   2.758   1.822 -1.7303  1.0064  0.2983
 9171SOL     OW38974   1.582   2.152   5.599 -0.0947  0.1056  0.1970
 9171SOL    HW138975   1.624   2.112   5.675  0.6954 -1.0620 -0.8462
 9171SOL    HW238976   1.654   2.138   5.538 -1.7599 -0.5901 -1.6242
 9172SOL     OW38977   1.909   4.091   0.027  0.1470 -0.1093 -0.0885
 9172SOL    HW138978   1.901   4.047  17.645 -3.1495  0.9613 -0.3495
 9172SOL    HW238979   1.825   4.136   0.032 -0.7055 -1.8485  1.5388
 9173SOL     OW38980   4.245   2.611   8.360 -0.0639 -0.7294 -0.0656
 9173SOL    HW138981   4.285   2.684   8.313  0.8541 -0.8327  0.5520
 9173SOL    HW238982   4.254   2.542   8.294  0.9405 -0.8615  0.2048
 9174SOL     OW38983   1.772   4.129   7.305 -0.0124 -0.4645 -0.1368
 9174SOL    HW138984   1.840   4.066   7.329  1.2123  0.2944 -1.5835
 9174SOL    HW238985   1.821   4.211   7.305 -0.6858 -0.0628  0.7304
 9175SOL     OW38986   2.667   3.003   8.146  0.0530 -1.1320  0.4157
 9175SOL    HW138987   2.703   3.024   8.061  1.6732 -0.3797  1.2920
 9175SOL    HW238988   2.717   2.927   8.176  1.2908  0.8179  3.3199
 9176SOL     OW38989   0.507   0.862  13.088  0.8725 -0.5682  0.1376
 9176SOL    HW138990   0.596   0.849  13.120  0.5143  0.7028  1.6196
 9176SOL    HW238991   0.496   0.956  13.075  0.9557 -0.4909  0.6250
 9177SOL     OW38992   1.584   4.572   7.076  0.0264 -1.0069 -0.4009
 9177SOL    HW138993   1.503   4.587   7.028  0.2757 -1.2435 -0.8994
 9177SOL    HW238994   1.620   4.499   7.026  4.2031  1.3531 -0.8835
 9178SOL     OW38995   0.365   3.373   2.015  0.1661  0.0852 -0.0421
 9178SOL    HW138996   0.325   3.404   1.934 -1.1282 -0.7331  0.2839
 9178SOL    HW238997   0.378   3.452   2.067 -1.2307  0.7990 -0.7871
 9179SOL     OW38998   3.231   1.037  14.550  0.8505 -0.2319  0.1303
 9179SOL    HW138999   3.292   0.975  14.589  1.4571 -0.1927 -0.7824
 9179SOL    HW239000   3.159   1.016  14.611  0.2923 -0.7682 -0.7161
 9180SOL     OW39001   3.849   1.455  12.587  0.2408 -0.3470 -0.1176
 9180SOL    HW139002   3.937   1.427  12.564 -0.4255 -1.6934 -1.0145
 9180SOL    HW239003   3.842   1.398  12.664  0.7274 -2.5296 -1.7103
 9181SOL     OW39004   1.885   1.206   3.784  0.9592 -0.1423 -0.5010
 9181SOL    HW139005   1.791   1.189   3.782  0.8080  0.6231 -0.0572
 9181SOL    HW239006   1.915   1.230   3.696 -2.7264  0.6458 -1.5145
 9182SOL     OW39007   0.248   2.876   4.577  0.2720 -0.6953 -0.2399
 9182SOL    HW139008   0.235   2.965   4.544 -0.3334 -0.1338  1.5211
 9182SOL    HW239009   0.340   2.865   4.554  1.5989  3.1279  3.3138
 9183SOL     OW39010   3.329   1.802   8.319 -0.3763  0.2415  0.1083
 9183SOL    HW139011   3.421   1.775   8.323 -1.0362 -2.0479 -0.1193
 9183SOL    HW239012   3.326   1.859   8.242 -0.9621  0.2191  0.1147
 9184SOL     OW39013   1.949   0.936   9.227  0.1269 -0.4970 -0.2097
 9184SOL    HW139014   1.973   0.850   9.191 -3.1215 -1.3962 -0.2516
 9184SOL    HW239015   1.953   1.004   9.159  1.4588 -0.1823  0.1739
 9185SOL     OW39016   1.647   1.839   7.526 -0.5742  0.0168 -0.4892
 9185SOL    HW139017   1.726   1.892   7.528  0.0615 -0.8504 -2.5910
 9185SOL    HW239018   1.592   1.905   7.481 -1.6947 -0.1607  0.6183
 9186SOL     OW39019   3.362   0.019   6.413 -0.0155 -0.4359  0.7529
 9186SOL    HW139020   3.354   4.653   6.388  0.9152 -1.0650  2.7906
 9186SOL    HW239021   3.388   4.722   6.502  0.0721 -1.6579  0.4170
 9187SOL     OW39022   4.646   0.360   8.145 -0.5543  0.3515  0.3443
 9187SOL    HW139023   0.012   0.387   8.151 -0.0619 -1.8515  2.5437
 9187SOL    HW239024   4.642   0.267   8.165 -2.1834  0.3926  0.1670
 9188SOL     OW39025   2.131   3.264   2.383  0.4661  0.1725 -0.1142
 9188SOL    HW139026   2.199   3.225   2.328 -1.9538  0.8497 -3.6225
 9188SOL    HW239027   2.176   3.273   2.467  1.0703  0.4812 -0.4651
 9189SOL     OW39028   3.479   1.335   4.029  0.1081  0.0180 -0.0111
 9189SOL    HW139029   3.567   1.363   4.007  1.2460 -2.2628  1.6823
 9189SOL    HW239030   3.458   1.409   4.086  0.3061  0.3380 -0.3569
 9190SOL     OW39031   1.597   1.453   8.329 -0.1437  0.1359  0.4427
 9190SOL    HW139032   1.623   1.520   8.392  0.7455  0.7906 -0.6408
 9190SOL    HW239033   1.501   1.453   8.333 -0.2014  0.3065 -0.9676
 9191SOL     OW39034   0.759   3.033  17.625  0.4140  0.1332 -0.5424
 9191SOL    HW139035   0.821   2.969  17.660  1.4761  1.0053 -0.8206
 9191SOL    HW239036   0.769   3.097  17.696 -0.4677 -2.1598  1.6470
 9192SOL     OW39037   4.655   3.837   5.034 -0.2201 -0.2713 -0.3130
 9192SOL    HW139038   4.661   3.778   4.959 -4.0276  0.1597 -0.9817
 9192SOL    HW239039   4.605   3.907   4.992  1.6901 -0.4129 -2.8597
 9193SOL     OW39040   1.609   3.937   7.135 -0.4200  0.1338  0.3456
 9193SOL    HW139041   1.623   4.005   7.069 -0.1249 -0.9582 -0.7172
 9193SOL    HW239042   1.594   3.995   7.210 -2.8692 -2.0941  1.5871
 9194SOL     OW39043   4.043   4.398   2.798  0.0646  0.2598  0.1511
 9194SOL    HW139044   4.102   4.428   2.867  3.1735 -0.6332 -2.1284
 9194SOL    HW239045   4.083   4.443   2.724 -0.9548  0.3075 -0.3765
 9195SOL     OW39046   3.723   3.320   4.040  0.2358  0.0448 -0.1702
 9195SOL    HW139047   3.711   3.362   3.955  1.3088  1.6937  0.4936
 9195SOL    HW239048   3.636   3.283   4.050  0.0808  0.0811 -1.4698
 9196SOL     OW39049   0.953   3.301   5.746  0.3118  0.0949 -0.2553
 9196SOL    HW139050   0.920   3.334   5.662  0.0560  0.0987 -0.1560
 9196SOL    HW239051   0.994   3.378   5.784 -0.1549  0.6969 -0.9722
 9197SOL     OW39052   3.923   3.706   8.570  0.2851  0.6594  0.1418
 9197SOL    HW139053   3.923   3.793   8.529 -1.4236 -0.4774 -2.2790
 9197SOL    HW239054   4.014   3.693   8.599 -0.7292 -1.9850  2.0735
 9198SOL     OW39055   4.488   1.055   5.682 -0.0881 -0.0251 -0.3756
 9198SOL    HW139056   4.553   1.056   5.752  0.9016  0.0204 -1.2841
 9198SOL    HW239057   4.541   1.054   5.602  0.4991  0.4304  0.0177
 9199SOL     OW39058   1.399   3.497   4.041 -0.2584  0.2204  0.1585
 9199SOL    HW139059   1.371   3.437   4.110  1.4813 -0.3933  0.3223
 9199SOL    HW239060   1.408   3.576   4.093  1.3039 -0.5005  0.9821
 9200SOL     OW39061   0.333   2.981  12.969  0.0545  0.1412 -0.6722
 9200SOL    HW139062   0.353   2.900  12.923  0.4341 -0.2492  0.1883
 9200SOL    HW239063   0.252   2.956  13.012  0.0819  1.2622  0.0280
 9201SOL     OW39064   4.583   3.259  10.506 -0.0115  0.0942 -0.3286
 9201SOL    HW139065   4.487   3.262  10.509 -0.0909  0.3721 -3.0566
 9201SOL    HW239066   4.587   3.198  10.432  1.7271  1.4463 -1.3447
 9202SOL     OW39067   3.042   0.053  10.918 -0.0428  0.6393 -0.0775
 9202SOL    HW139068   3.024   4.719  10.991  4.4957 -1.6241 -0.7871
 9202SOL    HW239069   3.117   0.092  10.962  0.1584 -1.0712  1.0879
 9203SOL     OW39070   3.313   2.723   2.161  0.1962  0.3088  0.4131
 9203SOL    HW139071   3.294   2.630   2.149  1.4561  0.2162 -0.9741
 9203SOL    HW239072   3.322   2.743   2.067 -2.9869  1.3275  0.3410
 9204SOL     OW39073   3.708   3.636   8.250  0.1118 -0.3192 -0.0864
 9204SOL    HW139074   3.745   3.571   8.309  0.3905 -1.4403 -1.5169
 9204SOL    HW239075   3.687   3.704   8.315 -2.8629 -1.9583  0.6779
 9205SOL     OW39076   1.581   3.496   2.576 -0.1652  0.1579 -0.4247
 9205SOL    HW139077   1.519   3.494   2.649  0.9452  1.5189  0.5645
 9205SOL    HW239078   1.528   3.470   2.501  2.4613 -1.8658 -1.6024
 9206SOL     OW39079   2.285   0.990   0.694  0.0534 -0.5486  0.1847
 9206SOL    HW139080   2.376   0.994   0.666 -0.0110 -1.5510 -0.1900
 9206SOL    HW239081   2.247   0.971   0.608 -3.3223  2.0434  1.0830
 9207SOL     OW39082   3.860   4.681   8.752  0.2002  0.0872 -0.0001
 9207SOL    HW139083   3.779   4.630   8.750 -0.0504  0.4690  0.4591
 9207SOL    HW239084   3.862   0.005   8.833  0.1832 -1.3379  0.8677
 9208SOL     OW39085   1.312   4.268   5.697 -0.2944  0.2314 -0.0052
 9208SOL    HW139086   1.315   4.224   5.782 -0.0420  2.1805  1.0084
 9208SOL    HW239087   1.288   4.358   5.722  0.9511  0.6976 -0.4813
 9209SOL     OW39088   2.845   1.219  12.284 -0.4694 -0.4260  1.2188
 9209SOL    HW139089   2.776   1.172  12.332 -0.9153 -2.9991 -1.9959
 9209SOL    HW239090   2.865   1.153  12.218 -1.2310 -1.7364  2.2947
 9210SOL     OW39091   4.490   2.550   7.286 -0.1550  0.5453 -0.2007
 9210SOL    HW139092   4.396   2.535   7.300  0.3685 -0.2817  2.2959
 9210SOL    HW239093   4.486   2.627   7.228 -0.7506  0.6702 -0.0023
 9211SOL     OW39094   4.352   2.163   5.666  0.2000 -0.4536  0.0629
 9211SOL    HW139095   4.277   2.203   5.623 -0.2124 -0.8361  0.4182
 9211SOL    HW239096   4.310   2.097   5.722 -1.4040  0.9824  0.5172
 9212SOL     OW39097   3.748   1.492   4.947  0.0617  0.1898 -0.1938
 9212SOL    HW139098   3.727   1.497   5.040 -1.8088 -0.0360 -0.6132
 9212SOL    HW239099   3.711   1.407   4.923  0.3361 -0.4542  1.6550
 9213SOL     OW39100   1.030   2.518  12.488 -0.3836  0.2988 -0.2121
 9213SOL    HW139101   1.094   2.587  12.468 -0.4165  0.1557 -0.8228
 9213SOL    HW239102   0.952   2.574  12.484  0.8525  2.1296  1.1925
 9214SOL     OW39103   4.060   2.592   6.902 -0.2142 -0.1559  0.3139
 9214SOL    HW139104   4.052   2.504   6.867  2.4255 -0.1396 -0.3028
 9214SOL    HW239105   4.015   2.635   6.829 -1.3107 -0.0736  1.0328
 9215SOL     OW39106   0.955   2.911   4.225  0.9156  0.0755 -0.2173
 9215SOL    HW139107   1.010   2.836   4.245  1.1626  0.4738  0.5793
 9215SOL    HW239108   0.889   2.868   4.170 -0.2891 -0.1939  1.4432
 9216SOL     OW39109   2.257   1.078   5.817 -0.5848  0.2254  0.7766
 9216SOL    HW139110   2.289   1.129   5.742  1.5813 -1.2925  0.6625
 9216SOL    HW239111   2.215   1.141   5.877 -1.0223  0.7928 -0.1327
 9217SOL     OW39112   0.017   2.472   0.977  0.0450  0.2702  0.0145
 9217SOL    HW139113   0.056   2.393   1.013  0.5602  1.8543  2.9290
 9217SOL    HW239114   0.087   2.537   0.978  0.6494 -0.3916  0.6781
 9218SOL     OW39115   0.389   4.591   5.910 -0.3049 -0.5441 -0.1654
 9218SOL    HW139116   0.462   4.531   5.895 -0.4151 -1.1327  1.6885
 9218SOL    HW239117   0.426   4.671   5.949 -1.7576  0.4883 -0.9026
 9219SOL     OW39118   4.234   2.374   2.995  0.4347 -0.0074  0.1019
 9219SOL    HW139119   4.196   2.393   2.909  0.2611  0.4204  0.2758
 9219SOL    HW239120   4.158   2.340   3.043  0.0777 -1.6285 -1.5771
 9220SOL     OW39121   2.194   0.395   5.504  0.3227  0.0779  0.0454
 9220SOL    HW139122   2.224   0.486   5.504 -2.6134  1.0639 -0.2746
 9220SOL    HW239123   2.107   0.402   5.464  0.2186 -0.4553  0.1751
 9221SOL     OW39124   4.253   1.844   3.286 -0.8003 -0.4137  0.2332
 9221SOL    HW139125   4.257   1.921   3.342  0.2573  0.5246 -1.1475
 9221SOL    HW239126   4.263   1.776   3.354  0.2020  0.2339  0.7467
 9222SOL     OW39127   2.455   3.233   1.959 -0.2453  0.1843 -0.2603
 9222SOL    HW139128   2.536   3.282   1.942  2.7475 -4.7353 -0.3341
 9222SOL    HW239129   2.424   3.239   1.869  0.5407  0.2434 -0.5339
 9223SOL     OW39130   3.534   4.585  14.726 -0.3310 -0.3303  0.4402
 9223SOL    HW139131   3.510   4.634  14.648  1.5676 -0.0498  0.0436
 9223SOL    HW239132   3.566   4.649  14.790  2.2076 -0.9312 -0.2152
 9224SOL     OW39133   2.273   3.504   7.633  0.5143 -0.0365 -0.0992
 9224SOL    HW139134   2.284   3.409   7.635 -1.0028 -0.2593 -4.2979
 9224SOL    HW239135   2.185   3.513   7.672  0.4468 -1.2486  0.0355
 9225SOL     OW39136   2.645   2.173  16.462 -0.2138 -0.0241 -0.4514
 9225SOL    HW139137   2.624   2.188  16.370  1.3282  0.5729 -0.6986
 9225SOL    HW239138   2.651   2.078  16.467 -0.6171  0.0402  1.3548
 9226SOL     OW39139   3.637   3.421  10.965  0.4008 -0.1848  0.1752
 9226SOL    HW139140   3.681   3.342  10.995  0.0037 -1.0055 -1.4149
 9226SOL    HW239141   3.569   3.434  11.032  1.4937  1.0829  1.0419
 9227SOL     OW39142   4.096   1.240   5.151 -0.2798  0.1763 -0.1676
 9227SOL    HW139143   4.027   1.240   5.217 -1.5564  2.9262 -1.4855
 9227SOL    HW239144   4.125   1.328   5.174  2.2588 -0.9032  0.7310
 9228SOL     OW39145   1.172   4.718   3.831  0.1042  0.0490 -0.3014
 9228SOL    HW139146   1.149   4.696   3.741 -0.4873  1.9768 -0.6155
 9228SOL    HW239147   1.264   0.016   3.820  0.2209 -0.5342 -0.5633
 9229SOL     OW39148   3.435   4.604   9.227 -0.4827  0.0326 -0.3764
 9229SOL    HW139149   3.477   4.524   9.197 -0.2867  1.1404 -3.0928
 9229SOL    HW239150   3.374   4.563   9.288 -1.6229  0.7366 -1.0353
 9230SOL     OW39151   1.921   3.513   3.740  0.1188 -0.6702 -0.1385
 9230SOL    HW139152   1.915   3.508   3.835  0.4100 -2.2276 -0.2024
 9230SOL    HW239153   1.981   3.587   3.726 -1.8230  0.5624 -2.0122
 9231SOL     OW39154   1.992   1.436  10.496 -0.0080 -0.1589 -0.2937
 9231SOL    HW139155   2.037   1.405  10.418  1.3028  0.4167  0.2273
 9231SOL    HW239156   1.905   1.432  10.457  0.1137 -0.1931 -0.5569
 9232SOL     OW39157   3.422   3.506   9.187  0.4721 -0.4692  0.0918
 9232SOL    HW139158   3.513   3.508   9.216  1.4647  1.3096 -3.1567
 9232SOL    HW239159   3.384   3.541   9.268  0.4088 -2.0137  0.7316
 9233SOL     OW39160   0.044   1.810   9.593  0.2917 -0.0686 -0.3507
 9233SOL    HW139161   0.045   1.756   9.673  0.7076 -0.5770 -0.6988
 9233SOL    HW239162   0.027   1.900   9.620  1.7803 -0.2614  1.2637
 9234SOL     OW39163   1.588   3.115   1.708 -0.4392 -0.4690 -0.3393
 9234SOL    HW139164   1.545   3.154   1.784  1.9026 -1.4834  1.5266
 9234SOL    HW239165   1.627   3.191   1.665 -0.1462 -0.0622  0.6497
 9235SOL     OW39166   1.425   3.399   2.356 -0.1503  0.1274  0.2784
 9235SOL    HW139167   1.435   3.305   2.343 -1.2784  0.1381 -0.6645
 9235SOL    HW239168   1.332   3.412   2.373 -0.4811 -1.2919 -0.4349
 9236SOL     OW39169   0.892   1.387  11.380 -0.6788  0.2543 -0.4320
 9236SOL    HW139170   0.832   1.333  11.328  1.5269 -0.1160 -2.6052
 9236SOL    HW239171   0.853   1.471  11.358  0.1787  1.3619  2.2529
 9237SOL     OW39172   4.718   1.925  11.487  0.0652 -0.1936 -0.0544
 9237SOL    HW139173   4.633   1.890  11.459  0.0226 -1.2495  1.3763
 9237SOL    HW239174   0.027   1.860  11.548  2.2266  0.4855 -0.5665
 9238SOL     OW39175   4.240   1.497  16.126  0.5386 -0.1940  0.1116
 9238SOL    HW139176   4.320   1.458  16.092 -0.1823 -0.5489 -1.1641
 9238SOL    HW239177   4.170   1.438  16.099  0.0807  0.5908 -0.3955
 9239SOL     OW39178   3.203   1.609   7.931  0.1874 -0.0245  0.0723
 9239SOL    HW139179   3.207   1.622   8.026 -1.7349 -1.8340  0.4062
 9239SOL    HW239180   3.274   1.666   7.903  0.7925  0.1326  1.8739
 9240SOL     OW39181   1.752   0.976   4.567 -0.4769  0.3030 -0.3530
 9240SOL    HW139182   1.723   1.067   4.557  1.6038  0.8828 -0.9224
 9240SOL    HW239183   1.705   0.928   4.499  2.4924 -2.4268 -0.4580
 9241SOL     OW39184   2.413   3.818  13.071 -0.7921 -0.4161 -0.1600
 9241SOL    HW139185   2.504   3.804  13.096 -0.6020  0.4802 -0.3405
 9241SOL    HW239186   2.394   3.743  13.014 -2.2323  0.4465 -0.8149
 9242SOL     OW39187   1.189   1.952   7.245  0.0508  0.2007 -0.7706
 9242SOL    HW139188   1.224   2.033   7.206 -2.6000  1.5872 -0.2794
 9242SOL    HW239189   1.224   1.879   7.194  2.0301  1.1533 -0.7827
 9243SOL     OW39190   2.461   0.508  11.042 -0.0153  0.2815  0.0443
 9243SOL    HW139191   2.414   0.440  11.090  1.9130 -2.5643 -2.0879
 9243SOL    HW239192   2.538   0.520  11.098  0.0110  2.4522 -0.4587
 9244SOL     OW39193   1.365   1.233   9.767 -0.6027 -0.4206  0.1147
 9244SOL    HW139194   1.393   1.325   9.769 -2.0159 -0.0004  0.8233
 9244SOL    HW239195   1.383   1.213   9.675  0.7653  0.7055  0.1412
 9245SOL     OW39196   1.737   0.453   1.984  0.2322  0.5153  0.0734
 9245SOL    HW139197   1.831   0.472   1.990  0.7147 -1.2962 -1.8759
 9245SOL    HW239198   1.690   0.535   1.971 -0.0146  0.1605 -1.2401
 9246SOL     OW39199   3.140   1.181   8.686  0.2603  0.1594 -0.2891
 9246SOL    HW139200   3.145   1.112   8.621  1.4313  0.8366 -0.9038
 9246SOL    HW239201   3.211   1.154   8.744 -0.9632 -0.3851  0.9875
 9247SOL     OW39202   2.687   1.658   0.640  0.1908 -0.4119 -0.4129
 9247SOL    HW139203   2.700   1.679   0.732  0.4339 -3.0103  0.1240
 9247SOL    HW239204   2.690   1.565   0.660 -0.2949 -0.1727  0.7678
 9248SOL     OW39205   3.436   4.522   4.310 -0.7334  0.6354 -0.1413
 9248SOL    HW139206   3.350   4.542   4.273 -0.3428  0.2419 -1.2388
 9248SOL    HW239207   3.398   4.468   4.380  0.5066  2.3955  1.9239
 9249SOL     OW39208   3.705   4.181  15.778 -0.6801  0.7234 -0.3041
 9249SOL    HW139209   3.682   4.089  15.769  1.1600  0.0927  1.5773
 9249SOL    HW239210   3.627   4.229  15.749 -0.0485  1.7557 -0.3175
 9250SOL     OW39211   3.331   1.352  12.363  0.0312  0.6915  0.0927
 9250SOL    HW139212   3.295   1.294  12.430 -0.6762  0.6657 -0.3123
 9250SOL    HW239213   3.384   1.297  12.306 -1.5723 -0.6260 -0.1288
 9251SOL     OW39214   4.062   2.250   8.052 -0.4189  0.1987  0.1653
 9251SOL    HW139215   4.091   2.285   8.136  0.3193 -1.3525  0.5704
 9251SOL    HW239216   4.022   2.325   8.009 -2.1432 -0.2480  0.9589
 9252SOL     OW39217   1.663   2.178  10.050  0.0602  0.6502 -0.5122
 9252SOL    HW139218   1.710   2.245  10.099  0.7733  1.1677 -1.8788
 9252SOL    HW239219   1.725   2.149   9.983 -0.3294  0.9620 -1.0059
 9253SOL     OW39220   4.331   1.463   7.505 -0.4187 -0.2175 -0.3074
 9253SOL    HW139221   4.317   1.371   7.483  1.8354 -0.8467  0.9583
 9253SOL    HW239222   4.402   1.485   7.445 -0.7171 -2.5531 -1.4975
 9254SOL     OW39223   2.058   1.563  16.243  0.3848 -0.3848  0.0859
 9254SOL    HW139224   2.002   1.615  16.185  0.2044  0.4253  0.9835
 9254SOL    HW239225   2.121   1.530  16.178  0.9142 -1.7045  1.2796
 9255SOL     OW39226   0.977   0.753   6.110 -0.4419  0.2095  0.0582
 9255SOL    HW139227   0.920   0.829   6.122  0.3825  0.7763  0.3572
 9255SOL    HW239228   1.061   0.790   6.136 -0.3800  0.6264 -0.7430
 9256SOL     OW39229   1.454   4.108   5.262  0.1886  0.1661 -0.4512
 9256SOL    HW139230   1.504   4.184   5.234 -0.1564  0.1752 -1.0383
 9256SOL    HW239231   1.470   4.126   5.355  0.2543 -3.5683  0.2655
 9257SOL     OW39232   0.237   2.040   9.983  0.9014 -0.2195 -0.7746
 9257SOL    HW139233   0.171   1.971   9.987  0.7864 -0.0290  0.7157
 9257SOL    HW239234   0.318   1.996   9.956  0.0122 -1.1506 -1.8913
 9258SOL     OW39235   2.572   3.663  10.331  0.3118 -0.3456  0.0139
 9258SOL    HW139236   2.488   3.665  10.285 -0.8870  0.5124  2.2554
 9258SOL    HW239237   2.620   3.730  10.282  2.3946 -2.1710 -0.4678
 9259SOL     OW39238   1.851   0.734   5.965  0.0003  0.1557 -0.8373
 9259SOL    HW139239   1.818   0.815   5.926 -0.5078  0.9977  1.3147
 9259SOL    HW239240   1.835   0.752   6.058  0.1833 -2.3274 -0.3427
 9260SOL     OW39241   0.896   1.462   9.242  0.6752  0.1819  0.5918
 9260SOL    HW139242   0.935   1.502   9.319  0.8921  0.8744  0.1246
 9260SOL    HW239243   0.957   1.389   9.233  0.2892 -0.1882  0.9525
 9261SOL     OW39244   0.884   2.379   7.862 -0.5583 -0.3345  0.0520
 9261SOL    HW139245   0.919   2.373   7.951 -1.7017 -2.6185  0.3600
 9261SOL    HW239246   0.964   2.373   7.811 -0.6804  0.7159 -0.2548
 9262SOL     OW39247   1.573   2.877   1.587  0.5797 -0.0500 -0.2839
 9262SOL    HW139248   1.545   2.903   1.499 -1.4943 -2.2778 -0.2762
 9262SOL    HW239249   1.604   2.959   1.627  1.2545 -0.2280 -0.4310
 9263SOL     OW39250   2.679   2.813   2.113  0.4123  0.5549 -0.7806
 9263SOL    HW139251   2.693   2.843   2.023  0.1451 -1.8432 -1.6373
 9263SOL    HW239252   2.694   2.896   2.157  2.2168 -0.0377 -0.3021
 9264SOL     OW39253   3.081   2.362   4.805  0.3638  0.1569  0.0850
 9264SOL    HW139254   3.079   2.279   4.756  2.3674  0.9326 -1.3145
 9264SOL    HW239255   3.156   2.399   4.759  1.6173 -0.9143  1.2223
 9265SOL     OW39256   4.583   4.024   4.494 -0.4714 -0.2505  0.2517
 9265SOL    HW139257   4.602   4.115   4.518 -1.9323  0.2502 -0.4631
 9265SOL    HW239258   4.525   4.031   4.418 -1.1538  1.9123  0.9814
 9266SOL     OW39259   0.736   2.780   4.163  0.0251  0.0759 -0.0570
 9266SOL    HW139260   0.751   2.718   4.235 -0.1423 -0.9241 -0.8883
 9266SOL    HW239261   0.717   2.719   4.092 -0.8686  2.5164 -1.9122
 9267SOL     OW39262   1.425   4.333   7.436  0.1730 -0.7193  0.0307
 9267SOL    HW139263   1.492   4.394   7.404  2.6054 -2.0848  2.4743
 9267SOL    HW239264   1.412   4.282   7.357 -1.5182  0.0993 -0.2123
 9268SOL     OW39265   3.536   2.831   6.850  0.2718 -0.1488  0.4101
 9268SOL    HW139266   3.524   2.920   6.883  3.1693 -0.1137  1.3545
 9268SOL    HW239267   3.560   2.790   6.933 -0.5815  2.1010  1.7806
 9269SOL     OW39268   3.460   1.579   0.974  0.7457 -0.2366 -0.1216
 9269SOL    HW139269   3.401   1.547   0.905  0.7813  0.3761 -0.4354
 9269SOL    HW239270   3.435   1.517   1.042  2.0045 -0.1842  0.3848
 9270SOL     OW39271   2.595   2.464   1.704 -0.1083 -0.0469 -0.3640
 9270SOL    HW139272   2.671   2.499   1.750 -1.4393 -1.2691  2.7390
 9270SOL    HW239273   2.545   2.442   1.782  0.3092 -1.2255 -0.4296
 9271SOL     OW39274   3.522   4.722  16.660 -0.6733  0.1028 -0.3402
 9271SOL    HW139275   3.534   4.668  16.738  1.6893  2.3670  0.8521
 9271SOL    HW239276   3.427   4.711  16.659 -0.4112 -2.0425 -0.3802
 9272SOL     OW39277   2.261   2.094   5.150  0.0952 -0.3732 -0.6550
 9272SOL    HW139278   2.177   2.125   5.186  0.7517  2.7076 -1.7793
 9272SOL    HW239279   2.231   2.050   5.070  2.2648 -1.6439 -0.7574
 9273SOL     OW39280   4.403   4.162   3.167  0.1800  0.1133 -0.3793
 9273SOL    HW139281   4.381   4.178   3.258  2.0450 -0.6757  0.2177
 9273SOL    HW239282   4.467   4.233   3.164  0.7170 -0.3485  0.1357
 9274SOL     OW39283   4.488   2.769   5.301 -0.4763  0.1374 -0.0758
 9274SOL    HW139284   4.448   2.766   5.388 -0.0051 -1.7478  0.0779
 9274SOL    HW239285   4.562   2.823   5.328  1.4142 -2.3666 -0.2205
 9275SOL     OW39286   3.271   1.597  12.262  0.5420  0.2833 -0.1378
 9275SOL    HW139287   3.282   1.506  12.292  2.2568  0.5264 -0.0490
 9275SOL    HW239288   3.192   1.618  12.311  0.0136 -2.0402  0.0378
 9276SOL     OW39289   1.553   1.442   3.638 -0.4160 -0.2608 -0.5472
 9276SOL    HW139290   1.509   1.379   3.695  1.4903 -0.7456  0.3527
 9276SOL    HW239291   1.495   1.518   3.628 -1.1541 -0.6203  0.9911
 9277SOL     OW39292   4.198   3.326   6.022  0.3642  0.1086 -0.2289
 9277SOL    HW139293   4.290   3.341   6.000 -0.1055  2.0299 -0.8574
 9277SOL    HW239294   4.155   3.330   5.937  0.0010 -0.3928 -0.0694
 9278SOL     OW39295   2.402   0.906   6.356 -0.0928  0.2317 -0.0205
 9278SOL    HW139296   2.462   0.980   6.369 -0.8019  0.7627  0.1839
 9278SOL    HW239297   2.318   0.932   6.392  0.0896  2.1328 -0.9903
 9279SOL     OW39298   4.391   2.067  10.198 -0.2073 -0.8686 -0.2745
 9279SOL    HW139299   4.398   2.040  10.106  1.6752  0.9947 -0.6803
 9279SOL    HW239300   4.337   1.996  10.232  0.8550 -0.6189  1.9257
 9280SOL     OW39301   4.367   1.052   2.643  0.1812 -0.5443  0.3353
 9280SOL    HW139302   4.388   0.962   2.619  1.1555 -0.6054  1.4123
 9280SOL    HW239303   4.296   1.042   2.707  0.9889  1.2402  1.5189
 9281SOL     OW39304   4.619   3.843   9.296 -0.1293  0.7865 -0.1594
 9281SOL    HW139305   4.571   3.926   9.290 -0.5900  0.4820 -0.7303
 9281SOL    HW239306   4.709   3.874   9.289  0.3244 -0.0098  2.0482
 9282SOL     OW39307   1.417   0.222   1.128 -0.5603 -0.5122 -0.4199
 9282SOL    HW139308   1.448   0.253   1.043  0.1148 -2.8956 -1.0528
 9282SOL    HW239309   1.324   0.241   1.117 -0.1887  0.0498 -2.4819
 9283SOL     OW39310   1.522   2.073   6.758 -0.6328 -0.2916  0.3344
 9283SOL    HW139311   1.566   2.087   6.842  0.1701  0.3124 -0.1826
 9283SOL    HW239312   1.437   2.037   6.784 -0.6982  1.0791  2.0067
 9284SOL     OW39313   4.656   0.020  17.543 -0.0285  0.3819 -0.2563
 9284SOL    HW139314   0.018   0.023  17.582 -0.2204 -1.0667  0.2672
 9284SOL    HW239315   4.627   4.660  17.574  1.4181  0.7903  2.2828
 9285SOL     OW39316   2.638   3.167   6.645  0.1325  0.6192  0.0188
 9285SOL    HW139317   2.555   3.212   6.632  0.3531  0.3656 -2.2842
 9285SOL    HW239318   2.681   3.227   6.706  1.3029 -0.2782  0.0842
 9286SOL     OW39319   3.278   2.723  13.712 -0.3286  0.7685  0.0449
 9286SOL    HW139320   3.258   2.765  13.795  0.7087  0.5608  0.3968
 9286SOL    HW239321   3.252   2.635  13.737 -0.9251  0.4253 -1.7567
 9287SOL     OW39322   1.860   4.633   9.889 -0.0900 -0.2798  0.4725
 9287SOL    HW139323   1.890   4.553   9.932  3.0006 -0.1692 -1.4946
 9287SOL    HW239324   1.943   4.664   9.852  0.0445  0.8458  1.7358
 9288SOL     OW39325   1.307   0.371  12.428 -0.3444  0.2029 -0.1449
 9288SOL    HW139326   1.218   0.366  12.463 -0.0916  0.7445  0.5710
 9288SOL    HW239327   1.361   0.388  12.505  1.1497 -1.8350 -0.7608
 9289SOL     OW39328   4.305   4.468   8.904  0.1275 -0.2157 -0.2436
 9289SOL    HW139329   4.297   4.514   8.988  1.2160 -1.0852  0.3395
 9289SOL    HW239330   4.213   4.447   8.890  0.1223 -0.0859 -0.4128
 9290SOL     OW39331   0.641   0.755   2.079 -0.0900  0.0893 -0.3719
 9290SOL    HW139332   0.604   0.667   2.086  0.5882 -0.2062 -0.5169
 9290SOL    HW239333   0.667   0.753   1.987 -1.2554  0.8481 -0.7144
 9291SOL     OW39334   1.594   0.048   0.431 -0.0592 -0.0535 -0.4306
 9291SOL    HW139335   1.569   0.019   0.519 -0.0700  0.1602 -0.3635
 9291SOL    HW239336   1.509   0.066   0.390  0.3500  0.8977 -0.8420
 9292SOL     OW39337   2.937   2.664   8.422 -0.0305  0.3502 -0.3222
 9292SOL    HW139338   2.991   2.631   8.493  0.0889  0.1263 -0.5152
 9292SOL    HW239339   2.863   2.697   8.472  0.8239 -0.0516  1.2032
 9293SOL     OW39340   0.449   3.397   4.918  0.1285  0.7208 -0.0464
 9293SOL    HW139341   0.432   3.304   4.903 -2.7762  1.4903 -1.5517
 9293SOL    HW239342   0.468   3.437   4.832 -1.0202  1.3952  0.0164
 9294SOL     OW39343   4.395   0.568   4.796  0.0444 -0.7808 -0.1359
 9294SOL    HW139344   4.445   0.534   4.870 -0.4570 -0.6137  0.2779
 9294SOL    HW239345   4.404   0.490   4.741 -0.6364 -0.9251 -0.0501
 9295SOL     OW39346   1.252   3.102   1.947 -0.3467  0.4378  0.3873
 9295SOL    HW139347   1.343   3.131   1.949 -0.6196  1.3246  0.0681
 9295SOL    HW239348   1.215   3.173   1.893 -1.2736  0.5936  1.2206
 9296SOL     OW39349   1.764   0.871  15.469 -0.0757 -0.0314 -0.3399
 9296SOL    HW139350   1.813   0.914  15.399  0.3451  1.0186  0.6097
 9296SOL    HW239351   1.830   0.872  15.538 -1.1895  2.9852  0.7008
 9297SOL     OW39352   1.724   0.573  13.673  0.2229 -0.2840  0.8310
 9297SOL    HW139353   1.727   0.615  13.759 -0.2294  1.2930  0.0698
 9297SOL    HW239354   1.788   0.632  13.635  2.2151 -1.9011  1.6415
 9298SOL     OW39355   4.697   0.583   0.844  0.2245  0.6885  0.7577
 9298SOL    HW139356   4.698   0.634   0.764  1.0336  0.0339  0.3478
 9298SOL    HW239357   4.676   0.491   0.825 -0.5102  1.1273 -0.5148
 9299SOL     OW39358   2.018   3.349   6.826 -0.0263  0.3481  0.5643
 9299SOL    HW139359   2.103   3.343   6.870 -0.2120 -1.8857  0.6265
 9299SOL    HW239360   2.021   3.266   6.778 -1.6542 -0.0854  1.2124
 9300SOL     OW39361   2.578   0.346   2.563  0.0541 -0.2564  0.4563
 9300SOL    HW139362   2.588   0.251   2.565  0.8187 -0.1547  1.2778
 9300SOL    HW239363   2.498   0.358   2.614  0.0829  0.6675  0.2840
 9301SOL     OW39364   0.643   2.066   5.301  0.2132 -0.1592  0.1773
 9301SOL    HW139365   0.645   2.112   5.385 -0.8227 -0.0884  0.1578
 9301SOL    HW239366   0.572   2.106   5.252  0.8663 -0.4771 -1.0298
 9302SOL     OW39367   2.180   1.997   5.745 -0.1827 -0.0613 -0.3484
 9302SOL    HW139368   2.137   1.919   5.708  0.3330  0.3116 -1.7168
 9302SOL    HW239369   2.218   1.945   5.816 -1.3921 -0.3018  0.1353
 9303SOL     OW39370   3.841   2.896  15.239  0.5107  0.3070  0.4190
 9303SOL    HW139371   3.824   2.984  15.206  0.9949 -0.0172 -0.6693
 9303SOL    HW239372   3.790   2.837  15.184  0.0975 -0.4075  1.5609
 9304SOL     OW39373   2.162   3.365   1.921 -0.3711  0.1206  0.0576
 9304SOL    HW139374   2.237   3.420   1.947  0.4879  0.2459 -2.6360
 9304SOL    HW239375   2.203   3.320   1.847 -1.4705  0.0667 -0.5124
 9305SOL     OW39376   2.023   4.063   7.988 -0.1037  0.2148  0.5263
 9305SOL    HW139377   2.007   3.969   7.996 -1.1870  0.3524 -0.1249
 9305SOL    HW239378   2.111   4.071   8.026 -0.0133 -1.6039  0.6878
 9306SOL     OW39379   0.348   4.459   9.182 -0.3986 -0.1187 -0.3282
 9306SOL    HW139380   0.257   4.486   9.188 -0.8018 -1.5132 -0.1918
 9306SOL    HW239381   0.347   4.387   9.119 -3.9007  0.8289 -1.3169
 9307SOL     OW39382   4.095   0.968  17.280 -0.4529  0.0088 -0.0720
 9307SOL    HW139383   4.146   0.894  17.247  0.2618 -0.0048  1.0809
 9307SOL    HW239384   4.010   0.927  17.297 -0.5053 -0.2520 -0.9589
 9308SOL     OW39385   1.757   0.420  11.241 -0.5772 -0.4881 -0.0743
 9308SOL    HW139386   1.798   0.469  11.312 -2.4368 -1.4338  1.6645
 9308SOL    HW239387   1.677   0.471  11.232 -0.2638  0.3907  2.1203
 9309SOL     OW39388   2.382   0.140   2.073  1.0989  0.4486  0.0881
 9309SOL    HW139389   2.292   0.171   2.087  1.4371  0.6725  1.8748
 9309SOL    HW239390   2.389   0.071   2.138  0.5263 -1.5788 -2.0158
 9310SOL     OW39391   0.010   3.953   7.383  0.1463 -0.0917 -0.5531
 9310SOL    HW139392   0.027   3.903   7.303 -2.1131  0.0469 -1.1227
 9310SOL    HW239393   4.688   4.028   7.346  0.6319 -0.7222 -2.4248
 9311SOL     OW39394   1.035   4.093   6.946 -0.6143  0.1105 -0.6745
 9311SOL    HW139395   0.996   4.008   6.925  1.0269 -0.8713  0.2047
 9311SOL    HW239396   0.949   4.127   6.967 -0.7212 -1.2328  1.0664
 9312SOL     OW39397   0.909   4.712   2.458 -0.3090  0.4770  0.0713
 9312SOL    HW139398   0.998   0.018   2.471  0.2663 -0.9005 -0.5753
 9312SOL    HW239399   0.921   4.620   2.436  0.8466 -0.1628  3.4224
 9313SOL     OW39400   3.065   4.573  10.149  0.1010 -0.2271 -0.0955
 9313SOL    HW139401   3.079   4.519  10.227  0.7289 -1.4562 -1.0522
 9313SOL    HW239402   3.149   4.568  10.103  1.4642  2.1106  2.1111
 9314SOL     OW39403   1.156   1.476   2.202 -0.2610 -0.2095 -0.0267
 9314SOL    HW139404   1.096   1.404   2.181  0.2540  0.1538 -2.8524
 9314SOL    HW239405   1.084   1.531   2.233 -0.7189  0.0802 -1.5808
 9315SOL     OW39406   1.511   4.280   1.684 -0.2845 -0.0035 -0.1374
 9315SOL    HW139407   1.431   4.331   1.680  0.4488  1.1958  0.7742
 9315SOL    HW239408   1.564   4.311   1.757  1.9093  1.1591 -2.2297
 9316SOL     OW39409   2.549   0.294   4.866  0.3491 -0.2039 -0.0445
 9316SOL    HW139410   2.467   0.272   4.821  0.0816  1.3501 -0.3173
 9316SOL    HW239411   2.578   0.208   4.895 -1.4261 -1.2108 -1.2184
 9317SOL     OW39412   0.720   2.689   9.977 -0.2258 -0.5477 -0.2339
 9317SOL    HW139413   0.797   2.727   9.935 -0.6587  0.6869  0.0965
 9317SOL    HW239414   0.689   2.629   9.909 -0.8065 -1.3723  0.7588
 9318SOL     OW39415   3.228   4.665   7.656 -0.1116  0.2330 -0.3621
 9318SOL    HW139416   3.324   4.666   7.662 -0.3903  1.6671  3.7837
 9318SOL    HW239417   3.213   4.724   7.730  1.9538 -0.4194  0.5962
 9319SOL     OW39418   0.595   3.215   2.490  0.2117  0.1405  0.2153
 9319SOL    HW139419   0.572   3.171   2.572 -3.0045  0.0241 -0.7119
 9319SOL    HW239420   0.570   3.144   2.431  2.9677  0.3006 -1.1516
 9320SOL     OW39421   0.399   4.408  15.538  0.4052 -0.0810  0.1548
 9320SOL    HW139422   0.394   4.457  15.621  0.2442  0.2338 -0.0425
 9320SOL    HW239423   0.451   4.331  15.560 -0.5339 -0.5737  0.6876
 9321SOL     OW39424   3.012   3.432   5.785  0.2461  0.6665 -0.0996
 9321SOL    HW139425   3.045   3.485   5.713  0.0697 -0.3100 -0.8992
 9321SOL    HW239426   3.084   3.416   5.845  0.3085 -1.3918 -0.7223
 9322SOL     OW39427   2.901   0.965   1.305 -0.1723  0.0527 -0.0179
 9322SOL    HW139428   2.989   0.994   1.331 -0.0767  1.0471 -1.4585
 9322SOL    HW239429   2.852   1.040   1.338 -0.4420 -0.5611  0.9871
 9323SOL     OW39430   0.817   0.481   7.872  0.1287 -0.1766 -0.5600
 9323SOL    HW139431   0.899   0.510   7.911 -0.2127 -0.7316  0.5641
 9323SOL    HW239432   0.849   0.413   7.812 -1.3602 -0.9081 -0.5088
 9324SOL     OW39433   3.458   3.857   4.550 -0.0816 -0.0109 -0.3160
 9324SOL    HW139434   3.389   3.819   4.605  1.2090  0.1621  1.4232
 9324SOL    HW239435   3.485   3.777   4.504 -1.2242 -0.8119  0.4015
 9325SOL     OW39436   2.959   0.711   1.770  0.2082 -0.0423 -0.3196
 9325SOL    HW139437   2.970   0.632   1.717  1.7400  1.0251 -1.6256
 9325SOL    HW239438   2.996   0.782   1.717 -1.0233  1.3975  0.7790
 9326SOL     OW39439   4.481   3.089   9.715 -0.5390 -0.3951 -0.3475
 9326SOL    HW139440   4.421   3.164   9.718 -1.1146 -0.9339  1.3445
 9326SOL    HW239441   4.531   3.107   9.635 -0.8717  0.3835 -0.3803
 9327SOL     OW39442   3.061   1.178   2.052 -0.0921  0.6828 -0.1423
 9327SOL    HW139443   3.150   1.155   2.026 -0.9304  0.2301 -2.6392
 9327SOL    HW239444   3.028   1.091   2.076  0.3192  0.3961 -0.6112
 9328SOL     OW39445   1.810   0.484   8.441 -0.5001 -0.6806  0.1674
 9328SOL    HW139446   1.771   0.554   8.388 -2.3481 -1.1058  0.9604
 9328SOL    HW239447   1.778   0.504   8.529  1.8113 -1.5396  1.2159
 9329SOL     OW39448   3.085   2.735  10.753 -0.5043 -0.5608 -0.1956
 9329SOL    HW139449   3.081   2.655  10.700  3.9900 -1.4504  0.8509
 9329SOL    HW239450   3.008   2.784  10.723 -0.1849 -0.0384 -0.1607
 9330SOL     OW39451   4.591   0.712   7.988 -0.1398 -0.0120  0.3267
 9330SOL    HW139452   4.517   0.760   8.026 -2.0249 -1.1608 -1.8578
 9330SOL    HW239453   4.568   0.714   7.895 -0.7819 -1.8966  0.4477
 9331SOL     OW39454   0.271   2.030   0.671 -0.0576 -0.0198  0.0714
 9331SOL    HW139455   0.268   1.944   0.628  1.2644  1.3723 -2.8409
 9331SOL    HW239456   0.264   2.094   0.600  2.3744 -2.1800 -2.0916
 9332SOL     OW39457   3.723   0.544  16.178 -0.5701 -0.0392  0.0582
 9332SOL    HW139458   3.686   0.619  16.226 -0.1433  1.2353 -1.5977
 9332SOL    HW239459   3.643   0.494  16.164 -0.7123 -0.0576  0.9059
 9333SOL     OW39460   3.953   1.312   7.191 -0.3725 -0.2530  0.0867
 9333SOL    HW139461   3.949   1.219   7.168  1.0834 -0.4261  0.5861
 9333SOL    HW239462   3.936   1.345   7.102  1.1344  0.5220  0.0853
 9334SOL     OW39463   4.065   0.141  13.513 -0.0059  0.3318  0.3563
 9334SOL    HW139464   4.079   0.055  13.475 -0.7230  1.3890 -2.3439
 9334SOL    HW239465   4.001   0.111  13.578 -0.6633  2.4071  0.6944
 9335SOL     OW39466   1.209   1.260  16.486 -0.2592 -0.5220  0.2296
 9335SOL    HW139467   1.178   1.333  16.434 -1.0356 -0.7959  0.3027
 9335SOL    HW239468   1.304   1.256  16.485 -0.1516  2.2018  0.3150
 9336SOL     OW39469   2.433   0.186  11.010 -0.4211  0.2750 -0.3390
 9336SOL    HW139470   2.523   0.177  11.039 -0.9595  0.9794  1.6024
 9336SOL    HW239471   2.404   0.222  11.094 -2.3759  0.6228 -1.1559
 9337SOL     OW39472   1.735   4.311  11.521 -0.6947  0.4534  0.5713
 9337SOL    HW139473   1.642   4.289  11.525 -1.0627  1.8457 -0.5888
 9337SOL    HW239474   1.725   4.398  11.483 -0.8085 -0.2636 -1.0326
 9338SOL     OW39475   0.374   3.216   4.041  0.8085 -0.0436  0.8516
 9338SOL    HW139476   0.398   3.127   4.014 -0.0499  0.1230 -0.4644
 9338SOL    HW239477   0.313   3.194   4.111 -1.3370  0.1945 -0.9721
 9339SOL     OW39478   3.889   1.189   5.324  0.1218 -0.3271 -0.4927
 9339SOL    HW139479   3.852   1.109   5.286  0.6033 -0.7554 -0.0617
 9339SOL    HW239480   3.938   1.157   5.400 -0.8820 -2.2101 -0.6389
 9340SOL     OW39481   0.431   2.765  12.807  0.1245  0.5226 -0.1318
 9340SOL    HW139482   0.495   2.698  12.832 -1.7840 -1.7147 -1.2847
 9340SOL    HW239483   0.488   2.819  12.752  1.6413 -2.0490 -1.1038
 9341SOL     OW39484   0.963   2.206  12.084  0.4135 -0.1944  0.3171
 9341SOL    HW139485   0.909   2.285  12.084 -0.2869 -0.6896  2.3032
 9341SOL    HW239486   0.901   2.144  12.046  0.5862 -0.2981  0.2041
 9342SOL     OW39487   0.219   1.101   2.605  0.3999  0.4628 -0.6046
 9342SOL    HW139488   0.205   1.193   2.625  1.0000  0.4104  0.0594
 9342SOL    HW239489   0.221   1.115   2.511 -0.0207  0.9312 -0.5385
 9343SOL     OW39490   1.968   1.822   2.638  0.8817 -0.3324  0.0549
 9343SOL    HW139491   2.029   1.892   2.614  0.1969  0.8820  1.8513
 9343SOL    HW239492   2.024   1.746   2.657  0.5904 -0.0940  1.8188
 9344SOL     OW39493   2.936   1.679   4.066  0.1107 -0.8757  0.3235
 9344SOL    HW139494   2.971   1.590   4.068 -0.5574 -1.1360  0.4277
 9344SOL    HW239495   3.019   1.725   4.054  0.4937 -1.2076  1.6909
 9345SOL     OW39496   0.919   0.333  14.367  0.3875  0.4641 -0.3362
 9345SOL    HW139497   0.972   0.413  14.369  1.3247 -0.1261 -1.4825
 9345SOL    HW239498   0.950   0.287  14.290  1.2400  2.5909 -1.2710
 9346SOL     OW39499   1.670   2.537  10.350 -0.1459  0.0055  0.6483
 9346SOL    HW139500   1.607   2.517  10.281 -1.6910  2.4811  1.3285
 9346SOL    HW239501   1.749   2.496  10.315  0.0980  1.7152 -0.8067
 9347SOL     OW39502   3.366   4.520   7.372 -0.5408  0.7665  0.2247
 9347SOL    HW139503   3.442   4.487   7.324  1.6814  1.8721  3.0168
 9347SOL    HW239504   3.398   4.537   7.460 -0.3792 -1.7542  0.6537
 9348SOL     OW39505   2.124   4.706   1.062  0.2603 -0.4296  0.3488
 9348SOL    HW139506   2.041   4.660   1.056 -0.3129  0.7188 -0.5602
 9348SOL    HW239507   2.105   0.047   0.996 -1.0412 -1.5199 -0.3636
 9349SOL     OW39508   1.096   4.545  16.106 -0.8491 -0.5896 -0.1037
 9349SOL    HW139509   1.145   4.529  16.025  1.5163 -1.0213  1.3969
 9349SOL    HW239510   1.146   4.497  16.172  0.5925 -0.9719 -1.4479
 9350SOL     OW39511   0.561   1.284   6.493  0.0714 -0.3684  0.1589
 9350SOL    HW139512   0.501   1.225   6.539 -1.3192 -0.2411 -1.4984
 9350SOL    HW239513   0.599   1.341   6.560  1.6322 -1.6596  0.3656
 9351SOL     OW39514   2.660   0.963   8.811 -0.5748  0.0132 -0.5432
 9351SOL    HW139515   2.637   0.886   8.758 -0.3693  0.6667 -1.5906
 9351SOL    HW239516   2.619   1.034   8.762  0.6595  0.1118 -1.4201
 9352SOL     OW39517   3.562   4.398   3.037  0.3288  0.2013 -0.0845
 9352SOL    HW139518   3.537   4.341   2.964  0.7340 -0.4757  0.3066
 9352SOL    HW239519   3.534   4.348   3.114 -0.6759 -0.0942 -0.6384
 9353SOL     OW39520   1.327   3.388   7.259  0.1678 -0.2532  0.4983
 9353SOL    HW139521   1.341   3.450   7.188  0.9968 -2.2623 -1.1047
 9353SOL    HW239522   1.380   3.435   7.323 -0.7262  1.1299  0.2009
 9354SOL     OW39523   3.544   1.796   8.736  0.2020 -0.0147 -0.0941
 9354SOL    HW139524   3.492   1.876   8.728 -0.5248 -0.3221  1.6221
 9354SOL    HW239525   3.602   1.808   8.660 -0.4081  0.2978 -0.5162
 9355SOL     OW39526   1.235   3.887   4.991 -0.4334 -0.2130  0.2726
 9355SOL    HW139527   1.146   3.911   4.965  0.2934  1.1333 -1.0019
 9355SOL    HW239528   1.222   3.870   5.084 -1.9905  0.5195  0.1970
 9356SOL     OW39529   2.190   0.416   4.002  0.4414  0.1343  0.2974
 9356SOL    HW139530   2.180   0.485   4.067 -0.0197 -0.2080  0.5815
 9356SOL    HW239531   2.162   0.466   3.925 -1.7031 -1.8924 -0.2213
 9357SOL     OW39532   0.184   3.872   1.627 -0.5921  0.1787  0.1551
 9357SOL    HW139533   0.253   3.810   1.649 -1.3915 -0.7143  0.1384
 9357SOL    HW239534   0.112   3.808   1.631 -0.8584  0.4034 -1.0194
 9358SOL     OW39535   3.572   0.837  10.607  0.0847 -0.2702  0.6654
 9358SOL    HW139536   3.490   0.884  10.621 -0.0616 -0.5434  0.7269
 9358SOL    HW239537   3.545   0.749  10.631  1.1463 -0.5314  0.9106
 9359SOL     OW39538   0.566   3.519   5.709  0.4270  0.6278  0.1398
 9359SOL    HW139539   0.596   3.570   5.783 -1.9179  0.4262  1.2179
 9359SOL    HW239540   0.553   3.591   5.648  0.7523  1.8201  1.4822
 9360SOL     OW39541   2.866   4.180  11.722  0.6097  0.0543  0.4438
 9360SOL    HW139542   2.886   4.231  11.800 -1.3677 -0.3543  1.2221
 9360SOL    HW239543   2.952   4.150  11.691 -0.1823 -1.3956 -0.3601
 9361SOL     OW39544   3.763   3.679  11.249  0.7991  0.0218 -0.0663
 9361SOL    HW139545   3.721   3.678  11.163  1.5271  1.1911 -0.4364
 9361SOL    HW239546   3.701   3.722  11.309  1.0869 -0.6548  0.7108
 9362SOL     OW39547   3.373   4.455   8.283 -0.2081 -0.8400  0.5437
 9362SOL    HW139548   3.363   4.513   8.359  0.5502 -0.4183  0.3278
 9362SOL    HW239549   3.373   4.368   8.322  2.1272 -1.2079 -0.2475
 9363SOL     OW39550   3.039   0.370   1.370  0.1043  0.2173  0.2792
 9363SOL    HW139551   2.995   0.429   1.432  0.1488 -0.5994  1.0926
 9363SOL    HW239552   3.116   0.337   1.415 -0.2720  0.5512  1.1791
 9364SOL     OW39553   0.318   3.216   9.017 -0.2765  0.6213  0.2999
 9364SOL    HW139554   0.379   3.210   8.944 -3.2120 -2.1162 -1.8520
 9364SOL    HW239555   0.375   3.243   9.090 -2.0491  0.6017  1.6836
 9365SOL     OW39556   1.063   2.141   6.257 -0.8377  0.3848  0.1898
 9365SOL    HW139557   1.051   2.118   6.349  2.7278  0.2115  0.5878
 9365SOL    HW239558   1.090   2.232   6.263 -0.6848  0.2455  1.4946
 9366SOL     OW39559   4.345   1.003  14.310 -0.4367 -0.2854  0.5333
 9366SOL    HW139560   4.360   1.084  14.262  0.4019 -1.7126 -1.6165
 9366SOL    HW239561   4.270   1.029  14.363 -0.4641  1.2327 -0.2501
 9367SOL     OW39562   3.633   4.221   4.223 -0.0290 -0.5616  0.4645
 9367SOL    HW139563   3.607   4.307   4.191 -1.4732 -1.2769 -0.2834
 9367SOL    HW239564   3.651   4.246   4.314 -1.4707 -0.9326  0.8454
 9368SOL     OW39565   1.628   3.508   7.195 -0.2341  0.2520  0.2038
 9368SOL    HW139566   1.682   3.585   7.210  0.7100 -0.6026  1.2306
 9368SOL    HW239567   1.693   3.439   7.210 -1.6351 -1.2901 -0.7057
 9369SOL     OW39568   3.318   0.640   5.625 -0.2194  0.0378 -0.0716
 9369SOL    HW139569   3.361   0.572   5.676  0.2572 -0.0572 -0.5986
 9369SOL    HW239570   3.389   0.703   5.639 -0.5067 -0.0009  1.5276
 9370SOL     OW39571   0.694   2.683   9.277 -0.1504  0.8012  0.3650
 9370SOL    HW139572   0.732   2.766   9.249  0.8134  0.3528  0.3137
 9370SOL    HW239573   0.615   2.720   9.315 -1.0095 -1.6450  0.9842
 9371SOL     OW39574   1.329   3.789  16.104 -0.7232  0.0850  0.1506
 9371SOL    HW139575   1.234   3.775  16.095 -0.7330  0.8664 -0.9351
 9371SOL    HW239576   1.361   3.866  16.057  0.1297 -0.2986  0.1006
 9372SOL     OW39577   2.595   1.310   3.597 -0.8633 -0.6503  0.2375
 9372SOL    HW139578   2.627   1.395   3.629 -2.5517 -1.2822  3.5908
 9372SOL    HW239579   2.646   1.253   3.655  0.2922 -0.1026 -0.2306
 9373SOL     OW39580   4.273   1.345   7.245  0.1363  0.1754 -0.2386
 9373SOL    HW139581   4.267   1.404   7.170 -2.0449  1.0398  0.6049
 9373SOL    HW239582   4.180   1.341   7.270  0.1774 -0.7688 -0.2394
 9374SOL     OW39583   1.187   2.600  16.288 -0.3731 -0.0779  0.1184
 9374SOL    HW139584   1.201   2.691  16.314  0.4555  0.2249 -1.4177
 9374SOL    HW239585   1.259   2.577  16.229  0.1708  2.2861 -0.1282
 9375SOL     OW39586   2.258   1.693  12.617 -0.2639 -0.0430 -0.5697
 9375SOL    HW139587   2.198   1.724  12.685  1.2854  1.4775  0.1178
 9375SOL    HW239588   2.203   1.699  12.539  1.5742  0.7936 -1.7895
 9376SOL     OW39589   1.653   0.107   3.914 -0.0150 -0.1841  0.1656
 9376SOL    HW139590   1.572   0.065   3.883  0.6125 -0.0720 -1.5822
 9376SOL    HW239591   1.669   0.184   3.860 -0.6391 -1.0444 -1.2636
 9377SOL     OW39592   0.882   2.524   7.325 -0.5523  0.4356 -0.0116
 9377SOL    HW139593   0.791   2.510   7.351 -1.2745 -0.1564 -2.8962
 9377SOL    HW239594   0.883   2.496   7.234  0.5913 -0.6165  0.3211
 9378SOL     OW39595   4.292   1.127  12.195 -0.2103  0.0338  0.1142
 9378SOL    HW139596   4.344   1.148  12.118  0.0180 -2.9881 -0.5718
 9378SOL    HW239597   4.357   1.120  12.265 -0.0879 -0.2808 -0.0321
 9379SOL     OW39598   0.130   1.511   5.056  0.6554 -0.4447  0.6269
 9379SOL    HW139599   0.050   1.469   5.085  0.7859 -0.4070  1.0329
 9379SOL    HW239600   0.130   1.477   4.966 -2.1292  1.0321  0.0697
 9380SOL     OW39601   1.296   2.826  17.294  0.0351 -0.3759  0.2612
 9380SOL    HW139602   1.216   2.799  17.248  1.0061 -1.3569 -0.8527
 9380SOL    HW239603   1.323   2.744  17.335  1.9189  0.6796  1.0980
 9381SOL     OW39604   2.662   1.863  14.203 -0.8793  0.1892  0.5197
 9381SOL    HW139605   2.570   1.888  14.197 -1.2299 -0.7599  1.8104
 9381SOL    HW239606   2.664   1.813  14.285  0.2517  0.0053  0.3758
 9382SOL     OW39607   2.156   3.657   9.242 -0.6175  0.1409 -0.5599
 9382SOL    HW139608   2.112   3.685   9.323  0.0772 -0.5833  0.0646
 9382SOL    HW239609   2.083   3.664   9.180  0.5156 -1.1404 -2.0308
 9383SOL     OW39610   0.481   4.384   7.302 -0.6746 -0.1776  0.4698
 9383SOL    HW139611   0.448   4.448   7.365 -1.7796 -0.8602  0.5826
 9383SOL    HW239612   0.535   4.435   7.241 -0.2808 -1.6300 -0.4016
 9384SOL     OW39613   2.389   3.924   3.302  0.2642  0.1966  0.0875
 9384SOL    HW139614   2.332   3.896   3.231  1.1223 -0.7496 -0.2443
 9384SOL    HW239615   2.424   3.836   3.317 -0.5531 -0.0442  0.5539
 9385SOL     OW39616   0.572   1.826   2.230  0.4267 -0.0431  0.0744
 9385SOL    HW139617   0.545   1.863   2.314 -0.0407  1.2518 -0.6467
 9385SOL    HW239618   0.652   1.787   2.264  0.4411 -0.6587 -0.6609
 9386SOL     OW39619   2.365   3.015  12.256  0.2322 -0.2072  0.2357
 9386SOL    HW139620   2.421   3.092  12.244  0.3556 -0.4034 -0.4172
 9386SOL    HW239621   2.316   3.031  12.337  0.8326  0.0704  0.5453
 9387SOL     OW39622   4.311   4.386   7.817  1.1191 -0.8424  0.0911
 9387SOL    HW139623   4.378   4.405   7.883 -0.6074  0.6553  1.4512
 9387SOL    HW239624   4.248   4.455   7.841 -0.7275 -1.6085 -2.5885
 9388SOL     OW39625   1.999   4.490   6.008  0.0913 -0.0806 -0.3902
 9388SOL    HW139626   2.034   4.487   5.919  0.1649  1.3038 -0.4070
 9388SOL    HW239627   2.077   4.525   6.050 -1.4970  1.4805  1.2904
 9389SOL     OW39628   1.824   0.079   8.492  0.0889 -0.1837  0.4195
 9389SOL    HW139629   1.858   4.721   8.458  1.0852  1.0556 -1.5813
 9389SOL    HW239630   1.764   0.040   8.555 -0.3985 -1.2908 -0.7320
 9390SOL     OW39631   2.220   1.683  15.885 -0.4283  0.0095  0.2253
 9390SOL    HW139632   2.229   1.776  15.863  0.9131 -0.0473  0.5170
 9390SOL    HW239633   2.149   1.695  15.948 -0.0441 -1.1978  0.8787
 9391SOL     OW39634   0.716   3.794   2.428  0.1370 -0.3938  0.2196
 9391SOL    HW139635   0.662   3.751   2.361 -1.8808 -0.1978  1.7417
 9391SOL    HW239636   0.773   3.853   2.378 -0.7066  0.8177  0.7010
 9392SOL     OW39637   4.448   2.120  16.329  0.4466 -0.5892  0.2580
 9392SOL    HW139638   4.449   2.187  16.261  0.5383  0.0317  0.8645
 9392SOL    HW239639   4.543   2.105  16.327  0.2090 -1.7275 -2.4146
 9393SOL     OW39640   2.475   2.199   2.514  0.3834 -0.2515 -0.1948
 9393SOL    HW139641   2.523   2.116   2.511 -3.2287 -2.3727  1.9174
 9393SOL    HW239642   2.543   2.264   2.536 -1.5980  1.2945  1.3512
 9394SOL     OW39643   3.358   2.805  12.259  0.6280 -0.0935 -0.0889
 9394SOL    HW139644   3.285   2.852  12.299 -1.4523 -2.6851 -0.7696
 9394SOL    HW239645   3.402   2.758  12.330  0.1802  0.5344  0.5957
 9395SOL     OW39646   3.446   3.159   8.602  0.3434  0.2522 -0.6734
 9395SOL    HW139647   3.439   3.171   8.507  0.1107 -2.0390 -0.9484
 9395SOL    HW239648   3.360   3.183   8.636  0.8375 -0.0972  0.7990
 9396SOL     OW39649   0.741   1.167   1.192 -0.5353  0.2917 -0.3367
 9396SOL    HW139650   0.753   1.223   1.268  0.8032  1.8322 -1.6721
 9396SOL    HW239651   0.657   1.201   1.162 -0.1139  1.3422 -0.3377
 9397SOL     OW39652   3.728   3.892   6.190  0.4457  0.4829  0.3956
 9397SOL    HW139653   3.695   3.911   6.277 -1.0749  1.1688 -0.3353
 9397SOL    HW239654   3.773   3.809   6.204 -1.3315 -0.1298  2.4543
 9398SOL     OW39655   0.814   1.352   8.897 -0.4822 -0.8314  0.4366
 9398SOL    HW139656   0.824   1.330   8.805 -0.5708 -0.0528  0.2385
 9398SOL    HW239657   0.892   1.319   8.941  0.1494  0.0613 -0.0110
 9399SOL     OW39658   3.445   0.587   7.801 -0.0033 -0.4070 -0.1685
 9399SOL    HW139659   3.474   0.651   7.866  0.9165 -0.8891 -0.1094
 9399SOL    HW239660   3.393   0.523   7.849 -2.3617  3.1993  2.1229
 9400SOL     OW39661   2.145   3.562   8.029  0.1182  0.1526  0.4215
 9400SOL    HW139662   2.221   3.520   8.068 -0.6244 -0.5376  1.1281
 9400SOL    HW239663   2.081   3.521   8.088 -0.6024  0.2729 -0.2698
 9401SOL     OW39664   3.241   1.868   1.817  0.4958  0.1617  0.5662
 9401SOL    HW139665   3.183   1.799   1.784  0.2495 -0.1646  1.7048
 9401SOL    HW239666   3.228   1.859   1.911  0.2636 -1.4199  0.3844
 9402SOL     OW39667   3.187   4.253   9.552  0.0298 -0.2118 -0.1171
 9402SOL    HW139668   3.150   4.190   9.614 -0.2316  0.5625  0.5157
 9402SOL    HW239669   3.144   4.329   9.589  1.7347  1.7482 -2.1716
 9403SOL     OW39670   0.007   1.964   5.810 -0.3627  0.1015  0.1416
 9403SOL    HW139671   4.669   2.031   5.785 -1.0590 -1.2446 -1.7283
 9403SOL    HW239672   0.091   1.990   5.774 -0.9409  1.2799 -0.3726
 9404SOL     OW39673   3.310   3.771  11.250  0.0941 -0.2253  0.3303
 9404SOL    HW139674   3.372   3.841  11.228 -1.7490  1.4324  0.4552
 9404SOL    HW239675   3.368   3.698  11.273 -1.7491 -1.1180  2.1140
 9405SOL     OW39676   3.039   0.965   8.453 -0.1574 -0.3266 -0.0634
 9405SOL    HW139677   3.039   0.884   8.404  2.7854 -0.5770  0.3552
 9405SOL    HW239678   3.072   0.930   8.536 -2.1304  0.6938  1.1564
 9406SOL     OW39679   3.239   3.101  16.642 -0.8223  0.0079  0.3903
 9406SOL    HW139680   3.173   3.170  16.640 -0.2928  0.4654 -2.0467
 9406SOL    HW239681   3.256   3.086  16.549  2.3857  2.5610  0.5632
 9407SOL     OW39682   3.151   0.803   7.221  0.3412  0.5732 -0.2516
 9407SOL    HW139683   3.135   0.857   7.144 -1.3654 -0.8374 -0.8767
 9407SOL    HW239684   3.112   0.719   7.197  2.7684 -0.3698 -0.9223
 9408SOL     OW39685   1.238   1.445   8.041  0.3797  0.1752  0.2651
 9408SOL    HW139686   1.279   1.527   8.068  2.4616 -1.1650  1.2036
 9408SOL    HW239687   1.288   1.442   7.959  1.6863 -0.6711  1.1009
 9409SOL     OW39688   2.751   4.425   1.889  0.1511 -1.5702 -0.5289
 9409SOL    HW139689   2.667   4.464   1.913  1.2522  0.4230  0.1396
 9409SOL    HW239690   2.784   4.485   1.822 -0.5465 -0.4978  0.0821
 9410SOL     OW39691   2.371   2.401   3.450 -0.0732  0.0027 -0.2918
 9410SOL    HW139692   2.450   2.348   3.449 -0.9367 -1.3177  0.3420
 9410SOL    HW239693   2.312   2.349   3.505  0.3183  0.2867  0.3881
 9411SOL     OW39694   3.426   3.638   8.575  0.0714  0.2688  0.6454
 9411SOL    HW139695   3.367   3.632   8.650  0.6834 -0.4670  1.0730
 9411SOL    HW239696   3.513   3.632   8.615  0.5580  2.3879 -0.0761
 9412SOL     OW39697   2.348   0.135  14.854 -0.5199  0.1246 -0.8400
 9412SOL    HW139698   2.383   0.075  14.789 -1.2075 -0.9761 -0.1807
 9412SOL    HW239699   2.382   0.221  14.828  2.7084 -0.5047  1.3963
 9413SOL     OW39700   4.239   1.983   8.246  0.0890 -0.1677 -0.3884
 9413SOL    HW139701   4.223   1.950   8.335 -0.3074 -0.8497 -0.7069
 9413SOL    HW239702   4.150   1.980   8.210 -0.0290  0.1697 -0.1292
 9414SOL     OW39703   3.884   3.854   8.063 -0.6385  0.7906  0.1418
 9414SOL    HW139704   3.880   3.929   8.122  0.6684  1.6080 -0.8081
 9414SOL    HW239705   3.796   3.816   8.071  0.2411 -1.3743 -0.4839
 9415SOL     OW39706   0.498   0.553   8.085 -0.4549  0.2749 -0.2769
 9415SOL    HW139707   0.547   0.471   8.085  0.8827  1.0710 -0.8474
 9415SOL    HW239708   0.558   0.614   8.042 -1.6931  1.1951 -0.7196
 9416SOL     OW39709   0.873   1.884   3.231 -0.5757 -0.3009 -0.1316
 9416SOL    HW139710   0.897   1.835   3.152  0.1452 -1.3404  0.7387
 9416SOL    HW239711   0.822   1.951   3.185  0.2054 -0.2839 -0.9860
 9417SOL     OW39712   1.349   4.263  13.119  0.3547  0.1983  0.2572
 9417SOL    HW139713   1.405   4.283  13.194  0.0258  2.3921 -0.0794
 9417SOL    HW239714   1.362   4.352  13.086 -1.6609  0.0453 -0.9128
 9418SOL     OW39715   0.814   4.599   7.438  0.4174  1.1194 -0.1095
 9418SOL    HW139716   0.779   4.549   7.364  2.6438  1.1801 -1.1861
 9418SOL    HW239717   0.736   4.648   7.463 -0.4931 -1.9378  3.1840
 9419SOL     OW39718   4.605   2.332   6.846 -0.2453  0.2596  0.1424
 9419SOL    HW139719   4.687   2.291   6.872  0.4144  1.0673 -0.6603
 9419SOL    HW239720   4.565   2.351   6.931  0.4567  0.5277  0.4109
 9420SOL     OW39721   1.689   2.068   2.461 -0.6219  0.3017  0.4441
 9420SOL    HW139722   1.779   2.073   2.427 -0.6677  2.2415  0.5986
 9420SOL    HW239723   1.675   2.144   2.518  1.6135  0.7183  0.4550
 9421SOL     OW39724   4.223   1.863   9.160 -0.5258 -0.0650  1.0733
 9421SOL    HW139725   4.237   1.820   9.244 -0.4417 -4.2060 -1.0711
 9421SOL    HW239726   4.141   1.912   9.164 -0.7938 -0.3213 -1.4011
 9422SOL     OW39727   3.036   2.966   3.743 -0.1175  0.3976  0.5516
 9422SOL    HW139728   3.018   3.053   3.779  1.8691  0.3306  1.7507
 9422SOL    HW239729   3.013   2.986   3.653 -1.9159  2.5131  1.4868
 9423SOL     OW39730   3.404   4.579  10.487  0.0985  0.3972 -0.1610
 9423SOL    HW139731   3.422   4.489  10.513  2.1269  0.4805 -1.2805
 9423SOL    HW239732   3.494   4.612  10.477  0.1840  0.4736  0.9177
 9424SOL     OW39733   0.131   3.762   4.452 -0.2531  0.6058 -0.6844
 9424SOL    HW139734   0.151   3.833   4.391  0.9276  0.5434 -0.3806
 9424SOL    HW239735   0.189   3.786   4.525  0.2020 -1.4043 -0.3749
 9425SOL     OW39736   4.563   3.304   7.324 -0.2400  0.3717  0.5158
 9425SOL    HW139737   4.567   3.399   7.314  2.2463  0.1319 -0.9032
 9425SOL    HW239738   4.518   3.285   7.241  0.3119 -0.1674  0.3408
 9426SOL     OW39739   0.505   1.757   4.234  0.6315 -0.4295 -0.4341
 9426SOL    HW139740   0.454   1.831   4.267  1.1494 -0.8226  1.2676
 9426SOL    HW239741   0.439   1.694   4.206  0.4257 -0.9709  1.2700
 9427SOL     OW39742   0.606   3.213   7.210  0.1479 -0.1403  0.1582
 9427SOL    HW139743   0.636   3.290   7.259  1.7613 -0.9650  0.4609
 9427SOL    HW239744   0.512   3.231   7.216  0.2704  0.4181  0.4093
 9428SOL     OW39745   1.390   3.477   1.667  0.0219 -0.4348 -0.0673
 9428SOL    HW139746   1.463   3.508   1.721 -0.0261 -0.9505  0.2887
 9428SOL    HW239747   1.428   3.470   1.580 -0.9077  2.6810 -0.7395
 9429SOL     OW39748   1.186   1.215   5.525  0.7727 -0.0048  0.2168
 9429SOL    HW139749   1.147   1.136   5.561  2.8310 -0.6998  0.9169
 9429SOL    HW239750   1.109   1.260   5.490 -0.1386 -1.3292  0.5518
 9430SOL     OW39751   1.902   3.987   7.530  0.4001  0.8390  0.1851
 9430SOL    HW139752   1.915   3.896   7.504 -0.6558  1.1292 -1.3389
 9430SOL    HW239753   1.808   4.002   7.517  0.5559  1.1156 -0.5738
 9431SOL     OW39754   2.614   3.232   4.773 -0.3242 -0.6735  0.0011
 9431SOL    HW139755   2.544   3.176   4.807  0.3415  0.5791  3.4375
 9431SOL    HW239756   2.572   3.306   4.729 -0.1745  0.3821  1.6086
 9432SOL     OW39757   4.224   3.861   5.459  0.0230 -0.1409  0.1241
 9432SOL    HW139758   4.247   3.929   5.396  3.2952 -1.2143  0.1574
 9432SOL    HW239759   4.185   3.915   5.528  0.4277 -0.0489  0.2806
 9433SOL     OW39760   1.039   3.035   7.968  0.3879  0.4443  0.3857
 9433SOL    HW139761   0.998   3.060   7.885 -1.1275  1.2822  1.3791
 9433SOL    HW239762   0.973   2.972   7.998  3.5107 -3.5183 -1.1195
 9434SOL     OW39763   1.339   1.929  14.967  0.3174  0.0285 -0.0794
 9434SOL    HW139764   1.386   2.006  14.999 -1.6147  0.4289  1.8136
 9434SOL    HW239765   1.392   1.922  14.888  0.2664 -2.9012  0.1423
 9435SOL     OW39766   0.722   3.299   6.419 -0.0712  0.1925  0.3938
 9435SOL    HW139767   0.697   3.210   6.443 -1.6890  1.0873  2.0106
 9435SOL    HW239768   0.649   3.316   6.360 -0.7816 -0.3089  1.1337
 9436SOL     OW39769   4.101   3.509  16.565 -0.1737 -0.4864  0.3077
 9436SOL    HW139770   4.026   3.566  16.549 -0.3993 -0.0767  2.7983
 9436SOL    HW239771   4.064   3.430  16.525  1.5032 -1.4827  0.7168
 9437SOL     OW39772   3.316   1.108   4.949 -0.0907 -0.2728 -0.4783
 9437SOL    HW139773   3.239   1.087   5.003 -0.3708 -1.7978 -1.4881
 9437SOL    HW239774   3.345   1.026   4.909 -1.3439 -0.7876 -0.3385
 9438SOL     OW39775   0.993   2.405   7.068 -0.4925  0.8471  0.7047
 9438SOL    HW139776   1.075   2.439   7.032  1.0207 -3.2204  0.2864
 9438SOL    HW239777   0.963   2.371   6.984  0.4633 -2.0977  1.5559
 9439SOL     OW39778   1.612   0.941   2.804  0.3109 -0.2086  0.2753
 9439SOL    HW139779   1.631   0.898   2.721 -0.6644  0.7867 -0.4724
 9439SOL    HW239780   1.671   1.012   2.826  0.7785  0.3852 -2.8941
 9440SOL     OW39781   0.816   0.620   5.756 -0.2166  0.0747  0.3488
 9440SOL    HW139782   0.810   0.715   5.759  0.0366  0.1125 -0.2187
 9440SOL    HW239783   0.728   0.607   5.722 -0.4667  1.0265  0.6354
 9441SOL     OW39784   1.681   2.196   9.127  0.7207 -0.6168  0.6135
 9441SOL    HW139785   1.663   2.212   9.220  0.1606  0.7596  0.2688
 9441SOL    HW239786   1.700   2.102   9.121  0.4531 -0.8505  3.0968
 9442SOL     OW39787   4.092   1.237   5.757  0.2398  0.3850  0.1815
 9442SOL    HW139788   4.154   1.284   5.702  0.7479  0.4980  0.8506
 9442SOL    HW239789   4.111   1.280   5.841  2.3012  0.3424 -0.2618
 9443SOL     OW39790   1.169   4.476   3.215 -0.3403  0.0292 -1.0443
 9443SOL    HW139791   1.141   4.534   3.144  2.3772  0.5693 -1.6735
 9443SOL    HW239792   1.088   4.434   3.244  0.5747  0.5657  2.2997
 9444SOL     OW39793   3.862   2.688   5.260  0.3292  0.2292  0.1180
 9444SOL    HW139794   3.919   2.764   5.272 -1.7006  2.0002 -1.2347
 9444SOL    HW239795   3.776   2.731   5.251 -0.5426 -1.6527 -0.4049
 9445SOL     OW39796   3.133   0.338   0.665  0.6571 -0.0358 -0.1981
 9445SOL    HW139797   3.101   0.406   0.606 -1.8014  0.5945  1.8828
 9445SOL    HW239798   3.057   0.282   0.678  0.3890 -0.7348 -4.8214
 9446SOL     OW39799   4.180   2.456   4.045  0.1981 -0.3329  0.7762
 9446SOL    HW139800   4.141   2.444   3.958  1.6200  3.9956 -0.4676
 9446SOL    HW239801   4.234   2.379   4.062 -0.0328 -1.5790 -4.1522
 9447SOL     OW39802   3.545   3.769  10.222  0.1887 -0.2617  1.0292
 9447SOL    HW139803   3.533   3.834  10.152 -0.1389 -0.4126  0.9433
 9447SOL    HW239804   3.561   3.688  10.175  3.8349 -0.2952  2.3393
 9448SOL     OW39805   1.150   2.801   5.653  0.0210  0.5124 -0.2439
 9448SOL    HW139806   1.242   2.779   5.635 -0.0099  1.7904 -2.0150
 9448SOL    HW239807   1.158   2.896   5.643  1.6314  0.7229  3.2253
 9449SOL     OW39808   0.954   3.909  10.376  0.3453 -0.8548 -0.5973
 9449SOL    HW139809   0.874   3.901  10.324  0.3449 -1.0829 -0.5598
 9449SOL    HW239810   0.927   3.965  10.449  0.7384 -1.8903  0.3300
 9450SOL     OW39811   3.255   4.306   3.571 -0.3705 -0.2589 -0.3592
 9450SOL    HW139812   3.258   4.282   3.663  2.6980 -1.7193 -0.8521
 9450SOL    HW239813   3.349   4.295   3.554 -0.4306 -1.1364 -0.1221
 9451SOL     OW39814   3.540   4.103   6.369  0.2539  0.3302 -0.2900
 9451SOL    HW139815   3.471   4.128   6.430 -1.4539  1.6438 -2.7622
 9451SOL    HW239816   3.490   4.081   6.291 -0.7461  0.9192  0.1803
 9452SOL     OW39817   1.828   3.570   6.422 -0.5749 -0.5065 -0.2227
 9452SOL    HW139818   1.809   3.508   6.493  0.0082 -1.1759 -0.6595
 9452SOL    HW239819   1.834   3.519   6.341  2.4285 -0.8470  0.2125
 9453SOL     OW39820   3.519   2.599   2.791  0.3927  0.5883  0.1434
 9453SOL    HW139821   3.442   2.628   2.741 -0.5248  1.1454  1.8851
 9453SOL    HW239822   3.487   2.626   2.877 -0.1223 -3.2980  1.1550
 9454SOL     OW39823   4.349   1.980   3.873  0.4943  0.5315  0.6194
 9454SOL    HW139824   4.330   1.901   3.823 -3.7473  0.6550  2.0776
 9454SOL    HW239825   4.286   2.042   3.837 -1.0574 -0.8812  0.9443
 9455SOL     OW39826   1.507   4.721   3.537  0.5945 -0.8403  0.1270
 9455SOL    HW139827   1.567   0.038   3.476  1.9784 -0.2365  1.9164
 9455SOL    HW239828   1.446   4.670   3.484  1.1616 -2.3202  0.8847
 9456SOL     OW39829   0.973   1.276   1.672 -0.6517  0.0120  0.3018
 9456SOL    HW139830   1.029   1.350   1.694 -1.9867  1.1734 -0.1305
 9456SOL    HW239831   0.886   1.313   1.654 -1.1119 -1.1582  0.1198
 9457SOL     OW39832   0.288   3.490   7.552  0.7484  0.4960 -0.3933
 9457SOL    HW139833   0.193   3.485   7.547  0.7095 -1.0862  2.0401
 9457SOL    HW239834   0.305   3.430   7.624 -1.4972  0.6060  0.2229
 9458SOL     OW39835   2.519   2.284  10.759 -0.3560 -0.1169  0.2862
 9458SOL    HW139836   2.494   2.279  10.667  0.3172  1.0574  0.0520
 9458SOL    HW239837   2.560   2.370  10.762 -2.0230  0.6547  0.8835
 9459SOL     OW39838   1.951   2.017   3.197  0.9810 -0.4954 -0.7797
 9459SOL    HW139839   1.950   2.111   3.177 -0.4528 -0.5803 -1.1101
 9459SOL    HW239840   1.991   1.991   3.114  0.4432  1.2044 -1.5945
 9460SOL     OW39841   4.242   0.619   6.941 -0.1159  0.2600  0.0440
 9460SOL    HW139842   4.307   0.674   6.985 -1.7873  1.9269  0.4259
 9460SOL    HW239843   4.177   0.593   7.007 -0.3033  0.8254  0.0802
 9461SOL     OW39844   1.128   3.600  12.087  0.9117  0.2725 -0.9681
 9461SOL    HW139845   1.175   3.552  12.020  1.9779 -2.0981  1.4738
 9461SOL    HW239846   1.154   3.549  12.164 -0.8752 -1.0069 -1.2162
 9462SOL     OW39847   0.088   0.260   4.483 -0.3393 -0.0865 -0.1901
 9462SOL    HW139848   0.110   0.233   4.572  1.8027  0.5083 -0.5347
 9462SOL    HW239849   0.108   0.188   4.424  2.5535  0.6207 -0.0988
 9463SOL     OW39850   2.456   0.593  11.418  0.5742  0.4017  0.4694
 9463SOL    HW139851   2.534   0.593  11.363  0.0928  0.9836 -0.2101
 9463SOL    HW239852   2.447   0.497  11.418  0.2814  0.4260 -0.0044
 9464SOL     OW39853   1.677   1.168  10.267  0.1084  0.7939  0.2930
 9464SOL    HW139854   1.631   1.224  10.329  0.3766  0.3862  0.8713
 9464SOL    HW239855   1.632   1.171  10.183  1.5733  0.8476 -0.4935
 9465SOL     OW39856   2.140   0.579   2.672  0.0388  0.0049 -0.0540
 9465SOL    HW139857   2.186   0.523   2.609  2.2772  1.0967  0.6085
 9465SOL    HW239858   2.055   0.535   2.672 -1.2381  2.5150 -0.1594
 9466SOL     OW39859   0.919   3.737   2.583  0.4247 -0.9764  0.9286
 9466SOL    HW139860   0.855   3.754   2.652  2.2670 -2.1775  2.9177
 9466SOL    HW239861   0.850   3.743   2.517  1.9841  2.2789 -0.3757
 9467SOL     OW39862   0.189   0.298   7.850  0.3014 -0.1901 -0.4097
 9467SOL    HW139863   0.114   0.318   7.793  1.6786  1.6061 -1.6201
 9467SOL    HW239864   0.245   0.251   7.788  0.7403 -0.6468  0.3483
 9468SOL     OW39865   4.342   0.875   6.647  0.6765 -0.0140 -0.1816
 9468SOL    HW139866   4.324   0.781   6.641  2.2101 -0.3627  0.5665
 9468SOL    HW239867   4.411   0.891   6.583  0.4615  2.2347  0.1628
 9469SOL     OW39868   4.158   1.959  16.482 -0.0569  0.2114 -0.3496
 9469SOL    HW139869   4.142   1.865  16.493  2.3727 -0.1830 -0.2961
 9469SOL    HW239870   4.094   1.996  16.543  2.2072 -1.4236  3.0118
 9470SOL     OW39871   0.143   2.366   5.057 -0.3890  0.1186  0.2268
 9470SOL    HW139872   0.086   2.330   4.988  0.5853  0.4803 -0.7743
 9470SOL    HW239873   0.151   2.291   5.116 -2.1457  0.4783  0.9068
 9471SOL     OW39874   4.723   1.888   9.977 -0.2291  0.1169 -0.6207
 9471SOL    HW139875   4.670   1.890  10.057  1.0793  0.6748  0.2475
 9471SOL    HW239876   4.676   1.954   9.926 -0.4681  1.0329  0.7772
 9472SOL     OW39877   1.858   2.978   5.298  0.5991  0.2600 -0.5663
 9472SOL    HW139878   1.868   2.917   5.371  1.5507  0.5255 -0.4703
 9472SOL    HW239879   1.787   2.942   5.245  0.1102  1.1845 -0.5482
 9473SOL     OW39880   3.576   1.758   5.717  0.3716 -0.5703  0.6021
 9473SOL    HW139881   3.591   1.851   5.731 -0.5343 -0.1907 -0.9958
 9473SOL    HW239882   3.534   1.749   5.631 -0.1582 -4.4233  1.2388
 9474SOL     OW39883   4.450   3.894   2.793  0.0930  0.1322 -0.4907
 9474SOL    HW139884   4.450   3.892   2.889 -0.2354 -0.4543 -0.5010
 9474SOL    HW239885   4.359   3.864   2.784  0.2765 -0.5202 -0.1809
 9475SOL     OW39886   0.146   0.094   9.348 -0.5151 -0.8330  0.5579
 9475SOL    HW139887   0.117   0.156   9.281 -3.7817 -0.2831  2.4735
 9475SOL    HW239888   0.186   0.147   9.417 -0.9318 -1.9389  1.6385
 9476SOL     OW39889   0.623   3.674   1.846 -0.0553  0.0397 -0.6468
 9476SOL    HW139890   0.675   3.606   1.888 -0.0280  0.6905  0.3935
 9476SOL    HW239891   0.616   3.731   1.923 -0.8847 -1.8829  0.6910
 9477SOL     OW39892   3.988   3.215  17.673 -0.6189  0.4935 -0.4963
 9477SOL    HW139893   3.997   3.142  17.612 -1.0512  0.0583 -0.0425
 9477SOL    HW239894   4.064   3.201   0.026 -0.7284  2.7159  0.1943
 9478SOL     OW39895   2.306   2.428   9.331  0.1391  0.2751  0.1650
 9478SOL    HW139896   2.301   2.503   9.391  0.6313  0.2259  0.2650
 9478SOL    HW239897   2.390   2.394   9.360  1.2242 -0.2164 -3.5599
 9479SOL     OW39898   0.765   1.597   5.606  0.3782  0.6165  0.2937
 9479SOL    HW139899   0.854   1.560   5.610  0.1786  0.0882 -0.1697
 9479SOL    HW239900   0.716   1.529   5.559  0.4799  0.6288  0.1703
 9480SOL     OW39901   1.782   0.667   6.884 -0.1397  0.1668 -0.2783
 9480SOL    HW139902   1.733   0.589   6.859  0.3525  0.3199 -1.7217
 9480SOL    HW239903   1.734   0.705   6.957 -1.7346 -3.2596  0.4621
 9481SOL     OW39904   1.710   2.121   4.425 -0.2550  0.3043 -0.2062
 9481SOL    HW139905   1.781   2.132   4.488 -0.1781 -0.5433 -0.1472
 9481SOL    HW239906   1.671   2.208   4.427 -1.9011 -0.3749 -2.3528
 9482SOL     OW39907   1.824   0.201  10.743 -0.6338  0.1475  0.5494
 9482SOL    HW139908   1.808   0.263  10.815  0.0552  2.1190 -0.9820
 9482SOL    HW239909   1.801   0.120  10.789  1.2182  0.2332  1.6194
 9483SOL     OW39910   1.109   1.095   2.622  0.0326  0.0918 -0.9359
 9483SOL    HW139911   1.059   1.101   2.704  0.7060 -1.8346 -0.3822
 9483SOL    HW239912   1.075   1.019   2.576 -0.5230 -0.9627  1.2033
 9484SOL     OW39913   2.216   0.146   8.538  0.2664 -0.2181  0.5053
 9484SOL    HW139914   2.209   0.239   8.560 -1.9439  0.0650 -1.4357
 9484SOL    HW239915   2.180   0.151   8.449  0.1154  1.0582  0.6406
 9485SOL     OW39916   3.692   4.104   3.978 -0.0163 -0.7349 -0.0519
 9485SOL    HW139917   3.645   4.127   4.058 -0.3792  1.5223 -0.8935
 9485SOL    HW239918   3.657   4.166   3.913  1.5682 -1.3912 -1.5243
 9486SOL     OW39919   0.281   0.827   0.954 -0.7449  0.0659 -0.5487
 9486SOL    HW139920   0.207   0.874   0.994 -1.0597 -1.5862  0.8247
 9486SOL    HW239921   0.303   0.764   1.023 -0.8209  1.3375  0.6359
 9487SOL     OW39922   1.458   1.288   6.377 -0.7763 -0.4809  0.4615
 9487SOL    HW139923   1.430   1.210   6.329 -0.7890  0.8992 -1.7779
 9487SOL    HW239924   1.402   1.283   6.455  0.6088 -0.5656  1.4364
 9488SOL     OW39925   2.337   2.459   2.238  0.7838  0.1293  0.0984
 9488SOL    HW139926   2.420   2.505   2.254  0.9227  0.2145 -0.8585
 9488SOL    HW239927   2.305   2.498   2.156 -0.2507  0.8071  0.8378
 9489SOL     OW39928   1.202   1.558   8.769 -0.0044  0.0192  0.1706
 9489SOL    HW139929   1.178   1.650   8.763 -2.2191 -0.5665 -0.0687
 9489SOL    HW239930   1.137   1.535   8.836  1.4273  1.5184  2.0970
 9490SOL     OW39931   0.582   4.310   6.015  0.1663 -0.5734 -0.1682
 9490SOL    HW139932   0.543   4.290   5.930 -2.1388  2.9825  0.0358
 9490SOL    HW239933   0.526   4.265   6.078 -0.2628 -1.6814 -1.3495
 9491SOL     OW39934   0.170   3.091   2.390  0.3782  0.2602 -0.2795
 9491SOL    HW139935   0.128   3.060   2.311 -2.2881  2.4568  0.2437
 9491SOL    HW239936   0.228   3.164   2.366  0.2951  0.5282  0.3242
 9492SOL     OW39937   0.788   0.001   7.731  0.6919 -0.3860 -0.5998
 9492SOL    HW139938   0.719   0.032   7.790 -0.9364 -1.1076 -2.1025
 9492SOL    HW239939   0.774   4.633   7.747 -4.1733  0.8762  2.7198
 9493SOL     OW39940   0.118   1.307  13.462 -0.1644 -0.2879  0.1635
 9493SOL    HW139941   0.161   1.272  13.384 -1.0098 -1.6079  0.2973
 9493SOL    HW239942   0.197   1.345  13.501  1.1899 -0.3856 -2.4852
 9494SOL     OW39943   3.904   0.523  15.903 -0.3675 -0.2465  0.1506
 9494SOL    HW139944   3.834   0.581  15.873 -0.4077  0.4061  1.5149
 9494SOL    HW239945   3.880   0.432  15.887  1.0697 -0.3874 -1.1629
 9495SOL     OW39946   2.239   0.123   6.969  0.1165 -0.2433 -0.6257
 9495SOL    HW139947   2.217   0.030   6.962 -1.0189  0.1235 -2.1284
 9495SOL    HW239948   2.322   0.119   6.921 -0.3074  0.8207 -1.4608
 9496SOL     OW39949   1.287   3.109   7.708  0.6266 -0.0591  0.2465
 9496SOL    HW139950   1.243   3.070   7.784  0.5715 -0.9325 -0.2263
 9496SOL    HW239951   1.221   3.085   7.643  3.2884 -1.8272 -1.7867
 9497SOL     OW39952   2.092   4.140   7.279  0.0804 -0.4591  0.1222
 9497SOL    HW139953   2.172   4.190   7.270 -0.0988 -1.2149 -5.4067
 9497SOL    HW239954   2.105   4.097   7.364  1.0334  0.5059  0.4570
 9498SOL     OW39955   3.615   0.856  17.216 -0.0832 -0.8052 -0.0103
 9498SOL    HW139956   3.689   0.857  17.277  0.0417 -0.9351 -0.1591
 9498SOL    HW239957   3.616   0.936  17.163 -0.9716 -0.3837  0.6233
 9499SOL     OW39958   1.377   1.468   4.649 -0.1392  0.2327 -0.3768
 9499SOL    HW139959   1.460   1.445   4.607 -0.0400  1.8372 -1.0647
 9499SOL    HW239960   1.367   1.406   4.721 -0.2553 -0.4013 -0.9387
 9500SOL     OW39961   3.895   3.352   1.793  0.0991  0.5257  0.3371
 9500SOL    HW139962   3.812   3.400   1.788 -0.9222 -1.4816 -2.4094
 9500SOL    HW239963   3.904   3.344   1.887 -0.4369 -0.4794  0.2916
 9501SOL     OW39964   4.395   2.897  11.216  0.1255  0.4669  0.1049
 9501SOL    HW139965   4.399   2.985  11.254 -0.0620  0.8815 -0.8428
 9501SOL    HW239966   4.482   2.866  11.242 -0.6969 -1.6512  0.3180
 9502SOL     OW39967   2.573   1.842  14.664 -0.2491  0.1369 -0.0378
 9502SOL    HW139968   2.519   1.767  14.638  0.6660 -0.3516 -0.5046
 9502SOL    HW239969   2.603   1.882  14.582  0.1351 -0.5472 -0.2259
 9503SOL     OW39970   2.424   1.632  14.920 -0.2322  0.5136  0.3270
 9503SOL    HW139971   2.381   1.618  14.836 -1.3325  2.6470  0.5500
 9503SOL    HW239972   2.347   1.630  14.976  1.0330  0.0778  2.0399
 9504SOL     OW39973   3.376   2.399   4.324 -0.1373  0.1938  0.2796
 9504SOL    HW139974   3.374   2.324   4.265 -1.4625  2.3990 -2.4914
 9504SOL    HW239975   3.306   2.453   4.287 -1.6983 -1.8456  0.2812
 9505SOL     OW39976   1.917   3.344  11.559  0.2893  0.0759 -0.3777
 9505SOL    HW139977   1.957   3.403  11.494  2.6084  2.5809  3.2910
 9505SOL    HW239978   1.830   3.338  11.520  0.2742 -0.2893 -0.2784
 9506SOL     OW39979   2.643   1.605  16.682  0.2026  0.0840 -0.3119
 9506SOL    HW139980   2.729   1.587  16.646 -0.8111 -2.8402 -1.2931
 9506SOL    HW239981   2.624   1.697  16.662  0.0297 -0.0660 -0.8373
 9507SOL     OW39982   1.900   0.427   7.154 -0.0463 -0.2316  0.9405
 9507SOL    HW139983   1.937   0.513   7.176 -0.8702  0.1862  0.7358
 9507SOL    HW239984   1.928   0.375   7.229  0.0937 -1.0619  0.3084
 9508SOL     OW39985   4.024   2.210  15.136  0.1033  0.2611 -0.4010
 9508SOL    HW139986   3.930   2.194  15.144  0.5219 -0.5881  2.5497
 9508SOL    HW239987   4.020   2.298  15.175  3.0348 -0.1141  0.6935
 9509SOL     OW39988   2.328   4.182   5.742  0.1365 -0.4934  0.0312
 9509SOL    HW139989   2.326   4.241   5.817  1.5433 -1.0419  0.4983
 9509SOL    HW239990   2.402   4.224   5.699 -1.1208  0.5837 -1.1010
 9510SOL     OW39991   1.450   2.810   8.128  0.3338 -0.1887 -0.2396
 9510SOL    HW139992   1.543   2.828   8.122  0.3421 -0.0154  0.4965
 9510SOL    HW239993   1.408   2.896   8.115 -0.9800 -0.5477  1.5817
 9511SOL     OW39994   1.002   0.936  10.365 -0.1294  0.2075  0.1996
 9511SOL    HW139995   1.019   0.866  10.428  0.4260 -0.5947 -0.8685
 9511SOL    HW239996   1.035   0.901  10.283  0.0957  2.2999 -0.6134
 9512SOL     OW39997   0.032   2.733   9.178 -0.5954  0.1360  0.2576
 9512SOL    HW139998   4.691   2.669   9.202 -0.8876  1.2724  2.4896
 9512SOL    HW239999   4.715   2.812   9.210 -0.5667  0.7586 -1.2969
 9513SOL     OW40000   4.139   0.262   2.594  0.1832  0.1059 -0.5006
 9513SOL    HW140001   4.102   0.332   2.540  1.9493 -0.3195 -2.2670
 9513SOL    HW240002   4.099   0.253   2.681  2.7935 -1.0432  0.5981
 9514SOL     OW40003   0.803   0.359  12.620 -0.2595 -0.2789  0.2416
 9514SOL    HW140004   0.712   0.358  12.651  0.1779  0.2622  1.5119
 9514SOL    HW240005   0.842   0.294  12.679  0.4543  0.3543  0.4703
 9515SOL     OW40006   0.547   2.996   7.558  0.3726 -0.8818 -0.2949
 9515SOL    HW140007   0.630   3.025   7.520  0.3561 -1.2925 -0.6406
 9515SOL    HW240008   0.536   2.908   7.521 -0.6616 -1.0720  0.4407
 9516SOL     OW40009   1.087   2.758   3.733  0.3845  0.4502 -0.3706
 9516SOL    HW140010   1.029   2.807   3.792  0.8932 -0.7333  1.1137
 9516SOL    HW240011   1.166   2.754   3.787  0.0866 -2.3820 -0.1830
 9517SOL     OW40012   4.656   0.970  10.424 -0.1539 -0.4709 -0.4179
 9517SOL    HW140013   4.670   1.030  10.497 -0.4531 -1.1909  0.2412
 9517SOL    HW240014   4.697   0.885  10.441  0.8460  0.0629 -0.2032
 9518SOL     OW40015   0.980   1.818   7.374 -0.1653  0.2802  0.3747
 9518SOL    HW140016   1.058   1.871   7.356  0.5344 -1.2965 -1.1768
 9518SOL    HW240017   0.988   1.733   7.332  1.8547  0.9871 -0.6815
 9519SOL     OW40018   3.064   0.171   4.147  0.0968 -0.5452  0.2914
 9519SOL    HW140019   3.125   0.243   4.128 -0.5141  0.1469  0.9393
 9519SOL    HW240020   3.012   0.205   4.220  0.5713 -0.5685  0.6420
 9520SOL     OW40021   3.479   0.135  15.248 -0.3065  0.2568  0.5851
 9520SOL    HW140022   3.515   0.052  15.219  1.1360  0.3161  2.1841
 9520SOL    HW240023   3.537   0.194  15.199 -1.1551  1.0382  0.5235
 9521SOL     OW40024   0.555   0.186  11.733  0.1811 -0.2452  0.4833
 9521SOL    HW140025   0.510   0.139  11.662  0.7904 -1.7526  1.0930
 9521SOL    HW240026   0.570   0.273  11.695 -2.0745  0.9877  2.4364
 9522SOL     OW40027   3.794   1.570   5.748  0.0451  0.1881  0.0393
 9522SOL    HW140028   3.708   1.610   5.741 -0.5202 -1.5121 -2.8934
 9522SOL    HW240029   3.855   1.634   5.709  0.6976  0.9111  2.2588
 9523SOL     OW40030   3.439   4.153   1.135  0.4268 -0.0993  0.1191
 9523SOL    HW140031   3.492   4.111   1.068 -0.5565 -0.8228 -0.2136
 9523SOL    HW240032   3.432   4.079   1.196 -1.0081 -1.3520 -1.5658
 9524SOL     OW40033   0.567   4.496  15.333 -0.1757 -0.4563 -0.2626
 9524SOL    HW140034   0.492   4.506  15.273  0.5828 -0.4288 -1.2034
 9524SOL    HW240035   0.517   4.468  15.409 -0.3477 -2.6619 -1.1831
 9525SOL     OW40036   0.236   2.645  17.023  0.1840  0.0372 -0.4000
 9525SOL    HW140037   0.259   2.620  16.934  0.5310  1.6909 -0.7767
 9525SOL    HW240038   0.162   2.585  17.037  0.2076  0.6629  2.3401
 9526SOL     OW40039   4.641   2.430   7.485 -0.5689  0.4439 -0.1496
 9526SOL    HW140040   4.572   2.444   7.420  0.3137 -0.3365 -1.2613
 9526SOL    HW240041   4.655   2.519   7.517  2.6580 -0.6379  1.4785
 9527SOL     OW40042   1.417   4.649   2.799  0.4370 -0.3206  0.5998
 9527SOL    HW140043   1.461   4.645   2.715 -0.7249 -3.5615  0.1461
 9527SOL    HW240044   1.486   4.667   2.863  0.8269 -3.4185  1.0776
 9528SOL     OW40045   0.700   3.594  16.023 -0.0261  0.1768 -0.1327
 9528SOL    HW140046   0.621   3.564  16.067  0.2323  0.4939  0.5435
 9528SOL    HW240047   0.706   3.677  16.071 -0.0468  0.2646 -0.2817
 9529SOL     OW40048   2.358   2.868   7.966  0.4013 -0.1178 -0.1800
 9529SOL    HW140049   2.313   2.926   7.904 -1.2665 -1.8294 -0.5736
 9529SOL    HW240050   2.429   2.831   7.914  0.4746 -0.1372 -0.0659
 9530SOL     OW40051   4.244   3.745  10.816  0.2699  0.1084  0.4219
 9530SOL    HW140052   4.289   3.695  10.885 -2.4041 -2.6071  0.2226
 9530SOL    HW240053   4.255   3.692  10.737 -3.5570 -1.3118  0.8223
 9531SOL     OW40054   1.402   3.923  16.397  0.9447  0.4462  0.4043
 9531SOL    HW140055   1.473   3.893  16.340  0.4048 -0.3649  0.1610
 9531SOL    HW240056   1.352   3.841  16.402  2.3858 -0.3590  1.5485
 9532SOL     OW40057   0.277   0.743   3.073  0.3950 -0.5948 -0.0375
 9532SOL    HW140058   0.341   0.687   3.029 -0.5036 -1.6494 -0.0166
 9532SOL    HW240059   0.223   0.775   3.001  2.9901  1.4592 -1.0583
 9533SOL     OW40060   0.533   3.339   6.210  0.1824  0.1247  0.2714
 9533SOL    HW140061   0.495   3.400   6.273  0.2330  1.1393 -0.6696
 9533SOL    HW240062   0.460   3.294   6.167  0.0148  1.3422 -0.7414
 9534SOL     OW40063   4.682   3.756   2.140 -0.0584 -0.0846 -0.7923
 9534SOL    HW140064   4.587   3.765   2.128 -0.2013  0.3188  0.6252
 9534SOL    HW240065   4.700   3.780   2.231  1.7229 -2.7629 -0.4599
 9535SOL     OW40066   2.494   0.039   4.917 -0.1914  0.2105 -0.0442
 9535SOL    HW140067   2.444   0.094   4.978 -1.5277  0.9261 -1.8028
 9535SOL    HW240068   2.469   4.677   4.946  0.9904 -0.3031 -0.5383
 9536SOL     OW40069   1.572   3.295   6.267  0.3222 -0.3888  0.2205
 9536SOL    HW140070   1.581   3.206   6.233  0.3666 -0.4984  0.5207
 9536SOL    HW240071   1.542   3.276   6.356 -1.9094  1.3381 -0.1774
 9537SOL     OW40072   2.571   1.002   0.599  0.3171 -0.5385 -0.2677
 9537SOL    HW140073   2.587   0.958   0.516  0.5557  0.5818 -0.8041
 9537SOL    HW240074   2.556   1.094   0.578  0.3756 -0.9619 -2.1085
 9538SOL     OW40075   4.265   1.971   7.015 -0.1248 -1.0585  0.7947
 9538SOL    HW140076   4.244   2.062   6.995  0.2413 -1.0494  0.4514
 9538SOL    HW240077   4.253   1.970   7.110  0.6584 -0.9451  0.8972
 9539SOL     OW40078   0.525   4.140   7.452 -0.1372  0.6724  0.4334
 9539SOL    HW140079   0.466   4.092   7.394 -1.1744 -1.6906  3.4429
 9539SOL    HW240080   0.487   4.228   7.452  0.7725  1.0539  1.6370
 9540SOL     OW40081   0.214   2.918   5.357  0.0457 -0.2892 -0.0858
 9540SOL    HW140082   0.290   2.959   5.398 -0.8210  1.4534 -0.1998
 9540SOL    HW240083   0.220   2.834   5.403 -1.2902  0.6842  1.8661
 9541SOL     OW40084   1.975   0.075   7.576 -0.4157  0.7241  0.0136
 9541SOL    HW140085   1.972   4.710   7.606 -1.1574  1.5280  2.3386
 9541SOL    HW240086   2.045   0.075   7.512 -1.0656  0.0825 -0.6957
 9542SOL     OW40087   4.232   3.011   9.540  0.4337 -0.9321 -0.1812
 9542SOL    HW140088   4.278   2.980   9.462  1.3123 -1.5965  0.6008
 9542SOL    HW240089   4.297   2.990   9.607 -1.3700  1.8881  2.4423
 9543SOL     OW40090   3.201   2.996   2.614 -0.2340  0.0363  0.2851
 9543SOL    HW140091   3.258   2.992   2.537 -0.1296 -1.1183  0.4291
 9543SOL    HW240092   3.117   2.978   2.573 -0.5704  0.5258  0.7634
 9544SOL     OW40093   4.389   2.162   1.992  0.0332 -0.2981 -1.5359
 9544SOL    HW140094   4.429   2.091   2.041  0.0770  0.6631 -0.1761
 9544SOL    HW240095   4.357   2.122   1.911  0.5032  2.0974 -2.8915
 9545SOL     OW40096   4.376   0.290   8.243 -0.1199  0.4448  0.1255
 9545SOL    HW140097   4.310   0.357   8.259  1.6386  1.7604  1.9798
 9545SOL    HW240098   4.445   0.343   8.202 -1.8728  2.2536 -0.4456
 9546SOL     OW40099   1.482   1.041   4.335 -0.4503  0.3060 -0.2656
 9546SOL    HW140100   1.405   1.014   4.286 -0.0605 -0.9722 -0.1841
 9546SOL    HW240101   1.539   1.052   4.259  1.0769 -0.4886  0.7631
 9547SOL     OW40102   0.574   0.134   7.841 -0.5752 -0.3443  0.3932
 9547SOL    HW140103   0.488   0.103   7.811 -1.2992  0.8539  1.2055
 9547SOL    HW240104   0.570   0.223   7.806 -0.4498 -0.6659 -0.4511
 9548SOL     OW40105   0.444   2.524   7.885 -0.2584 -0.2100  0.6006
 9548SOL    HW140106   0.506   2.475   7.939  0.8396  1.7803  1.1657
 9548SOL    HW240107   0.359   2.506   7.925 -0.8600 -1.4432 -1.2873
 9549SOL     OW40108   2.092   1.438  15.176 -0.3529 -0.3741  0.7954
 9549SOL    HW140109   2.053   1.355  15.149 -1.0374 -0.1894  1.2232
 9549SOL    HW240110   2.071   1.434  15.269  0.0688  0.4459  0.9217
 9550SOL     OW40111   3.785   0.760   6.736  0.5308  0.0771  0.2879
 9550SOL    HW140112   3.767   0.680   6.687 -0.0755  0.1481  0.3979
 9550SOL    HW240113   3.784   0.726   6.826  0.6926 -0.6665  0.0081
 9551SOL     OW40114   4.256   0.419   1.443 -0.4795 -0.8327  0.1530
 9551SOL    HW140115   4.221   0.330   1.444 -0.5865 -0.7865  0.5049
 9551SOL    HW240116   4.343   0.417   1.404  0.3581  1.0406  1.9263
 9552SOL     OW40117   1.200   0.160   6.724 -0.1973  0.5486 -0.1011
 9552SOL    HW140118   1.148   0.202   6.792 -1.4164 -4.2165  1.8968
 9552SOL    HW240119   1.147   0.081   6.710 -1.9559  2.0959 -2.1737
 9553SOL     OW40120   1.069   0.850   1.418 -0.6322  0.5805  0.3231
 9553SOL    HW140121   1.019   0.898   1.484 -0.6379  0.6102  0.2969
 9553SOL    HW240122   1.071   0.910   1.344  0.5833  2.1133  1.6235
 9554SOL     OW40123   4.120   0.317   7.841  0.1672 -0.0881 -0.2887
 9554SOL    HW140124   4.103   0.353   7.928 -0.6803 -2.7077  0.6203
 9554SOL    HW240125   4.039   0.342   7.797 -0.8697 -0.5715  1.3268
 9555SOL     OW40126   1.522   4.323   2.363  0.3629  0.2715 -0.1663
 9555SOL    HW140127   1.480   4.270   2.294  0.3635 -1.8538  1.4526
 9555SOL    HW240128   1.603   4.342   2.316  0.1658  0.2419 -0.5188
 9556SOL     OW40129   0.424   0.928   9.284  0.0336  0.0289  0.4610
 9556SOL    HW140130   0.338   0.889   9.299 -0.0628 -0.0498 -0.2654
 9556SOL    HW240131   0.407   1.019   9.262 -1.0844 -0.3727 -0.3327
 9557SOL     OW40132   3.488   0.219   0.633 -0.2037 -0.4066  0.3000
 9557SOL    HW140133   3.432   0.164   0.688 -1.7870 -0.7020 -1.6224
 9557SOL    HW240134   3.433   0.232   0.556 -2.5997  2.2531  2.4963
 9558SOL     OW40135   2.023   3.178   4.496 -0.7381  1.2797  0.5892
 9558SOL    HW140136   1.933   3.208   4.490 -1.3415 -0.6550 -0.1347
 9558SOL    HW240137   2.006   3.094   4.538  1.0692 -0.3331 -1.8857
 9559SOL     OW40138   1.082   3.962   2.608  0.2995 -0.3965  0.1393
 9559SOL    HW140139   1.107   3.968   2.516  1.2993 -0.6064  0.3980
 9559SOL    HW240140   1.038   3.877   2.613 -0.6759  0.1222  0.5238
 9560SOL     OW40141   4.235   1.290   8.292 -0.1445 -0.0640  0.2707
 9560SOL    HW140142   4.256   1.294   8.198 -2.2523 -1.0955 -0.2374
 9560SOL    HW240143   4.185   1.372   8.289 -1.3871 -0.9202 -2.3775
 9561SOL     OW40144   4.122   0.924  16.292 -0.1852  0.0631  0.4470
 9561SOL    HW140145   4.150   0.833  16.291  0.1079  0.1627 -0.1302
 9561SOL    HW240146   4.042   0.920  16.239  0.5125  1.6452 -0.7325
 9562SOL     OW40147   1.107   2.342   7.710  0.1225  0.4666  0.1947
 9562SOL    HW140148   1.087   2.319   7.620  1.2481  0.2769  0.0013
 9562SOL    HW240149   1.165   2.271   7.738 -1.3843 -1.0687 -0.5967
 9563SOL     OW40150   0.175   4.668   8.908  0.4263  0.1946  0.3542
 9563SOL    HW140151   0.109   4.719   8.956  1.5593  0.1184  2.0178
 9563SOL    HW240152   0.221   4.642   8.988 -0.6913  0.7112  1.1805
 9564SOL     OW40153   1.114   1.682  15.424 -0.4596 -0.1872 -0.8696
 9564SOL    HW140154   1.098   1.772  15.453  0.3916 -0.2216 -0.2851
 9564SOL    HW240155   1.189   1.701  15.368  1.7013 -2.5211  1.2748
 9565SOL     OW40156   2.551   4.457  15.448  0.0341  0.1220 -0.5280
 9565SOL    HW140157   2.460   4.434  15.431 -0.8432  3.1653  0.0491
 9565SOL    HW240158   2.547   4.507  15.530  0.2832  0.8697 -0.9736
 9566SOL     OW40159   3.750   1.780   3.291  0.1698 -0.2732 -0.2648
 9566SOL    HW140160   3.742   1.726   3.213  3.4122 -1.3614  0.1448
 9566SOL    HW240161   3.829   1.832   3.271  0.1316 -0.4584 -0.9085
 9567SOL     OW40162   3.406   2.674   3.023 -0.1656 -0.1320  0.4046
 9567SOL    HW140163   3.314   2.653   3.040 -0.3491  0.8334  0.5975
 9567SOL    HW240164   3.446   2.655   3.107  1.9068  1.8832 -0.1236
 9568SOL     OW40165   3.095   1.741   0.664 -0.0797  0.1836  0.6261
 9568SOL    HW140166   3.033   1.810   0.687 -1.5437 -0.7747 -0.4150
 9568SOL    HW240167   3.172   1.797   0.660  1.0363 -1.3698  0.2660
   4.72542   4.72542  17.70298
