Membrane in water
40167
    1TCq1    O1    1   0.015   3.888  11.820  0.2659 -0.1703 -0.6291
    1TCq1    C1    2   4.688   3.776  11.772 -0.4768  0.2528 -0.1199
    1TCq1    O2    3   4.578   3.753  11.726  0.5278  0.1791  0.8034
    1TCq1    C2    4   0.075   3.677  11.771 -0.8751 -0.3019  0.0487
    1TCq1    C3    5   0.175   3.692  11.864  0.0497 -0.0054  0.2840
    1TCq1    C4    6   0.262   3.586  11.882  0.0118  0.3638 -0.4891
    1TCq1    C5    7   0.241   3.467  11.813  0.6200  0.2712 -0.1156
    1TCq1    C6    8   0.142   3.462  11.728 -0.0313 -0.0081 -0.1944
    1TCq1    C7    9   0.064   3.568  11.694  0.3975  0.2864  0.3990
    1TCq1    C8   10   0.067   3.336  11.721  0.0045 -0.7642  0.0186
    1TCq1    O4   11   0.134   3.233  11.701 -0.5020 -0.3322  0.0232
    1TCq1    C9   12   0.348   3.588  12.005  0.1749  0.0669  0.4921
    1TCq1    O5   13   0.321   3.682  12.087  0.1733  0.5084  0.0069
    1TCq1    O6   14   0.451   3.513  12.006  0.5118 -0.0775 -0.1655
    1TCq1    H1   15   0.111   3.880  11.835 -0.2004 -3.2311  0.6020
    1TCq1    H2   16   0.181   3.774  11.935 -1.1774  0.7564 -0.4831
    1TCq1    H3   17   0.288   3.375  11.843 -2.0871 -0.9430  0.4145
    1TCq1    H4   18   4.701   3.557  11.625  1.1760  0.3481 -0.5608
    2MPD2     C   19   4.350   3.095  11.841 -0.3215  0.5601  0.3309
    2MPD2    C1   20   4.331   3.233  11.860 -0.1520 -0.2904  0.4177
    2MPD2    C2   21   4.435   3.315  11.826 -0.5747  1.4369 -0.4132
    2MPD2    C3   22   4.552   3.272  11.768  0.0289  0.0693 -1.5964
    2MPD2    C4   23   4.564   3.137  11.729  0.6527  0.1746  0.2966
    2MPD2    C5   24   4.462   3.053  11.774  0.0014  0.2508  0.1360
    2MPD2     H   25   4.447   3.415  11.865  2.5156  1.0616 -0.3875
    2MPD2    H1   26   4.651   3.101  11.675  0.1746 -1.9367  0.9122
    2MPD2    H2   27   4.282   3.017  11.873 -1.8226  1.6564 -0.1995
    2MPD2    H3   28   4.465   2.945  11.759  2.4326  0.2217  0.8435
    2MPD2     N   29   4.657   3.364  11.758 -0.3724  0.0240 -0.0771
    2MPD2    H5   30   4.638   3.460  11.784 -1.6213 -0.1969 -0.1436
    2MPD2    N1   31   4.217   3.288  11.922  0.0419 -0.9255 -0.1297
    2MPD2    H7   32   4.225   3.388  11.935  3.5157 -1.5910  2.9412
    3TCq1    O1   33   3.903   4.713  10.171  0.0563  0.5689  0.0123
    3TCq1    C1   34   3.794   0.069  10.156 -0.5509  0.8327  0.3132
    3TCq1    O2   35   3.675   0.027  10.160 -0.0417  0.4974  0.2073
    3TCq1    C2   36   3.835   0.210  10.166 -0.1853  0.3539  0.5138
    3TCq1    C3   37   3.949   0.258  10.109  0.1651  0.3035  0.3219
    3TCq1    C4   38   3.966   0.394  10.105  0.2306 -1.0372  1.0123
    3TCq1    C5   39   3.877   0.482  10.161  0.1602 -0.3614 -0.4987
    3TCq1    C6   40   3.768   0.432  10.232  0.3931  0.5717 -0.4078
    3TCq1    C7   41   3.746   0.296  10.226 -0.0869 -0.7912  0.2226
    3TCq1    C8   42   3.694   0.508  10.333  0.4454  0.0488  0.4183
    3TCq1    O4   43   3.754   0.608  10.369 -0.0083 -0.2752 -0.1929
    3TCq1    C9   44   4.073   0.447  10.029  0.0579  0.4359 -0.5569
    3TCq1    O5   45   4.149   0.375   9.960 -0.1254  0.5093 -0.2019
    3TCq1    O6   46   4.094   0.570  10.028 -0.6333  0.3365  0.3955
    3TCq1    H1   47   3.987   0.044  10.171  1.7524 -2.1996  0.0345
    3TCq1    H2   48   4.024   0.197  10.060 -1.4081 -0.4490 -1.1578
    3TCq1    H3   49   3.904   0.585  10.141  2.6930 -0.8850  0.2658
    3TCq1    H4   50   3.670   0.240  10.280 -0.1151 -0.5444  0.4406
    4MPD2     C   51   3.378   0.581  10.709  0.0532 -0.0333 -0.0098
    4MPD2    C1   52   3.461   0.667  10.641  0.0855  0.4324 -0.2161
    4MPD2    C2   53   3.524   0.628  10.529  0.4702  0.4560 -0.2513
    4MPD2    C3   54   3.504   0.497  10.483  0.2960  0.4168 -0.0552
    4MPD2    C4   55   3.418   0.411  10.550 -0.1432  0.5479 -0.6107
    4MPD2    C5   56   3.353   0.455  10.666 -0.3823 -0.0905 -0.1677
    4MPD2     H   57   3.576   0.705  10.474  2.1052 -1.5674 -1.5555
    4MPD2    H1   58   3.409   0.308  10.518 -1.2733  0.3543  0.3118
    4MPD2    H2   59   3.327   0.622  10.795 -0.8392 -0.6864 -0.2196
    4MPD2    H3   60   3.296   0.383  10.724  1.8096 -0.3966  1.5902
    4MPD2     N   61   3.573   0.450  10.372 -0.2386  0.2570 -0.4728
    4MPD2    H5   62   3.542   0.366  10.325  2.2320 -0.6460 -0.5148
    4MPD2    N1   63   3.452   0.798  10.693  0.8060  0.1431 -0.4690
    4MPD2    H7   64   3.397   0.827  10.773  2.1080 -0.6759  0.7243
    5TCq1    O1   65   0.328   1.729  12.011  0.1066  0.5476 -0.8365
    5TCq1    C1   66   0.285   1.765  11.887 -0.1647  0.0881 -0.0494
    5TCq1    O2   67   0.353   1.753  11.785 -0.1520  0.5313 -0.0414
    5TCq1    C2   68   0.145   1.814  11.887  0.3860  0.0699 -0.6790
    5TCq1    C3   69   0.085   1.895  11.984  0.1733  0.2812 -0.4243
    5TCq1    C4   70   4.696   1.969  11.944  0.1260  0.1665 -0.3008
    5TCq1    C5   71   4.648   1.963  11.815  0.1362  0.0006 -0.1065
    5TCq1    C6   72   4.708   1.871  11.731 -0.5237  0.3765  0.1337
    5TCq1    C7   73   0.092   1.795  11.766  0.1259 -0.0808 -0.4723
    5TCq1    C8   74   4.661   1.851  11.595  0.6397 -0.8571  0.8325
    5TCq1    O4   75   0.006   1.776  11.527  0.6044  0.3485  0.3677
    5TCq1    C9   76   4.634   2.052  12.046  0.1719 -0.0505  0.4344
    5TCq1    O5   77   4.538   2.121  12.003 -0.5964  0.0650  0.3137
    5TCq1    O6   78   4.685   2.053  12.162 -0.0177 -0.3728 -1.0362
    5TCq1    H1   79   0.257   1.751  12.074  1.6058  0.2742  0.9355
    5TCq1    H2   80   0.130   1.911  12.081  0.2643 -0.9868 -0.2546
    5TCq1    H3   81   4.564   2.028  11.793 -1.1304 -0.5831  3.1255
    5TCq1    H4   82   0.141   1.726  11.698 -0.0844 -0.1159 -0.5877
    6MPD2     C   83   4.447   2.081  11.393 -0.1930 -0.2066  0.3765
    6MPD2    C1   84   4.526   1.969  11.414 -0.5632 -0.1874  0.1386
    6MPD2    C2   85   4.556   1.893  11.303  0.3644 -0.2608  0.0761
    6MPD2    C3   86   4.511   1.920  11.171  0.0476 -0.0522 -0.4585
    6MPD2    C4   87   4.428   2.033  11.150 -0.1919 -0.4073  0.0181
    6MPD2    C5   88   4.402   2.110  11.262  0.3733  0.0852  0.5094
    6MPD2     H   89   4.617   1.803  11.316 -0.7466 -0.9861  0.2706
    6MPD2    H1   90   4.373   2.059  11.061  0.6239 -1.4880 -0.7978
    6MPD2    H2   91   4.410   2.140  11.477  0.1580  0.4258  0.0827
    6MPD2    H3   92   4.340   2.196  11.241 -0.3733 -0.5343  0.1834
    6MPD2     N   93   4.541   1.817  11.080  0.0142  0.1734  0.0035
    6MPD2    H5   94   4.603   1.742  11.109 -0.0383  0.5683  1.1115
    6MPD2    N1   95   4.568   1.949  11.551 -0.5166  0.0598 -0.1311
    6MPD2    H7   96   4.540   2.019  11.618 -1.9871 -0.1987 -0.4881
    7TCq1    O1   97   1.780   1.757  13.499  0.5197 -0.0208 -0.2620
    7TCq1    C1   98   1.652   1.744  13.513 -0.5517  0.1511  0.0373
    7TCq1    O2   99   1.564   1.788  13.439 -0.2425  0.1374  0.0550
    7TCq1    C2  100   1.640   1.614  13.579 -0.0283 -0.1545 -0.4786
    7TCq1    C3  101   1.516   1.583  13.618 -0.2217 -0.8048  0.9125
    7TCq1    C4  102   1.498   1.484  13.701  0.2271  0.1594  0.3691
    7TCq1    C5  103   1.600   1.397  13.732 -0.9141  0.2900 -0.6771
    7TCq1    C6  104   1.727   1.429  13.697 -0.0322  0.4147 -0.3962
    7TCq1    C7  105   1.750   1.537  13.616  0.5440 -0.0533  0.2719
    7TCq1    C8  106   1.823   1.326  13.716  0.5056 -0.0017 -1.0229
    7TCq1    O4  107   1.785   1.215  13.749  0.2066  0.3584  0.0044
    7TCq1    C9  108   1.368   1.455  13.754  0.3918 -0.2471 -0.3622
    7TCq1    O5  109   1.341   1.335  13.764 -0.8786 -0.0086  0.2097
    7TCq1    O6  110   1.319   1.550  13.821  0.4920 -0.1681  0.0837
    7TCq1    H1  111   1.832   1.750  13.582  0.7862  0.6596 -0.3705
    7TCq1    H2  112   1.429   1.647  13.615  0.8931  0.6358 -1.6559
    7TCq1    H3  113   1.574   1.312  13.794  1.1862  1.8886  2.3887
    7TCq1    H4  114   1.844   1.551  13.564  0.5003  1.6309  0.6662
    8MPD2     C  115   2.288   1.130  13.694 -0.1277  0.2439 -0.0477
    8MPD2    C1  116   2.170   1.063  13.683 -0.0937  0.1366  0.9686
    8MPD2    C2  117   2.059   1.146  13.692 -0.1900 -0.2783  0.1749
    8MPD2    C3  118   2.061   1.284  13.708  0.1563 -0.2220 -0.3619
    8MPD2    C4  119   2.182   1.349  13.712  0.2738 -0.7387 -0.1110
    8MPD2    C5  120   2.294   1.269  13.708  1.2443  0.5414  0.0058
    8MPD2     H  121   1.965   1.092  13.686  0.9272 -1.9030 -2.3257
    8MPD2    H1  122   2.174   1.457  13.715 -0.1719 -0.7174 -1.7482
    8MPD2    H2  123   2.378   1.071  13.686  0.6647  1.4897 -0.1817
    8MPD2    H3  124   2.388   1.322  13.721  3.2938 -3.1750  0.2671
    8MPD2     N  125   1.949   1.370  13.704 -0.1552 -0.8478  0.7345
    8MPD2    H5  126   1.963   1.470  13.704 -2.0577 -0.5850  2.4222
    8MPD2    N1  127   2.169   0.921  13.672  0.3059  0.1219 -0.2751
    8MPD2    H7  128   2.257   0.871  13.676 -0.4915 -1.1645  1.1143
    9TCq1    O1  129   4.102   0.596  11.324  0.0268 -0.2714  0.1636
    9TCq1    C1  130   4.071   0.592  11.192  1.2225 -0.1486 -0.5083
    9TCq1    O2  131   4.148   0.624  11.104 -0.1201  0.0175  0.2554
    9TCq1    C2  132   3.934   0.567  11.180  0.3017 -0.2299  1.2028
    9TCq1    C3  133   3.858   0.660  11.108 -0.1676  0.4743 -0.1166
    9TCq1    C4  134   3.721   0.648  11.129 -0.2585 -0.0221 -0.0543
    9TCq1    C5  135   3.663   0.553  11.203 -0.3502 -0.4557 -0.2233
    9TCq1    C6  136   3.748   0.475  11.279  0.1684  0.3800  0.1459
    9TCq1    C7  137   3.881   0.482  11.265 -0.0390  0.3699 -1.1471
    9TCq1    C8  138   3.675   0.412  11.391 -0.4141 -0.1028  0.0256
    9TCq1    O4  139   3.564   0.454  11.407  0.0788  0.2663  0.0091
    9TCq1    C9  140   3.637   0.744  11.053  0.3761  0.1975 -0.5917
    9TCq1    O5  141   3.692   0.826  10.976 -0.2471  0.1341 -0.3284
    9TCq1    O6  142   3.514   0.749  11.084  0.3070  0.0495 -0.1815
    9TCq1    H1  143   4.024   0.575  11.378 -2.5148  0.1877 -3.3208
    9TCq1    H2  144   3.904   0.735  11.046 -0.3795 -1.3329 -2.4351
    9TCq1    H3  145   3.556   0.541  11.202 -0.3700 -0.0586 -2.7878
    9TCq1    H4  146   3.950   0.413  11.313  1.3992  2.3276 -0.4067
   10MPD2     C  147   3.627   0.328  11.669  0.0128 -0.3544  0.5832
   10MPD2    C1  148   3.725   0.270  11.586  0.8604  0.1054 -0.8216
   10MPD2    C2  149   3.801   0.171  11.645  0.2987  0.1336  0.3760
   10MPD2    C3  150   3.766   0.119  11.772 -0.1096  0.2784  0.8629
   10MPD2    C4  151   3.658   0.171  11.835  0.3535  0.9049 -0.2338
   10MPD2    C5  152   3.585   0.277  11.789 -0.3090  0.0208 -0.1037
   10MPD2     H  153   3.874   0.119  11.584 -1.2752 -3.0663  1.1857
   10MPD2    H1  154   3.624   0.131  11.930  1.6511  1.8194  0.6169
   10MPD2    H2  155   3.569   0.413  11.633  0.7383  0.0324  0.3213
   10MPD2    H3  156   3.509   0.316  11.856  0.1580 -0.4281  0.6906
   10MPD2     N  157   3.836   0.013  11.834 -0.4704  0.1950  0.2307
   10MPD2    H5  158   3.791   4.707  11.921  2.4233  1.7169  2.1871
   10MPD2    N1  159   3.753   0.318  11.458 -0.6418  0.3628  0.1515
   10MPD2    H7  160   3.830   0.283  11.402  0.2780  0.6399  1.2378
   11TCq1    O1  161   1.203   4.521  14.209 -0.6689  0.0684  0.2664
   11TCq1    C1  162   1.084   4.457  14.202 -0.7369  0.6487 -0.3953
   11TCq1    O2  163   1.043   4.384  14.110  0.0718  0.2868  0.5683
   11TCq1    C2  164   1.024   4.456  14.332  0.6992  0.3742  0.0441
   11TCq1    C3  165   1.048   4.552  14.426 -0.0056  0.0038 -0.2413
   11TCq1    C4  166   0.969   4.566  14.544 -0.0477 -0.1888  0.5379
   11TCq1    C5  167   0.865   4.482  14.569 -0.0287 -0.9736 -0.1400
   11TCq1    C6  168   0.836   4.389  14.474  0.2103  0.9637 -0.4379
   11TCq1    C7  169   0.909   4.380  14.354  0.0366 -0.0601 -0.2938
   11TCq1    C8  170   0.702   4.341  14.477  0.7296  0.1043 -0.1939
   11TCq1    O4  171   0.637   4.356  14.576 -0.4520  0.3253  0.1634
   11TCq1    C9  172   0.993   4.682  14.628 -0.1626  0.3742 -0.3083
   11TCq1    O5  173   0.933   4.694  14.738  0.2101  0.7128  0.0977
   11TCq1    O6  174   1.107   0.015  14.603 -0.1930 -0.3963  0.2349
   11TCq1    H1  175   1.226   4.591  14.274 -0.9107  0.2937  0.1106
   11TCq1    H2  176   1.129   4.621  14.406 -0.2545  0.5192  0.4873
   11TCq1    H3  177   0.804   4.503  14.656 -0.2205 -0.1271 -0.4751
   11TCq1    H4  178   0.892   4.311  14.271  3.9397 -0.8624 -0.4267
   12MPD2     C  179   0.445   4.205  14.408 -0.5971 -0.2969  0.0647
   12MPD2    C1  180   0.564   4.165  14.360 -0.0845 -0.0201  0.6944
   12MPD2    C2  181   0.554   4.069  14.262 -0.1432  0.2361  0.3295
   12MPD2    C3  182   0.425   4.003  14.229 -0.0918 -0.1433  0.0338
   12MPD2    C4  183   0.316   4.042  14.294  1.0587  0.0575  0.5878
   12MPD2    C5  184   0.332   4.144  14.379  0.8300  0.4355  0.3982
   12MPD2     H  185   0.639   4.047  14.197  0.9048  0.4518  1.6262
   12MPD2    H1  186   0.221   3.993  14.278  1.3482 -0.7177  1.2043
   12MPD2    H2  187   0.441   4.300  14.461 -0.2008  0.4248 -1.1977
   12MPD2    H3  188   0.245   4.185  14.429  0.1194  1.6156 -1.8296
   12MPD2     N  189   0.427   3.903  14.122 -0.0504 -0.6480  0.9617
   12MPD2    H5  190   0.515   3.863  14.092  0.8712  1.7931  0.3570
   12MPD2    N1  191   0.687   4.235  14.389 -0.1369  0.5757  0.1906
   12MPD2    H7  192   0.775   4.200  14.354 -0.0351  0.9105  0.1130
   13TCq1    O1  193   4.403   3.589  12.101  0.4305  0.2806 -0.6287
   13TCq1    C1  194   4.332   3.643  12.005  0.9800 -0.6612  0.1332
   13TCq1    O2  195   4.298   3.593  11.896 -0.2968  0.2674  0.0215
   13TCq1    C2  196   4.369   3.785  12.007 -1.1870  0.1704  0.4096
   13TCq1    C3  197   4.488   3.819  12.068 -0.2077  0.1423 -0.4290
   13TCq1    C4  198   4.516   3.955  12.063  0.4278  0.4843 -0.4816
   13TCq1    C5  199   4.429   4.050  12.011 -0.1664  0.8943 -0.5740
   13TCq1    C6  200   4.308   4.003  11.962  0.1465  0.5905 -0.1350
   13TCq1    C7  201   4.275   3.873  11.963 -0.1343  0.4030 -0.4520
   13TCq1    C8  202   4.229   4.094  11.886  0.2389 -0.7505  0.3378
   13TCq1    O4  203   4.107   4.084  11.874 -0.1110 -0.6394 -0.2272
   13TCq1    C9  204   4.647   4.002  12.093  0.6232 -0.0447 -0.3339
   13TCq1    O5  205   0.006   3.916  12.144 -0.8881  0.1579 -0.4764
   13TCq1    O6  206   4.672   4.121  12.095 -0.2332 -0.1936 -0.1769
   13TCq1    H1  207   4.412   3.651  12.176  0.1597 -1.1689  0.6115
   13TCq1    H2  208   4.554   3.744  12.110 -2.0193 -0.3245  1.5640
   13TCq1    H3  209   4.445   4.157  12.012  1.0289  0.7287 -1.6843
   13TCq1    H4  210   4.179   3.851  11.917  0.1854  1.0150 -1.4281
   14MPD2     C  211   4.360   4.314  11.619 -0.3951  0.1206  0.0265
   14MPD2    C1  212   4.266   4.247  11.696  0.3327  0.6139 -0.1186
   14MPD2    C2  213   4.137   4.282  11.671 -1.5587  0.0221 -0.0560
   14MPD2    C3  214   4.102   4.377  11.577  0.0555  0.1321 -0.9880
   14MPD2    C4  215   4.200   4.442  11.509 -1.1478  0.4244  0.4272
   14MPD2    C5  216   4.333   4.407  11.522  0.2964 -0.5786 -0.6674
   14MPD2     H  217   4.056   4.238  11.727 -0.9894 -1.4236 -0.3739
   14MPD2    H1  218   4.182   4.522  11.438  1.7998  0.1080 -0.6603
   14MPD2    H2  219   4.465   4.289  11.628 -0.6155 -0.1539  1.7126
   14MPD2    H3  220   4.415   4.463  11.478  0.2908  0.8838  1.1786
   14MPD2     N  221   3.964   4.410  11.561  0.0752  0.1272  0.4539
   14MPD2    H5  222   3.886   4.367  11.609  0.2978 -0.9074 -0.1234
   14MPD2    N1  223   4.308   4.161  11.797 -0.2837  0.4435 -0.2355
   14MPD2    H7  224   4.408   4.143  11.790 -0.5175 -0.8205 -0.1846
   15TCq1    O1  225   0.790   3.987   1.881  0.1270  0.6896 -0.1102
   15TCq1    C1  226   0.766   3.894   1.785 -0.0742 -0.1220  0.3571
   15TCq1    O2  227   0.695   3.915   1.687 -0.2647  0.2361  0.0604
   15TCq1    C2  228   0.898   3.825   1.778  0.2494  0.9981 -0.3731
   15TCq1    C3  229   0.954   3.778   1.893 -0.0646 -0.4906 -0.3480
   15TCq1    C4  230   1.056   3.684   1.887  1.0668  0.4100 -1.1090
   15TCq1    C5  231   1.090   3.647   1.762 -0.6829 -0.2679  0.4785
   15TCq1    C6  232   1.037   3.697   1.644  0.1826  0.8237 -0.7063
   15TCq1    C7  233   0.932   3.792   1.656 -0.2553  0.4745  0.1727
   15TCq1    C8  234   1.083   3.641   1.515 -0.0028  0.0107  0.5916
   15TCq1    O4  235   1.162   3.547   1.519 -0.6847 -0.1631  0.1585
   15TCq1    C9  236   1.117   3.633   2.008 -0.1186  1.0401 -0.6017
   15TCq1    O5  237   1.223   3.560   1.997 -0.1874  0.5761 -0.1910
   15TCq1    O6  238   1.062   3.678   2.111 -0.4322 -0.0819  0.3436
   15TCq1    H1  239   0.882   3.987   1.915  0.4485  0.4594 -0.9801
   15TCq1    H2  240   0.917   3.809   1.990 -1.5953 -1.4099 -0.6347
   15TCq1    H3  241   1.171   3.575   1.764  0.9349  1.5243 -0.1123
   15TCq1    H4  242   0.888   3.836   1.567  0.3696 -2.4384 -1.6024
   16MPD2     C  243   1.041   3.771   1.171  0.5067 -0.1229 -0.0956
   16MPD2    C1  244   1.084   3.685   1.277  0.4939  0.4967 -0.0016
   16MPD2    C2  245   1.188   3.595   1.240  0.2741  0.3065 -0.3166
   16MPD2    C3  246   1.231   3.582   1.107 -0.6932  0.0508  0.2482
   16MPD2    C4  247   1.178   3.667   1.012  0.0450 -0.3040  1.3539
   16MPD2    C5  248   1.081   3.754   1.042  0.0484  0.2959 -0.2401
   16MPD2     H  249   1.239   3.530   1.311 -0.3629 -0.8193 -0.8807
   16MPD2    H1  250   1.210   3.685   0.911 -1.8164 -4.1785  0.0463
   16MPD2    H2  251   0.965   3.845   1.192 -1.5094 -2.4533  0.7658
   16MPD2    H3  252   1.051   3.815   0.958 -2.5173 -2.1824 -1.1008
   16MPD2     N  253   1.336   3.498   1.085  0.8742 -0.1959  0.7090
   16MPD2    H5  254   1.386   3.465   1.167  0.6692  1.2654  1.4300
   16MPD2    N1  255   1.040   3.708   1.409  0.1546  0.1312  0.0490
   16MPD2    H7  256   0.977   3.787   1.422  1.5248  0.6718  3.1428
   17TCq1    O1  257   4.094   0.248  11.439 -0.4421 -0.1893  0.2710
   17TCq1    C1  258   4.052   0.161  11.341 -0.8208 -0.7448 -0.1729
   17TCq1    O2  259   3.936   0.161  11.301  0.1794 -0.0792  0.1255
   17TCq1    C2  260   4.157   0.128  11.241 -0.0545  0.0441 -0.0232
   17TCq1    C3  261   4.136   0.019  11.162 -0.2652  0.8721  0.0677
   17TCq1    C4  262   4.218   0.011  11.058 -0.5480  0.7686 -0.1009
   17TCq1    C5  263   4.323   0.095  11.038 -0.4942 -0.2295 -0.2197
   17TCq1    C6  264   4.343   0.193  11.131 -0.1506  0.0248  0.7356
   17TCq1    C7  265   4.262   0.208  11.239  0.8146  0.0306  0.1784
   17TCq1    C8  266   4.463   0.272  11.126 -0.9667 -0.3845  0.5431
   17TCq1    O4  267   4.461   0.367  11.202 -0.0122  0.4946  0.1806
   17TCq1    C9  268   4.190   4.621  10.971 -0.0028  0.2906 -0.3531
   17TCq1    O5  269   4.261   4.612  10.867 -0.1088  0.4321 -0.2854
   17TCq1    O6  270   4.100   4.540  11.014  0.0893  0.2438 -0.3115
   17TCq1    H1  271   4.177   0.216  11.481  0.2554  0.2464 -0.7711
   17TCq1    H2  272   4.046   4.681  11.172  0.7830 -0.9176 -1.1656
   17TCq1    H3  273   4.374   0.100  10.943 -0.2867 -1.2909 -0.1654
   17TCq1    H4  274   4.276   0.285  11.314 -3.2262 -0.1960  1.1377
   18MPD2     C  275   0.014   0.382  11.110 -0.2681  0.1287  0.2479
   18MPD2    C1  276   4.697   0.259  11.047 -0.2449  0.2617 -0.3772
   18MPD2    C2  277   0.072   0.174  10.998  0.3378  0.2883 -0.2498
   18MPD2    C3  278   0.206   0.220  11.007  0.2368  0.0227  0.0948
   18MPD2    C4  279   0.246   0.336  11.061 -0.3666  0.5862 -0.7311
   18MPD2    C5  280   0.150   0.421  11.119 -0.0248  0.2030  0.7726
   18MPD2     H  281   0.050   0.078  10.954 -1.1606  0.9979 -1.0303
   18MPD2    H1  282   0.351   0.363  11.061 -0.1990 -0.0617 -0.2191
   18MPD2    H2  283   4.667   0.454  11.154 -1.1399 -0.0462 -0.7961
   18MPD2    H3  284   0.178   0.516  11.164 -0.1391  0.9738 -0.7804
   18MPD2     N  285   0.314   0.138  10.962  0.7885  0.0142 -0.8550
   18MPD2    H5  286   0.411   0.167  10.970  0.8531 -0.2848 -0.5274
   18MPD2    N1  287   4.564   0.220  11.046 -0.6058  0.1011 -0.0141
   18MPD2    H7  288   4.553   0.132  10.997  0.6877  0.2698 -0.6169
   19TMC2    C1  289   1.804   4.278  13.916 -0.5311 -0.0823 -0.2645
   19TMC2    C2  290   1.735   4.368  13.839  0.6304  0.7958 -0.3525
   19TMC2    C3  291   1.614   4.330  13.786 -0.3891 -0.2296  0.2450
   19TMC2    C4  292   1.750   4.151  13.948  0.1085 -0.3939  0.3078
   19TMC2    C5  293   1.624   4.127  13.912  0.5382  0.5408 -0.0554
   19TMC2    C6  294   1.552   4.212  13.826 -0.1836 -0.3481 -0.0813
   19TMC2     C  295   1.947   4.299  13.924 -0.8283  0.0670 -0.3180
   19TMC2     O  296   2.001   4.351  13.825  0.0632  0.3955 -0.3917
   19TMC2     H  297   1.785   4.463  13.825  0.6114  1.0234  1.0671
   19TMC2    H1  298   1.809   4.071  13.993 -0.6840 -0.2540  1.6011
   19TMC2    H2  299   1.455   4.191  13.782  0.2704 -0.3586 -1.0933
   19TMC2    C7  300   1.560   4.018  13.983  0.4146 -1.0281  0.1547
   19TMC2    C8  301   1.562   4.397  13.674 -0.2507  0.4902  0.6818
   19TMC2    O1  302   1.631   3.951  14.059 -0.0040 -0.2812 -0.2302
   19TMC2    O2  303   1.503   4.336  13.583  0.0014 -0.7117 -0.8216
   19TMC2    O5  304   1.649   4.500  13.646  0.3556  0.2918 -0.1894
   19TMC2    H5  305   1.643   4.568  13.717  0.1169  1.7270 -1.5579
   20MPD2     C  306   2.237   4.305  13.976 -0.8072  0.2436 -0.0063
   20MPD2    C1  307   2.147   4.219  14.045  0.0156  0.1497 -0.4482
   20MPD2    C2  308   2.186   4.110  14.121 -0.4664 -0.3965  0.2929
   20MPD2    C3  309   2.317   4.079  14.132  0.3578  0.2860 -0.5029
   20MPD2    C4  310   2.405   4.159  14.055 -0.1493  0.4318  0.0679
   20MPD2    C5  311   2.365   4.266  13.989  0.2876  0.0199  0.6470
   20MPD2     H  312   2.118   4.046  14.176 -0.7993  0.1871  0.5619
   20MPD2    H1  313   2.508   4.127  14.059 -0.1140  0.3571 -1.4828
   20MPD2    H2  314   2.197   4.387  13.918 -1.2061  1.6370  2.2358
   20MPD2    H3  315   2.441   4.331  13.950 -0.7596  0.5312 -0.5322
   20MPD2     N  316   2.372   3.976  14.205 -0.0796 -0.3277 -0.2280
   20MPD2    H5  317   2.473   3.968  14.198 -0.0340 -0.0779  0.1462
   20MPD2    N1  318   2.004   4.234  14.028 -0.0905  0.3280 -0.8489
   20MPD2    H7  319   1.937   4.193  14.092 -0.9840  0.8766 -1.4365
   21MPD2     C  320   3.902   4.517  14.124 -0.5724 -0.5593 -0.0909
   21MPD2    C1  321   4.025   4.465  14.169 -0.5068  0.3812 -0.3286
   21MPD2    C2  322   4.081   4.520  14.285 -0.1547 -0.2361  0.6653
   21MPD2    C3  323   4.026   4.617  14.358  0.2827  0.3588 -0.1632
   21MPD2    C4  324   3.904   4.670  14.308 -0.1454 -0.3785 -0.7603
   21MPD2    C5  325   3.855   4.626  14.187 -0.0642 -0.3921 -0.0131
   21MPD2     H  326   4.184   4.495  14.309 -0.5816 -0.1394  2.5610
   21MPD2    H1  327   3.865   0.038  14.355 -1.0747 -0.6932 -0.9441
   21MPD2    H2  328   3.855   4.483  14.032 -1.4232  0.4676 -0.0296
   21MPD2    H3  329   3.771   4.676  14.140 -0.5639 -1.5711 -0.3776
   21MPD2     N  330   4.084   4.684  14.467 -0.4133 -0.0576 -0.0585
   21MPD2    H5  331   4.020   0.023  14.518  0.7576 -0.3610  1.8043
   21MPD2    N1  332   4.092   4.354  14.113  0.6704  0.3160 -0.1807
   21MPD2    H7  333   4.183   4.331  14.151  1.2940 -1.3535 -2.6543
   22TCq2    C1  334   4.207   4.654  14.525 -0.3483 -0.0650  0.6825
   22TCq2    O2  335   4.294   4.573  14.486  0.2455  0.2980 -0.0525
   22TCq2    C2  336   4.237   4.708  14.648 -0.2920 -0.5594 -0.1697
   22TCq2    C3  337   4.300   4.628  14.736 -0.0688 -1.0602  0.1800
   22TCq2    C4  338   4.279   4.639  14.875 -0.3258 -0.0172  0.3338
   22TCq2    C5  339   4.204   0.017  14.928  0.3024 -0.4373 -0.1412
   22TCq2    C6  340   4.139   0.094  14.839 -0.1126 -0.2319 -0.5898
   22TCq2    C7  341   4.146   0.076  14.702 -0.3913  0.1059  0.1457
   22TCq2    C8  342   4.055   0.194  14.907 -0.1664  0.3840 -0.8326
   22TCq2    O4  343   4.073   0.224  15.024  0.6728 -0.5477 -0.4151
   22TCq2    C9  344   4.342   4.547  14.962 -0.1740 -0.0624  0.3683
   22TCq2    O5  345   4.296   4.545  15.077  0.2585 -0.2940 -0.0036
   22TCq2    O6  346   4.408   4.456  14.905 -0.0561 -0.0703  0.4107
   22TCq2    H2  347   4.375   4.553  14.712  0.4509 -1.2461  2.3456
   22TCq2    H3  348   4.212   0.044  15.033 -0.8920 -0.2690 -0.0851
   22TCq2    H4  349   4.097   0.150  14.641 -2.4725 -0.7837  0.7510
   23MPD2     C  350   0.894   0.722  14.445 -0.1134  0.3340 -0.5565
   23MPD2    C1  351   0.806   0.796  14.514  0.7495 -0.3562  0.0424
   23MPD2    C2  352   0.732   0.890  14.445 -0.6919  0.1455 -0.4219
   23MPD2    C3  353   0.748   0.910  14.306  0.0097 -0.6866 -0.2820
   23MPD2    C4  354   0.839   0.834  14.240  0.0312  0.3551 -0.0572
   23MPD2    C5  355   0.909   0.741  14.312  0.0853 -0.6376  0.3655
   23MPD2     H  356   0.664   0.952  14.503 -0.6431 -0.3500  0.1573
   23MPD2    H1  357   0.860   0.841  14.133 -1.6259  2.9775 -0.1949
   23MPD2    H2  358   0.962   0.650  14.488 -0.3142 -0.7250 -2.0126
   23MPD2    H3  359   0.975   0.669  14.264  1.0228  0.4675  0.0201
   23MPD2     N  360   0.696   1.019  14.234  0.0830 -0.2534 -0.2705
   23MPD2    H5  361   0.707   1.026  14.134  1.0386 -0.0718 -0.1623
   23MPD2    N1  362   0.774   0.771  14.646 -1.0401 -0.4673  0.2575
   23MPD2    H7  363   0.735   0.849  14.698  1.3658  0.0877  1.2247
   24TCq2    C1  364   0.627   1.124  14.295 -0.1290 -0.3773  0.2941
   24TCq2    O2  365   0.600   1.160  14.408 -0.4169  0.0395  0.4807
   24TCq2    C2  366   0.552   1.195  14.185  0.3969 -0.6212 -0.6413
   24TCq2    C3  367   0.521   1.329  14.196 -0.4997 -0.7477  0.7727
   24TCq2    C4  368   0.411   1.381  14.125  0.3175  0.8889  0.4188
   24TCq2    C5  369   0.340   1.298  14.040  0.2847 -0.3774 -0.0126
   24TCq2    C6  370   0.360   1.158  14.039 -0.1241  0.6161 -0.6021
   24TCq2    C7  371   0.467   1.106  14.115  0.3671  0.3140 -0.4849
   24TCq2    C8  372   0.256   1.064  13.995  0.0286  0.1611  0.2965
   24TCq2    O4  373   0.280   0.946  14.012  0.0937  0.0839 -0.1165
   24TCq2    C9  374   0.348   1.499  14.171  0.5581  0.6231 -0.2143
   24TCq2    O5  375   0.345   1.522  14.292  0.6398  0.0699 -0.7901
   24TCq2    O6  376   0.274   1.557  14.083  0.6024  0.7763  0.2379
   24TCq2    H2  377   0.567   1.390  14.273  0.2969  1.7567 -1.7037
   24TCq2    H3  378   0.255   1.353  14.001 -0.1800 -1.4396 -0.5057
   24TCq2    H4  379   0.478   0.998  14.116 -0.5082  0.2195 -0.7376
   25TMC2    C1  380   3.178   3.148  11.609 -0.0394  0.3961  0.3231
   25TMC2    C2  381   3.208   3.015  11.596  0.5745 -0.5848  1.1359
   25TMC2    C3  382   3.190   2.932  11.704 -0.2716  0.0780 -0.1875
   25TMC2    C4  383   3.125   3.198  11.725  0.1265 -0.1770  0.1022
   25TMC2    C5  384   3.106   3.118  11.833  0.1103 -0.0091 -0.2500
   25TMC2    C6  385   3.139   2.986  11.822  1.0196 -1.0005 -0.2325
   25TMC2     C  386   3.201   3.239  11.496 -0.1940  0.5091 -0.5598
   25TMC2     O  387   3.180   3.360  11.514  0.2392  0.2292  0.0801
   25TMC2     H  388   3.229   2.967  11.501  0.3034  1.4729  0.0356
   25TMC2    H1  389   3.103   3.304  11.726 -0.0088 -0.2111  0.8862
   25TMC2    H2  390   3.109   2.921  11.903 -1.3370 -1.2268 -1.2762
   25TMC2    C7  391   3.123   3.174  11.963  0.1752 -0.5680 -0.0227
   25TMC2    C8  392   3.224   2.796  11.691  0.1652 -0.3263  0.1525
   25TMC2    O1  393   3.120   3.089  12.053 -0.1035 -0.2278 -0.1206
   25TMC2    O2  394   3.223   2.737  11.585 -0.4511 -0.8906 -0.3303
   25TMC2    O5  395   3.278   2.748  11.807  0.2052 -0.8703  0.0540
   25TMC2    H5  396   3.283   2.820  11.874 -2.9243 -1.7391  1.2459
   26MPD2     C  397   3.215   3.285  10.990  0.1363 -0.5584  0.4403
   26MPD2    C1  398   3.254   3.159  11.019 -0.4595  0.0522  0.7358
   26MPD2    C2  399   3.258   3.121  11.149  0.5133  0.2427 -0.0252
   26MPD2    C3  400   3.234   3.210  11.254 -0.1810  0.5790  1.0498
   26MPD2    C4  401   3.194   3.333  11.224  0.2898  0.9658  0.0915
   26MPD2    C5  402   3.181   3.371  11.095 -0.8644 -0.0985 -0.9168
   26MPD2     H  403   3.292   3.022  11.177  0.5945  0.5196  0.8681
   26MPD2    H1  404   3.172   3.407  11.301  0.3334  1.3011 -0.2181
   26MPD2    H2  405   3.216   3.330  10.892  4.4345  0.3207  0.9064
   26MPD2    H3  406   3.153   3.473  11.072  0.5741  0.6369  0.6186
   26MPD2     N  407   3.239   3.169  11.387 -0.4864 -0.3073  0.5793
   26MPD2    H5  408   3.268   3.072  11.399 -1.2789 -0.6663 -0.4668
   26MPD2    N1  409   3.290   3.064  10.916 -0.2346 -0.3083 -0.3315
   26MPD2    H7  410   3.316   3.100  10.825 -1.1783  3.2527  0.8072
   27TMC2    C1  411   2.168   0.045  12.205  0.2746  0.3938 -0.0713
   27TMC2    C2  412   2.129   4.695  12.092 -0.0387  0.6799 -1.0156
   27TMC2    C3  413   2.096   0.046  11.987 -0.9731  0.4272 -0.6564
   27TMC2    C4  414   2.177   0.183  12.203  0.1513 -0.3319  0.5737
   27TMC2    C5  415   2.147   0.243  12.088  0.2505  0.2811 -0.1293
   27TMC2    C6  416   2.101   0.179  11.980  0.0072 -0.2337 -0.8383
   27TMC2     C  417   2.215   4.690  12.317 -0.4378 -0.7541 -0.2452
   27TMC2     O  418   2.251   4.577  12.306 -0.3964  0.3484  0.0661
   27TMC2     H  419   2.131   4.587  12.099  0.0926  0.4959 -3.9323
   27TMC2    H1  420   2.234   0.229  12.283  0.3312 -1.1717  0.9226
   27TMC2    H2  421   2.086   0.234  11.888 -0.3907  0.7613 -0.1709
   27TMC2    C7  422   2.162   0.392  12.081 -0.6960  0.2929 -0.3833
   27TMC2    C8  423   2.053   4.687  11.865 -0.6040  0.4202 -0.4713
   27TMC2    O1  424   2.137   0.436  11.969  0.0046 -0.6300  0.0569
   27TMC2    O2  425   2.144   4.636  11.805 -0.4719 -0.6435 -0.2478
   27TMC2    O5  426   1.970   0.059  11.814 -0.2627  0.3558  0.1428
   27TMC2    H5  427   1.925   0.122  11.875 -1.5977  0.4646 -0.9473
   28MPD2     C  428   2.279   4.658  12.815 -0.1051 -0.4926 -0.4988
   28MPD2    C1  429   2.213   0.052  12.788  0.3028  0.8546  0.2837
   28MPD2    C2  430   2.191   0.091  12.659  0.6344  0.7480 -0.6654
   28MPD2    C3  431   2.221   0.000  12.555  0.1128  0.0844  1.2811
   28MPD2    C4  432   2.307   4.614  12.581  0.2747 -0.4910 -0.5002
   28MPD2    C5  433   2.329   4.585  12.711  0.0402 -0.7557  0.2997
   28MPD2     H  434   2.140   0.184  12.634 -2.9952 -0.3964  2.4794
   28MPD2    H1  435   2.348   4.557  12.498 -1.3773  1.0886 -2.3955
   28MPD2    H2  436   2.290   4.623  12.917 -2.0926 -0.6976 -0.3590
   28MPD2    H3  437   2.392   4.500  12.732 -0.1046 -1.4237 -2.0085
   28MPD2     N  438   2.190   0.042  12.427  0.3626  0.3211 -0.1228
   28MPD2    H5  439   2.121   0.115  12.414 -0.5754 -0.7481 -1.1777
   28MPD2    N1  440   2.172   0.134  12.899 -0.5569 -0.3974 -0.1375
   28MPD2    H7  441   2.210   0.111  12.990  2.2326  0.3220 -1.1154
   29MPD2     C  442   2.177   2.676  14.193 -0.2006 -0.0095 -0.9560
   29MPD2    C1  443   2.295   2.643  14.262 -0.4864  0.2242  0.3485
   29MPD2    C2  444   2.342   2.729  14.361 -0.2694 -0.0549  0.9630
   29MPD2    C3  445   2.283   2.853  14.378  0.2561  0.3946 -0.6466
   29MPD2    C4  446   2.182   2.890  14.285  0.2092 -0.7090  0.4563
   29MPD2    C5  447   2.125   2.803  14.205  0.1916 -0.1770  0.3257
   29MPD2     H  448   2.432   2.718  14.421 -1.4621  1.9443  3.1370
   29MPD2    H1  449   2.146   2.992  14.295  1.4942 -0.0608 -1.5352
   29MPD2    H2  450   2.129   2.607  14.125 -2.3768  0.1553  0.4123
   29MPD2    H3  451   2.053   2.846  14.137  0.3160  0.0515  0.3397
   29MPD2     N  452   2.326   2.950  14.472  0.5499  0.1746  0.4847
   29MPD2    H5  453   2.303   3.046  14.445 -1.3517  0.2977  2.6232
   29MPD2    N1  454   2.361   2.518  14.241  0.0742  0.0287 -0.0286
   29MPD2    H7  455   2.454   2.506  14.282  0.2309  0.8602 -0.1397
   30TCq2    C1  456   2.390   2.938  14.589 -0.1013  0.6801 -0.1818
   30TCq2    O2  457   2.418   2.841  14.654  0.1195 -0.3928  0.3150
   30TCq2    C2  458   2.441   3.062  14.648 -0.2459  0.1645 -0.1664
   30TCq2    C3  459   2.445   3.083  14.781 -0.0420 -0.6921  1.0424
   30TCq2    C4  460   2.509   3.205  14.820  0.0668 -0.6337 -0.3442
   30TCq2    C5  461   2.545   3.299  14.725  0.1271 -0.4907  0.1856
   30TCq2    C6  462   2.540   3.270  14.595  0.2402 -0.6242  0.3320
   30TCq2    C7  463   2.487   3.151  14.552 -0.2659  0.4879  0.5345
   30TCq2    C8  464   2.583   3.367  14.497  0.0274 -0.0366 -0.9396
   30TCq2    O4  465   2.518   3.370  14.395  0.1021 -0.0866 -0.4466
   30TCq2    C9  466   2.500   3.240  14.961  0.1566 -0.0339  0.7727
   30TCq2    O5  467   2.548   3.353  14.993  0.4096 -0.3473  0.5876
   30TCq2    O6  468   2.440   3.157  15.035  0.3024 -0.2942 -0.3651
   30TCq2    H2  469   2.395   3.010  14.844 -1.0754 -2.2598 -1.6195
   30TCq2    H3  470   2.572   3.399  14.757 -0.6047 -1.4816  3.9774
   30TCq2    H4  471   2.486   3.121  14.448 -0.0424  1.4406  0.2578
   31MPD2     C  472   0.553   1.630  14.885 -0.0841  0.1233  0.4375
   31MPD2    C1  473   0.472   1.733  14.921 -0.0739  1.0129  0.1460
   31MPD2    C2  474   0.444   1.766  15.055  0.6448  0.5595  0.4232
   31MPD2    C3  475   0.493   1.675  15.157  0.6016  0.2334 -0.5591
   31MPD2    C4  476   0.588   1.581  15.114 -0.1781 -0.1297 -0.1980
   31MPD2    C5  477   0.609   1.554  14.980  0.8160  0.2239  0.0153
   31MPD2     H  478   0.395   1.856  15.088 -0.2800  0.6283 -1.0998
   31MPD2    H1  479   0.636   1.515  15.186  0.1885  0.5237  0.1568
   31MPD2    H2  480   0.583   1.617  14.782  0.1079  2.3870  0.1998
   31MPD2    H3  481   0.674   1.471  14.953  0.8406 -0.0203  0.8288
   31MPD2     N  482   0.454   1.682  15.294 -0.1731 -0.4136  0.5367
   31MPD2    H5  483   0.514   1.637  15.363 -0.0814 -2.5904 -0.9836
   31MPD2    N1  484   0.420   1.808  14.807  0.3571 -0.1871  0.0295
   31MPD2    H7  485   0.465   1.808  14.716  0.4947  0.8672  0.1057
   32TCq2    C1  486   0.325   1.726  15.331  0.6260  0.0764  0.6783
   32TCq2    O2  487   0.240   1.774  15.257 -0.1597  0.7330 -0.3466
   32TCq2    C2  488   0.290   1.702  15.469  0.0800  0.2589 -0.0122
   32TCq2    C3  489   0.159   1.708  15.494  0.0051 -0.1080 -0.5217
   32TCq2    C4  490   0.109   1.683  15.617 -0.5846  0.6483 -0.2806
   32TCq2    C5  491   0.192   1.632  15.720 -0.5095 -0.4973 -0.0353
   32TCq2    C6  492   0.324   1.611  15.685 -0.4247  1.0863 -0.5630
   32TCq2    C7  493   0.374   1.653  15.568  0.1814  1.3705 -0.0095
   32TCq2    C8  494   0.413   1.590  15.793 -0.8844  0.5521  0.9869
   32TCq2    O4  495   0.491   1.499  15.774  0.0930 -0.6262  0.4238
   32TCq2    C9  496   4.689   1.687  15.648 -0.4543 -0.2265 -0.4089
   32TCq2    O5  497   4.605   1.713  15.557 -0.6144  0.9961 -0.4175
   32TCq2    O6  498   4.657   1.652  15.763  0.2467  0.1108  0.0343
   32TCq2    H2  499   0.091   1.748  15.420  0.3033 -0.1074 -0.7914
   32TCq2    H3  500   0.148   1.584  15.807 -0.3938 -1.0427 -0.2842
   32TCq2    H4  501   0.481   1.644  15.572  0.0029 -0.5276  0.5603
   33MPD2     C  502   0.882   4.323  10.448 -0.1230  0.0905  0.1684
   33MPD2    C1  503   0.753   4.378  10.456  0.4773  0.0530  0.2399
   33MPD2    C2  504   0.679   4.365  10.344 -0.5742  0.1748  0.1613
   33MPD2    C3  505   0.723   4.307  10.222 -0.0080  0.1543 -0.1661
   33MPD2    C4  506   0.854   4.257  10.215 -0.5968 -0.4641  0.5005
   33MPD2    C5  507   0.926   4.264  10.328  0.5156  0.5707 -0.5010
   33MPD2     H  508   0.577   4.401  10.353 -0.8449 -0.5322 -0.1066
   33MPD2    H1  509   0.904   4.209  10.132 -0.4477  0.7964 -0.1347
   33MPD2    H2  510   0.948   4.329  10.534  0.7038  1.2119 -0.5345
   33MPD2    H3  511   1.027   4.225  10.322 -0.2087 -1.2339 -0.9252
   33MPD2     N  512   0.655   4.323  10.103  0.7970  0.2938  0.5047
   33MPD2    H5  513   0.698   4.282  10.021 -0.4404 -0.0946  0.0530
   33MPD2    N1  514   0.714   4.441  10.578 -0.9055 -0.3972  0.1875
   33MPD2    H7  515   0.789   4.462  10.644  1.2374  0.1372 -2.4037
   34TCq2    C1  516   0.527   4.366  10.081  0.0601  0.1695 -0.3412
   34TCq2    O2  517   0.450   4.422  10.159  0.1862 -0.5596 -0.2878
   34TCq2    C2  518   0.485   4.354   9.940 -0.2907 -0.1461  0.4186
   34TCq2    C3  519   0.356   4.341   9.910 -0.5448  0.6221 -0.0071
   34TCq2    C4  520   0.323   4.326   9.777 -0.4156 -0.2848  0.5935
   34TCq2    C5  521   0.416   4.321   9.673  0.5435 -0.4418  0.2201
   34TCq2    C6  522   0.548   4.340   9.714 -0.1261  0.5666 -0.0539
   34TCq2    C7  523   0.587   4.355   9.843  0.0075  0.2724  0.0822
   34TCq2    C8  524   0.635   4.402   9.611  0.8529  0.9463  0.4734
   34TCq2    O4  525   0.642   4.353   9.499 -0.1070 -0.2663  0.2379
   34TCq2    C9  526   0.177   4.308   9.751 -1.1478 -0.3692  1.1505
   34TCq2    O5  527   0.140   4.306   9.628 -0.0883 -0.3599 -0.5466
   34TCq2    O6  528   0.109   4.282   9.855  0.4129  0.2199 -0.1078
   34TCq2    H2  529   0.290   4.341   9.996 -0.6405 -2.6728 -0.0981
   34TCq2    H3  530   0.394   4.306   9.568 -2.3822  0.4961  0.7256
   34TCq2    H4  531   0.694   4.367   9.859 -0.0128  0.8940 -0.2463
   35MPD2     C  532   1.669   0.283  11.677  0.1425  0.3520  0.4852
   35MPD2    C1  533   1.663   0.403  11.751 -0.0443  0.0651  0.0040
   35MPD2    C2  534   1.579   0.501  11.704 -0.2600  0.4987  0.1529
   35MPD2    C3  535   1.495   0.476  11.599 -0.0088 -0.3783 -0.1359
   35MPD2    C4  536   1.515   0.365  11.521  0.1769  1.1285  0.2745
   35MPD2    C5  537   1.601   0.272  11.560  0.3842  0.2934  0.0377
   35MPD2     H  538   1.573   0.593  11.760 -0.1714  0.1847  0.6869
   35MPD2    H1  539   1.458   0.358  11.429  0.8182 -1.0243  0.0460
   35MPD2    H2  540   1.737   0.203  11.706  1.7762  1.8051  0.6252
   35MPD2    H3  541   1.614   0.191  11.489 -0.5612 -1.1336  1.4818
   35MPD2     N  542   1.399   0.582  11.570  0.2589  0.5847  0.4723
   35MPD2    H5  543   1.394   0.655  11.640  0.7112  0.6219  0.4691
   35MPD2    N1  544   1.732   0.427  11.876 -0.1704  0.0443  0.2134
   35MPD2    H7  545   1.717   0.520  11.915 -1.1355  0.5170 -1.3060
   36TCq2    C1  546   1.299   0.571  11.489 -0.7403  0.3171 -0.3891
   36TCq2    O2  547   1.256   0.480  11.418  0.1463  0.1244  0.0685
   36TCq2    C2  548   1.203   0.678  11.524  0.0721  0.2027 -0.5407
   36TCq2    C3  549   1.258   0.803  11.547  0.4444 -0.2261 -0.2709
   36TCq2    C4  550   1.191   0.883  11.639 -0.3068  0.2146  0.9873
   36TCq2    C5  551   1.074   0.849  11.695  0.2713  0.4027 -0.0526
   36TCq2    C6  552   1.021   0.728  11.672  0.2618  0.1324  0.4499
   36TCq2    C7  553   1.083   0.646  11.583 -0.3296  0.8770  0.4741
   36TCq2    C8  554   0.995   0.647  11.791 -0.6393  0.6146 -0.6373
   36TCq2    O4  555   0.951   0.534  11.773 -0.0372 -0.2678  0.0558
   36TCq2    C9  556   1.252   1.011  11.675  0.0414 -0.1102 -0.0204
   36TCq2    O5  557   1.190   1.078  11.764  0.4240 -0.1425 -0.7539
   36TCq2    O6  558   1.372   1.033  11.637  0.1440 -0.1855  0.4193
   36TCq2    H2  559   1.349   0.838  11.499  0.5374 -0.8184 -0.5261
   36TCq2    H3  560   1.024   0.921  11.759 -1.3916 -1.0658  0.2795
   36TCq2    H4  561   1.052   0.544  11.562  0.1687  0.9548 -0.6426
   37TMC2    C1  562   3.765   0.836  11.701 -0.7149 -0.2976 -0.2932
   37TMC2    C2  563   3.719   0.873  11.582 -0.4127  0.1070  0.3954
   37TMC2    C3  564   3.802   0.853  11.468  0.2841  0.3222 -0.2504
   37TMC2    C4  565   3.897   0.803  11.713  0.8690 -0.7259  0.7359
   37TMC2    C5  566   3.979   0.794  11.603 -0.9916  0.2680 -0.0325
   37TMC2    C6  567   3.936   0.819  11.479 -0.4141  0.2781  1.4318
   37TMC2     C  568   3.682   0.833  11.815  0.0456  0.3971  0.5962
   37TMC2     O  569   3.566   0.862  11.795 -0.4432  0.5793 -0.1351
   37TMC2     H  570   3.629   0.932  11.570 -1.4302 -1.2274  1.5204
   37TMC2    H1  571   3.945   0.767  11.803  0.3718 -0.5535  1.0690
   37TMC2    H2  572   4.007   0.813  11.397 -3.3193  0.3101 -1.1191
   37TMC2    C7  573   4.120   0.807  11.632 -1.0580  0.2438 -0.4189
   37TMC2    C8  574   3.748   0.919  11.348 -0.0905  0.2148  0.8324
   37TMC2    O1  575   4.143   0.852  11.743  0.1259  0.9436 -0.0133
   37TMC2    O2  576   3.626   0.929  11.336  0.0093  1.0485  0.0904
   37TMC2    O5  577   3.842   0.942  11.255 -0.3375 -0.0100 -0.4955
   37TMC2    H5  578   3.937   0.939  11.278 -1.1173 -1.7550  2.5330
   38MPD2     C  579   3.625   0.820  12.334 -0.0132  0.0392 -0.2271
   38MPD2    C1  580   3.753   0.842  12.296  0.8231 -0.5198 -0.0527
   38MPD2    C2  581   3.791   0.834  12.166  0.7626  0.0617  0.2767
   38MPD2    C3  582   3.694   0.821  12.066 -0.0288 -0.2276  0.2335
   38MPD2    C4  583   3.562   0.804  12.097  0.0778  0.7724 -0.0292
   38MPD2    C5  584   3.532   0.810  12.238 -0.1290  0.0637  0.5485
   38MPD2     H  585   3.893   0.845  12.131  0.6998  2.8547  0.9136
   38MPD2    H1  586   3.482   0.783  12.027 -1.4765 -2.0340  2.5784
   38MPD2    H2  587   3.587   0.824  12.436  1.7123  0.2537  0.4081
   38MPD2    H3  588   3.429   0.789  12.263 -0.4689  2.1165  0.8511
   38MPD2     N  589   3.746   0.820  11.933 -0.2740  0.6820  0.0103
   38MPD2    H5  590   3.847   0.820  11.924 -0.2205  0.3195  0.6320
   38MPD2    N1  591   3.860   0.844  12.392 -0.1538 -0.0148  0.6872
   38MPD2    H7  592   3.959   0.853  12.369  0.0623  3.2105  3.0031
   39MPD2     C  593   2.062   2.776   1.134 -0.9644  0.2602  0.1296
   39MPD2    C1  594   1.971   2.807   1.235  0.2935  0.2173  1.3885
   39MPD2    C2  595   1.840   2.833   1.200 -0.0735  0.2002  0.3327
   39MPD2    C3  596   1.800   2.830   1.071  0.0875  0.6200 -0.1313
   39MPD2    C4  597   1.888   2.804   0.965 -0.4759 -0.2416  1.0706
   39MPD2    C5  598   2.016   2.776   0.999 -0.0721 -0.1415 -0.9093
   39MPD2     H  599   1.765   2.855   1.274  0.2511  0.8177  0.4719
   39MPD2    H1  600   1.855   2.784   0.864  0.9165  0.9941  0.3851
   39MPD2    H2  601   2.167   2.751   1.143 -0.5158  2.1044  0.0073
   39MPD2    H3  602   2.076   2.726   0.925  1.8384 -1.8615  1.7835
   39MPD2     N  603   1.669   2.845   1.038 -0.2005  0.5311 -0.3091
   39MPD2    H5  604   1.653   2.851   0.938  0.2484  2.4727 -0.2661
   39MPD2    N1  605   2.015   2.813   1.368 -0.1138  0.4110 -0.0585
   39MPD2    H7  606   2.116   2.809   1.377  0.2037  0.4150 -3.4579
   40TCq2    C1  607   1.931   2.825   1.474  0.4129  0.1017  0.3175
   40TCq2    O2  608   1.810   2.831   1.478  0.0135  0.0032  0.1942
   40TCq2    C2  609   1.989   2.816   1.602 -0.0430  0.3877  0.4250
   40TCq2    C3  610   1.905   2.799   1.701  0.2686 -0.5484 -0.0054
   40TCq2    C4  611   1.945   2.805   1.828  0.3647  0.4884 -0.0234
   40TCq2    C5  612   2.077   2.806   1.854  0.0042 -0.3148 -0.0693
   40TCq2    C6  613   2.167   2.815   1.752  0.2404 -0.1415  0.0580
   40TCq2    C7  614   2.124   2.816   1.623  0.1551 -0.5141 -0.0016
   40TCq2    C8  615   2.308   2.810   1.793  0.2293  0.1639  0.3659
   40TCq2    O4  616   2.342   2.743   1.889 -0.6336 -0.2846  0.4335
   40TCq2    C9  617   1.848   2.783   1.940  0.0481  0.3375 -0.3017
   40TCq2    O5  618   1.726   2.809   1.916 -0.0421 -0.2270  0.5880
   40TCq2    O6  619   1.901   2.758   2.049 -0.6470 -0.0874  0.0505
   40TCq2    H2  620   1.800   2.776   1.687  0.0457 -0.8599  2.1076
   40TCq2    H3  621   2.112   2.801   1.956 -1.6754 -0.0440  0.5291
   40TCq2    H4  622   2.187   2.798   1.537  1.0296  1.4763  0.2253
   41TMC2    C1  623   1.335   0.893  14.028  0.6283  0.7009 -0.2986
   41TMC2    C2  624   1.262   0.997  14.073  0.4513  0.2223  0.6016
   41TMC2    C3  625   1.230   1.089  13.981 -0.0827 -0.0153  0.0554
   41TMC2    C4  626   1.376   0.888  13.897  0.0764 -0.0188  0.5933
   41TMC2    C5  627   1.345   0.988  13.805 -0.4595  0.5781  0.1465
   41TMC2    C6  628   1.259   1.086  13.849  0.0885  0.4127 -0.0309
   41TMC2     C  629   1.357   0.779  14.109  0.0311  0.0608  0.5205
   41TMC2     O  630   1.426   0.693  14.055 -0.0246  0.4851 -0.4679
   41TMC2     H  631   1.247   1.000  14.180  1.5540 -0.9866  0.7953
   41TMC2    H1  632   1.444   0.809  13.865 -1.6439  0.3261 -3.8698
   41TMC2    H2  633   1.209   1.161  13.788  0.7008  0.1183 -0.9020
   41TMC2    C7  634   1.388   0.979  13.671 -0.2758 -0.5102 -0.4912
   41TMC2    C8  635   1.142   1.184  14.031 -0.6729 -0.2386  0.0557
   41TMC2    O1  636   1.430   0.876  13.626  0.0760 -0.1614 -0.1712
   41TMC2    O2  637   1.059   1.161  14.117 -0.4556 -0.1499  0.3249
   41TMC2    O5  638   1.161   1.294  13.964 -0.2226 -0.3516  0.3146
   41TMC2    H5  639   1.239   1.294  13.906  0.2965  2.2300  1.0134
   42MPD2     C  640   1.380   0.580  14.327  0.9081  0.8605 -0.4581
   42MPD2    C1  641   1.316   0.698  14.339  0.3242  0.1558 -0.7343
   42MPD2    C2  642   1.253   0.725  14.459  0.5658 -0.2937 -0.1841
   42MPD2    C3  643   1.259   0.642  14.569  0.1937  0.5231  0.0342
   42MPD2    C4  644   1.333   0.523  14.555 -0.6578  0.3017 -0.6421
   42MPD2    C5  645   1.388   0.492  14.434  0.4107 -0.2319 -0.3954
   42MPD2     H  646   1.210   0.824  14.465  0.5960 -0.3447  0.8475
   42MPD2    H1  647   1.349   0.469  14.648  0.2654  0.7176 -0.5664
   42MPD2    H2  648   1.434   0.549  14.238 -0.1444  1.8708 -1.4433
   42MPD2    H3  649   1.447   0.401  14.430 -0.5460 -0.7628 -2.8217
   42MPD2     N  650   1.203   0.666  14.694 -0.5850 -0.2214 -0.8504
   42MPD2    H5  651   1.220   0.599  14.768  1.8857 -0.6770 -1.8228
   42MPD2    N1  652   1.296   0.788  14.235  0.0826  0.2405  0.2701
   42MPD2    H7  653   1.236   0.868  14.253  0.8821  1.1194 -0.9756
   43MPD2     C  654   2.489   3.905   0.436  0.3395  1.0256  0.7142
   43MPD2    C1  655   2.558   3.917   0.558 -0.0011  0.1961  0.3532
   43MPD2    C2  656   2.494   3.958   0.674  0.3046 -0.9530 -0.0641
   43MPD2    C3  657   2.373   4.021   0.660 -0.0738 -0.0530  0.6738
   43MPD2    C4  658   2.306   4.018   0.543  0.1484  0.0983  0.0191
   43MPD2    C5  659   2.362   3.959   0.434  0.4935 -0.0604 -0.1967
   43MPD2     H  660   2.550   3.950   0.766  2.7713  0.0914 -1.4651
   43MPD2    H1  661   2.206   4.060   0.540 -0.2802 -0.9708 -0.5887
   43MPD2    H2  662   2.522   3.858   0.344 -0.4430  0.9372  0.4791
   43MPD2    H3  663   2.295   3.948   0.350  0.1494 -2.5453  0.4088
   43MPD2     N  664   2.300   4.082   0.768  0.4164 -0.1974 -0.1242
   43MPD2    H5  665   2.201   4.096   0.749  0.3793  0.9765  0.9582
   43MPD2    N1  666   2.690   3.869   0.570 -1.0281 -0.0051 -0.5612
   43MPD2    H7  667   2.714   3.841   0.665 -0.5975  1.2988 -0.2789
   44TCq2    C1  668   2.223   4.307   1.317 -0.2674  0.2688 -0.6865
   44TCq2    O2  669   2.133   4.311   1.402 -0.2002 -0.2854 -0.2192
   44TCq2    C2  670   2.186   4.263   1.185 -0.5122 -0.1359 -0.3079
   44TCq2    C3  671   2.088   4.332   1.128 -0.7592 -0.9496 -0.0482
   44TCq2    C4  672   2.071   4.330   0.993 -0.1546  0.5039 -0.2467
   44TCq2    C5  673   2.148   4.250   0.914 -0.3507  0.4262  0.2786
   44TCq2    C6  674   2.246   4.171   0.974 -0.2991  0.4879  0.2030
   44TCq2    C7  675   2.265   4.179   1.112 -0.4454 -0.4600 -0.0524
   44TCq2    C8  676   2.348   4.094   0.896 -0.8071  0.1128  0.0570
   44TCq2    O4  677   2.450   4.056   0.948 -0.0517 -0.7278 -0.0029
   44TCq2    C9  678   1.958   4.396   0.934  0.0582  0.5081  1.1264
   44TCq2    O5  679   1.942   4.391   0.809 -0.7713 -0.4149  0.3895
   44TCq2    O6  680   1.891   4.465   1.009 -0.1072 -0.2648  0.1969
   44TCq2    H2  681   2.015   4.388   1.185  0.7086  1.7761 -0.8708
   44TCq2    H3  682   2.127   4.250   0.808  1.8567 -1.1641 -0.1670
   44TCq2    H4  683   2.358   4.152   1.162  0.6704  1.0316 -1.3442
   45TMC2    C1  684   3.688   1.574   8.862 -1.4119  0.0758 -0.0098
   45TMC2    C2  685   3.809   1.625   8.824 -0.2592  0.6674 -0.6451
   45TMC2    C3  686   3.845   1.744   8.883 -0.3112  0.8562 -0.6292
   45TMC2    C4  687   3.603   1.638   8.948  0.1012 -0.4624  0.4395
   45TMC2    C5  688   3.645   1.756   9.000 -0.0915 -0.9786 -0.7454
   45TMC2    C6  689   3.770   1.809   8.977  0.6716 -0.9066 -0.0043
   45TMC2     C  690   3.650   1.449   8.809  0.0484 -0.3252  1.0637
   45TMC2     O  691   3.738   1.381   8.755  0.1712  0.0161 -0.0845
   45TMC2     H  692   3.878   1.563   8.769 -0.1878  1.3869 -1.3662
   45TMC2    H1  693   3.521   1.584   8.995  0.3511 -2.7414 -1.7374
   45TMC2    H2  694   3.801   1.901   9.026  0.6504  0.3892 -2.4217
   45TMC2    C7  695   3.565   1.823   9.102  0.0485  0.0765  0.0517
   45TMC2    C8  696   3.962   1.799   8.827  0.7971 -0.1177 -0.4797
   45TMC2    O1  697   3.627   1.888   9.181 -0.1828 -0.1987 -0.5758
   45TMC2    O2  698   4.046   1.729   8.775 -0.4553  0.2483  0.2696
   45TMC2    O5  699   3.951   1.931   8.804  0.3258  0.1214  0.4708
   45TMC2    H5  700   3.865   1.972   8.830  1.1252  1.2751  1.3067
   46MPD2     C  701   3.523   1.185   8.778 -0.0622  0.0418  0.6646
   46MPD2    C1  702   3.456   1.296   8.815  0.2553  0.0906  0.2557
   46MPD2    C2  703   3.325   1.292   8.857 -0.7580 -0.1457 -0.2605
   46MPD2    C3  704   3.257   1.170   8.866  0.9804 -1.0204 -0.1655
   46MPD2    C4  705   3.323   1.058   8.828 -0.5308  0.5504 -0.2179
   46MPD2    C5  706   3.453   1.069   8.786 -0.2902  0.5249 -0.1712
   46MPD2     H  707   3.271   1.384   8.877  1.3379  0.8396  0.8223
   46MPD2    H1  708   3.274   0.962   8.817  1.6503 -0.5628 -0.2535
   46MPD2    H2  709   3.624   1.186   8.739 -0.6187 -0.1281 -0.8042
   46MPD2    H3  710   3.502   0.980   8.748 -1.5213  0.0764 -0.7290
   46MPD2     N  711   3.119   1.169   8.910  0.0184  0.7096  0.6805
   46MPD2    H5  712   3.073   1.257   8.932  1.3937  0.8864  2.8656
   46MPD2    N1  713   3.517   1.423   8.824 -0.4845 -0.8196 -0.5826
   46MPD2    H7  714   3.457   1.498   8.856 -2.7409 -1.3106 -3.6917
   47TMC2    C1  715   0.656   1.998   9.429  0.6421  0.7430  0.4136
   47TMC2    C2  716   0.763   1.969   9.339  0.0529  0.4527  0.1824
   47TMC2    C3  717   0.725   1.916   9.219 -0.1668  0.9449 -0.4483
   47TMC2    C4  718   0.527   1.978   9.396 -0.4031 -0.4697 -1.0023
   47TMC2    C5  719   0.493   1.914   9.277  0.0140  0.1866  0.1666
   47TMC2    C6  720   0.593   1.881   9.189  0.4512 -0.3033  0.5756
   47TMC2     C  721   0.685   2.043   9.563 -0.1535 -0.1491  0.2172
   47TMC2     O  722   0.606   2.108   9.629 -0.2274  0.5404 -0.2570
   47TMC2     H  723   0.868   1.987   9.361 -0.0237 -0.3661  1.2376
   47TMC2    H1  724   0.450   2.002   9.468 -0.9935 -1.6057 -1.2524
   47TMC2    H2  725   0.573   1.839   9.091 -1.6983  2.0513  0.0000
   47TMC2    C7  726   0.355   1.875   9.254  0.4505 -0.5945  0.0193
   47TMC2    C8  727   0.820   1.858   9.125  0.0387 -0.1623  0.4590
   47TMC2    O1  728   0.280   1.915   9.338  0.1438  0.2015 -0.3494
   47TMC2    O2  729   0.800   1.870   9.005  0.0583 -0.1561  0.1188
   47TMC2    O5  730   0.938   1.858   9.191  0.2825  0.0491 -0.2876
   47TMC2    H5  731   0.923   1.819   9.279 -1.0869 -0.3257 -0.6810
   48MPD2     C  732   0.845   2.109   9.813 -0.4942 -0.1214  0.2216
   48MPD2    C1  733   0.871   2.002   9.723  0.1036 -0.3288 -0.1119
   48MPD2    C2  734   0.979   1.918   9.750 -0.2519  0.0420 -0.5533
   48MPD2    C3  735   1.059   1.928   9.860  0.2396  0.4027  0.9105
   48MPD2    C4  736   1.019   2.025   9.957 -0.4475 -0.0114 -0.2004
   48MPD2    C5  737   0.927   2.120   9.922  0.3649 -0.1635  0.1646
   48MPD2     H  738   0.997   1.834   9.684  1.0581 -0.1513  0.0378
   48MPD2    H1  739   1.065   2.033  10.055  2.2264 -3.2033 -1.2093
   48MPD2    H2  740   0.776   2.192   9.799 -1.1302 -0.1054  3.5818
   48MPD2    H3  741   0.916   2.203   9.991  1.1322  0.7091 -0.7620
   48MPD2     N  742   1.159   1.832   9.870  0.1422 -0.2293  0.5184
   48MPD2    H5  743   1.165   1.763   9.795 -0.4867  0.8554 -0.5246
   48MPD2    N1  744   0.796   1.983   9.601 -0.2089  0.1702 -0.2561
   48MPD2    H7  745   0.837   1.916   9.536 -1.6007 -2.4991  1.6391
   49MPD2     C  746   3.544   3.815   9.911  0.1301 -0.3142 -0.4328
   49MPD2    C1  747   3.582   3.950   9.936 -0.1653 -0.3592 -0.3848
   49MPD2    C2  748   3.547   4.008  10.055 -0.7391  0.2112  0.0537
   49MPD2    C3  749   3.497   3.944  10.163 -0.5092  0.1046  0.0791
   49MPD2    C4  750   3.472   3.808  10.143  0.0951 -0.1698 -0.3540
   49MPD2    C5  751   3.483   3.748  10.018 -0.3254  0.1256  0.0561
   49MPD2     H  752   3.590   4.107  10.065 -1.0236  0.5790 -2.4407
   49MPD2    H1  753   3.436   3.743  10.222  1.3829  1.1931  1.3563
   49MPD2    H2  754   3.567   3.762   9.819  1.0327  1.4067 -1.1716
   49MPD2    H3  755   3.450   3.648   9.994 -4.3483  1.1539  1.2744
   49MPD2     N  756   3.486   3.998  10.295  0.8064 -0.4079  0.3692
   49MPD2    H5  757   3.457   3.931  10.366 -1.4607  0.3848  0.2106
   49MPD2    N1  758   3.652   4.026   9.841 -0.8674  0.0848  0.3147
   49MPD2    H7  759   3.671   4.124   9.856  0.5737 -0.5829  2.8572
   50TCq2    C1  760   3.701   3.968   9.728 -0.3025  0.0751 -0.3371
   50TCq2    O2  761   3.741   3.854   9.712  0.5631 -0.0744 -0.7834
   50TCq2    C2  762   3.739   4.064   9.624  0.9685 -0.3930 -0.7418
   50TCq2    C3  763   3.843   4.034   9.544 -0.1417 -0.5455 -0.4169
   50TCq2    C4  764   3.910   4.129   9.473  0.0885  0.6302  0.5424
   50TCq2    C5  765   3.864   4.257   9.472  0.1813 -0.4252  0.7091
   50TCq2    C6  766   3.757   4.285   9.553  0.4368 -0.3398  0.4403
   50TCq2    C7  767   3.699   4.192   9.635 -0.5465 -0.5444  0.3787
   50TCq2    C8  768   3.669   4.408   9.530 -0.4474 -0.7372  0.2072
   50TCq2    O4  769   3.550   4.397   9.562  0.1020  0.2648  0.5411
   50TCq2    C9  770   4.026   4.104   9.391  0.3921 -0.2297 -0.4596
   50TCq2    O5  771   4.066   3.984   9.390  0.2825 -0.3255 -0.2730
   50TCq2    O6  772   4.088   4.207   9.346  0.1591 -0.6323  0.0409
   50TCq2    H2  773   3.872   3.930   9.533 -1.4072 -1.0726  1.3378
   50TCq2    H3  774   3.908   4.332   9.407 -1.4084 -2.2386 -2.4601
   50TCq2    H4  775   3.622   4.222   9.705 -1.2489 -0.0924 -0.5928
   51MPD2     C  776   0.033   1.980   1.414 -1.0242 -0.5031 -0.1759
   51MPD2    C1  777   4.641   2.045   1.361  0.9622 -0.4001  0.2112
   51MPD2    C2  778   4.559   2.117   1.441  0.4440  0.6473 -0.3156
   51MPD2    C3  779   4.576   2.119   1.578 -0.1727  0.7447 -0.4187
   51MPD2    C4  780   4.679   2.048   1.639 -0.0420 -0.3128  0.7437
   51MPD2    C5  781   0.048   1.990   1.549 -0.3551 -0.9215  0.3490
   51MPD2     H  782   4.469   2.158   1.399  1.1901  1.9325 -0.6366
   51MPD2    H1  783   4.687   2.051   1.747  0.9661  0.3532  0.6568
   51MPD2    H2  784   0.103   1.929   1.349 -0.3526 -1.0812  1.0097
   51MPD2    H3  785   0.143   1.946   1.577  1.1588  1.7840 -0.5946
   51MPD2     N  786   4.493   2.187   1.666 -0.2153  0.0885 -0.1503
   51MPD2    H5  787   4.518   2.181   1.764 -1.1517 -2.0309 -0.0374
   51MPD2    N1  788   4.606   2.041   1.227  0.3286 -0.3821 -0.4215
   51MPD2    H7  789   4.523   2.095   1.205  0.5831  1.1417  2.3184
   52TCq2    C1  790   4.386   2.270   1.650  0.6264  0.3369 -0.2547
   52TCq2    O2  791   4.350   2.320   1.542 -0.9026  0.5248 -0.3008
   52TCq2    C2  792   4.348   2.325   1.776 -0.1108  1.3369  0.7925
   52TCq2    C3  793   4.349   2.250   1.891  0.4024  0.2062 -0.2727
   52TCq2    C4  794   4.280   2.298   1.998 -0.1340 -0.5843  0.1678
   52TCq2    C5  795   4.229   2.422   2.000  0.3791 -0.2186 -0.4640
   52TCq2    C6  796   4.235   2.501   1.891 -0.1063 -0.2806 -0.1373
   52TCq2    C7  797   4.300   2.455   1.775  0.0869  0.5376 -0.6108
   52TCq2    C8  798   4.149   2.617   1.878  0.1102  0.5597  0.1036
   52TCq2    O4  799   4.037   2.622   1.920 -0.1545 -0.1016  0.5222
   52TCq2    C9  800   4.302   2.229   2.126 -0.1559 -0.3409 -0.9783
   52TCq2    O5  801   4.261   2.291   2.232 -0.4022  0.8314 -0.2623
   52TCq2    O6  802   4.375   2.125   2.128 -0.2291  0.9238  0.4587
   52TCq2    H2  803   4.396   2.153   1.901 -1.0750 -0.3859  1.0512
   52TCq2    H3  804   4.184   2.474   2.083 -1.9900 -2.1972 -0.5025
   52TCq2    H4  805   4.285   2.509   1.683 -0.5296  1.5030  0.0516
   53TMC2    C1  806   0.029   0.962  11.938  0.0758 -0.4383  0.6057
   53TMC2    C2  807   0.126   0.916  12.019  0.6204 -0.0154  0.0969
   53TMC2    C3  808   0.114   0.955  12.152 -0.0475  0.2575  0.2001
   53TMC2    C4  809   4.655   1.055  11.979  0.6229 -0.1948 -0.6861
   53TMC2    C5  810   4.639   1.078  12.115  0.0601  0.2673 -0.3748
   53TMC2    C6  811   0.016   1.034  12.202 -0.0109 -0.2747  0.2787
   53TMC2     C  812   0.009   0.891  11.818  0.0382 -0.1200 -0.0819
   53TMC2     O  813   0.105   0.845  11.762 -0.3789 -0.2780 -0.0084
   53TMC2     H  814   0.213   0.858  11.989 -1.4371 -0.9680 -3.9575
   53TMC2    H1  815   4.599   1.101  11.897 -0.2673 -0.0392  0.0062
   53TMC2    H2  816   0.015   1.059  12.308  1.5252 -0.3518  0.3123
   53TMC2    C7  817   4.514   1.134  12.164 -0.6259  0.8425 -0.8252
   53TMC2    C8  818   0.222   0.918  12.247  0.3819  0.3399 -0.5719
   53TMC2    O1  819   4.437   1.173  12.073  0.0078  0.6284  0.0105
   53TMC2    O2  820   0.288   0.820  12.210 -0.1691  0.0195  0.2830
   53TMC2    O5  821   0.271   1.035  12.305  0.1208  0.0435  0.6510
   53TMC2    H5  822   0.213   1.114  12.316 -0.3803 -0.4421  1.4925
   54MPD2     C  823   4.625   0.788  11.552 -0.6904  0.1102 -0.1257
   54MPD2    C1  824   4.546   0.831  11.660  0.2558 -0.7404  0.1314
   54MPD2    C2  825   4.412   0.816  11.651 -0.2250  0.9319 -0.2823
   54MPD2    C3  826   4.347   0.773  11.538 -0.6179  0.2157  0.4774
   54MPD2    C4  827   4.428   0.731  11.435 -0.5172  0.0907  0.7798
   54MPD2    C5  828   4.566   0.732  11.444 -1.0116 -0.3343 -0.1866
   54MPD2     H  829   4.358   0.834  11.743 -0.1870  2.3555 -0.5440
   54MPD2    H1  830   4.375   0.691  11.349 -2.2285  0.7975  1.5157
   54MPD2    H2  831   0.011   0.808  11.554 -0.8850  1.1302 -0.1889
   54MPD2    H3  832   4.625   0.694  11.361 -1.5455 -0.2899 -0.5910
   54MPD2     N  833   4.209   0.762  11.531 -0.6810 -0.2007 -0.3443
   54MPD2    H5  834   4.171   0.724  11.445 -2.3398  2.2616 -0.6883
   54MPD2    N1  835   4.598   0.884  11.784  0.2549  0.0351  0.0667
   54MPD2    H7  836   4.532   0.931  11.846 -2.4463 -1.1131 -1.9324
   55MPD2     C  837   0.468   3.410  17.198  0.3725  0.9253  0.7377
   55MPD2    C1  838   0.386   3.348  17.299 -0.2893  0.2848 -0.1174
   55MPD2    C2  839   0.271   3.418  17.336  0.0208 -0.4909 -0.3487
   55MPD2    C3  840   0.253   3.557  17.300 -0.0560 -0.1784  0.5326
   55MPD2    C4  841   0.341   3.617  17.210 -0.3883 -0.0083 -1.1139
   55MPD2    C5  842   0.447   3.540  17.161  0.5648  0.5251  0.5202
   55MPD2     H  843   0.191   3.380  17.399  0.2615  0.9465  0.8125
   55MPD2    H1  844   0.341   3.721  17.178  2.5205  0.9860  2.0792
   55MPD2    H2  845   0.554   3.354  17.163 -0.1191  1.1486 -0.8339
   55MPD2    H3  846   0.527   3.584  17.102  0.3867  0.2045  0.0414
   55MPD2     N  847   0.144   3.624  17.361 -0.1331 -0.3031  0.0556
   55MPD2    H5  848   0.090   3.561  17.419 -0.2064  1.5224  1.9531
   55MPD2    N1  849   0.419   3.220  17.339  0.9024 -0.0474 -0.4335
   55MPD2    H7  850   0.503   3.179  17.300  0.8841 -0.9730  0.4922
   56TCq2    C1  851   0.363   3.166  17.450  0.6129 -0.1348 -0.5254
   56TCq2    O2  852   0.284   3.215  17.527  0.3104  0.1189 -0.2589
   56TCq2    C2  853   0.444   3.062  17.508  0.0723 -0.3346 -0.4097
   56TCq2    C3  854   0.541   3.000  17.435 -0.6440 -0.1707 -0.0697
   56TCq2    C4  855   0.641   2.933  17.498 -0.3284 -0.2491  0.7719
   56TCq2    C5  856   0.643   2.925  17.636  0.0862  0.6625 -0.2562
   56TCq2    C6  857   0.539   2.982   0.023 -0.0590  0.0352  0.0024
   56TCq2    C7  858   0.438   3.052  17.644 -0.0460  0.0490  0.6578
   56TCq2    C8  859   0.536   2.963   0.161  0.2503  0.0639 -0.5386
   56TCq2    O4  860   0.594   2.866   0.211 -0.0571 -0.0610  0.6984
   56TCq2    C9  861   0.732   2.859  17.419  0.1689 -0.1590 -0.2211
   56TCq2    O5  862   0.817   2.793  17.487 -0.0866  0.1742 -0.5930
   56TCq2    O6  863   0.752   2.916  17.308 -0.3357  0.6562 -0.1023
   56TCq2    H2  864   0.550   3.015  17.329  0.5303  1.5766  0.2862
   56TCq2    H3  865   0.730   2.875  17.679 -0.7681  0.2141  0.9330
   56TCq2    H4  866   0.344   3.086   0.001 -0.7817  1.3681 -2.0254
   57TMC2    C1  867   0.144   4.212  13.861 -0.3686  0.1986 -0.1824
   57TMC2    C2  868   0.232   4.261  13.947  0.0205 -0.1132 -0.2982
   57TMC2    C3  869   0.364   4.222  13.928  0.3704 -0.1825 -0.1760
   57TMC2    C4  870   0.170   4.116  13.762 -0.7792  0.4448  0.4658
   57TMC2    C5  871   0.293   4.058  13.771  0.1634  0.1149 -0.3116
   57TMC2    C6  872   0.398   4.112  13.849 -0.4820  0.0986  0.1270
   57TMC2     C  873   0.014   4.276  13.855 -1.2550  0.2239  0.2480
   57TMC2     O  874   0.002   4.378  13.923 -0.5878  0.3446 -0.2529
   57TMC2     H  875   0.214   4.350  14.006  0.8137 -0.3859  0.3584
   57TMC2    H1  876   0.092   4.077  13.697 -1.0435  2.5449 -0.4580
   57TMC2    H2  877   0.497   4.070  13.860 -1.1450 -1.6774 -0.6590
   57TMC2    C7  878   0.325   3.932  13.715  0.2719  0.1769 -0.0773
   57TMC2    C8  879   0.457   4.284  14.018  0.1678 -0.0354 -0.2152
   57TMC2    O1  880   0.444   3.898  13.736  0.1745 -0.3428  0.2619
   57TMC2    O2  881   0.422   4.335  14.125 -0.2744  0.3916  0.5901
   57TMC2    O5  882   0.580   4.296  13.956  0.2570  0.1538  0.1806
   57TMC2    H5  883   0.580   4.268  13.862 -2.2640  1.1481 -0.1358
   58MPD2     C  884   4.259   4.346  13.643 -0.6685  0.4185 -0.0422
   58MPD2    C1  885   4.333   4.438  13.716  0.4966 -0.1951 -0.0319
   58MPD2    C2  886   4.463   4.401  13.755 -0.5512  0.2071  0.4176
   58MPD2    C3  887   4.519   4.284  13.716  0.3239 -0.1290  0.0255
   58MPD2    C4  888   4.446   4.203  13.635  0.8288  1.0805 -0.1286
   58MPD2    C5  889   4.314   4.232  13.601 -0.0212 -0.2463 -0.4832
   58MPD2     H  890   4.520   4.463  13.824 -0.3175  0.6702 -0.1871
   58MPD2    H1  891   4.485   4.112  13.590 -0.9530 -0.5546  1.6663
   58MPD2    H2  892   4.160   4.371  13.604 -0.5295  1.7510  0.4588
   58MPD2    H3  893   4.256   4.165  13.538  0.8490 -0.9140 -0.5627
   58MPD2     N  894   4.643   4.226  13.762 -0.8855 -0.0001  0.0208
   58MPD2    H5  895   4.664   4.134  13.726 -0.1032  0.3192 -0.3240
   58MPD2    N1  896   4.274   4.560  13.770 -0.4403 -0.1052 -0.1839
   58MPD2    H7  897   4.336   4.621  13.822 -0.3992  0.3530 -0.7851
   59MPD2     C  898   2.347   4.398  13.483 -0.7606  0.6535  0.2781
   59MPD2    C1  899   2.334   4.510  13.406 -0.5943  0.3086 -0.1061
   59MPD2    C2  900   2.388   4.627  13.445 -0.0469 -1.0756 -0.6473
   59MPD2    C3  901   2.436   4.641  13.573 -0.0782  0.3554 -0.5366
   59MPD2    C4  902   2.435   4.529  13.651  0.3378  0.3072 -1.2028
   59MPD2    C5  903   2.397   4.407  13.609 -0.9015  0.5511  0.3361
   59MPD2     H  904   2.393   4.708  13.373 -0.3959 -2.0762 -1.7879
   59MPD2    H1  905   2.480   4.537  13.749 -2.2361  1.3217 -0.1090
   59MPD2    H2  906   2.321   4.301  13.443 -0.3668  0.1230  1.3022
   59MPD2    H3  907   2.430   4.317  13.660  1.7613  1.4458  0.2311
   59MPD2     N  908   2.493   0.034  13.622  0.3837  0.0990  0.0936
   59MPD2    H5  909   2.524   0.042  13.718 -0.7926 -0.0775  0.4737
   59MPD2    N1  910   2.274   4.505  13.279 -0.5441 -0.1718 -0.2875
   59MPD2    H7  911   2.261   4.592  13.228  1.9156  0.0749 -0.4610
   60TCq2    C1  912   2.228   4.394  13.209 -0.9170 -0.3087 -0.4955
   60TCq2    O2  913   2.240   4.276  13.229 -0.1855  0.6103 -0.0293
   60TCq2    C2  914   2.169   4.435  13.081  0.1800 -0.1580 -0.0810
   60TCq2    C3  915   2.167   4.344  12.975 -0.7355 -0.4354 -0.8906
   60TCq2    C4  916   2.090   4.359  12.866 -0.3788  0.6184 -0.0482
   60TCq2    C5  917   2.002   4.462  12.860  0.0922  0.6806 -0.0494
   60TCq2    C6  918   2.005   4.553  12.965  0.9068  0.1399  0.2047
   60TCq2    C7  919   2.086   4.543  13.078 -0.3057  0.0959 -0.0417
   60TCq2    C8  920   1.901   4.652  12.967 -0.5128 -0.0770 -0.4986
   60TCq2    O4  921   1.841   4.662  13.073  0.0786 -0.1665  0.4250
   60TCq2    C9  922   2.066   4.251  12.775  0.1509  0.2653  0.4880
   60TCq2    O5  923   1.965   4.251  12.699  0.1975  0.0680  0.3795
   60TCq2    O6  924   2.147   4.157  12.783 -0.0907 -0.1698 -0.0603
   60TCq2    H2  925   2.221   4.249  12.980 -1.1012 -0.5125  1.5872
   60TCq2    H3  926   1.925   4.452  12.784 -0.7513 -0.5443  0.9755
   60TCq2    H4  927   2.074   4.608  13.164  0.0538  0.2959 -0.1446
   61MPD2     C  928   1.859   0.923  14.909 -0.2403 -0.1777 -0.2635
   61MPD2    C1  929   1.744   0.988  14.946  0.0359  0.7302 -0.7642
   61MPD2    C2  930   1.721   1.118  14.896  0.0048  1.1176 -0.6108
   61MPD2    C3  931   1.806   1.175  14.800 -0.0868 -0.0710  0.0009
   61MPD2    C4  932   1.923   1.110  14.773 -0.5383  0.5810 -0.2101
   61MPD2    C5  933   1.940   0.984  14.821  0.3695 -0.9262 -0.4027
   61MPD2     H  934   1.649   1.182  14.945 -0.0227  1.4370 -1.0703
   61MPD2    H1  935   2.001   1.152  14.712  0.1901 -1.2772 -0.5544
   61MPD2    H2  936   1.889   0.827  14.948  0.9980  0.9936  1.6536
   61MPD2    H3  937   2.028   0.929  14.790 -0.1509 -1.6464 -0.5883
   61MPD2     N  938   1.798   1.307  14.754 -0.8209 -0.2729 -0.1533
   61MPD2    H5  939   1.879   1.345  14.706  0.6111 -2.2839  0.6473
   61MPD2    N1  940   1.663   0.936  15.052  0.7612 -0.0650 -0.6552
   61MPD2    H7  941   1.601   1.000  15.101  0.9727  0.6702 -1.3454
   62TCq2    C1  942   1.670   0.808  15.098  0.1078  0.3304  0.2274
   62TCq2    O2  943   1.723   0.711  15.050 -0.2171 -0.0411 -0.1011
   62TCq2    C2  944   1.602   0.801  15.228  0.0141  0.0353  0.4138
   62TCq2    C3  945   1.539   0.682  15.255 -0.6288  0.0091 -0.9884
   62TCq2    C4  946   1.461   0.674  15.365 -0.5110 -0.6213 -0.6755
   62TCq2    C5  947   1.446   0.779  15.453  0.2951 -0.2369  0.9635
   62TCq2    C6  948   1.511   0.895  15.422 -0.0405  0.4813 -0.3495
   62TCq2    C7  949   1.582   0.911  15.302 -0.2748 -0.6872  0.2065
   62TCq2    C8  950   1.457   1.023  15.467  0.2648 -1.0082  0.5761
   62TCq2    O4  951   1.527   1.122  15.444 -0.0042  0.1349  0.1171
   62TCq2    C9  952   1.384   0.548  15.385  0.3008 -0.2725 -0.2966
   62TCq2    O5  953   1.294   0.548  15.472 -0.2247  0.2046  0.0384
   62TCq2    O6  954   1.388   0.469  15.288  0.2346  0.1244  0.0669
   62TCq2    H2  955   1.550   0.597  15.190  2.2773 -1.6793  1.7256
   62TCq2    H3  956   1.392   0.753  15.543 -0.6149  2.1957  1.1141
   62TCq2    H4  957   1.640   1.000  15.282  1.1191 -1.6066  0.1358
   63TMC2    C1  958   0.718   1.779  10.971 -0.6095 -0.5687 -0.0402
   63TMC2    C2  959   0.727   1.900  11.032 -0.4372  0.3774  0.3349
   63TMC2    C3  960   0.829   1.984  10.998  0.1596 -0.1248 -0.0974
   63TMC2    C4  961   0.802   1.751  10.862  0.0767  0.4681  0.7925
   63TMC2    C5  962   0.892   1.842  10.831 -1.0644 -0.1084  0.3001
   63TMC2    C6  963   0.921   1.958  10.899  0.6484 -0.2806 -0.3194
   63TMC2     C  964   0.606   1.696  11.003 -0.4475  0.4815 -0.0687
   63TMC2     O  965   0.525   1.743  11.085 -0.3097 -0.2074 -0.2894
   63TMC2     H  966   0.660   1.928  11.113  0.6908  0.3464  1.2663
   63TMC2    H1  967   0.801   1.656  10.810 -2.1884 -0.4154  2.4296
   63TMC2    H2  968   1.007   2.020  10.877  0.9113 -0.8744 -0.9472
   63TMC2    C7  969   0.962   1.827  10.706  0.1477  0.1684  0.1124
   63TMC2    C8  970   0.850   2.099  11.082  0.2942  0.2423  0.4486
   63TMC2    O1  971   0.983   1.715  10.664  0.3650 -0.5591 -0.6766
   63TMC2    O2  972   0.767   2.137  11.160 -0.4497  0.4766 -0.3733
   63TMC2    O5  973   0.985   2.114  11.093 -0.1151 -0.2627  0.1201
   63TMC2    H5  974   1.043   2.050  11.046 -0.8528 -1.9109  1.4192
   64MPD2     C  975   0.357   1.244  11.036 -0.3482 -0.1559  0.2714
   64MPD2    C1  976   0.466   1.227  10.943  0.0288  0.1241 -0.4699
   64MPD2    C2  977   0.543   1.335  10.924  0.3306 -0.0843 -0.0067
   64MPD2    C3  978   0.516   1.458  10.979 -0.6866 -0.0312 -0.6585
   64MPD2    C4  979   0.402   1.474  11.058 -0.7188  0.7793 -0.1008
   64MPD2    C5  980   0.318   1.367  11.079 -0.4839  0.5971 -0.1213
   64MPD2     H  981   0.633   1.311  10.869  0.8553 -1.7228  1.5887
   64MPD2    H1  982   0.383   1.567  11.110  1.0029  0.9174  0.2888
   64MPD2    H2  983   0.284   1.168  11.063  1.9465 -2.0671  1.1292
   64MPD2    H3  984   0.235   1.371  11.149 -1.3888 -2.1136 -1.0260
   64MPD2     N  985   0.614   1.564  10.956  0.7115  0.1952 -0.7572
   64MPD2    H5  986   0.692   1.542  10.894 -0.7174 -1.8908 -1.8091
   64MPD2    N1  987   0.512   1.104  10.883 -0.4131 -0.0655 -0.0312
   64MPD2    H7  988   0.577   1.119  10.807  1.5002  0.4011  1.6892
   65MPD2     C  989   2.090   0.513  15.811  0.3338  0.4941 -0.2305
   65MPD2    C1  990   2.118   0.492  15.673 -0.4422 -0.5287 -0.1414
   65MPD2    C2  991   2.108   0.366  15.618 -0.0570 -0.0426 -0.4913
   65MPD2    C3  992   2.048   0.268  15.688  0.2244  0.2049 -0.7547
   65MPD2    C4  993   2.014   0.293  15.825 -1.0842 -0.4351  0.0499
   65MPD2    C5  994   2.040   0.408  15.883  0.1919 -0.5632 -0.2747
   65MPD2     H  995   2.142   0.360  15.515  0.5696 -2.0712 -0.1599
   65MPD2    H1  996   1.967   0.214  15.883  2.3091 -3.4334 -1.2521
   65MPD2    H2  997   2.102   0.608  15.861  0.5610  2.0683 -3.2550
   65MPD2    H3  998   2.006   0.439  15.981  0.9140  2.1088 -0.8554
   65MPD2     N  999   2.033   0.140  15.627 -0.6836  0.5207  0.8784
   65MPD2    H5 1000   1.968   0.081  15.677 -0.6657  1.8928  2.5175
   65MPD2    N1 1001   2.176   0.594  15.595 -0.2506 -0.1598 -0.2986
   65MPD2    H7 1002   2.194   0.580  15.496 -2.0726  2.7473 -1.0198
   66TCq2    C1 1003   2.205   0.717  15.633  0.5784  0.1484 -0.7297
   66TCq2    O2 1004   2.196   0.773  15.742  0.9324 -0.4449  0.1151
   66TCq2    C2 1005   2.250   0.786  15.523  0.3895  0.4003 -0.2059
   66TCq2    C3 1006   2.317   0.724  15.421  0.2639  0.5325  0.3464
   66TCq2    C4 1007   2.378   0.809  15.332 -1.0440 -0.4342 -0.4982
   66TCq2    C5 1008   2.379   0.945  15.340  0.3950  0.9755 -0.1819
   66TCq2    C6 1009   2.304   1.004  15.442 -0.3796  0.1018 -0.0946
   66TCq2    C7 1010   2.246   0.926  15.535  0.1978 -0.1257 -0.1108
   66TCq2    C8 1011   2.274   1.146  15.441 -0.3178  0.3093 -0.4568
   66TCq2    O4 1012   2.353   1.211  15.374  0.0255  0.6271  0.7161
   66TCq2    C9 1013   2.450   0.755  15.226  0.2150 -0.2103 -0.2453
   66TCq2    O5 1014   2.478   0.631  15.237 -0.3501 -0.3610 -0.2421
   66TCq2    O6 1015   2.483   0.828  15.131 -0.8258  0.1578 -0.1375
   66TCq2    H2 1016   2.332   0.617  15.416 -1.3010  0.3852 -1.1176
   66TCq2    H3 1017   2.413   1.001  15.255  0.1952  1.9446  0.3755
   66TCq2    H4 1018   2.204   0.963  15.627  3.9723  1.8346  0.8071
   67MPD2     C 1019   2.042   0.801  14.126  0.0023 -0.4615 -0.1180
   67MPD2    C1 1020   2.047   0.688  14.205  0.4355 -0.6723  0.4309
   67MPD2    C2 1021   1.942   0.597  14.203  0.0460  0.8820  0.5950
   67MPD2    C3 1022   1.836   0.610  14.110 -1.0744 -1.0544  0.2480
   67MPD2    C4 1023   1.844   0.718  14.023  0.1253  0.2511 -0.7356
   67MPD2    C5 1024   1.944   0.810  14.034  0.8109  0.5044 -0.4022
   67MPD2     H 1025   1.952   0.513  14.271 -0.7165  0.2917 -0.0111
   67MPD2    H1 1026   1.766   0.739  13.951 -1.9144 -1.7207  0.9302
   67MPD2    H2 1027   2.116   0.880  14.129 -1.8679  1.2732  0.4250
   67MPD2    H3 1028   1.937   0.893  13.965  2.3431 -0.1051 -1.2854
   67MPD2     N 1029   1.734   0.514  14.103 -0.9455 -0.1830  0.8423
   67MPD2    H5 1030   1.656   0.528  14.040 -0.7275 -0.0238  0.6093
   67MPD2    N1 1031   2.160   0.653  14.289  0.0650  0.3004 -0.2339
   67MPD2    H7 1032   2.159   0.557  14.322 -1.3108  0.9757  1.6547
   68TCq2    C1 1033   2.257   0.740  14.331 -0.1358 -0.2250 -0.3179
   68TCq2    O2 1034   2.281   0.851  14.288  0.2298 -0.1582  0.5280
   68TCq2    C2 1035   2.345   0.688  14.438  0.2628  1.0619 -0.0045
   68TCq2    C3 1036   2.396   0.786  14.512 -0.2315 -0.0272  0.8279
   68TCq2    C4 1037   2.459   0.754  14.627 -0.7504  0.5141  0.5724
   68TCq2    C5 1038   2.471   0.622  14.659  0.0514 -0.1165  0.0543
   68TCq2    C6 1039   2.415   0.522  14.578 -0.6112 -0.1320  0.3154
   68TCq2    C7 1040   2.359   0.556  14.454 -0.0898 -0.3930  0.2719
   68TCq2    C8 1041   2.422   0.384  14.616  0.4967  0.3873 -0.0568
   68TCq2    O4 1042   2.402   0.301  14.525 -0.1232 -0.0887 -0.1373
   68TCq2    C9 1043   2.504   0.852  14.720  0.3240  0.0975  0.4940
   68TCq2    O5 1044   2.552   0.803  14.827  0.2437  0.1100 -0.2771
   68TCq2    O6 1045   2.445   0.964  14.720  0.2058  0.0838 -0.5579
   68TCq2    H2 1046   2.362   0.888  14.501 -0.1837 -0.2851 -1.6468
   68TCq2    H3 1047   2.524   0.603  14.751  0.8285 -2.3259 -0.8381
   68TCq2    H4 1048   2.305   0.484  14.394  3.2857 -3.7089  1.1303
   69TMC2    C1 1049   4.642   1.799  12.636  0.6162 -1.0431  0.1386
   69TMC2    C2 1050   4.660   1.935  12.625 -0.0344  0.7217  0.2314
   69TMC2    C3 1051   4.624   1.989  12.501 -0.4084  0.4030 -0.4499
   69TMC2    C4 1052   4.571   1.730  12.546 -0.2213  0.2290  0.1275
   69TMC2    C5 1053   4.533   1.786  12.428  0.4765  0.0249  0.0231
   69TMC2    C6 1054   4.561   1.918  12.398  0.2231  0.4826  0.0091
   69TMC2     C 1055   4.695   1.716  12.747  0.2223  0.5997  0.4607
   69TMC2     O 1056   4.692   1.593  12.717  0.0051 -0.4168  0.1968
   69TMC2     H 1057   0.001   1.993  12.692 -1.3424  0.3095  1.7796
   69TMC2    H1 1058   4.555   1.623  12.556  1.4272 -0.1382 -1.2566
   69TMC2    H2 1059   4.520   1.961  12.307  1.5619  0.2386 -0.7159
   69TMC2    C7 1060   4.556   1.695  12.319  0.8598 -0.0532 -0.5070
   69TMC2    C8 1061   4.658   2.134  12.502 -0.0471 -0.2696 -0.2700
   69TMC2    O1 1062   4.617   1.590  12.347 -0.1816 -0.5067  0.2216
   69TMC2    O2 1063   4.682   2.205  12.596  0.7493  0.5487 -0.3422
   69TMC2    O5 1064   4.647   2.178  12.378  0.5153 -0.3662 -0.2958
   69TMC2    H5 1065   4.654   2.118  12.301 -2.0281  1.0247 -1.5996
   70MPD2     C 1066   0.120   1.809  13.070  0.4977 -0.3047  0.0269
   70MPD2    C1 1067   0.068   1.724  12.977  0.3131 -0.1586 -0.9638
   70MPD2    C2 1068   0.041   1.590  13.008 -0.2265  0.1640  0.1032
   70MPD2    C3 1069   0.086   1.532  13.129 -0.6268  0.1551 -0.7672
   70MPD2    C4 1070   0.156   1.618  13.213 -0.4682  0.3630  1.0432
   70MPD2    C5 1071   0.159   1.752  13.182  0.2746  0.2721  0.0802
   70MPD2     H 1072   4.716   1.526  12.934  0.5708 -0.7224  0.3786
   70MPD2    H1 1073   0.209   1.572  13.296  0.4583 -0.2292  0.1176
   70MPD2    H2 1074   0.131   1.915  13.052  2.3216 -0.7503 -1.5203
   70MPD2    H3 1075   0.198   1.822  13.255 -1.1169  3.5150 -2.3094
   70MPD2     N 1076   0.073   1.394  13.160 -0.7068  0.4899 -0.0134
   70MPD2    H5 1077   0.129   1.360  13.237  0.1974  1.2308 -0.3397
   70MPD2    N1 1078   0.033   1.779  12.851  0.1568 -0.0889 -0.3873
   70MPD2    H7 1079   0.039   1.880  12.845  0.7470 -0.2707 -2.6913
   71TMC2    C1 1080   1.946   2.430   1.717 -0.3668  0.7168 -0.4251
   71TMC2    C2 1081   2.042   2.458   1.806  0.1013  0.0732 -0.3869
   71TMC2    C3 1082   2.015   2.439   1.941  0.4286 -0.5212  0.2332
   71TMC2    C4 1083   1.831   2.368   1.748  0.2270 -0.2299 -0.4634
   71TMC2    C5 1084   1.811   2.342   1.883  0.6693  0.4787 -0.1173
   71TMC2    C6 1085   1.898   2.384   1.978 -0.6345 -0.0903 -0.3323
   71TMC2     C 1086   1.959   2.465   1.583 -0.0276  0.2794 -0.2029
   71TMC2     O 1087   1.862   2.462   1.506 -0.0416  0.8318 -0.6830
   71TMC2     H 1088   2.117   2.531   1.779  1.9195 -1.0349  1.6135
   71TMC2    H1 1089   1.763   2.336   1.670 -3.3662  0.5593  2.3531
   71TMC2    H2 1090   1.876   2.346   2.077  0.3849  1.7659  0.5963
   71TMC2    C7 1091   1.695   2.266   1.930  0.9508  0.4331 -0.4020
   71TMC2    C8 1092   2.134   2.442   2.025 -0.6967 -0.1114 -0.1055
   71TMC2    O1 1093   1.704   2.221   2.042  0.2427  0.2972  0.1477
   71TMC2    O2 1094   2.235   2.400   1.969  0.2862 -0.0083 -0.4538
   71TMC2    O5 1095   2.097   2.412   2.153 -0.4248  0.1273 -0.1516
   71TMC2    H5 1096   2.009   2.443   2.182 -0.9919 -0.4467 -1.2856
   72MPD2     C 1097   2.253   2.466   1.161  0.0467 -0.2496  0.3046
   72MPD2    C1 1098   2.119   2.434   1.171 -0.5988 -0.0592 -0.2910
   72MPD2    C2 1099   2.067   2.429   1.295  0.3180 -0.3356 -0.0083
   72MPD2    C3 1100   2.146   2.463   1.410 -0.3543  0.6307  0.1622
   72MPD2    C4 1101   2.278   2.493   1.399 -0.8324 -0.3793  0.7066
   72MPD2    C5 1102   2.326   2.491   1.272  0.0479 -0.2117  0.3176
   72MPD2     H 1103   1.968   2.387   1.310 -0.5549  1.4094 -0.9179
   72MPD2    H1 1104   2.348   2.520   1.478  0.7068 -0.7837 -0.5042
   72MPD2    H2 1105   2.301   2.481   1.064  1.4934 -2.6704  0.6589
   72MPD2    H3 1106   2.427   2.525   1.253 -0.1037 -1.4393 -2.7273
   72MPD2     N 1107   2.095   2.470   1.544 -0.5476  0.0660  0.0976
   72MPD2    H5 1108   2.166   2.490   1.614  0.6814 -4.0901  0.0370
   72MPD2    N1 1109   2.042   2.399   1.061 -0.9359 -0.0928  0.1865
   72MPD2    H7 1110   1.950   2.357   1.068 -1.4913  0.8166 -1.8016
   73TMC2    C1 1111   1.796   3.527  14.072  0.7189 -0.3507  0.2375
   73TMC2    C2 1112   1.743   3.572  14.188 -0.4642 -0.0969  0.8254
   73TMC2    C3 1113   1.805   3.544  14.305  0.6288  0.1326 -0.9254
   73TMC2    C4 1114   1.908   3.443  14.063 -0.7385 -0.1604  0.0019
   73TMC2    C5 1115   1.973   3.422  14.179 -0.1204  0.3236  0.0465
   73TMC2    C6 1116   1.920   3.470  14.299  0.0095 -0.5720  0.3002
   73TMC2     C 1117   1.804   3.608  13.956  0.3578  0.5386 -0.0208
   73TMC2     O 1118   1.915   3.627  13.913  0.2538 -0.3588 -0.2203
   73TMC2     H 1119   1.664   3.646  14.184 -1.5667 -1.4144 -1.7198
   73TMC2    H1 1120   1.954   3.413  13.970 -0.8931 -1.2810  0.2865
   73TMC2    H2 1121   1.974   3.448  14.390  1.5430 -2.1119 -0.9813
   73TMC2    C7 1122   2.113   3.452  14.167 -0.0056 -0.3069 -0.0277
   73TMC2    C8 1123   1.844   3.664  14.379  0.2492 -0.2880  0.4751
   73TMC2    O1 1124   2.188   3.415  14.255 -0.9605 -0.5219  0.4265
   73TMC2    O2 1125   1.900   3.754  14.331 -0.1006 -0.9353  0.0432
   73TMC2    O5 1126   1.855   3.623  14.504  0.1793  0.2300 -0.2412
   73TMC2    H5 1127   1.800   3.542  14.510 -0.2169  0.6335  1.6271
   74MPD2     C 1128   1.642   3.943  13.620 -0.5972 -0.0296  0.0129
   74MPD2    C1 1129   1.766   3.920  13.676  0.0959  0.2969  0.5768
   74MPD2    C2 1130   1.786   3.824  13.769  0.2562  0.8304 -0.2609
   74MPD2    C3 1131   1.671   3.756  13.814 -0.3969  0.1904 -0.1275
   74MPD2    C4 1132   1.547   3.775  13.765 -0.1709  0.6249  0.2230
   74MPD2    C5 1133   1.536   3.863  13.660  0.9945  0.0594 -0.4067
   74MPD2     H 1134   1.881   3.815  13.820 -0.3406  1.5974  1.0004
   74MPD2    H1 1135   1.455   3.729  13.798  0.2385 -1.2152 -1.1771
   74MPD2    H2 1136   1.641   4.003  13.530 -0.2725  0.3549  0.2672
   74MPD2    H3 1137   1.439   3.878  13.615 -0.5160  0.3291  2.9599
   74MPD2     N 1138   1.688   3.659  13.914  0.2610 -0.6363  0.3009
   74MPD2    H5 1139   1.601   3.624  13.953  0.3617  1.2383  2.2358
   74MPD2    N1 1140   1.873   4.004  13.630 -0.0727 -0.0783 -0.3817
   74MPD2    H7 1141   1.856   4.067  13.553  1.0508 -0.7894 -1.2166
   75TCq2    C1 1142   1.720   0.398  14.178  0.7444  0.6432 -0.3275
   75TCq2    O2 1143   1.793   0.353  14.264  0.6109 -0.2790 -0.1785
   75TCq2    C2 1144   1.595   0.325  14.152  0.2609  0.3252 -0.5203
   75TCq2    C3 1145   1.563   0.224  14.243 -0.2048 -0.2450 -0.1980
   75TCq2    C4 1146   1.449   0.151  14.225  0.7346  0.2057 -0.2652
   75TCq2    C5 1147   1.356   0.190  14.133 -0.0121  0.2513  0.0261
   75TCq2    C6 1148   1.381   0.302  14.051 -0.4896  0.6085 -0.1202
   75TCq2    C7 1149   1.502   0.367  14.058  0.5504  0.2122  0.0428
   75TCq2    C8 1150   1.294   0.326  13.941 -0.6217  0.2372 -0.8791
   75TCq2    O4 1151   1.236   0.229  13.897 -0.1612 -0.8557  0.1757
   75TCq2    C9 1152   1.413   0.059  14.322  0.1453 -0.2623 -0.0577
   75TCq2    O5 1153   1.480   0.046  14.425  0.0428  0.1447  0.0563
   75TCq2    O6 1154   1.300   0.005  14.312 -0.3957  0.0851  0.3454
   75TCq2    H2 1155   1.619   0.196  14.331 -0.6144 -3.8879 -1.1059
   75TCq2    H3 1156   1.263   0.137  14.120 -0.0229 -0.1261  1.6363
   75TCq2    H4 1157   1.525   0.444  13.985  0.2135  0.0181 -0.2702
   76MPD2     C 1158   0.660   0.965  12.165  0.5404 -0.3381  0.1161
   76MPD2    C1 1159   0.607   0.900  12.056  0.0388  0.3720  0.3321
   76MPD2    C2 1160   0.619   0.760  12.041  0.0332 -0.4818 -0.3097
   76MPD2    C3 1161   0.671   0.691  12.145  0.1318  0.1189  0.3617
   76MPD2    C4 1162   0.722   0.756  12.254  1.0106  0.0847  0.1110
   76MPD2    C5 1163   0.717   0.891  12.263 -0.6216  0.0317  0.3380
   76MPD2     H 1164   0.586   0.711  11.950 -1.4985 -0.0268  0.0127
   76MPD2    H1 1165   0.755   0.702  12.342  0.8900 -0.4546 -0.1778
   76MPD2    H2 1166   0.668   1.071  12.183  0.6532 -0.3900  0.3744
   76MPD2    H3 1167   0.753   0.935  12.356 -0.5180 -1.2882  0.9251
   76MPD2     N 1168   0.679   0.545  12.148 -0.3416 -0.0421  0.5160
   76MPD2    H5 1169   0.727   0.503  12.227 -0.2662 -1.7256 -0.4382
   76MPD2    N1 1170   0.540   0.974  11.954 -0.7850  0.2062  0.3523
   76MPD2    H7 1171   0.491   0.924  11.881  0.5165  0.1473 -0.4795
   77TCq2    C1 1172   0.661   0.454  12.043  0.1342 -0.3342 -0.3252
   77TCq2    O2 1173   0.595   0.463  11.944 -0.2558 -0.0308  0.2481
   77TCq2    C2 1174   0.694   0.315  12.079 -0.1643  0.0754 -0.0775
   77TCq2    C3 1175   0.596   0.214  12.066 -0.5331 -0.5585 -0.9715
   77TCq2    C4 1176   0.632   0.088  12.112 -0.2419  0.0117  0.5926
   77TCq2    C5 1177   0.740   0.072  12.198  0.3516 -0.2358  0.4374
   77TCq2    C6 1178   0.825   0.178  12.215  0.8816 -0.4056  0.1167
   77TCq2    C7 1179   0.806   0.297  12.154 -0.1359 -0.2816 -0.1159
   77TCq2    C8 1180   0.936   0.166  12.307 -0.1260 -0.1828 -0.5911
   77TCq2    O4 1181   0.985   0.053  12.305 -0.0651 -0.5103 -0.0673
   77TCq2    C9 1182   0.543   4.702  12.089  0.2474 -0.1695  0.0805
   77TCq2    O5 1183   0.427   0.011  12.043 -0.1248 -0.5774 -0.3287
   77TCq2    O6 1184   0.593   4.589  12.113  0.6832 -0.0568 -0.4326
   77TCq2    H2 1185   0.511   0.218  11.999 -0.7819  2.8701 -0.4659
   77TCq2    H3 1186   0.766   4.703  12.253  3.0491 -1.0378 -2.1210
   77TCq2    H4 1187   0.885   0.371  12.148  0.4424 -1.0204 -1.7325
   78MPD1     C 1188   1.375   0.801   1.861 -0.4602  0.0357  0.1592
   78MPD1    C1 1189   1.489   0.863   1.898  0.2674  0.2611 -0.5269
   78MPD1    C2 1190   1.481   1.005   1.910 -0.4404  0.4668  0.4114
   78MPD1    C3 1191   1.373   1.082   1.866 -0.1530  0.3496  0.0035
   78MPD1    C4 1192   1.272   1.012   1.813 -1.3081 -0.2079  0.2025
   78MPD1    C5 1193   1.272   0.878   1.813  0.1107 -0.7599 -0.1437
   78MPD1     H 1194   1.572   1.055   1.943 -0.1864 -0.5477  1.2463
   78MPD1    H1 1195   1.187   1.068   1.775 -0.5147  1.5292  0.9930
   78MPD1    H2 1196   1.358   0.695   1.871  0.1040 -0.4127 -3.6168
   78MPD1    H3 1197   1.184   0.821   1.783  0.5557 -1.6149  0.1877
   78MPD1     N 1198   1.362   1.220   1.869 -0.4055 -0.1314  0.1951
   78MPD1    H5 1199   1.269   1.259   1.853  0.0549  1.1333  0.6464
   78MPD1    N1 1200   1.591   0.792   1.961  0.3687  0.2204 -0.2824
   78MPD1    H6 1201   1.616   0.709   1.909  1.2347  0.1372  0.2646
   78MPD1    H7 1202   1.673   0.852   1.957  0.5438  0.0009  0.0754
   79TCq2    C1 1203   1.469   1.311   1.878 -0.6172 -0.0421  0.1481
   79TCq2    O2 1204   1.584   1.278   1.903 -0.2776 -0.2773 -0.2374
   79TCq2    C2 1205   1.435   1.451   1.867 -0.2434 -0.4316  0.3319
   79TCq2    C3 1206   1.310   1.486   1.815  0.3654 -0.2992 -0.2342
   79TCq2    C4 1207   1.287   1.611   1.757 -0.4487 -0.3279 -0.2594
   79TCq2    C5 1208   1.390   1.697   1.755  0.2555 -0.2201 -0.4072
   79TCq2    C6 1209   1.515   1.666   1.793  0.1841  0.3692  0.6499
   79TCq2    C7 1210   1.535   1.548   1.865 -0.2219  0.0222 -0.0222
   79TCq2    C8 1211   1.613   1.772   1.802  0.1624 -1.0865  0.0807
   79TCq2    O4 1212   1.712   1.750   1.869 -0.1482  0.1671  0.2165
   79TCq2    C9 1213   1.156   1.637   1.707  0.3770 -0.1389 -0.2398
   79TCq2    O5 1214   1.065   1.562   1.746  0.0764  0.0255  0.1770
   79TCq2    O6 1215   1.129   1.745   1.643 -0.0928 -0.1386 -0.8122
   79TCq2    H2 1216   1.226   1.418   1.806  1.0539 -1.1664 -0.0412
   79TCq2    H3 1217   1.374   1.792   1.703  0.0376 -0.3217 -0.5280
   79TCq2    H4 1218   1.635   1.530   1.903 -1.6880  0.4266  4.0247
   80MPD2     C 1219   4.720   0.642  12.180  0.3483  0.4310  0.3462
   80MPD2    C1 1220   4.599   0.688  12.142  0.5802  0.3051  0.2027
   80MPD2    C2 1221   4.520   0.755  12.235  0.1361  0.3519 -0.6056
   80MPD2    C3 1222   4.543   0.758  12.373  0.3335 -0.1939  0.3149
   80MPD2    C4 1223   4.669   0.712  12.411  0.4868  0.3682 -0.0163
   80MPD2    C5 1224   0.037   0.659  12.316 -1.2877  0.0061  0.1359
   80MPD2     H 1225   4.422   0.778  12.197 -0.1339  0.8838  0.4171
   80MPD2    H1 1226   4.693   0.712  12.517 -1.7973 -1.9741  0.5111
   80MPD2    H2 1227   0.064   0.585  12.113 -1.1825 -1.7557  0.7083
   80MPD2    H3 1228   0.137   0.624  12.341 -0.8053 -1.3886 -3.5925
   80MPD2     N 1229   4.444   0.803  12.467  0.0643  0.3354  0.3714
   80MPD2    H5 1230   4.479   0.811  12.562  0.6998  2.8503 -0.0639
   80MPD2    N1 1231   4.533   0.661  12.024 -0.0660  0.2965  0.4049
   80MPD2    H7 1232   4.449   0.717  12.011 -0.3993 -0.0361  1.1289
   81TCq2    C1 1233   4.568   0.568  11.928 -0.8034  0.1536 -0.3122
   81TCq2    O2 1234   4.673   0.509  11.918  0.2326 -0.1107 -0.6191
   81TCq2    C2 1235   4.452   0.517  11.853 -0.0486 -0.3689 -0.0634
   81TCq2    C3 1236   4.472   0.427  11.755  0.4028 -0.0896  0.3277
   81TCq2    C4 1237   4.370   0.348  11.709  0.9101  0.3680 -0.2517
   81TCq2    C5 1238   4.246   0.350  11.762  0.5910  0.3416  0.0794
   81TCq2    C6 1239   4.233   0.442  11.861  0.0559  0.7158 -0.2801
   81TCq2    C7 1240   4.325   0.541  11.896  0.1190 -0.0585 -0.0261
   81TCq2    C8 1241   4.098   0.461  11.913  0.1615  0.5090 -0.5518
   81TCq2    O4 1242   4.062   0.578  11.932 -0.5083  0.4022 -0.5860
   81TCq2    C9 1243   4.398   0.249  11.610 -0.1415  0.6913  0.6115
   81TCq2    O5 1244   4.519   0.236  11.578 -0.0654  0.3333  0.0046
   81TCq2    O6 1245   4.303   0.180  11.565  0.1397  0.1886 -0.1147
   81TCq2    H2 1246   4.572   0.419  11.715 -0.2651  3.3282 -2.0173
   81TCq2    H3 1247   4.171   0.274  11.744  0.0518  0.6130  1.2030
   81TCq2    H4 1248   4.305   0.604  11.982  2.0453  0.9384 -0.3068
   82MPD2     C 1249   2.522   0.729  10.612 -0.4173  0.2215  0.4195
   82MPD2    C1 1250   2.504   0.606  10.567 -0.3554 -0.3178 -0.1789
   82MPD2    C2 1251   2.567   0.495  10.636  1.1732 -0.0830  0.4172
   82MPD2    C3 1252   2.640   0.528  10.747 -0.5227  0.0883 -0.4503
   82MPD2    C4 1253   2.654   0.656  10.790 -0.1012 -0.5090 -0.9503
   82MPD2    C5 1254   2.600   0.759  10.718  0.2177  0.2397  0.1798
   82MPD2     H 1255   2.557   0.391  10.607 -0.6725  0.0946  0.4400
   82MPD2    H1 1256   2.706   0.678  10.882 -0.9023 -0.7257 -0.4525
   82MPD2    H2 1257   2.473   0.810  10.560  1.4706  1.1247  0.0661
   82MPD2    H3 1258   2.619   0.859  10.756  1.2967 -0.2732  0.9829
   82MPD2     N 1259   2.700   0.435  10.835 -0.0675  0.1537 -0.8669
   82MPD2    H5 1260   2.750   0.482  10.910  2.0516 -1.0396 -1.5075
   82MPD2    N1 1261   2.420   0.585  10.448 -0.1184 -0.1281 -0.3802
   82MPD2    H7 1262   2.404   0.667  10.391  0.6295  0.7737  0.6973
   83TCq2    C1 1263   2.678   0.299  10.842 -0.3490 -0.4762  0.8458
   83TCq2    O2 1264   2.601   0.229  10.780  0.5898  0.3848 -0.3021
   83TCq2    C2 1265   2.764   0.227  10.930 -0.2786 -0.4132  0.3663
   83TCq2    C3 1266   2.831   0.292  11.034  0.0318 -0.3738 -0.2307
   83TCq2    C4 1267   2.889   0.203  11.128 -0.2973 -0.0131  0.0236
   83TCq2    C5 1268   2.884   0.068  11.127 -0.3330  0.2098  0.8380
   83TCq2    C6 1269   2.819   0.007  11.021  1.0434  0.2557 -0.1697
   83TCq2    C7 1270   2.755   0.087  10.929 -0.6268 -0.0898  0.0775
   83TCq2    C8 1271   2.759   4.601  11.059  0.7105  0.2984 -0.0888
   83TCq2    O4 1272   2.793   4.559  11.169 -0.0081  0.2464  0.0924
   83TCq2    C9 1273   2.978   0.263  11.226 -0.6609  0.2170 -0.1369
   83TCq2    O5 1274   3.036   0.195  11.310 -0.0828  0.1436 -0.4520
   83TCq2    O6 1275   2.996   0.389  11.224 -0.1688  0.4674  0.4140
   83TCq2    H2 1276   2.841   0.400  11.045 -3.7647  0.0865 -1.2108
   83TCq2    H3 1277   2.946   0.005  11.190 -1.5335 -0.8690  0.9335
   83TCq2    H4 1278   2.693   0.045  10.850 -0.7433  0.6664 -0.2301
   84TCq2    C1 1279   3.531   4.124  10.332  0.4847  0.4132 -0.2438
   84TCq2    O2 1280   3.581   4.213  10.268 -0.5573 -0.4870 -0.2104
   84TCq2    C2 1281   3.511   4.155  10.468 -0.4172  0.4106  0.0267
   84TCq2    C3 1282   3.600   4.250  10.523 -0.4058  0.0765 -0.2364
   84TCq2    C4 1283   3.598   4.266  10.657  0.2641 -0.4860  0.5725
   84TCq2    C5 1284   3.519   4.195  10.737 -0.6927  0.4556  0.1210
   84TCq2    C6 1285   3.440   4.095  10.684 -1.1848  0.0285  0.4396
   84TCq2    C7 1286   3.433   4.073  10.553  0.2719  0.3949 -0.9051
   84TCq2    C8 1287   3.332   4.033  10.771  0.1995 -0.1628  0.3333
   84TCq2    O4 1288   3.313   4.094  10.878 -0.6378 -0.1838  0.2262
   84TCq2    C9 1289   3.689   4.360  10.722 -0.6230 -0.3902  0.8741
   84TCq2    O5 1290   3.735   4.453  10.650  0.6511  0.6269 -0.1045
   84TCq2    O6 1291   3.706   4.360  10.847 -0.1266  0.1481  0.0100
   84TCq2    H2 1292   3.659   4.319  10.465  0.9424  0.7313  1.9035
   84TCq2    H3 1293   3.526   4.214  10.843  3.6042 -1.2883  0.1597
   84TCq2    H4 1294   3.366   3.995  10.517 -0.4724  1.0045 -0.8312
   85MPD2     C 1295   4.381   1.884  16.599 -0.1837  0.3112  0.2906
   85MPD2    C1 1296   4.283   1.913  16.503  0.7838 -0.0664  0.1691
   85MPD2    C2 1297   4.325   1.988  16.394 -0.0583 -0.0595  0.2646
   85MPD2    C3 1298   4.456   2.021  16.370 -0.0540  0.3047 -0.0650
   85MPD2    C4 1299   4.550   1.976  16.456 -0.0550  0.5817 -0.2268
   85MPD2    C5 1300   4.514   1.914  16.575  0.1513  0.2755  0.1335
   85MPD2     H 1301   4.254   2.026  16.320  0.8756  0.2820 -0.4562
   85MPD2    H1 1302   4.655   2.004  16.457 -0.1813  1.0631 -0.4831
   85MPD2    H2 1303   4.352   1.841  16.694 -0.0283  3.4008  1.7568
   85MPD2    H3 1304   4.595   1.886  16.641  1.1183  0.5160 -0.9519
   85MPD2     N 1305   4.482   2.096  16.251 -0.5590  0.1809  0.0280
   85MPD2    H5 1306   4.403   2.128  16.196 -0.0642 -3.9039 -3.0716
   85MPD2    N1 1307   4.145   1.871  16.501  0.1181  0.3839  0.2424
   85MPD2    H7 1308   4.092   1.894  16.418 -0.6734 -1.9376  0.1051
   86TCq2    C1 1309   4.608   2.153  16.219 -0.9579  0.4735 -0.2757
   86TCq2    O2 1310   4.719   2.110  16.253  0.3272  0.6629  0.4438
   86TCq2    C2 1311   4.605   2.248  16.113 -0.4679  0.2071  0.1420
   86TCq2    C3 1312   4.509   2.341  16.109 -0.1475  0.1906 -0.1291
   86TCq2    C4 1313   4.528   2.446  16.017  0.1208 -0.6867 -0.6470
   86TCq2    C5 1314   4.632   2.459  15.938  0.3779 -0.0277 -0.0369
   86TCq2    C6 1315   0.004   2.356  15.947  0.7874 -0.2295  0.0861
   86TCq2    C7 1316   0.001   2.258  16.039 -0.9080  0.1576 -0.5134
   86TCq2    C8 1317   0.107   2.356  15.849 -0.6634  0.3427  0.5843
   86TCq2    O4 1318   0.213   2.307  15.887  0.1211  0.2874  0.5094
   86TCq2    C9 1319   4.433   2.552  16.016 -0.2563 -0.5038  0.1047
   86TCq2    O5 1320   4.337   2.549  16.096 -0.6660 -0.2637  0.3287
   86TCq2    O6 1321   4.459   2.636  15.926  0.0824 -0.7270  0.3590
   86TCq2    H2 1322   4.418   2.330  16.168 -0.2933  0.5300 -0.2918
   86TCq2    H3 1323   4.647   2.543  15.871 -3.2839  3.2876  3.3425
   86TCq2    H4 1324   0.079   2.183  16.047 -0.9988  0.4604  3.0747
   87MPD2     C 1325   2.441   0.991   1.595 -0.3933 -0.0836  0.5145
   87MPD2    C1 1326   2.300   0.979   1.626 -0.7033 -0.0076  0.5155
   87MPD2    C2 1327   2.222   1.092   1.627 -0.6544  0.0018 -1.0913
   87MPD2    C3 1328   2.282   1.211   1.577  0.6130  0.4652  0.0319
   87MPD2    C4 1329   2.417   1.213   1.542  0.2148  0.6423  0.9338
   87MPD2    C5 1330   2.499   1.107   1.563 -0.1447 -0.5319 -0.0118
   87MPD2     H 1331   2.116   1.090   1.650 -0.3815  0.4911  0.2037
   87MPD2    H1 1332   2.466   1.308   1.522 -0.4944  0.3754 -2.1021
   87MPD2    H2 1333   2.497   0.900   1.612  0.5525 -0.0278 -2.4013
   87MPD2    H3 1334   2.606   1.120   1.551  0.1106 -1.2852  1.4303
   87MPD2     N 1335   2.210   1.326   1.545  0.5458 -0.5706  0.2492
   87MPD2    H5 1336   2.270   1.399   1.507 -0.7603  0.2035 -0.2932
   87MPD2    N1 1337   2.244   0.847   1.636 -0.6209 -0.0336 -0.1371
   87MPD2    H7 1338   2.299   0.769   1.603  0.9277  0.8764  0.3359
   88TCq2    C1 1339   2.117   0.821   1.678 -0.5964  0.4331  0.0661
   88TCq2    O2 1340   2.043   0.893   1.744  0.1019  0.5448  0.2040
   88TCq2    C2 1341   2.079   0.684   1.690  0.2826  0.3058 -0.5377
   88TCq2    C3 1342   1.982   0.652   1.783 -0.3535  0.4001  0.1039
   88TCq2    C4 1343   1.942   0.522   1.780  0.2785  0.6265  0.7036
   88TCq2    C5 1344   2.004   0.434   1.703  0.4205 -0.0478 -0.6483
   88TCq2    C6 1345   2.098   0.472   1.617  0.7705 -0.4404 -0.2109
   88TCq2    C7 1346   2.135   0.600   1.602 -0.2478 -0.7882 -1.1634
   88TCq2    C8 1347   2.161   0.384   1.522 -1.1495 -0.0532 -0.6025
   88TCq2    O4 1348   2.278   0.406   1.493  0.6733 -0.4071  0.0091
   88TCq2    C9 1349   1.844   0.473   1.867 -0.4073  0.0476  0.8476
   88TCq2    O5 1350   1.735   0.538   1.886  0.4283  0.8674  0.3991
   88TCq2    O6 1351   1.865   0.359   1.915 -0.2665  0.5044 -0.0394
   88TCq2    H2 1352   1.943   0.724   1.853 -1.3563 -1.2210  1.2159
   88TCq2    H3 1353   1.988   0.328   1.720  1.2519 -0.4099 -2.1234
   88TCq2    H4 1354   2.209   0.622   1.526  0.3332 -2.6981 -1.1731
   89MPD2     C 1355   2.607   2.819   1.785  0.2134  0.2333 -0.1120
   89MPD2    C1 1356   2.518   2.896   1.707  0.0478 -0.8447 -0.0698
   89MPD2    C2 1357   2.574   2.987   1.624  0.0077 -0.4545  0.0884
   89MPD2    C3 1358   2.714   3.002   1.603  0.5125 -0.0410 -0.3360
   89MPD2    C4 1359   2.791   2.916   1.677 -0.3681  0.1225 -0.6830
   89MPD2    C5 1360   2.742   2.831   1.767  0.1841  0.0593  0.1971
   89MPD2     H 1361   2.510   3.056   1.570  1.2789  1.7665  1.3894
   89MPD2    H1 1362   2.899   2.930   1.682 -0.4708  0.4999  0.5402
   89MPD2    H2 1363   2.573   2.742   1.852 -1.2413  0.4888 -0.5703
   89MPD2    H3 1364   2.808   2.778   1.834 -1.9530  0.7801  2.8768
   89MPD2     N 1365   2.746   3.098   1.501 -0.2868 -0.5089 -0.8156
   89MPD2    H5 1366   2.671   3.162   1.477 -0.5765 -0.8211 -0.7434
   89MPD2    N1 1367   2.385   2.880   1.703 -0.0184 -0.3143 -0.1349
   89MPD2    H7 1368   2.342   2.921   1.621 -2.1664 -2.3088 -0.0069
   90TCq2    C1 1369   2.872   3.125   1.450 -0.5198  0.0329  0.1336
   90TCq2    O2 1370   2.978   3.063   1.455  0.1413  0.2901  0.2538
   90TCq2    C2 1371   2.885   3.245   1.368 -0.3186 -1.1512  0.3459
   90TCq2    C3 1372   2.794   3.347   1.375 -0.4235  0.4480 -0.3149
   90TCq2    C4 1373   2.807   3.457   1.296 -0.0979  0.2321  0.1783
   90TCq2    C5 1374   2.900   3.465   1.199  0.0117  0.3317  0.2091
   90TCq2    C6 1375   2.994   3.366   1.197  0.3072 -0.5496 -0.3415
   90TCq2    C7 1376   2.998   3.259   1.287  0.2055 -0.3157 -0.8775
   90TCq2    C8 1377   3.090   3.364   1.089 -0.0562 -1.0165  0.0545
   90TCq2    O4 1378   3.187   3.292   1.103  0.0689  0.9494 -0.1723
   90TCq2    C9 1379   2.714   3.563   1.306 -0.7131  0.2407  0.2682
   90TCq2    O5 1380   2.746   3.666   1.239 -0.6812  0.4580  0.8963
   90TCq2    O6 1381   2.615   3.543   1.380  0.0014 -0.3899 -0.1858
   90TCq2    H2 1382   2.715   3.342   1.450  0.2432 -0.6830  0.3182
   90TCq2    H3 1383   2.915   3.560   1.148 -2.6176  0.5451 -0.1317
   90TCq2    H4 1384   3.049   3.168   1.262 -1.6527 -1.6186  0.0571
   91TMC2    C1 1385   4.530   3.014  16.321  0.4737 -0.1662  0.6085
   91TMC2    C2 1386   4.538   3.147  16.320  0.6529 -0.5171 -0.2922
   91TMC2    C3 1387   4.428   3.218  16.357  0.7292  0.4257 -0.5497
   91TMC2    C4 1388   4.417   2.951  16.371 -0.3132  0.3604 -0.2426
   91TMC2    C5 1389   4.309   3.026  16.407  0.0186 -0.9147  0.0437
   91TMC2    C6 1390   4.312   3.166  16.404 -0.1202  0.0182 -0.4511
   91TMC2     C 1391   4.648   2.933  16.298 -0.0399 -0.7435 -0.2076
   91TMC2     O 1392   4.627   2.815  16.264 -0.5872  0.0470  0.2664
   91TMC2     H 1393   4.628   3.198  16.288  0.2373  0.8902  0.7663
   91TMC2    H1 1394   4.415   2.845  16.394  3.5930  0.1587 -0.8082
   91TMC2    H2 1395   4.233   3.235  16.428  1.5557  0.9652  2.3494
   91TMC2    C7 1396   4.200   2.964  16.484 -0.8479  0.5031  0.3710
   91TMC2    C8 1397   4.437   3.360  16.323  1.0086  0.0139 -1.2684
   91TMC2    O1 1398   4.179   3.014  16.594 -0.8409 -0.5200 -0.5395
   91TMC2    O2 1399   4.483   3.401  16.218  0.2442  0.3397  0.5653
   91TMC2    O5 1400   4.371   3.440  16.410  0.0037  0.1306 -0.0822
   91TMC2    H5 1401   4.348   3.383  16.487 -3.2655 -1.8552 -2.5323
   92MPD2     C 1402   0.191   2.791  16.294 -0.3485 -0.6702  0.2648
   92MPD2    C1 1403   0.161   2.928  16.308  0.0189 -0.0740  0.4043
   92MPD2    C2 1404   0.272   3.017  16.322  0.4823  0.6137 -0.1964
   92MPD2    C3 1405   0.399   2.975  16.286 -0.4500 -0.7962  0.6497
   92MPD2    C4 1406   0.425   2.838  16.262  1.2790  0.0523  0.5793
   92MPD2    C5 1407   0.324   2.748  16.273  1.0354 -0.3800  0.4724
   92MPD2     H 1408   0.254   3.121  16.345  1.2095  0.8054 -0.4911
   92MPD2    H1 1409   0.528   2.806  16.248  0.7588 -1.1162 -0.5699
   92MPD2    H2 1410   0.112   2.717  16.302 -2.5177  1.4106 -2.3582
   92MPD2    H3 1411   0.352   2.644  16.269  5.9129  0.9476  0.5189
   92MPD2     N 1412   0.509   3.067  16.277  0.3060 -0.2149 -0.0833
   92MPD2    H5 1413   0.503   3.159  16.320  0.9540 -0.6287  0.8954
   92MPD2    N1 1414   0.044   2.992  16.318 -0.2438 -0.0150 -0.5059
   92MPD2    H7 1415   0.048   3.091  16.340  0.2857 -0.2709  0.5601
   93MPD2     C 1416   1.171   3.363  13.752  0.4882  0.1132  0.6662
   93MPD2    C1 1417   1.228   3.247  13.798 -0.3389  0.4759 -0.4652
   93MPD2    C2 1418   1.141   3.149  13.846 -0.5395  0.0518 -0.3007
   93MPD2    C3 1419   1.005   3.164  13.852  0.1176 -0.0938 -0.0035
   93MPD2    C4 1420   0.946   3.276  13.802 -0.2772 -0.0318  0.6067
   93MPD2    C5 1421   1.035   3.378  13.763  0.0939 -0.3128 -0.0652
   93MPD2     H 1422   1.185   3.056  13.880 -2.1660 -0.1303  1.3513
   93MPD2    H1 1423   0.839   3.297  13.802 -0.5090 -1.2470 -0.7680
   93MPD2    H2 1424   1.238   3.437  13.709  0.1434  0.6426  1.0351
   93MPD2    H3 1425   0.990   3.465  13.718  1.2181 -0.1734 -0.9333
   93MPD2     N 1426   0.916   3.060  13.897 -0.3989  0.0923 -0.1800
   93MPD2    H5 1427   0.820   3.075  13.867  0.4537  0.9910 -2.4825
   93MPD2    N1 1428   1.365   3.224  13.793 -0.0616 -0.3346 -0.0699
   93MPD2    H7 1429   1.400   3.140  13.838 -2.2491 -0.6318  1.0641
   94TCq2    C1 1430   1.463   3.303  13.730 -0.0355  0.1981  0.1887
   94TCq2    O2 1431   1.449   3.401  13.652  0.7642  0.4063  0.0310
   94TCq2    C2 1432   1.595   3.248  13.750 -0.3078  0.2110 -0.6229
   94TCq2    C3 1433   1.614   3.179  13.865 -0.4021  0.4670 -0.2235
   94TCq2    C4 1434   1.717   3.096  13.872 -0.5362  0.7682  0.9445
   94TCq2    C5 1435   1.808   3.091  13.772 -0.3369  0.4984 -0.7820
   94TCq2    C6 1436   1.783   3.154  13.655  0.1717 -0.2826  0.4259
   94TCq2    C7 1437   1.684   3.247  13.647  0.3879  0.3115  0.2843
   94TCq2    C8 1438   1.881   3.129  13.549 -0.2403 -0.7639 -0.0528
   94TCq2    O4 1439   1.931   3.018  13.557  0.5737  0.1527  0.1653
   94TCq2    C9 1440   1.756   3.034  13.999  0.1868  0.3943  0.0033
   94TCq2    O5 1441   1.863   2.967  14.008 -0.6325  0.2954  0.6695
   94TCq2    O6 1442   1.671   3.054  14.094  0.2001  0.5396  0.3639
   94TCq2    H2 1443   1.554   3.202  13.952 -1.6395  1.0385 -1.2208
   94TCq2    H3 1444   1.896   3.030  13.786 -0.4788  0.3768 -0.4197
   94TCq2    H4 1445   1.666   3.303  13.557 -1.5933 -1.5863 -0.4800
   95TMC2    C1 1446   1.103   4.710  15.851 -0.6595  0.1152 -0.2563
   95TMC2    C2 1447   1.097   4.659  15.976  0.1629 -0.0555 -0.0342
   95TMC2    C3 1448   0.983   4.683  16.046  0.1600  0.6425  0.1597
   95TMC2    C4 1449   1.000   0.053  15.788 -0.1699  0.1107 -0.7568
   95TMC2    C5 1450   0.890   0.080  15.867 -0.1033 -0.5414  0.4940
   95TMC2    C6 1451   0.879   0.034  15.995 -0.4032  0.2862  0.5360
   95TMC2     C 1452   1.211   4.673  15.764 -0.0561 -0.6169  0.1742
   95TMC2     O 1453   1.315   4.619  15.801  0.2478  0.6671  0.2999
   95TMC2     H 1454   1.184   4.617  16.025  0.2158  2.8801  2.3690
   95TMC2    H1 1455   0.998   0.098  15.690 -0.0470  1.8811  0.0577
   95TMC2    H2 1456   0.787   0.044  16.051  1.0212 -1.0988  3.0987
   95TMC2    C7 1457   0.791   0.169  15.808 -0.1066  0.3503  0.6219
   95TMC2    C8 1458   0.958   4.615  16.178  0.8176 -0.3360  0.8589
   95TMC2    O1 1459   0.818   0.214  15.696  0.1246  0.6469 -0.4033
   95TMC2    O2 1460   0.873   4.642  16.262  0.4480 -0.1178 -0.6544
   95TMC2    O5 1461   1.036   4.507  16.178  0.8811  0.1307  0.3496
   95TMC2    H5 1462   1.074   4.485  16.091 -0.0007 -0.3756  0.0903
   96MPD2     C 1463   1.378   4.534  15.291 -0.4157  0.2402 -0.3111
   96MPD2    C1 1464   1.451   4.560  15.406  0.4392 -0.0676 -0.4855
   96MPD2    C2 1465   1.376   4.601  15.518  0.5350 -0.0708  0.0443
   96MPD2    C3 1466   1.241   4.613  15.525 -0.0471  0.2044  0.6521
   96MPD2    C4 1467   1.174   4.597  15.406 -0.1686  0.7804  0.5446
   96MPD2    C5 1468   1.241   4.567  15.287  0.0120 -0.2060 -0.0926
   96MPD2     H 1469   1.432   4.637  15.604  0.8184 -0.4224  0.0055
   96MPD2    H1 1470   1.067   4.615  15.402 -0.3443 -0.2054  0.7803
   96MPD2    H2 1471   1.427   4.511  15.197  1.0440 -0.9304  0.7337
   96MPD2    H3 1472   1.196   4.564  15.188 -2.0731  0.0010  0.8423
   96MPD2     N 1473   1.169   4.667  15.633 -0.2119 -0.6382  0.0217
   96MPD2    H5 1474   1.068   4.671  15.622 -0.1981 -0.1995  0.0336
   96MPD2    N1 1475   1.587   4.544  15.404  0.6763  0.5632 -0.3815
   96MPD2    H7 1476   1.630   4.531  15.314 -0.4957 -0.7265 -0.7498
   97MPD2     C 1477   3.530   1.675   1.170 -0.2998  0.0985  0.2971
   97MPD2    C1 1478   3.545   1.810   1.140  0.4240 -0.5050  0.0043
   97MPD2    C2 1479   3.631   1.853   1.039 -0.7238  0.2480 -0.1812
   97MPD2    C3 1480   3.695   1.758   0.966 -0.2938  0.3515 -0.6883
   97MPD2    C4 1481   3.677   1.624   0.991 -0.4018 -0.4647  0.3624
   97MPD2    C5 1482   3.597   1.588   1.095 -0.8722  0.3133 -0.8093
   97MPD2     H 1483   3.663   1.956   1.025  0.8478  0.1039  2.4561
   97MPD2    H1 1484   3.737   1.548   0.942  1.2347 -0.5410  2.4869
   97MPD2    H2 1485   3.465   1.652   1.254  1.3242 -1.2143  1.1983
   97MPD2    H3 1486   3.589   1.483   1.121  3.1763  0.5300  1.2878
   97MPD2     N 1487   3.788   1.782   0.864  0.0537 -0.1024 -0.1422
   97MPD2    H5 1488   3.827   1.705   0.810  0.0562 -1.8814  2.4131
   97MPD2    N1 1489   3.481   1.902   1.227 -0.2731 -0.2672  0.1806
   97MPD2    H7 1490   3.415   1.864   1.294  0.2706 -0.0650  0.8221
   98TCq2    C1 1491   3.823   1.901   0.814  0.9276  0.6239  0.5697
   98TCq2    O2 1492   3.770   2.011   0.831 -0.3490  0.1764 -0.4672
   98TCq2    C2 1493   3.928   1.899   0.712  0.4871 -0.0504  0.0654
   98TCq2    C3 1494   4.025   1.803   0.722 -0.6128  0.1562  0.4958
   98TCq2    C4 1495   4.136   1.818   0.649 -0.6378 -0.4783 -0.0457
   98TCq2    C5 1496   4.142   1.922   0.562 -0.0012  0.2443  0.9061
   98TCq2    C6 1497   4.048   2.017   0.549  0.2838 -0.2855 -0.3154
   98TCq2    C7 1498   3.932   2.004   0.626  0.6151  0.1687  0.2738
   98TCq2    C8 1499   4.096   2.146   0.488 -0.6538 -0.3410  0.1670
   98TCq2    O4 1500   4.186   2.151   0.404 -0.0747 -0.6539 -0.6456
   98TCq2    C9 1501   4.242   1.727   0.670 -0.2922  0.6655 -0.4684
   98TCq2    O5 1502   4.221   1.644   0.764 -0.2952 -0.1041 -0.5831
   98TCq2    O6 1503   4.348   1.742   0.604  0.3471  0.3347 -0.4265
   98TCq2    H2 1504   4.012   1.717   0.787 -1.8852  0.2532  0.3673
   98TCq2    H3 1505   4.232   1.923   0.501 -2.4805  1.1012 -2.7526
   98TCq2    H4 1506   3.857   2.082   0.624 -0.3338 -0.7659 -0.3369
   99MPD2     C 1507   2.529   4.428   1.704  0.0865  0.0718  0.4332
   99MPD2    C1 1508   2.402   4.382   1.707  0.1970 -0.5730  1.2316
   99MPD2    C2 1509   2.338   4.354   1.584 -0.5342  0.0827 -0.4677
   99MPD2    C3 1510   2.403   4.357   1.465 -0.2816  1.1051 -0.3970
   99MPD2    C4 1511   2.534   4.402   1.470  0.9858 -0.0774 -0.1734
   99MPD2    C5 1512   2.593   4.441   1.587  0.7728 -0.0786  0.1689
   99MPD2     H 1513   2.234   4.324   1.593 -0.0666 -1.9722 -1.9207
   99MPD2    H1 1514   2.592   4.397   1.379  0.2289  1.4882 -0.7562
   99MPD2    H2 1515   2.584   4.450   1.795 -2.2166  0.4989  1.7168
   99MPD2    H3 1516   2.701   4.445   1.587  0.8135 -1.2243  0.6534
   99MPD2     N 1517   2.350   4.324   1.338  0.7416 -0.1434 -0.1543
   99MPD2    H5 1518   2.402   4.338   1.252 -0.3071  0.8741 -0.6188
   99MPD2    N1 1519   2.324   4.374   1.830  1.0369  0.3376  0.4484
   99MPD2    H7 1520   2.228   4.345   1.818  0.5939  1.7550  0.5535
  100TCq2    C1 1521   2.369   4.411   1.955  0.0018  0.0269  0.3793
  100TCq2    O2 1522   2.483   4.427   1.996  0.2487 -0.0776  0.0905
  100TCq2    C2 1523   2.280   4.389   2.065 -0.3001 -0.0701 -0.1595
  100TCq2    C3 1524   2.337   4.416   2.188  0.3642 -0.3293 -0.6075
  100TCq2    C4 1525   2.257   4.397   2.295  0.5504  0.2467 -0.0266
  100TCq2    C5 1526   2.136   4.339   2.292 -0.1497 -0.4648 -0.7095
  100TCq2    C6 1527   2.084   4.308   2.166  0.2225  0.2935 -0.3489
  100TCq2    C7 1528   2.152   4.331   2.046 -0.1138  0.5189  0.4200
  100TCq2    C8 1529   1.940   4.269   2.168  0.2670  0.1305  0.5471
  100TCq2    O4 1530   1.893   4.273   2.278  0.3018 -0.0103 -0.4668
  100TCq2    C9 1531   2.307   4.438   2.426  0.4147  0.3354 -0.0680
  100TCq2    O5 1532   2.250   4.399   2.526  0.0585 -0.4319 -0.2873
  100TCq2    O6 1533   2.408   4.514   2.423  0.0615 -0.3137 -0.4760
  100TCq2    H2 1534   2.430   4.470   2.205 -0.4794  1.3984 -1.4473
  100TCq2    H3 1535   2.080   4.339   2.385 -0.5844 -1.9456 -0.9627
  100TCq2    H4 1536   2.102   4.322   1.950  0.1252  1.5776  0.1900
  101MPD2     C 1537   3.121   0.702  13.165 -0.0318 -0.1214 -1.1618
  101MPD2    C1 1538   2.986   0.745  13.163 -0.0467 -0.2578  0.2361
  101MPD2    C2 1539   2.898   0.714  13.265  0.2026  0.3333  0.2999
  101MPD2    C3 1540   2.941   0.624  13.365  0.3708  0.1682  0.0570
  101MPD2    C4 1541   3.074   0.591  13.367  0.3377  0.3398 -0.3384
  101MPD2    C5 1542   3.161   0.624  13.269  0.3358  0.0917 -0.9308
  101MPD2     H 1543   2.800   0.758  13.279  1.0913  2.0700  1.1458
  101MPD2    H1 1544   3.120   0.520  13.434 -0.6466  0.8313  0.8566
  101MPD2    H2 1545   3.190   0.720  13.084  0.8569  0.0158 -0.3755
  101MPD2    H3 1546   3.262   0.584  13.273 -0.4343 -2.0106 -2.3421
  101MPD2     N 1547   2.846   0.574  13.454 -0.5674  0.0978 -0.4641
  101MPD2    H5 1548   2.750   0.609  13.450 -0.6854 -0.2651 -0.8585
  101MPD2    N1 1549   2.947   0.819  13.053 -0.0081 -0.0227  0.6362
  101MPD2    H7 1550   3.019   0.863  12.996 -1.3076  0.2771 -0.7785
  102TCq2    C1 1551   3.014   1.002  12.602  0.3053 -0.0704  0.1613
  102TCq2    O2 1552   3.132   0.980  12.625  0.3098  0.0073  0.1646
  102TCq2    C2 1553   2.920   1.025  12.711  0.4428 -0.3332 -0.2859
  102TCq2    C3 1554   2.817   1.098  12.685 -0.0843 -0.5094 -0.2911
  102TCq2    C4 1555   2.710   1.111  12.775 -0.5073  1.0369  0.0905
  102TCq2    C5 1556   2.715   1.041  12.891 -0.7112 -0.7380 -0.4173
  102TCq2    C6 1557   2.823   0.954  12.906  0.2019 -0.0210  0.1934
  102TCq2    C7 1558   2.920   0.942  12.817  0.3729 -0.1901  0.5898
  102TCq2    C8 1559   2.823   0.865  13.021 -0.0291 -0.5769 -0.5210
  102TCq2    O4 1560   2.720   0.860  13.087  0.1743  0.7583  0.4257
  102TCq2    C9 1561   2.599   1.204  12.761  0.5306  0.5801 -0.1957
  102TCq2    O5 1562   2.512   1.203  12.850 -0.2691 -0.4441  0.3416
  102TCq2    O6 1563   2.600   1.280  12.666 -0.0636  0.0542 -0.3072
  102TCq2    H2 1564   2.806   1.161  12.597  1.2990  0.0496 -0.0653
  102TCq2    H3 1565   2.634   1.033  12.963  0.1623 -1.7688  0.4567
  102TCq2    H4 1566   2.997   0.866  12.825 -1.7800 -2.7066 -2.3847
  103TMC2    C1 1567   1.348   0.693  12.832  0.2207  0.6577 -1.3297
  103TMC2    C2 1568   1.408   0.760  12.732 -0.2804  0.2943  0.2192
  103TMC2    C3 1569   1.488   0.868  12.759 -0.5035  0.1843  0.0050
  103TMC2    C4 1570   1.377   0.713  12.965 -0.0505  0.1966 -0.1219
  103TMC2    C5 1571   1.461   0.819  12.987 -0.4559 -0.0572 -0.2493
  103TMC2    C6 1572   1.509   0.907  12.890  0.0277 -0.1873  0.3475
  103TMC2     C 1573   1.318   0.557  12.794  0.4458  0.1038 -0.4368
  103TMC2     O 1574   1.335   0.477  12.886 -0.2421 -0.0885 -0.0269
  103TMC2     H 1575   1.407   0.721  12.631 -0.0945 -1.8140  1.0335
  103TMC2    H1 1576   1.335   0.654  13.046 -1.6595 -0.1375 -1.2038
  103TMC2    H2 1577   1.581   0.988  12.896  0.2335 -0.2907 -0.6361
  103TMC2    C7 1578   1.448   0.869  13.123 -0.0099 -0.0254  0.3168
  103TMC2    C8 1579   1.583   0.915  12.657 -0.8784  0.3996 -0.3887
  103TMC2    O1 1580   1.417   0.795  13.217  0.6811 -0.0308  0.0963
  103TMC2    O2 1581   1.617   0.844  12.564 -0.0992 -0.0910 -0.6781
  103TMC2    O5 1582   1.610   1.043  12.667 -0.8092  0.3025 -0.0040
  103TMC2    H5 1583   1.556   1.089  12.735 -0.9385 -0.5768  0.4927
  104MPD2     C 1584   1.287   0.306  12.641 -0.3550 -0.0725 -0.4407
  104MPD2    C1 1585   1.205   0.418  12.623  0.6986  0.6401 -0.3632
  104MPD2    C2 1586   1.117   0.415  12.521  0.4796 -0.6045 -0.0093
  104MPD2    C3 1587   1.090   0.293  12.454  0.1767  0.0446  0.7891
  104MPD2    C4 1588   1.157   0.180  12.496 -0.6385  0.2162  0.6364
  104MPD2    C5 1589   1.254   0.183  12.592 -0.2954 -0.2491 -0.0851
  104MPD2     H 1590   1.052   0.496  12.487 -0.1719 -1.5999 -1.1701
  104MPD2    H1 1591   1.146   0.079  12.456 -1.3525 -0.7675  3.3180
  104MPD2    H2 1592   1.377   0.324  12.698 -2.2126  2.4769  1.6926
  104MPD2    H3 1593   1.316   0.102  12.629 -0.7460 -0.8789 -0.7064
  104MPD2     N 1594   0.973   0.278  12.371  0.1756 -0.3838  0.6942
  104MPD2    H5 1595   0.915   0.361  12.360  1.1924  0.4911  1.8636
  104MPD2    N1 1596   1.248   0.541  12.677  0.7896 -0.2135  0.0769
  104MPD2    H7 1597   1.209   0.618  12.623  0.2315 -2.3638 -2.5793
  105MPD2     C 1598   2.794   4.659   0.114  0.7406  0.2158  0.5181
  105MPD2    C1 1599   2.792   0.081   0.125 -0.2800  0.3495  0.2518
  105MPD2    C2 1600   2.751   0.137   0.238 -0.1840 -0.2428 -0.1189
  105MPD2    C3 1601   2.695   0.058   0.333 -0.0527  0.0419 -0.2957
  105MPD2    C4 1602   2.682   4.641   0.318 -0.5759 -0.3456 -0.2336
  105MPD2    C5 1603   2.724   4.582   0.203  0.4339 -0.2545 -0.1186
  105MPD2     H 1604   2.754   0.243   0.262 -0.8672 -0.2803  0.1149
  105MPD2    H1 1605   2.629   4.585   0.395  1.3733 -1.1173  0.5516
  105MPD2    H2 1606   2.821   4.616   0.018  2.2717 -0.1323  1.1036
  105MPD2    H3 1607   2.740   4.475   0.202  2.5966  0.0708  0.4253
  105MPD2     N 1608   2.635   0.135   0.441 -0.0384 -0.1903 -0.0003
  105MPD2    H5 1609   2.667   0.231   0.445 -0.2844 -0.2352  2.8492
  105MPD2    N1 1610   2.839   0.171   0.019  0.5703 -0.7979 -0.1773
  105MPD2    H7 1611   2.850   0.265   0.053  1.1578 -1.1240  0.5175
  106TCq2    C1 1612   2.548   0.091   0.531 -0.6147 -0.1607  0.3312
  106TCq2    O2 1613   2.517   4.697   0.543 -0.1854  0.4105  0.3437
  106TCq2    C2 1614   2.509   0.187   0.629 -0.9066  0.2370  0.2994
  106TCq2    C3 1615   2.535   0.318   0.625  0.8221 -0.3768 -0.2686
  106TCq2    C4 1616   2.486   0.402   0.724 -0.1636  0.9612 -0.1176
  106TCq2    C5 1617   2.407   0.355   0.822  0.6128 -0.2026  0.7111
  106TCq2    C6 1618   2.391   0.220   0.825 -0.3784 -0.7146  0.3228
  106TCq2    C7 1619   2.431   0.139   0.729 -0.5126 -0.0115 -0.5306
  106TCq2    C8 1620   2.305   0.155   0.921  0.1909  0.1514 -0.2793
  106TCq2    O4 1621   2.276   0.037   0.896 -0.6050 -0.2256 -0.2655
  106TCq2    C9 1622   2.503   0.543   0.696  0.0495 -0.0757 -0.4531
  106TCq2    O5 1623   2.548   0.583   0.591 -0.4455  0.2289  0.0688
  106TCq2    O6 1624   2.454   0.618   0.785 -0.0733  0.2920  0.0816
  106TCq2    H2 1625   2.594   0.356   0.543 -0.3278 -0.8787 -1.3249
  106TCq2    H3 1626   2.363   0.427   0.890 -1.3033  0.5750 -1.3480
  106TCq2    H4 1627   2.410   0.033   0.737 -0.6240  0.0042 -0.6112
  107TMC2    C1 1628   2.976   3.863  11.513  0.2944  0.2968 -0.1683
  107TMC2    C2 1629   2.928   3.766  11.587 -0.3879  0.4299 -0.3574
  107TMC2    C3 1630   2.911   3.637  11.537 -0.0716 -0.3850  0.0672
  107TMC2    C4 1631   3.008   3.849  11.381 -0.8661 -0.0093  0.4022
  107TMC2    C5 1632   2.987   3.722  11.336  0.2506 -0.5817  0.0171
  107TMC2    C6 1633   2.928   3.619  11.401  0.2243  0.0533  1.0391
  107TMC2     C 1634   3.040   3.970  11.585 -0.1686 -0.0294  0.0331
  107TMC2     O 1635   2.996   3.999  11.695 -0.1949  0.4248  0.4386
  107TMC2     H 1636   2.899   3.784  11.690  1.0715 -1.5080  0.3802
  107TMC2    H1 1637   3.049   3.928  11.318 -1.6433  0.3803  0.3851
  107TMC2    H2 1638   2.894   3.522  11.368 -0.5131  0.4786  0.5245
  107TMC2    C7 1639   2.997   3.689  11.195  0.5222  0.7111  0.9494
  107TMC2    C8 1640   2.818   3.549  11.600 -0.4706 -0.5419  0.5236
  107TMC2    O1 1641   2.918   3.597  11.164  0.4955  0.4857 -0.6396
  107TMC2    O2 1642   2.723   3.576  11.672 -0.2952  0.2339  0.6143
  107TMC2    O5 1643   2.888   3.433  11.607  0.5086 -0.6972  0.0604
  107TMC2    H5 1644   2.975   3.435  11.561 -0.7642 -0.1614 -2.3350
  108MPD2     C 1645   3.375   4.123  11.519 -0.4458  0.2740  0.3747
  108MPD2    C1 1646   3.256   4.098  11.589  0.8201 -0.0475  0.0408
  108MPD2    C2 1647   3.248   4.158  11.717  0.6187  0.5164 -0.3161
  108MPD2    C3 1648   3.356   4.219  11.771  0.0694  0.2750 -0.0213
  108MPD2    C4 1649   3.480   4.218  11.706  0.3989 -0.4711 -0.3269
  108MPD2    C5 1650   3.483   4.179  11.576  0.0750 -0.3301 -0.0880
  108MPD2     H 1651   3.153   4.144  11.766  0.4835  3.6025  0.3070
  108MPD2    H1 1652   3.574   4.253  11.748 -0.6500  0.1156  1.5008
  108MPD2    H2 1653   3.372   4.098  11.413 -0.8464 -0.6112  0.5983
  108MPD2    H3 1654   3.577   4.194  11.524 -0.2110 -0.7272 -0.7054
  108MPD2     N 1655   3.362   4.289  11.895  0.7819 -0.2793 -0.0140
  108MPD2    H5 1656   3.448   4.339  11.915  1.9886 -1.8229 -1.3207
  108MPD2    N1 1657   3.156   4.017  11.529  0.7522  0.2980 -0.0427
  108MPD2    H7 1658   3.182   3.964  11.447  1.1303  0.0921  0.2130
  109MPD2     C 1659   2.422   1.550   2.159  0.1269  0.8287  0.4995
  109MPD2    C1 1660   2.516   1.630   2.104  0.0065 -0.3465 -0.1536
  109MPD2    C2 1661   2.646   1.589   2.087 -0.1039  0.1411  0.0713
  109MPD2    C3 1662   2.686   1.471   2.151 -0.4232  0.2430  0.2552
  109MPD2    C4 1663   2.592   1.387   2.216 -0.8216 -0.4620 -0.1100
  109MPD2    C5 1664   2.459   1.427   2.214  0.4788 -0.2929 -0.2375
  109MPD2     H 1665   2.723   1.659   2.055  1.5264 -1.4194  0.5578
  109MPD2    H1 1666   2.614   1.286   2.250 -1.3734 -0.9981 -1.3623
  109MPD2    H2 1667   2.317   1.575   2.162 -0.5016 -1.7213  0.0890
  109MPD2    H3 1668   2.380   1.364   2.253 -0.3446  0.3155 -0.9520
  109MPD2     N 1669   2.829   1.467   2.171 -0.1108  0.4654 -0.2519
  109MPD2    H5 1670   2.885   1.541   2.130 -0.1228 -0.4999 -2.0131
  109MPD2    N1 1671   2.466   1.747   2.049 -0.0209  0.0217 -0.0639
  109MPD2    H7 1672   2.368   1.760   2.074 -0.4154  0.6684 -1.9053
  110TCq2    C1 1673   2.895   1.379   2.257  0.6720  0.5862 -0.2257
  110TCq2    O2 1674   2.844   1.304   2.341  0.1589  0.7712 -0.3482
  110TCq2    C2 1675   3.035   1.387   2.244 -0.6915 -0.0168  0.1996
  110TCq2    C3 1676   3.110   1.311   2.331 -0.3258  0.0683 -0.4391
  110TCq2    C4 1677   3.248   1.330   2.333  0.6013 -0.0219  0.2763
  110TCq2    C5 1678   3.309   1.402   2.233 -0.7620  0.3508  0.2317
  110TCq2    C6 1679   3.229   1.473   2.147 -0.4058 -0.0867  0.5327
  110TCq2    C7 1680   3.091   1.465   2.146 -0.6599  0.4366 -0.4873
  110TCq2    C8 1681   3.281   1.560   2.049  0.1382 -0.0448 -0.3710
  110TCq2    O4 1682   3.197   1.637   2.000  0.8898 -0.2332 -0.5291
  110TCq2    C9 1683   3.322   1.262   2.436 -0.9487  0.2081 -0.1126
  110TCq2    O5 1684   3.448   1.271   2.436 -0.0754 -0.0999  0.3643
  110TCq2    O6 1685   3.254   1.194   2.519 -0.3261 -0.1351  0.0558
  110TCq2    H2 1686   3.061   1.268   2.417  0.5697  3.2094  1.6586
  110TCq2    H3 1687   3.417   1.403   2.227 -0.8772 -2.8076 -1.7960
  110TCq2    H4 1688   3.030   1.516   2.072 -2.3173  1.8934  1.8670
  111TMC2    C1 1689   3.423   1.438  11.084  0.4091 -0.6396 -0.0524
  111TMC2    C2 1690   3.515   1.492  10.999 -0.7836  0.2458 -0.1316
  111TMC2    C3 1691   3.643   1.495  11.045  0.1674  0.3730  0.4004
  111TMC2    C4 1692   3.458   1.365  11.197 -0.0607 -0.6196  0.6282
  111TMC2    C5 1693   3.595   1.351  11.215 -1.1896  1.2385  0.2402
  111TMC2    C6 1694   3.685   1.429  11.153  0.0139  1.0021 -0.3621
  111TMC2     C 1695   3.290   1.486  11.059  0.3321 -0.1406  0.3175
  111TMC2     O 1696   3.261   1.523  10.946  0.0781 -0.3457  0.2761
  111TMC2     H 1697   3.478   1.545  10.913 -0.9201 -2.2483 -1.6066
  111TMC2    H1 1698   3.394   1.312  11.267 -1.2548  3.3175  2.5225
  111TMC2    H2 1699   3.790   1.433  11.178  0.5144 -2.6533 -1.9294
  111TMC2    C7 1700   3.631   1.283  11.342 -0.2565  0.5305  0.1073
  111TMC2    C8 1701   3.735   1.594  10.992  0.3599 -0.8107  0.5069
  111TMC2    O1 1702   3.550   1.264  11.432 -0.1761  0.1566 -0.5382
  111TMC2    O2 1703   3.823   1.651  11.058 -0.9119 -0.2678  0.0713
  111TMC2    O5 1704   3.702   1.620  10.865 -0.5613  0.0772 -0.4119
  111TMC2    H5 1705   3.633   1.566  10.821 -1.1867  1.5624 -1.2481
  112MPD2     C 1706   2.835   1.657  11.211 -0.1111 -0.0800 -0.1231
  112MPD2    C1 1707   2.903   1.660  11.089 -0.5784  0.0909  0.0823
  112MPD2    C2 1708   3.022   1.604  11.073 -0.2667 -0.5624  0.7623
  112MPD2    C3 1709   3.084   1.539  11.181 -0.2573 -0.8709  0.5666
  112MPD2    C4 1710   3.015   1.524  11.298  0.1059  0.1852 -0.0414
  112MPD2    C5 1711   2.892   1.589  11.318  0.2127 -0.3345 -0.0144
  112MPD2     H 1712   3.053   1.604  10.969  1.2771  1.4911  1.2356
  112MPD2    H1 1713   3.061   1.476  11.383 -2.5352 -2.2124  0.0296
  112MPD2    H2 1714   2.744   1.714  11.224  0.2046  0.1055  1.2296
  112MPD2    H3 1715   2.854   1.593  11.419 -0.5400 -0.7878 -0.2848
  112MPD2     N 1716   3.214   1.481  11.170  0.3549  0.3517  0.1626
  112MPD2    H5 1717   3.251   1.444  11.256  1.7219 -0.5751 -0.8216
  112MPD2    N1 1718   2.862   1.732  10.972  0.0581  0.4401 -0.3765
  112MPD2    H7 1719   2.918   1.746  10.889 -0.2129 -1.6554 -0.9250
  113MPD2     C 1720   1.787   4.166   1.378  0.8939  0.0739  0.7688
  113MPD2    C1 1721   1.653   4.200   1.384  0.5438  1.0322 -0.0957
  113MPD2    C2 1722   1.593   4.208   1.258 -0.1869  1.1385 -0.2371
  113MPD2    C3 1723   1.656   4.197   1.134  0.0680  0.1558  0.0121
  113MPD2    C4 1724   1.790   4.165   1.138  0.3999  0.8057  1.0008
  113MPD2    C5 1725   1.856   4.156   1.258 -0.0770 -0.1652 -0.3486
  113MPD2     H 1726   1.490   4.241   1.254 -1.0118 -1.1877  1.6902
  113MPD2    H1 1727   1.838   4.139   1.044  0.8059 -0.2966  1.5090
  113MPD2    H2 1728   1.839   4.177   1.472  2.1356 -0.0700  0.0979
  113MPD2    H3 1729   1.961   4.129   1.259 -0.7588 -2.7642  0.5794
  113MPD2     N 1730   1.599   4.229   1.010 -0.0344  0.3053  0.3690
  113MPD2    H5 1731   1.665   4.229   0.933 -0.1653  1.4076  0.2502
  113MPD2    N1 1732   1.589   4.231   1.511 -0.9822  0.3378 -0.3230
  113MPD2    H7 1733   1.652   4.235   1.591  0.0537  1.2067 -1.1824
  114TCq2    C1 1734   1.468   4.250   0.986 -0.1853 -0.2374  0.3397
  114TCq2    O2 1735   1.372   4.221   1.061  0.2144  0.2474  0.3094
  114TCq2    C2 1736   1.446   4.309   0.855  0.2984 -0.0192 -0.4964
  114TCq2    C3 1737   1.547   4.378   0.795  0.2477 -1.0380  0.4103
  114TCq2    C4 1738   1.522   4.441   0.678  0.1158  0.1053 -0.2565
  114TCq2    C5 1739   1.399   4.427   0.619  0.0171 -0.6099 -0.0547
  114TCq2    C6 1740   1.305   4.339   0.676 -0.5515  0.7642 -0.2044
  114TCq2    C7 1741   1.325   4.292   0.800 -0.0167  0.5875 -0.1682
  114TCq2    C8 1742   1.177   4.341   0.618  0.0959 -0.3369 -1.0668
  114TCq2    O4 1743   1.149   4.436   0.543 -0.5265 -0.1140  0.9129
  114TCq2    C9 1744   1.623   4.530   0.620  0.0572 -0.2599 -0.2358
  114TCq2    O5 1745   1.587   4.605   0.527 -0.1244 -0.5337 -0.6764
  114TCq2    O6 1746   1.739   4.547   0.674  0.5997 -0.4406 -0.3260
  114TCq2    H2 1747   1.644   4.402   0.837 -0.1124 -0.4667  0.9187
  114TCq2    H3 1748   1.377   4.478   0.526 -0.7656 -0.9828 -0.0745
  114TCq2    H4 1749   1.266   4.218   0.852 -0.8934  0.4909 -1.3078
  115TMC2    C1 1750   2.209   2.307   0.113 -0.0584  0.4213  0.2806
  115TMC2    C2 1751   2.339   2.287   0.143  0.0759 -1.0820  0.5611
  115TMC2    C3 1752   2.421   2.395   0.152  0.3157 -0.0896 -0.0249
  115TMC2    C4 1753   2.166   2.433   0.097 -0.5524 -0.1605  0.2006
  115TMC2    C5 1754   2.251   2.538   0.102 -0.1061  0.1474  0.0608
  115TMC2    C6 1755   2.382   2.521   0.130 -0.6130  0.2351 -0.2085
  115TMC2     C 1756   2.130   2.187   0.089 -0.8141 -0.0155  0.3750
  115TMC2     O 1757   2.187   2.082   0.068 -0.1210  0.0737 -0.0729
  115TMC2     H 1758   2.396   2.195   0.140 -2.3254 -2.4870 -1.6901
  115TMC2    H1 1759   2.060   2.448   0.078 -0.4316  0.7132  0.2182
  115TMC2    H2 1760   2.452   2.601   0.151  2.0825 -1.7157 -1.8518
  115TMC2    C7 1761   2.217   2.676   0.067  0.8460 -0.5483  0.7941
  115TMC2    C8 1762   2.565   2.375   0.166 -1.3121  0.4297  1.2450
  115TMC2    O1 1763   2.099   2.705   0.070  0.1953 -0.8777 -0.0084
  115TMC2    O2 1764   2.633   2.469   0.135 -0.2650 -0.0642  0.0254
  115TMC2    O5 1765   2.590   2.287   0.263 -0.0957  0.0153  0.0642
  115TMC2    H5 1766   2.530   2.223   0.306  1.3854 -2.1914 -1.1279
  116MPD2     C 1767   1.656   2.023  17.676 -0.3586 -0.3302 -0.2218
  116MPD2    C1 1768   1.778   1.966  17.643 -0.2048  0.4180 -0.5182
  116MPD2    C2 1769   1.894   2.021  17.685 -0.1816  0.1342 -0.3176
  116MPD2    C3 1770   1.882   2.142   0.070  0.2439 -0.0442  0.4410
  116MPD2    C4 1771   1.758   2.196   0.111 -0.7572 -0.3459 -0.4569
  116MPD2    C5 1772   1.647   2.134   0.067 -0.2373  0.2244 -0.3840
  116MPD2     H 1773   1.993   1.988  17.654  1.2446  3.5356  0.6331
  116MPD2    H1 1774   1.743   2.286   0.170  0.9377  0.1985 -0.8187
  116MPD2    H2 1775   1.560   1.984  17.644 -1.0376  1.4224 -0.3697
  116MPD2    H3 1776   1.556   2.180   0.103  0.1808  0.3117  0.5402
  116MPD2     N 1777   1.992   2.213   0.106  0.3973 -0.0494  0.5117
  116MPD2    H5 1778   1.968   2.304   0.146 -1.3701 -0.0471 -0.5854
  116MPD2    N1 1779   1.776   1.850  17.562 -0.2857 -0.2156  0.2412
  116MPD2    H7 1780   1.682   1.812  17.557  0.3878 -1.9202  0.6366
  117TMC2    C1 1781   1.211   3.226  14.263 -0.4339 -0.0506  0.7943
  117TMC2    C2 1782   1.321   3.165  14.315 -0.7127  0.2713 -0.9858
  117TMC2    C3 1783   1.445   3.199  14.271  0.1164 -0.1616  0.0597
  117TMC2    C4 1784   1.222   3.326  14.170 -0.2742 -0.3063  0.1384
  117TMC2    C5 1785   1.347   3.367  14.140  0.0336 -0.2162 -0.2184
  117TMC2    C6 1786   1.458   3.304  14.189 -0.5417  0.3916 -1.2707
  117TMC2     C 1787   1.082   3.166  14.292  0.6575 -0.4802  0.2499
  117TMC2     O 1788   1.078   3.085  14.385  0.2435 -0.4209  0.1851
  117TMC2     H 1789   1.308   3.090  14.393  1.4795  0.6035 -0.3077
  117TMC2    H1 1790   1.135   3.370  14.123 -0.0074 -1.5565 -1.5102
  117TMC2    H2 1791   1.552   3.350  14.161  0.3233 -0.4819  0.2478
  117TMC2    C7 1792   1.364   3.503  14.099  0.4328 -0.1928 -0.3813
  117TMC2    C8 1793   1.543   3.175  14.372 -0.7631 -0.6914 -0.1017
  117TMC2    O1 1794   1.474   3.527  14.045 -0.9448 -0.1157 -0.2234
  117TMC2    O2 1795   1.526   3.219  14.482  0.4962  0.0408  0.4112
  117TMC2    O5 1796   1.657   3.203  14.307 -0.4484 -0.2852 -0.1325
  117TMC2    H5 1797   1.651   3.147  14.226 -0.5450 -1.4806  0.6974
  118MPD2     C 1798   1.129   3.781  14.126  0.9627  0.1474  0.0998
  118MPD2    C1 1799   1.251   3.726  14.098  0.1330  0.9210 -0.3813
  118MPD2    C2 1800   1.360   3.808  14.068 -0.2559  0.1893  0.0345
  118MPD2    C3 1801   1.334   3.941  14.038  0.1280 -0.1932 -0.7916
  118MPD2    C4 1802   1.202   3.981  14.030 -0.3754 -0.0315 -0.1461
  118MPD2    C5 1803   1.104   3.907  14.079 -0.1554  0.2513 -0.7194
  118MPD2     H 1804   1.459   3.768  14.048  1.3270  3.6082  0.9301
  118MPD2    H1 1805   1.178   4.081  13.995 -0.4901  0.4680  1.3366
  118MPD2    H2 1806   1.051   3.723  14.174  0.4789  2.0256  1.5866
  118MPD2    H3 1807   1.010   3.956  14.100 -0.2516 -0.5257  0.7089
  118MPD2     N 1808   1.430   4.032  13.988 -0.1715 -0.7031 -0.5012
  118MPD2    H5 1809   1.396   4.125  13.964  1.4126 -0.3403 -1.3475
  118MPD2    N1 1810   1.256   3.587  14.110  0.1151 -0.0282 -0.3394
  118MPD2    H7 1811   1.175   3.551  14.161 -0.9438  3.2885  0.3351
  119MPD2     C 1812   4.182   0.390  13.353  0.0587 -0.1614  0.8966
  119MPD2    C1 1813   4.083   0.306  13.408  0.4604 -0.2934  0.3544
  119MPD2    C2 1814   3.983   0.261  13.322 -0.0256 -0.5294 -0.5212
  119MPD2    C3 1815   3.974   0.305  13.191 -0.2424  0.1684  0.2854
  119MPD2    C4 1816   4.072   0.394  13.136  0.2950 -0.2789  0.0691
  119MPD2    C5 1817   4.176   0.425  13.223  0.0288 -0.4694  0.3032
  119MPD2     H 1818   3.909   0.199  13.371 -1.7271  1.1632 -0.9581
  119MPD2    H1 1819   4.065   0.434  13.035 -0.8452  2.0488  1.0783
  119MPD2    H2 1820   4.267   0.407  13.417  1.0814 -1.1416 -0.2060
  119MPD2    H3 1821   4.251   0.491  13.180  0.7390 -1.6301 -0.2282
  119MPD2     N 1822   3.877   0.254  13.100  0.6794 -0.1839 -0.6357
  119MPD2    H5 1823   3.869   0.292  13.007 -2.8274  2.1886  0.6143
  119MPD2    N1 1824   4.077   0.273  13.542 -0.0972 -0.5228 -0.0937
  119MPD2    H7 1825   3.994   0.220  13.568 -0.1598 -0.4753 -0.1986
  120TCq2    C1 1826   3.796   0.147  13.132 -0.3454  0.2173 -0.0750
  120TCq2    O2 1827   3.771   0.090  13.240  0.9064  0.0224  0.1495
  120TCq2    C2 1828   3.707   0.127  13.016 -0.6426 -0.0843  0.5152
  120TCq2    C3 1829   3.746   0.161  12.887 -0.1606 -0.4959  0.1524
  120TCq2    C4 1830   3.658   0.141  12.781  0.9054 -0.5133  0.2939
  120TCq2    C5 1831   3.528   0.092  12.810  0.8534 -0.0282 -0.3953
  120TCq2    C6 1832   3.499   0.054  12.940 -0.6337  0.4826 -0.3723
  120TCq2    C7 1833   3.584   0.081  13.042 -0.0567  0.0200  0.1249
  120TCq2    C8 1834   3.375   4.695  12.958 -0.1391  0.0323  0.1645
  120TCq2    O4 1835   3.289   4.704  12.869 -0.0138  0.0467  0.6003
  120TCq2    C9 1836   3.689   0.179  12.646  0.4356  0.3262 -0.4289
  120TCq2    O5 1837   3.610   0.132  12.557  0.0106 -0.0543 -0.3030
  120TCq2    O6 1838   3.806   0.228  12.631  0.4062 -0.0662  0.0621
  120TCq2    H2 1839   3.845   0.196  12.859 -1.1241  0.6890 -1.7419
  120TCq2    H3 1840   3.469   0.061  12.725 -0.3445  0.5426  0.2346
  120TCq2    H4 1841   3.567   0.060  13.147  0.3542  0.8482  0.3556
  121TMC2    C1 1842   0.632   1.941  14.204  0.2353 -0.0133  0.7418
  121TMC2    C2 1843   0.647   1.852  14.309  0.0054 -0.4369 -0.1745
  121TMC2    C3 1844   0.531   1.785  14.342 -0.5684 -0.3282  0.1609
  121TMC2    C4 1845   0.518   1.972  14.134  0.4366  0.2783  0.0034
  121TMC2    C5 1846   0.405   1.902  14.171 -0.1629 -0.0932 -0.2912
  121TMC2    C6 1847   0.418   1.816  14.278  0.0126  0.4701 -0.5702
  121TMC2     C 1848   0.758   2.007  14.161 -0.3783  0.1177 -0.0269
  121TMC2     O 1849   0.839   2.031  14.251 -0.1603 -0.3209 -0.7149
  121TMC2     H 1850   0.735   1.844  14.372  0.9369  1.3698 -1.2470
  121TMC2    H1 1851   0.508   2.055  14.064 -0.4022 -1.1949 -1.6247
  121TMC2    H2 1852   0.326   1.762  14.300  1.5645 -1.9168  0.0391
  121TMC2    C7 1853   0.281   1.942  14.110 -0.2262  0.1625 -0.1786
  121TMC2    C8 1854   0.531   1.730  14.477 -0.6409 -0.3692  0.3950
  121TMC2    O1 1855   0.283   2.063  14.078 -0.0528  0.0984  0.4172
  121TMC2    O2 1856   0.582   1.794  14.567  0.1489 -0.0966  0.1825
  121TMC2    O5 1857   0.419   1.657  14.493 -0.2879  0.2550  0.0830
  121TMC2    H5 1858   0.406   1.604  14.412  1.0125  0.9592 -0.5763
  122MPD2     C 1859   0.942   2.203  14.018 -0.6120 -0.1684  0.0744
  122MPD2    C1 1860   0.831   2.143  13.963  0.4659  0.2497 -0.4550
  122MPD2    C2 1861   0.778   2.194  13.848 -0.0456 -0.6739 -0.9658
  122MPD2    C3 1862   0.831   2.305  13.780 -0.3831  0.2846  0.5276
  122MPD2    C4 1863   0.936   2.373  13.845  1.0445 -0.0255  0.7696
  122MPD2    C5 1864   0.989   2.316  13.958 -0.1512 -0.4810  0.6809
  122MPD2     H 1865   0.691   2.147  13.804  0.0520 -0.0224 -1.8619
  122MPD2    H1 1866   0.988   2.452  13.792 -1.8017  0.4459 -1.3216
  122MPD2    H2 1867   0.993   2.178  14.110 -1.9019  2.9710  1.6517
  122MPD2    H3 1868   1.075   2.355  14.010 -0.0985  0.9111 -0.4670
  122MPD2     N 1869   0.803   2.346  13.650  0.2177 -0.0507 -0.0429
  122MPD2    H5 1870   0.855   2.428  13.620  0.0623  0.7777  1.9663
  122MPD2    N1 1871   0.750   2.042  14.030 -0.8408  0.2747 -0.6753
  122MPD2    H7 1872   0.681   1.995  13.972  1.1002 -1.9521 -1.1533
  123MPD2     C 1873   2.239   1.063   9.136 -0.3055 -0.4188 -0.4860
  123MPD2    C1 1874   2.255   0.923   9.116  0.2495 -0.0708  0.0965
  123MPD2    C2 1875   2.342   0.879   9.015 -0.2502 -0.6614  0.1110
  123MPD2    C3 1876   2.414   0.977   8.951 -0.8548  0.7330 -0.3192
  123MPD2    C4 1877   2.394   1.116   8.970 -0.0650 -0.0482 -0.2010
  123MPD2    C5 1878   2.304   1.154   9.062 -0.5336 -0.3644  0.6118
  123MPD2     H 1879   2.354   0.774   8.993  1.4677 -0.8051  1.8453
  123MPD2    H1 1880   2.442   1.195   8.914  0.7493  0.5113  1.2736
  123MPD2    H2 1881   2.177   1.098   9.217  0.7334 -0.8022  0.4778
  123MPD2    H3 1882   2.287   1.259   9.082  0.4749 -0.4126  1.7129
  123MPD2     N 1883   2.506   0.936   8.857  0.5798  0.7109  0.2084
  123MPD2    H5 1884   2.495   0.838   8.831 -0.4360  0.5018  1.4601
  123MPD2    N1 1885   2.193   0.838   9.211  0.4328 -0.1754 -0.3222
  123MPD2    H7 1886   2.155   0.888   9.291  1.4130  1.6630 -0.9958
  124TCq2    C1 1887   2.599   1.006   8.789 -0.8630 -0.3077 -0.4229
  124TCq2    O2 1888   2.615   1.124   8.789 -0.2309  0.1080 -0.0513
  124TCq2    C2 1889   2.707   0.921   8.742 -0.4754  0.2372  0.3632
  124TCq2    C3 1890   2.807   0.975   8.670  0.0486  0.4044 -0.6210
  124TCq2    C4 1891   2.922   0.903   8.650  0.7154  0.3600  0.5182
  124TCq2    C5 1892   2.933   0.779   8.696  0.6739 -0.2904 -0.0766
  124TCq2    C6 1893   2.828   0.728   8.766  0.3706 -1.0154  0.0941
  124TCq2    C7 1894   2.706   0.792   8.786  0.0606  0.0849  0.8276
  124TCq2    C8 1895   2.839   0.597   8.825 -0.4218 -0.7005 -0.3909
  124TCq2    O4 1896   2.753   0.561   8.900 -0.3440  0.5315  0.2282
  124TCq2    C9 1897   3.030   0.975   8.592  0.1588 -0.3963 -0.1255
  124TCq2    O5 1898   3.146   0.917   8.584 -0.3660  0.3831 -0.2452
  124TCq2    O6 1899   3.006   1.094   8.559 -0.1719  0.0722  0.3964
  124TCq2    H2 1900   2.793   1.072   8.622  1.4424  0.4750 -0.8695
  124TCq2    H3 1901   3.018   0.721   8.661  0.5993 -0.6274  0.2968
  124TCq2    H4 1902   2.635   0.751   8.858  0.8346 -2.4587  0.1355
  125TMC2    C1 1903   4.099   1.674   9.221  0.1937 -0.3601 -0.1730
  125TMC2    C2 1904   4.116   1.686   9.361 -0.0119 -0.8397  0.8700
  125TMC2    C3 1905   4.232   1.706   9.413  0.4641  0.4071 -0.0989
  125TMC2    C4 1906   4.208   1.676   9.143 -0.7968 -0.3001 -0.2845
  125TMC2    C5 1907   4.334   1.676   9.204 -0.2715 -0.0175  0.1628
  125TMC2    C6 1908   4.348   1.694   9.338 -0.3633 -0.6608  0.7584
  125TMC2     C 1909   3.981   1.601   9.172 -0.2870 -0.3447  0.1452
  125TMC2     O 1910   3.988   1.550   9.060 -0.0573 -0.4999 -0.1571
  125TMC2     H 1911   4.029   1.681   9.426 -0.7330 -0.5776 -0.0798
  125TMC2    H1 1912   4.205   1.660   9.035 -0.3297  2.7129 -0.7380
  125TMC2    H2 1913   4.445   1.676   9.384 -0.4398 -1.2290  0.6950
  125TMC2    C7 1914   4.456   1.655   9.118 -0.1798 -0.3561  0.0519
  125TMC2    C8 1915   4.237   1.731   9.553  0.1156  0.3368 -0.2785
  125TMC2    O1 1916   4.448   1.615   9.004  0.1396 -0.0412  0.0979
  125TMC2    O2 1917   4.133   1.727   9.614 -1.1014 -0.2849 -0.4302
  125TMC2    O5 1918   4.328   1.827   9.565 -0.0608 -0.1422  0.2540
  125TMC2    H5 1919   4.400   1.828   9.499 -1.1824  2.0651 -0.9329
  126MPD1     C 1920   3.505   1.429   9.232  0.4381  0.0636 -0.0879
  126MPD1    C1 1921   3.525   1.535   9.313 -0.6079  0.1211 -0.4051
  126MPD1    C2 1922   3.658   1.579   9.330 -0.0227 -0.5823  0.5030
  126MPD1    C3 1923   3.757   1.528   9.245 -0.3381  0.0404  0.1940
  126MPD1    C4 1924   3.737   1.416   9.167 -0.0844 -0.3566  0.5693
  126MPD1    C5 1925   3.607   1.372   9.157 -0.1281 -0.3433  0.2987
  126MPD1     H 1926   3.673   1.661   9.399  1.5317 -0.8088  0.4464
  126MPD1    H1 1927   3.819   1.372   9.112 -0.8487 -0.9433 -0.0909
  126MPD1    H2 1928   3.407   1.382   9.232  0.0068  0.9866 -2.2941
  126MPD1    H3 1929   3.590   1.278   9.106  0.7189  0.5431 -1.5957
  126MPD1     N 1930   3.877   1.605   9.257  0.2160 -0.0890 -0.4153
  126MPD1    H5 1931   3.878   1.684   9.321 -1.3531 -0.2675 -0.1846
  126MPD1    N1 1932   3.432   1.574   9.409 -0.5971  0.9036 -0.0021
  126MPD1    H6 1933   3.438   1.666   9.451  2.5687  1.0058 -0.6318
  126MPD1    H7 1934   3.338   1.572   9.370 -0.4874  0.4311 -0.2475
  127MPD2     C 1935   1.095   0.935   9.562  0.3691  0.0656 -0.7573
  127MPD2    C1 1936   1.091   0.919   9.696  0.5382 -0.3861  0.2349
  127MPD2    C2 1937   1.152   1.015   9.774 -0.5259  0.0450 -0.2910
  127MPD2    C3 1938   1.184   1.144   9.727  0.3368  0.0397  0.6824
  127MPD2    C4 1939   1.174   1.167   9.589  0.1807  0.2272  0.1415
  127MPD2    C5 1940   1.136   1.050   9.513  0.0257  0.1025 -0.7897
  127MPD2     H 1941   1.149   0.999   9.882 -0.1860  0.3127 -0.2425
  127MPD2    H1 1942   1.199   1.258   9.536  0.9651 -0.2344 -0.2818
  127MPD2    H2 1943   1.058   0.852   9.502  0.4602 -0.2746 -0.3409
  127MPD2    H3 1944   1.136   1.054   9.404  2.6620  0.6969 -0.7702
  127MPD2     N 1945   1.222   1.250   9.814  0.3246 -0.0574  0.3647
  127MPD2    H5 1946   1.227   1.226   9.912 -1.1089 -0.4201  0.3478
  127MPD2    N1 1947   1.041   0.796   9.739  0.3808  0.3810 -0.6358
  127MPD2    H7 1948   0.991   0.733   9.678 -0.1918 -1.2773  1.5718
  128TCq2    C1 1949   1.024   0.758   9.867  0.6284 -0.6029 -0.0548
  128TCq2    O2 1950   1.039   0.813   9.976  0.2518 -0.2157 -0.0932
  128TCq2    C2 1951   0.998   0.620   9.879  1.0003 -0.1430 -0.1833
  128TCq2    C3 1952   0.965   0.571  10.002 -0.2708  0.2607  0.1839
  128TCq2    C4 1953   0.926   0.437  10.005  0.5459  0.4005 -0.8840
  128TCq2    C5 1954   0.929   0.355   9.901 -0.0729 -0.9683 -0.3464
  128TCq2    C6 1955   0.971   0.407   9.782 -0.5200  0.2077  0.9105
  128TCq2    C7 1956   1.004   0.539   9.762  0.6047 -0.3387  0.4132
  128TCq2    C8 1957   0.970   0.327   9.663 -0.3884  0.1955 -0.6892
  128TCq2    O4 1958   1.032   0.362   9.563 -0.2670 -0.2460  0.1526
  128TCq2    C9 1959   0.884   0.387  10.130 -0.3292 -0.6847 -0.6654
  128TCq2    O5 1960   0.793   0.303  10.132  0.6098  0.0422  0.3209
  128TCq2    O6 1961   0.935   0.444  10.233  0.3491 -0.4348  0.1588
  128TCq2    H2 1962   0.951   0.640  10.085  0.4256 -0.4357  0.8798
  128TCq2    H3 1963   0.908   0.251   9.922  1.7578 -0.8587  2.0585
  128TCq2    H4 1964   1.019   0.567   9.659  2.5406  1.6517  1.2218
  129MPD2     C 1965   3.876   1.946   1.280 -0.5945  0.2214 -0.0528
  129MPD2    C1 1966   3.927   1.822   1.248 -0.4117  0.5066 -0.4392
  129MPD2    C2 1967   4.026   1.816   1.152  0.0161  0.5338 -0.3016
  129MPD2    C3 1968   4.078   1.931   1.090 -0.2835  0.5746  0.0368
  129MPD2    C4 1969   4.021   2.056   1.120 -0.8636 -0.4195  0.3123
  129MPD2    C5 1970   3.919   2.061   1.217  1.2058  0.1135 -0.0915
  129MPD2     H 1971   4.061   1.721   1.114 -1.0414 -0.1122  0.3451
  129MPD2    H1 1972   4.067   2.149   1.091 -0.4216 -0.6618  0.2377
  129MPD2    H2 1973   3.794   1.962   1.350 -1.4039  2.6770 -1.5431
  129MPD2    H3 1974   3.887   2.160   1.247 -1.1830  0.0255 -2.3572
  129MPD2     N 1975   4.196   1.918   1.019  0.1335  0.3249 -0.1999
  129MPD2    H5 1976   4.245   1.830   1.030  0.4220  0.3820 -1.0603
  129MPD2    N1 1977   3.880   1.696   1.312 -0.1090 -0.7690  0.3402
  129MPD2    H7 1978   3.924   1.608   1.285  3.3411  0.8817  0.5686
  130TCq2    C1 1979   3.773   1.693   1.399  0.9285 -0.3607  0.7061
  130TCq2    O2 1980   3.715   1.788   1.446 -0.2965  0.4900 -0.1965
  130TCq2    C2 1981   3.755   1.564   1.458  0.9725 -0.7624 -0.0290
  130TCq2    C3 1982   3.865   1.479   1.475 -0.5279 -0.6740 -0.2317
  130TCq2    C4 1983   3.854   1.373   1.553 -0.3215  0.5960  0.4434
  130TCq2    C5 1984   3.733   1.347   1.612  0.0085  0.1204 -0.0904
  130TCq2    C6 1985   3.621   1.434   1.601 -0.2543  0.5280  0.2897
  130TCq2    C7 1986   3.632   1.545   1.515  0.3671 -0.6446 -0.0588
  130TCq2    C8 1987   3.494   1.401   1.659 -0.8217 -0.2698 -0.0705
  130TCq2    O4 1988   3.395   1.460   1.625  0.1529 -0.1325 -0.1112
  130TCq2    C9 1989   3.976   1.309   1.593 -0.0089  0.8397  0.2431
  130TCq2    O5 1990   3.955   1.228   1.691  0.2861 -0.2498 -0.1627
  130TCq2    O6 1991   4.081   1.363   1.548  0.3349 -0.5963  0.2969
  130TCq2    H2 1992   3.966   1.511   1.450  0.2664 -1.8283  1.5525
  130TCq2    H3 1993   3.731   1.264   1.681  2.2588 -0.2676 -0.5014
  130TCq2    H4 1994   3.556   1.622   1.513  0.1915 -0.8062  0.4134
  131MPD2     C 1995   2.767   0.119   9.576  0.3877 -0.0138  0.2141
  131MPD2    C1 1996   2.777   0.229   9.488 -0.5888  0.1792  0.4163
  131MPD2    C2 1997   2.666   0.312   9.476  0.4230  0.5216 -0.3317
  131MPD2    C3 1998   2.542   0.291   9.550  0.3220 -0.2450 -0.1807
  131MPD2    C4 1999   2.540   0.183   9.633 -1.1418  0.2119  0.1285
  131MPD2    C5 2000   2.646   0.096   9.631  0.6547  0.3807  0.3490
  131MPD2     H 2001   2.672   0.390   9.401  0.0449  1.4279  0.5744
  131MPD2    H1 2002   2.445   0.142   9.667 -0.4948  1.1171  3.0595
  131MPD2    H2 2003   2.845   0.046   9.596 -0.5683 -0.8510  0.8489
  131MPD2    H3 2004   2.644   0.013   9.701 -0.4512 -0.1233 -0.2757
  131MPD2     N 2005   2.435   0.371   9.514 -0.6830  0.3775  0.0620
  131MPD2    H5 2006   2.448   0.439   9.440  0.1150 -1.6392 -1.6678
  131MPD2    N1 2007   2.901   0.255   9.430 -0.2287  0.5155  0.6474
  131MPD2    H7 2008   2.973   0.185   9.441 -0.3747 -0.2062 -3.0740
  132TCq2    C1 2009   3.329   0.560   9.174 -0.8950  0.2139 -0.0874
  132TCq2    O2 2010   3.315   0.532   9.057  0.3031  0.4785 -0.4762
  132TCq2    C2 2011   3.280   0.463   9.266 -0.2380 -0.6004 -0.2297
  132TCq2    C3 2012   3.343   0.451   9.389  0.1250  0.6948  0.1161
  132TCq2    C4 2013   3.276   0.392   9.495  0.2682  0.4909  0.1011
  132TCq2    C5 2014   3.149   0.351   9.487 -0.1344 -0.6046  0.4143
  132TCq2    C6 2015   3.082   0.370   9.359  0.6288  0.4522  0.8323
  132TCq2    C7 2016   3.149   0.425   9.249  0.2303  0.1247  0.7570
  132TCq2    C8 2017   2.938   0.361   9.354 -0.0568  0.1156  0.0088
  132TCq2    O4 2018   2.878   0.453   9.297 -0.0504 -0.4718  0.4582
  132TCq2    C9 2019   3.344   0.389   9.618 -0.2381 -0.2001  0.6583
  132TCq2    O5 2020   3.464   0.424   9.614  0.1156 -0.1735  0.3060
  132TCq2    O6 2021   3.277   0.376   9.725 -0.2450  0.0961  0.3330
  132TCq2    H2 2022   3.447   0.478   9.402 -0.3823  2.9706 -0.6479
  132TCq2    H3 2023   3.117   0.304   9.580 -1.4871 -1.2322 -0.3553
  132TCq2    H4 2024   3.098   0.446   9.156  0.3193 -0.9797  0.4592
  133MPD2     C 2025   2.864   0.782   9.775 -0.0870 -0.4893 -0.6030
  133MPD2    C1 2026   2.832   0.916   9.742  0.6487  0.1307  0.5075
  133MPD2    C2 2027   2.809   0.954   9.610  0.4035  0.2828 -0.6499
  133MPD2    C3 2028   2.837   0.869   9.510  0.0812  0.1331  0.5997
  133MPD2    C4 2029   2.875   0.738   9.547 -0.3939  0.0013 -0.4900
  133MPD2    C5 2030   2.871   0.694   9.675 -0.1875 -0.2494 -0.3994
  133MPD2     H 2031   2.757   1.048   9.593  0.9821  1.1365  2.4154
  133MPD2    H1 2032   2.903   0.668   9.469  0.8683 -1.0486  0.8986
  133MPD2    H2 2033   2.878   0.752   9.878  1.6455 -0.3569 -0.8073
  133MPD2    H3 2034   2.901   0.592   9.694 -0.5852  0.1032  2.1674
  133MPD2     N 2035   2.823   0.899   9.376 -0.2230  0.0219  0.0757
  133MPD2    H5 2036   2.845   0.828   9.307  0.3937 -0.2326  0.5347
  133MPD2    N1 2037   2.795   0.987   9.852 -0.1993 -0.0527 -0.0967
  133MPD2    H7 2038   2.806   0.936   9.939 -2.2911  0.3729  0.4146
  134TCq2    C1 2039   2.739   1.115   9.846  0.5577  0.2462  0.3212
  134TCq2    O2 2040   2.719   1.186   9.746  0.1568  0.2199  0.0191
  134TCq2    C2 2041   2.704   1.174   9.974 -0.0281 -0.1677  0.2035
  134TCq2    C3 2042   2.705   1.096  10.086 -0.0430 -0.4841 -0.3153
  134TCq2    C4 2043   2.694   1.149  10.211  0.1101  0.9864  0.1466
  134TCq2    C5 2044   2.683   1.284  10.220 -0.1640  0.7924  0.2914
  134TCq2    C6 2045   2.688   1.360  10.110 -0.1884  0.2816  0.0558
  134TCq2    C7 2046   2.694   1.311   9.988 -0.9115 -0.4221  0.5662
  134TCq2    C8 2047   2.690   1.503  10.140 -0.5488 -0.7693 -0.7045
  134TCq2    O4 2048   2.684   1.537  10.260 -0.4997 -0.1489  0.0693
  134TCq2    C9 2049   2.684   1.060  10.327 -1.0260  1.0557 -0.8670
  134TCq2    O5 2050   2.700   0.938  10.293  0.6815  0.5582  0.1376
  134TCq2    O6 2051   2.707   1.105  10.444 -0.0310 -0.0955 -0.3914
  134TCq2    H2 2052   2.703   0.988  10.085 -3.2582 -0.4859  2.6061
  134TCq2    H3 2053   2.695   1.324  10.321 -1.1947  0.0936  0.6845
  134TCq2    H4 2054   2.687   1.373   9.900  1.1468 -1.4631 -0.3343
  135MPD2     C 2055   0.177   2.560  10.083  0.2748  0.0149  0.7457
  135MPD2    C1 2056   0.189   2.439  10.029  0.3364 -0.1770  0.3395
  135MPD2    C2 2057   0.240   2.412   9.901 -0.6160 -0.0196 -0.5490
  135MPD2    C3 2058   0.313   2.510   9.837  0.0161  0.4876  0.3686
  135MPD2    C4 2059   0.311   2.633   9.892  0.0356  0.3528  0.4064
  135MPD2    C5 2060   0.240   2.661  10.009  0.4830  0.3659  0.7696
  135MPD2     H 2061   0.242   2.308   9.871  0.2240  0.3536 -1.7772
  135MPD2    H1 2062   0.365   2.711   9.840 -1.5583 -0.2634 -2.1698
  135MPD2    H2 2063   0.136   2.575  10.182  2.4012  0.0013  1.6155
  135MPD2    H3 2064   0.250   2.761  10.049  0.6803  0.7508 -0.2300
  135MPD2     N 2065   0.360   2.490   9.709 -0.2409 -0.3009 -0.4944
  135MPD2    H5 2066   0.410   2.566   9.664  2.1873 -0.3892  2.0525
  135MPD2    N1 2067   0.134   2.325  10.094  0.2023  0.6584 -0.2909
  135MPD2    H7 2068   0.138   2.233  10.051 -0.1965  0.7793 -0.5857
  136TCq2    C1 2069   0.058   2.316  10.212 -0.0657  0.8853  0.2111
  136TCq2    O2 2070   0.029   2.398  10.290  0.2852 -0.9584 -0.7028
  136TCq2    C2 2071   0.020   2.178  10.248 -0.0888  0.0431  0.8759
  136TCq2    C3 2072   0.046   2.071  10.158  0.1743 -0.1201 -0.4358
  136TCq2    C4 2073   0.015   1.946  10.197  0.5237  0.0269  0.4619
  136TCq2    C5 2074   4.671   1.924  10.312 -0.1563 -0.0085  0.4509
  136TCq2    C6 2075   4.638   2.031  10.394  0.0526  0.1254  0.4029
  136TCq2    C7 2076   4.668   2.164  10.362  0.2245 -0.1764  0.0583
  136TCq2    C8 2077   4.508   2.024  10.465 -0.0722  0.2211  0.0985
  136TCq2    O4 2078   4.472   2.117  10.540 -0.5663 -0.9750  0.3033
  136TCq2    C9 2079   0.035   1.843  10.103  0.5858  0.8926 -0.1218
  136TCq2    O5 2080   4.697   1.739  10.125  0.0316 -0.2796  0.1169
  136TCq2    O6 2081   0.105   1.875  10.004  0.1012 -0.2143 -0.2572
  136TCq2    H2 2082   0.084   2.090  10.058  0.9998 -1.7015 -0.4207
  136TCq2    H3 2083   4.656   1.824  10.350 -0.6900  0.5890  1.8060
  136TCq2    H4 2084   4.629   2.247  10.420  1.0086  0.5561 -0.4590
  137MPD2     C 2085   0.372   0.862   9.564 -0.6580 -0.1117 -0.3701
  137MPD2    C1 2086   0.355   0.964   9.658  0.1299  0.1459 -0.0482
  137MPD2    C2 2087   0.329   0.922   9.791  0.4729 -0.0006  0.6388
  137MPD2    C3 2088   0.315   0.792   9.827  0.7270 -0.1156  0.2872
  137MPD2    C4 2089   0.336   0.697   9.728  0.4279  0.6392  0.3170
  137MPD2    C5 2090   0.365   0.732   9.597 -0.4632 -1.0282 -0.0168
  137MPD2     H 2091   0.308   0.994   9.869 -1.2019 -0.1409  0.3022
  137MPD2    H1 2092   0.334   0.588   9.735  0.5693  0.4749 -2.0792
  137MPD2    H2 2093   0.390   0.888   9.460 -0.0144 -1.1886 -0.5200
  137MPD2    H3 2094   0.379   0.649   9.529  0.7927 -0.3274 -0.6077
  137MPD2     N 2095   0.303   0.765   9.963  0.2762 -0.1549  0.0418
  137MPD2    H5 2096   0.303   0.846  10.024  0.8310 -1.0187  1.1764
  137MPD2    N1 2097   0.342   1.093   9.609  0.7162 -0.6292  0.4822
  137MPD2    H7 2098   0.332   1.100   9.508  1.0390  2.5082  0.6595
  138TCq2    C1 2099   0.318   1.202   9.684 -0.1707 -0.0462 -0.6080
  138TCq2    O2 2100   0.352   1.224   9.803  0.1603 -0.5666 -0.4318
  138TCq2    C2 2101   0.254   1.308   9.612 -0.4560 -0.1452  0.1538
  138TCq2    C3 2102   0.251   1.434   9.667  0.0791 -0.2168 -0.3460
  138TCq2    C4 2103   0.146   1.518   9.622 -0.5680  0.1825  0.6387
  138TCq2    C5 2104   0.061   1.478   9.520 -0.2244  0.0614  0.8176
  138TCq2    C6 2105   0.071   1.359   9.468  0.0343  0.2029  0.2546
  138TCq2    C7 2106   0.166   1.274   9.507  0.4761 -0.1959  0.0335
  138TCq2    C8 2107   4.711   1.324   9.355  0.5092 -0.1802  0.5223
  138TCq2    O4 2108   0.038   1.247   9.272  0.3680 -0.1056  0.5714
  138TCq2    C9 2109   0.141   1.655   9.666  0.3867 -0.1775 -0.2318
  138TCq2    O5 2110   0.033   1.721   9.643 -0.4773 -0.0922  0.4183
  138TCq2    O6 2111   0.227   1.700   9.748  0.4161  0.4596  0.2054
  138TCq2    H2 2112   0.323   1.470   9.739  1.4762  0.4807 -2.0943
  138TCq2    H3 2113   4.700   1.543   9.493 -0.9042 -0.3211  1.9381
  138TCq2    H4 2114   0.155   1.172   9.471 -0.7581 -0.1518  0.3027
  139TMC2    C1 2115   0.132   3.694  13.168 -0.1492  0.6868 -0.3904
  139TMC2    C2 2116   0.010   3.672  13.104  0.2281 -0.2559 -0.0770
  139TMC2    C3 2117   4.629   3.771  13.115 -0.3349 -0.1867 -0.1643
  139TMC2    C4 2118   0.156   3.818  13.225 -0.0644 -0.7634 -0.4270
  139TMC2    C5 2119   0.058   3.919  13.214 -0.0009  0.4063  0.6183
  139TMC2    C6 2120   4.655   3.900  13.157 -0.0801 -0.6223 -0.3368
  139TMC2     C 2121   0.239   3.595  13.153  0.1416 -0.5722 -0.0764
  139TMC2     O 2122   0.215   3.489  13.100  0.1119  0.2731 -0.5096
  139TMC2     H 2123   4.706   3.573  13.066  1.2337 -1.1180  1.5003
  139TMC2    H1 2124   0.244   3.832  13.287 -2.2220  2.1597  1.9571
  139TMC2    H2 2125   4.587   3.983  13.174 -0.3944 -1.3729  2.0005
  139TMC2    C7 2126   0.076   4.042  13.291 -0.0289 -0.0719  0.2403
  139TMC2    C8 2127   4.491   3.730  13.082 -0.4952  0.3729  0.0124
  139TMC2    O1 2128   4.700   4.117  13.296 -0.3572  0.3878  0.0308
  139TMC2    O2 2129   4.461   3.611  13.056 -0.2088  0.0945 -0.1802
  139TMC2    O5 2130   4.403   3.836  13.063  0.3161 -0.2513 -0.1743
  139TMC2    H5 2131   4.440   3.922  13.093  0.7394 -1.4379  2.6885
  140MPD2     C 2132   0.569   3.577  13.300 -0.4689  0.2007 -0.6757
  140MPD2    C1 2133   0.469   3.555  13.203 -0.2203 -0.2709 -0.3060
  140MPD2    C2 2134   0.498   3.455  13.108  0.4749  0.6133  0.6767
  140MPD2    C3 2135   0.605   3.365  13.114 -0.4416  0.3283 -0.1389
  140MPD2    C4 2136   0.697   3.393  13.213 -0.7028 -0.4492  0.5619
  140MPD2    C5 2137   0.680   3.492  13.304 -0.3599 -0.0014 -0.8497
  140MPD2     H 2138   0.443   3.465  13.016 -1.9337 -1.6511  1.8785
  140MPD2    H1 2139   0.778   3.324  13.233 -1.4808 -1.4168  0.3890
  140MPD2    H2 2140   0.557   3.661  13.368 -0.5588 -0.3455 -0.0141
  140MPD2    H3 2141   0.755   3.508  13.380 -0.6144  4.1478 -1.4503
  140MPD2     N 2142   0.607   3.259  13.023  0.2384  0.5604 -0.1588
  140MPD2    H5 2143   0.525   3.251  12.964  1.3603 -0.6446 -1.5437
  140MPD2    N1 2144   0.359   3.641  13.201 -0.0394  0.3983  0.7049
  140MPD2    H7 2145   0.373   3.737  13.232  0.3292  0.6084 -0.1190
  141TCq2    C1 2146   1.132   0.774  14.733 -0.8935  0.5396 -0.1008
  141TCq2    O2 2147   1.105   0.871  14.665  0.4006  0.2855 -0.0879
  141TCq2    C2 2148   1.125   0.791  14.880 -0.3270 -0.6620 -0.1435
  141TCq2    C3 2149   1.124   0.681  14.956 -0.8143  0.1201 -0.1412
  141TCq2    C4 2150   1.112   0.696  15.093 -0.7027 -0.6891 -0.3597
  141TCq2    C5 2151   1.122   0.822  15.155  0.1156  0.4168 -0.6376
  141TCq2    C6 2152   1.135   0.928  15.069  0.2557 -0.2885 -0.4649
  141TCq2    C7 2153   1.132   0.920  14.933  0.1117  0.3295 -0.0383
  141TCq2    C8 2154   1.141   1.063  15.132  0.0959  0.1934  0.8538
  141TCq2    O4 2155   1.060   1.081  15.218 -0.5539 -0.1406 -0.2068
  141TCq2    C9 2156   1.074   0.582  15.173 -0.0197  0.4653  0.2766
  141TCq2    O5 2157   1.024   0.610  15.288  0.8240 -0.5733  0.2886
  141TCq2    O6 2158   1.108   0.465  15.139  0.1733  0.4284  0.3927
  141TCq2    H2 2159   1.104   0.585  14.911  0.3915 -0.3707  0.3754
  141TCq2    H3 2160   1.099   0.839  15.260 -0.4595 -1.4783 -0.4553
  141TCq2    H4 2161   1.143   1.010  14.873  1.7398 -0.1885 -0.5090
  142MPD2     C 2162   1.973   0.029   9.394 -0.5766 -0.0801 -0.0227
  142MPD2    C1 2163   2.020   4.623   9.406  0.0396  0.3592  0.9651
  142MPD2    C2 2164   2.160   4.605   9.395 -0.5525  0.2944  0.5032
  142MPD2    C3 2165   2.239   4.711   9.351  0.2720  0.0614  0.3187
  142MPD2    C4 2166   2.184   0.109   9.319  0.2488 -0.4056 -0.0546
  142MPD2    C5 2167   2.051   0.131   9.355  0.2952  0.7714  0.3981
  142MPD2     H 2168   2.216   4.512   9.401 -0.1938  0.4371 -0.5040
  142MPD2    H1 2169   2.247   0.196   9.302  1.3501 -1.1445  0.1930
  142MPD2    H2 2170   1.871   0.040   9.428 -1.5405 -2.1108 -2.2795
  142MPD2    H3 2171   2.011   0.232   9.357 -1.3697  0.1378 -1.1329
  142MPD2     N 2172   2.384   4.694   9.329 -0.5324 -0.8984  0.3498
  142MPD2    H5 2173   2.440   0.055   9.305 -2.3941  0.0769 -0.6823
  142MPD2    N1 2174   1.940   4.519   9.445  0.8491  0.0478 -0.2762
  142MPD2    H7 2175   1.845   4.547   9.468  1.2998  0.6636  0.8203
  143TCq2    C1 2176   2.469   4.591   9.366  0.2504 -0.0927  0.1214
  143TCq2    O2 2177   2.448   4.500   9.442 -0.3314  0.3941  0.7252
  143TCq2    C2 2178   2.601   4.608   9.310  0.3350 -0.3760 -0.0141
  143TCq2    C3 2179   2.704   4.533   9.362  0.0618  0.8497  0.6107
  143TCq2    C4 2180   2.835   4.569   9.342 -0.0525  0.0631 -0.3556
  143TCq2    C5 2181   2.864   4.684   9.262 -0.1786  0.0824 -0.1814
  143TCq2    C6 2182   2.763   0.025   9.203  0.1203 -1.6840 -0.2455
  143TCq2    C7 2183   2.628   0.000   9.235  0.3812  0.2229  0.1044
  143TCq2    C8 2184   2.785   0.128   9.103 -0.3882 -0.5129 -0.0387
  143TCq2    O4 2185   2.700   0.217   9.089 -0.0945  0.2494 -0.1000
  143TCq2    C9 2186   2.940   4.490   9.410  0.1047 -0.2805 -1.4135
  143TCq2    O5 2187   2.904   4.420   9.507  0.3127  0.9341  0.1536
  143TCq2    O6 2188   3.059   4.517   9.380 -0.2991 -0.1996  0.4547
  143TCq2    H2 2189   2.686   4.439   9.413 -0.0290  0.7143  0.3306
  143TCq2    H3 2190   2.968   4.711   9.251 -0.1098 -0.1653 -0.1331
  143TCq2    H4 2191   2.556   0.074   9.201  0.0562 -0.6708 -1.1490
  144MPD2     C 2192   1.038   4.092   0.296 -0.6672  1.1702 -0.2967
  144MPD2    C1 2193   1.084   3.988   0.370  0.1357  0.3673  0.1730
  144MPD2    C2 2194   1.209   4.005   0.427  0.0752  0.0648  1.0721
  144MPD2    C3 2195   1.292   4.113   0.402  0.5633  0.3083 -0.3401
  144MPD2    C4 2196   1.246   4.211   0.325 -0.3117  0.0698 -0.4601
  144MPD2    C5 2197   1.118   4.201   0.276 -0.3040 -0.1297  0.2574
  144MPD2     H 2198   1.257   3.924   0.481 -1.3533 -1.1690  0.4854
  144MPD2    H1 2199   1.306   4.296   0.293  1.0923 -1.3815 -1.7365
  144MPD2    H2 2200   0.938   4.094   0.255  0.0793 -0.2949 -2.1784
  144MPD2    H3 2201   1.085   4.276   0.204  0.7611  1.6343  1.6175
  144MPD2     N 2202   1.425   4.123   0.450 -0.3364 -0.4651 -0.4520
  144MPD2    H5 2203   1.482   4.198   0.413 -2.6925  1.3959 -0.3529
  144MPD2    N1 2204   1.012   3.876   0.403 -0.3544  0.6138 -0.3641
  144MPD2    H7 2205   1.053   3.816   0.474  0.7522  0.1294 -1.3970
  145TCq2    C1 2206   1.494   4.042   0.533  0.2774  0.1125  0.9043
  145TCq2    O2 2207   1.460   3.948   0.605  0.0349 -0.5202  0.1899
  145TCq2    C2 2208   1.633   4.079   0.524  0.6258  0.2266  0.4446
  145TCq2    C3 2209   1.672   4.185   0.448 -0.3953  0.6040  0.5848
  145TCq2    C4 2210   1.794   4.246   0.475  0.3054  0.7917 -0.2721
  145TCq2    C5 2211   1.868   4.197   0.574  0.2416 -0.2342 -0.5731
  145TCq2    C6 2212   1.827   4.088   0.643 -0.6613  0.5576  0.4839
  145TCq2    C7 2213   1.709   4.027   0.618 -0.5413  0.4369  0.3700
  145TCq2    C8 2214   1.910   4.036   0.743  0.7857 -0.1314 -0.1917
  145TCq2    O4 2215   2.030   4.049   0.725  0.1730  0.3289  0.1708
  145TCq2    C9 2216   1.851   4.359   0.400 -0.1357  0.1634 -0.4011
  145TCq2    O5 2217   1.963   4.401   0.439 -0.3870 -0.0013  0.1800
  145TCq2    O6 2218   1.784   4.400   0.303 -0.7480  0.2323  0.2498
  145TCq2    H2 2219   1.617   4.218   0.360  0.8361  1.2501  0.0482
  145TCq2    H3 2220   1.969   4.231   0.594 -0.3077  1.0132  0.0793
  145TCq2    H4 2221   1.663   3.943   0.668  2.6619 -0.6448  1.5275
  146TMC2    C1 2222   3.401   1.565  11.758 -0.0734  0.3423  0.2772
  146TMC2    C2 2223   3.380   1.620  11.638 -0.5171  0.1650 -0.0611
  146TMC2    C3 2224   3.487   1.664  11.569 -0.0163 -0.0058 -0.2059
  146TMC2    C4 2225   3.529   1.547  11.801 -0.2837 -0.6759  0.0823
  146TMC2    C5 2226   3.634   1.594  11.730 -0.2202 -0.1883 -0.3503
  146TMC2    C6 2227   3.616   1.646  11.606 -0.4242 -0.9957  0.1314
  146TMC2     C 2228   3.281   1.539  11.838 -1.1028 -0.0410 -0.6131
  146TMC2     O 2229   3.175   1.531  11.778 -0.4559  0.5430 -0.6062
  146TMC2     H 2230   3.280   1.637  11.600 -0.2352  2.2562  0.1519
  146TMC2    H1 2231   3.550   1.504  11.898  0.7629  0.4849  0.3791
  146TMC2    H2 2232   3.696   1.674  11.538 -0.0196 -2.2625  0.0959
  146TMC2    C7 2233   3.772   1.581  11.768 -0.0981 -0.0475  0.3013
  146TMC2    C8 2234   3.454   1.658  11.428  0.1593  0.0202  0.2105
  146TMC2    O1 2235   3.845   1.563  11.671 -0.0379 -0.2486  0.6614
  146TMC2    O2 2236   3.359   1.590  11.392  0.3499 -0.1202  0.6767
  146TMC2    O5 2237   3.561   1.696  11.349 -0.2988  0.1219 -0.2742
  146TMC2    H5 2238   3.616   1.758  11.401  1.3332  1.0404 -3.1149
  147MPD2     C 2239   4.170   1.501  12.087 -0.0521  0.0406  0.4530
  147MPD2    C1 2240   4.065   1.532  12.169  0.4149  0.6762  0.0125
  147MPD2    C2 2241   3.944   1.559  12.098 -0.5336 -1.1533 -0.1286
  147MPD2    C3 2242   3.932   1.552  11.959  0.0552 -0.5655 -0.4649
  147MPD2    C4 2243   4.041   1.506  11.885 -0.6950  0.6867  0.1857
  147MPD2    C5 2244   4.160   1.484  11.953 -0.1775  0.3514  0.1074
  147MPD2     H 2245   3.852   1.591  12.147  1.0864  1.1746  1.3881
  147MPD2    H1 2246   4.032   1.481  11.780  2.0728  0.2802  0.0230
  147MPD2    H2 2247   4.268   1.475  12.126 -0.6108 -2.4986  0.1843
  147MPD2    H3 2248   4.243   1.448  11.893  0.4348  0.0586  1.1303
  147MPD2     N 2249   3.802   1.568  11.902 -0.0446 -0.1123 -0.1590
  147MPD2    H5 2250   3.728   1.588  11.970 -2.9848 -1.7697 -2.8713
  147MPD2    N1 2251   4.091   1.549  12.308 -0.3824  0.2188 -0.2165
  147MPD2    H7 2252   4.183   1.522  12.342 -0.1082  0.4160 -0.7964
  148MPD2     C 2253   3.617   0.907  10.170 -0.2251 -0.0361  0.9596
  148MPD2    C1 2254   3.576   0.785  10.122 -0.7690  0.4464  0.3306
  148MPD2    C2 2255   3.456   0.728  10.161 -0.0409 -0.5206 -0.3125
  148MPD2    C3 2256   3.383   0.795  10.257  0.0113  0.3680 -0.6266
  148MPD2    C4 2257   3.421   0.920  10.300  0.0192  0.3802  0.5793
  148MPD2    C5 2258   3.538   0.984  10.251  0.8961 -0.1254 -0.0644
  148MPD2     H 2259   3.423   0.629  10.134 -0.1669 -0.5422 -0.0780
  148MPD2    H1 2260   3.364   0.961  10.382 -2.2364 -0.0597 -0.7723
  148MPD2    H2 2261   3.717   0.943  10.151  1.0002 -3.9944 -0.1350
  148MPD2    H3 2262   3.577   1.076  10.294  0.6883  0.0801 -0.3117
  148MPD2     N 2263   3.271   0.733  10.324  0.1493 -0.5555 -0.1638
  148MPD2    H5 2264   3.213   0.788  10.388 -0.4890 -2.6510  1.0819
  148MPD2    N1 2265   3.662   0.710  10.033  0.2932  0.2405  0.5671
  148MPD2    H7 2266   3.632   0.617  10.006 -0.1827  0.2717  1.0026
  149TCq2    C1 2267   3.781   0.752   9.976 -0.6311  0.1993  0.4283
  149TCq2    O2 2268   3.833   0.858   9.997 -0.3715 -0.3561  0.4030
  149TCq2    C2 2269   3.822   0.659   9.872  0.3461 -0.0858 -0.6107
  149TCq2    C3 2270   3.925   0.689   9.790  0.0321  0.4201 -0.7012
  149TCq2    C4 2271   3.955   0.596   9.695  0.3928 -0.4023  0.5146
  149TCq2    C5 2272   3.908   0.468   9.695  0.4045  0.2004 -0.7496
  149TCq2    C6 2273   3.809   0.442   9.791  0.7105  0.3990  0.6693
  149TCq2    C7 2274   3.769   0.535   9.877  0.6424 -0.4208  0.3397
  149TCq2    C8 2275   3.757   0.307   9.806  0.0091 -0.2206  0.1539
  149TCq2    O4 2276   3.651   0.292   9.866 -0.0875  0.2938 -0.6583
  149TCq2    C9 2277   4.082   0.609   9.635  0.0289  0.1822 -0.0390
  149TCq2    O5 2278   4.162   0.683   9.701 -0.6149 -0.7966 -0.2301
  149TCq2    O6 2279   4.116   0.530   9.543  0.0680  0.4095 -0.4473
  149TCq2    H2 2280   3.982   0.780   9.808  0.4364  0.1485 -0.6136
  149TCq2    H3 2281   3.943   0.394   9.624  1.8204 -1.4615  1.7135
  149TCq2    H4 2282   3.689   0.507   9.944  0.7971 -1.1726  0.2103
  150MPD2     C 2283   4.215   4.641  12.369 -0.6011  0.3413 -0.4846
  150MPD2    C1 2284   4.277   4.576  12.271 -0.1548 -0.0523 -0.2644
  150MPD2    C2 2285   4.418   4.573  12.277  0.7000 -0.6098  0.2159
  150MPD2    C3 2286   4.493   4.642  12.366  0.4820 -0.5274  0.1489
  150MPD2    C4 2287   4.419   4.715  12.458 -0.2281 -0.3761  1.0030
  150MPD2    C5 2288   4.285   4.704  12.463 -0.1463  0.5053  0.3782
  150MPD2     H 2289   4.475   4.523  12.200 -0.6633 -1.1559 -0.4330
  150MPD2    H1 2290   4.465   0.061  12.530 -1.4681  0.1281  1.3414
  150MPD2    H2 2291   4.107   4.644  12.381 -0.5751 -0.5799 -0.0710
  150MPD2    H3 2292   4.226   0.043  12.532 -2.4381 -1.2967 -0.0390
  150MPD2     N 2293   4.639   4.633  12.358 -0.5968  0.0874 -0.2406
  150MPD2    H5 2294   4.674   4.574  12.283 -0.7633  0.0955 -0.3246
  150MPD2    N1 2295   4.199   4.512  12.172  0.5757 -0.0893 -0.2206
  150MPD2    H7 2296   4.098   4.523  12.178  0.4390 -0.6702 -1.6642
  151TCq2    C1 2297   0.006   4.716  12.423 -0.2696  0.5815 -0.0517
  151TCq2    O2 2298   4.697   0.095  12.487  0.5795  0.2686  0.3444
  151TCq2    C2 2299   0.146   4.676  12.413  0.0308 -0.0746  0.0093
  151TCq2    C3 2300   0.179   4.550  12.366 -0.0198 -0.1082 -0.0086
  151TCq2    C4 2301   0.299   4.500  12.384  0.1793  0.1998 -0.1888
  151TCq2    C5 2302   0.399   4.583  12.439  0.0634 -0.1368  0.4659
  151TCq2    C6 2303   0.366   4.710  12.470  1.1743 -0.0542 -0.3916
  151TCq2    C7 2304   0.243   0.038  12.459  0.2792  0.8429 -0.1864
  151TCq2    C8 2305   0.457   0.087  12.525  1.2051 -0.3948 -0.2195
  151TCq2    O4 2306   0.429   0.209  12.522  0.1092  0.9577 -0.5151
  151TCq2    C9 2307   0.337   4.369  12.335 -0.2503 -0.2806  0.7508
  151TCq2    O5 2308   0.242   4.290  12.307 -0.5612 -0.0407 -0.1164
  151TCq2    O6 2309   0.458   4.343  12.333 -0.9649 -0.2604 -0.1719
  151TCq2    H2 2310   0.102   4.487  12.324  0.9049 -1.0323 -0.3196
  151TCq2    H3 2311   0.497   4.538  12.444  1.5296  3.0508  0.4112
  151TCq2    H4 2312   0.221   0.134  12.506 -1.4646  1.3385 -1.9795
  152MPD2     C 2313   4.411   4.164  12.374  0.1256  0.0727  0.6330
  152MPD2    C1 2314   4.400   4.266  12.469 -0.3172  0.2092 -0.0265
  152MPD2    C2 2315   4.269   4.318  12.492  0.6714  0.2192 -0.1476
  152MPD2    C3 2316   4.163   4.257  12.435 -0.5643  0.6954 -0.9358
  152MPD2    C4 2317   4.176   4.162  12.342  0.6595 -0.4324  0.8740
  152MPD2    C5 2318   4.296   4.108  12.323  0.4248  0.5340  0.0625
  152MPD2     H 2319   4.257   4.389  12.574  0.0199  1.9935 -1.7793
  152MPD2    H1 2320   4.086   4.118  12.303  0.7241  0.0750  0.1525
  152MPD2    H2 2321   4.507   4.120  12.348  1.2999  0.7879  3.7558
  152MPD2    H3 2322   4.298   4.027  12.250  2.3901 -0.4759  1.2096
  152MPD2     N 2323   4.040   4.317  12.475 -0.0344  0.2587  0.3659
  152MPD2    H5 2324   4.040   4.386  12.550 -2.4132 -0.0171  0.6186
  152MPD2    N1 2325   4.522   4.321  12.525 -0.0496 -0.5000 -0.1553
  152MPD2    H7 2326   4.604   4.293  12.472  1.7061  0.7205  1.9290
  153TCq2    C1 2327   4.538   4.417  12.623 -0.6080  0.4235  0.5537
  153TCq2    O2 2328   4.444   4.473  12.679 -0.5084  0.2090  0.3319
  153TCq2    C2 2329   4.681   4.438  12.655  0.9092 -0.8224  0.5135
  153TCq2    C3 2330   0.058   4.344  12.624 -0.7990  0.3153 -0.5061
  153TCq2    C4 2331   0.182   4.369  12.684  0.1924  0.2782  0.5177
  153TCq2    C5 2332   0.208   4.484  12.756  0.5776  0.1190  0.8089
  153TCq2    C6 2333   0.106   4.576  12.780  0.0760 -0.1324 -0.5582
  153TCq2    C7 2334   4.698   4.552  12.732 -0.7165 -0.1572 -0.0446
  153TCq2    C8 2335   0.147   4.713  12.803  0.0112  0.3272 -0.4778
  153TCq2    O4 2336   0.067   0.080  12.775 -0.2293  0.0105 -0.5076
  153TCq2    C9 2337   0.279   4.262  12.672 -0.2881 -0.3614  0.0110
  153TCq2    O5 2338   0.246   4.157  12.605 -0.8401 -0.2180 -0.1095
  153TCq2    O6 2339   0.390   4.272  12.733 -0.4865  0.4125 -0.1023
  153TCq2    H2 2340   0.032   4.247  12.582 -2.1324  0.1760  0.6441
  153TCq2    H3 2341   0.306   4.502  12.798  1.5133  0.4150 -1.4723
  153TCq2    H4 2342   4.615   4.620  12.742 -0.8082 -0.4355  1.0241
  154MPD2     C 2343   2.170   0.679   1.071  0.1790  0.1898  0.1802
  154MPD2    C1 2344   2.070   0.588   1.048  0.3417 -0.2058 -0.3369
  154MPD2    C2 2345   1.989   0.561   1.157 -0.3802  0.4598 -0.4139
  154MPD2    C3 2346   1.985   0.638   1.273  0.2361  0.0999  0.1183
  154MPD2    C4 2347   2.089   0.729   1.287  0.0129 -0.3694  0.3799
  154MPD2    C5 2348   2.182   0.745   1.193 -1.1151 -0.3348  0.0219
  154MPD2     H 2349   1.918   0.479   1.150 -1.6850  1.5586  0.1091
  154MPD2    H1 2350   2.091   0.809   1.361 -0.5924  1.0525 -1.1414
  154MPD2    H2 2351   2.243   0.706   0.996  2.1530 -1.8345  1.3884
  154MPD2    H3 2352   2.260   0.819   1.203 -1.5833 -0.2468  2.8651
  154MPD2     N 2353   1.871   0.616   1.361 -0.1565 -0.2104  0.1197
  154MPD2    H5 2354   1.806   0.543   1.332 -1.0961 -0.5001  2.9404
  154MPD2    N1 2355   2.056   0.508   0.933  0.4337  0.0854 -0.6704
  154MPD2    H7 2356   1.983   0.437   0.930 -0.1664  0.6879 -0.1795
  155TCq2    C1 2357   2.097   0.547   0.810  0.0256  0.4657  1.4513
  155TCq2    O2 2358   2.154   0.651   0.777  0.3994  0.4284 -0.4327
  155TCq2    C2 2359   2.075   0.441   0.709 -0.7205  0.3849  0.4443
  155TCq2    C3 2360   2.011   0.324   0.746  0.5340 -0.8188  0.3700
  155TCq2    C4 2361   2.022   0.213   0.660  0.4112  0.7378 -0.0909
  155TCq2    C5 2362   2.073   0.229   0.535  0.0204  0.2813 -0.8541
  155TCq2    C6 2363   2.131   0.340   0.501  0.2374 -1.1261 -0.6483
  155TCq2    C7 2364   2.138   0.445   0.589  0.7442 -0.0245 -0.2478
  155TCq2    C8 2365   2.211   0.359   0.381 -0.3115  0.4372 -0.1120
  155TCq2    O4 2366   2.240   0.473   0.342 -0.1618 -0.4497 -0.1756
  155TCq2    C9 2367   1.961   0.083   0.703  0.8144  0.0694 -0.3100
  155TCq2    O5 2368   1.994   4.706   0.629  0.6479 -0.2654 -0.1449
  155TCq2    O6 2369   1.900   0.078   0.813  0.6440 -0.0955  0.4226
  155TCq2    H2 2370   1.968   0.295   0.841  1.0729  0.5734  1.0339
  155TCq2    H3 2371   2.078   0.146   0.465  1.0706 -0.3735 -0.0045
  155TCq2    H4 2372   2.174   0.542   0.557 -0.9530  1.4251  2.2694
  156MPD2     C 2373   0.283   2.093  11.754 -0.0945 -0.0044  0.4952
  156MPD2    C1 2374   0.191   2.173  11.693 -0.4513 -0.4049 -0.1803
  156MPD2    C2 2375   0.131   2.258  11.776  0.5198  0.4149 -0.9086
  156MPD2    C3 2376   0.163   2.271  11.912 -0.2372  0.2131 -0.2829
  156MPD2    C4 2377   0.270   2.205  11.963  0.1359 -0.6544  0.4050
  156MPD2    C5 2378   0.330   2.115  11.883 -0.6242 -0.1178  0.4330
  156MPD2     H 2379   0.044   2.307  11.733  1.4339  2.9664  0.1345
  156MPD2    H1 2380   0.309   2.233  12.060  1.0575 -0.7275  0.0577
  156MPD2    H2 2381   0.334   2.023  11.689 -0.5456 -0.6094  0.7863
  156MPD2    H3 2382   0.413   2.058  11.923  0.9020  1.5641 -0.3331
  156MPD2     N 2383   0.080   2.354  11.985  0.2261  0.2182 -0.4761
  156MPD2    H5 2384   0.011   2.408  11.934 -1.7272 -1.4318  0.3969
  156MPD2    N1 2385   0.154   2.151  11.557  0.1941  0.0154  0.4281
  156MPD2    H7 2386   0.202   2.078  11.505  1.2029 -1.3127  3.1960
  157TCq2    C1 2387   0.079   2.244  11.486  0.3075 -0.1803 -0.0109
  157TCq2    O2 2388   0.021   2.344  11.531  0.1428  0.0146 -0.1592
  157TCq2    C2 2389   0.085   2.237  11.341  1.0567 -0.5588  0.3036
  157TCq2    C3 2390   0.113   2.126  11.266 -0.3170  0.5246  0.0616
  157TCq2    C4 2391   0.085   2.118  11.134  0.1350  0.8248 -0.1605
  157TCq2    C5 2392   0.020   2.217  11.071  0.1849 -0.3538 -0.1070
  157TCq2    C6 2393   4.704   2.325  11.141  0.3953 -0.3147  0.2602
  157TCq2    C7 2394   0.014   2.340  11.276 -0.5336  0.6680 -0.0292
  157TCq2    C8 2395   4.621   2.430  11.091  0.7869  0.2010  0.2259
  157TCq2    O4 2396   4.639   2.537  11.144  0.2411 -0.6472  0.8981
  157TCq2    C9 2397   0.123   2.002  11.055  0.1410 -0.7463 -0.1392
  157TCq2    O5 2398   0.152   2.029  10.935 -0.6741 -0.1843  0.5755
  157TCq2    O6 2399   0.172   1.897  11.115  0.4989  0.4799  0.1514
  157TCq2    H2 2400   0.152   2.034  11.306  0.7383 -0.4264 -3.1047
  157TCq2    H3 2401   0.003   2.215  10.964 -0.2463 -1.5913 -0.0144
  157TCq2    H4 2402   4.697   2.426  11.329 -0.3665  2.3191 -2.5971
  158TMC2    C1 2403   0.422   0.988  13.663  0.2328  0.5256 -0.7359
  158TMC2    C2 2404   0.459   1.091  13.580  0.3359  0.5492 -0.0210
  158TMC2    C3 2405   0.354   1.153  13.517 -0.4278 -0.2043 -0.0918
  158TMC2    C4 2406   0.286   0.946  13.680  0.4035 -0.4643 -0.5722
  158TMC2    C5 2407   0.187   1.010  13.605  0.1838  0.1060  1.0117
  158TMC2    C6 2408   0.225   1.107  13.518 -0.0817 -0.2874 -0.1871
  158TMC2     C 2409   0.531   0.924  13.734 -0.7719  0.8483 -0.0366
  158TMC2     O 2410   0.647   0.953  13.701  0.4370  0.2002  0.0172
  158TMC2     H 2411   0.560   1.130  13.574  0.3506  0.7627  1.7122
  158TMC2    H1 2412   0.262   0.859  13.740 -0.6902  0.7960  0.8106
  158TMC2    H2 2413   0.153   1.153  13.451 -1.0344  0.2487  1.1959
  158TMC2    C7 2414   0.064   0.945  13.567 -0.0266  0.3758  0.2370
  158TMC2    C8 2415   0.384   1.214  13.392  0.2143  0.4296  0.3517
  158TMC2    O1 2416   4.704   1.013  13.505  0.0738  0.0446 -0.3871
  158TMC2    O2 2417   0.317   1.303  13.339  0.0800 -0.2691 -0.1355
  158TMC2    O5 2418   0.474   1.141  13.323 -0.0692  0.1679  0.1630
  158TMC2    H5 2419   0.503   1.057  13.365 -0.3481  0.6987  1.4351
  159MPD2     C 2420   0.742   0.585  14.052  0.1396 -0.0029 -0.2165
  159MPD2    C1 2421   0.630   0.634  14.115 -0.1814  0.0825  0.6323
  159MPD2    C2 2422   0.553   0.728  14.047  0.5045 -0.4022  0.3513
  159MPD2    C3 2423   0.590   0.769  13.917  0.5047  0.2590  0.5228
  159MPD2    C4 2424   0.701   0.707  13.857  0.1302 -0.0425  0.7118
  159MPD2    C5 2425   0.768   0.611  13.925 -0.2558  0.3638  0.4447
  159MPD2     H 2426   0.462   0.763  14.096 -0.1314 -2.2804  0.5143
  159MPD2    H1 2427   0.714   0.720  13.750 -0.1779 -0.5896  0.6059
  159MPD2    H2 2428   0.805   0.513  14.104 -1.3257 -0.8960  0.3183
  159MPD2    H3 2429   0.845   0.558  13.870  0.0098  0.9871  0.2106
  159MPD2     N 2430   0.503   0.853  13.844 -0.1301 -0.4208  0.1370
  159MPD2    H5 2431   0.410   0.874  13.879  0.5365  0.7808  1.1691
  159MPD2    N1 2432   0.603   0.584  14.246 -0.5320 -0.1751  0.6313
  159MPD2    H7 2433   0.656   0.509  14.290  2.4739  1.1714 -0.7330
  160TMC2    C1 2434   4.488   4.702   0.317  0.4079 -0.6520 -0.8046
  160TMC2    C2 2435   4.525   0.092   0.396  0.3640 -0.1602 -0.1979
  160TMC2    C3 2436   4.626   0.079   0.483  0.5811  0.8379  0.5636
  160TMC2    C4 2437   4.568   4.591   0.318 -1.2513  0.5009 -0.5582
  160TMC2    C5 2438   4.665   4.579   0.414 -0.0954  0.0711 -0.2566
  160TMC2    C6 2439   4.694   4.683   0.497  0.4523 -0.0999 -0.1660
  160TMC2     C 2440   4.349   4.671   0.288 -0.6821  0.4077  0.1175
  160TMC2     O 2441   4.334   4.602   0.187 -0.0794 -0.2821 -0.3800
  160TMC2     H 2442   4.470   0.185   0.395 -1.6295 -1.3384  0.6394
  160TMC2    H1 2443   4.534   4.502   0.267 -0.6781 -1.0788  1.8100
  160TMC2    H2 2444   0.049   4.678   0.574  0.8932 -0.8110 -0.6404
  160TMC2    C7 2445   4.704   4.447   0.464 -0.3060 -0.7952  0.0095
  160TMC2    C8 2446   4.653   0.194   0.563  0.0172 -0.3661 -0.7162
  160TMC2    O1 2447   4.620   4.356   0.465 -0.7282 -0.3899  0.8317
  160TMC2    O2 2448   4.682   0.191   0.683  0.5720  0.5424  0.0031
  160TMC2    O5 2449   4.675   0.295   0.483  0.4727  0.1451 -0.1760
  160TMC2    H5 2450   4.625   0.288   0.398  1.8033 -1.6159 -0.7927
  161MPD2     C 2451   4.053   4.646   0.279 -0.4869  0.2865  0.6053
  161MPD2    C1 2452   4.125   0.015   0.358 -0.3491  0.3110 -0.1359
  161MPD2    C2 2453   4.055   0.089   0.454 -0.7380 -0.9746  0.1704
  161MPD2    C3 2454   3.915   0.083   0.469  0.1454 -0.0672 -0.0742
  161MPD2    C4 2455   3.849   4.718   0.379 -0.1942  0.8514 -0.1692
  161MPD2    C5 2456   3.918   4.640   0.289  0.5611  0.6304 -0.3977
  161MPD2     H 2457   4.118   0.153   0.513  0.4211 -3.0474  1.1926
  161MPD2    H1 2458   3.742   4.711   0.362 -0.5771  1.6494  1.9092
  161MPD2    H2 2459   4.107   4.574   0.217 -0.3332  0.5729  0.4071
  161MPD2    H3 2460   3.869   4.572   0.221 -1.4245  0.2862  1.3846
  161MPD2     N 2461   3.831   0.160   0.552  0.1173  0.1195 -0.4218
  161MPD2    H5 2462   3.732   0.140   0.551  0.5821 -2.2585  0.6103
  161MPD2    N1 2463   4.259   0.024   0.362  0.0750  0.0196  0.1066
  161MPD2    H7 2464   4.296   0.077   0.440 -0.8332 -0.8605  1.1418
  162TMC2    C1 2465   2.519   1.938   1.148 -1.2213  0.0463 -0.5341
  162TMC2    C2 2466   2.428   2.001   1.061 -0.8165  0.6805  0.1816
  162TMC2    C3 2467   2.310   2.043   1.116 -0.0258  0.1750 -0.0922
  162TMC2    C4 2468   2.486   1.909   1.276 -0.2952 -0.1254 -0.6509
  162TMC2    C5 2469   2.373   1.971   1.330 -0.9730 -1.1601  0.3860
  162TMC2    C6 2470   2.279   2.034   1.251  0.1975 -0.2833 -0.6361
  162TMC2     C 2471   2.627   1.860   1.085 -0.4689 -0.2559  0.6603
  162TMC2     O 2472   2.682   1.774   1.153  0.5900 -0.5525  1.0883
  162TMC2     H 2473   2.441   2.006   0.953  0.3051 -3.3503  0.1313
  162TMC2    H1 2474   2.551   1.846   1.337 -1.4469 -1.0093 -0.3395
  162TMC2    H2 2475   2.183   2.072   1.284 -0.2367 -2.4176  0.5682
  162TMC2    C7 2476   2.326   1.928   1.465 -0.6649  0.0323  0.1596
  162TMC2    C8 2477   2.210   2.096   1.023  0.1622 -0.2082  0.0738
  162TMC2    O1 2478   2.233   1.999   1.505  0.4237  0.1040  0.4397
  162TMC2    O2 2479   2.248   2.121   0.906 -0.4285  0.3630 -0.0054
  162TMC2    O5 2480   2.083   2.050   1.056 -0.6427  0.1818 -0.0810
  162TMC2    H5 2481   2.082   2.000   1.140 -4.2941 -1.7866 -1.2809
  163MPD2     C 2482   2.976   1.767   0.723 -0.2463 -0.3427 -0.3283
  163MPD2    C1 2483   2.917   1.669   0.808 -0.2039 -0.0812  1.1111
  163MPD2    C2 2484   2.820   1.724   0.889 -0.4875  0.2413  0.5726
  163MPD2    C3 2485   2.778   1.857   0.881 -0.2578  0.4601  0.5535
  163MPD2    C4 2486   2.831   1.939   0.784 -0.0753 -0.4527  0.1399
  163MPD2    C5 2487   2.933   1.892   0.710 -0.1072 -0.6735 -0.0396
  163MPD2     H 2488   2.771   1.653   0.954 -1.3736 -1.2597 -1.7447
  163MPD2    H1 2489   2.805   2.044   0.771 -0.7243 -0.6321  0.0262
  163MPD2    H2 2490   3.062   1.742   0.662  0.2149 -1.0267  0.5894
  163MPD2    H3 2491   2.995   1.960   0.653  0.2116 -0.5590  0.4357
  163MPD2     N 2492   2.671   1.911   0.966 -0.8613 -0.3591  0.1375
  163MPD2    H5 2493   2.640   2.005   0.944  0.2887  0.4123  1.7634
  163MPD2    N1 2494   2.963   1.531   0.807  0.2076  0.5296  0.2762
  163MPD2    H7 2495   3.040   1.504   0.747 -0.2737 -0.4266  0.0794
  164TCq2    C1 2496   3.532   0.896  10.640  0.2004 -0.6923 -0.2609
  164TCq2    O2 2497   3.635   0.883  10.580  0.1090  0.2652 -0.2783
  164TCq2    C2 2498   3.479   1.028  10.679  0.6564  0.1400 -0.3164
  164TCq2    C3 2499   3.565   1.132  10.646 -0.0617  0.3527 -0.4301
  164TCq2    C4 2500   3.525   1.261  10.659  0.0849  0.0305 -0.2266
  164TCq2    C5 2501   3.402   1.288  10.713 -0.6771 -0.2586 -0.1983
  164TCq2    C6 2502   3.316   1.184  10.737  0.0306  0.1661 -0.3540
  164TCq2    C7 2503   3.345   1.051  10.723 -0.1502 -0.2454  0.2503
  164TCq2    C8 2504   3.187   1.217  10.789 -0.1640 -0.1809  0.0259
  164TCq2    O4 2505   3.111   1.276  10.716 -0.4457 -0.1543 -0.4823
  164TCq2    C9 2506   3.617   1.366  10.642 -0.6240  0.2816 -0.0172
  164TCq2    O5 2507   3.587   1.476  10.691  0.0884 -0.3434 -0.4770
  164TCq2    O6 2508   3.717   1.337  10.565 -0.4710  0.4570 -0.1789
  164TCq2    H2 2509   3.649   1.112  10.581  0.7749  1.0692  0.4273
  164TCq2    H3 2510   3.370   1.389  10.734  0.3868  0.3374 -1.4695
  164TCq2    H4 2511   3.278   0.968  10.739  0.7698 -1.0986 -0.3168
  165MPD2     C 2512   4.020   2.853   1.742 -0.3733  0.4134 -0.5825
  165MPD2    C1 2513   4.160   2.837   1.756  0.1339 -0.1365  0.3227
  165MPD2    C2 2514   4.233   2.949   1.722  0.1548  0.0313 -0.0999
  165MPD2    C3 2515   4.165   3.065   1.679  0.0381 -0.0701  0.5212
  165MPD2    C4 2516   4.029   3.082   1.690 -0.0123 -0.5917  0.0367
  165MPD2    C5 2517   3.951   2.967   1.713  0.4998  0.6805 -0.4144
  165MPD2     H 2518   4.342   2.949   1.723  0.1767  1.7350 -2.4848
  165MPD2    H1 2519   3.985   3.175   1.656 -1.0246 -0.8179  0.7638
  165MPD2    H2 2520   3.961   2.765   1.766 -0.0789  0.0833 -1.0634
  165MPD2    H3 2521   3.843   2.967   1.722  0.5948 -0.3423  0.5539
  165MPD2     N 2522   4.241   3.187   1.649 -0.6250 -0.0171  0.2164
  165MPD2    H5 2523   4.185   3.271   1.642  0.1583  0.4029 -0.9132
  165MPD2    N1 2524   4.218   2.717   1.811 -0.4213 -0.3489  0.3036
  165MPD2    H7 2525   4.319   2.706   1.810 -0.3744  0.2695 -1.9098
  166TCq2    C1 2526   4.372   3.208   1.619 -0.6513 -0.1591 -0.1811
  166TCq2    O2 2527   4.459   3.124   1.597  0.5313 -0.6715  0.3061
  166TCq2    C2 2528   4.390   3.348   1.600  0.2675 -0.2110  0.2961
  166TCq2    C3 2529   4.311   3.432   1.672  0.6685 -0.4531  0.7050
  166TCq2    C4 2530   4.334   3.569   1.655 -0.4069 -0.0579  0.3105
  166TCq2    C5 2531   4.440   3.615   1.579 -0.2366  0.5377  0.3072
  166TCq2    C6 2532   4.521   3.527   1.513 -0.3437 -0.3923 -0.1776
  166TCq2    C7 2533   4.489   3.397   1.517 -0.6276  0.2286  0.0677
  166TCq2    C8 2534   4.598   3.566   1.402 -0.1259 -0.0435  0.1808
  166TCq2    O4 2535   4.663   3.473   1.351  0.2059 -0.0933 -0.3790
  166TCq2    C9 2536   4.241   3.650   1.725 -0.7659 -0.0936 -0.1481
  166TCq2    O5 2537   4.133   3.593   1.766  0.4686  0.3256 -0.0090
  166TCq2    O6 2538   4.267   3.775   1.718 -0.3004  0.7620  0.2014
  166TCq2    H2 2539   4.233   3.410   1.743 -0.1877 -0.3133 -0.1868
  166TCq2    H3 2540   4.459   3.721   1.596 -0.4396  0.7948 -1.0712
  166TCq2    H4 2541   4.537   3.318   1.459  0.7146  1.8424 -1.0096
  167TMC2    C1 2542   2.328   0.892  12.733  0.3344 -0.3664 -0.4752
  167TMC2    C2 2543   2.308   0.984  12.830  0.2599 -0.2821  0.4982
  167TMC2    C3 2544   2.333   0.951  12.958 -0.3131  0.7470  0.2613
  167TMC2    C4 2545   2.383   0.770  12.754 -0.4419 -0.2228 -0.3427
  167TMC2    C5 2546   2.422   0.739  12.879  0.9499 -0.4544 -0.2833
  167TMC2    C6 2547   2.385   0.825  12.985 -0.3784  0.1082 -0.3024
  167TMC2     C 2548   2.282   0.915  12.597 -0.2993 -0.3580  0.2789
  167TMC2     O 2549   2.269   1.028  12.548  0.1676  0.1681  0.5078
  167TMC2     H 2550   2.241   1.066  12.806 -0.3516 -1.4333 -1.7217
  167TMC2    H1 2551   2.436   0.725  12.671 -1.2930 -0.2776 -0.8561
  167TMC2    H2 2552   2.431   0.803  13.080 -0.1071  0.6103 -0.3162
  167TMC2    C7 2553   2.468   0.603  12.913  0.4461 -0.6294 -0.3043
  167TMC2    C8 2554   2.311   1.037  13.077  0.1690 -0.6196  0.3583
  167TMC2    O1 2555   2.468   0.563  13.027 -0.1612  0.2690 -0.3236
  167TMC2    O2 2556   2.289   0.998  13.192  0.6328  0.5996  0.0102
  167TMC2    O5 2557   2.361   1.161  13.056 -0.0347  0.2783  0.3074
  167TMC2    H5 2558   2.406   1.178  12.970 -0.9850  1.5352  0.0557
  168MPD2     C 2559   2.233   0.848  12.299 -0.6947 -0.0611  0.0906
  168MPD2    C1 2560   2.225   0.759  12.405  0.8056 -0.1248  0.3292
  168MPD2    C2 2561   2.198   0.626  12.372  0.3145 -0.2237 -0.2543
  168MPD2    C3 2562   2.179   0.590  12.236  0.1026  0.4112 -0.2233
  168MPD2    C4 2563   2.183   0.683  12.136  0.4914 -0.1041 -0.2135
  168MPD2    C5 2564   2.218   0.808  12.169 -0.1886 -0.0512  0.1069
  168MPD2     H 2565   2.204   0.545  12.443  0.0279 -1.2971 -1.4707
  168MPD2    H1 2566   2.165   0.666  12.030  0.7018 -1.9164  0.0386
  168MPD2    H2 2567   2.264   0.950  12.314 -1.8115  0.3033 -0.0825
  168MPD2    H3 2568   2.231   0.886  12.095  1.0377 -2.4596 -2.2171
  168MPD2     N 2569   2.172   0.451  12.202  0.2837 -0.4067 -0.8993
  168MPD2    H5 2570   2.176   0.387  12.280 -2.6651 -1.0442 -1.2523
  168MPD2    N1 2571   2.250   0.790  12.540  0.2275 -0.0794  0.3659
  168MPD2    H7 2572   2.253   0.705  12.595  2.9734 -0.3475 -0.2077
  169MPD1     C 2573   1.243   3.188   9.760 -0.1864  0.8117  0.1749
  169MPD1    C1 2574   1.177   3.183   9.640  0.3274 -0.5842  0.5083
  169MPD1    C2 2575   1.101   3.299   9.609  0.0189  0.3427 -0.3114
  169MPD1    C3 2576   1.058   3.386   9.713 -0.4244  0.5117 -0.1377
  169MPD1    C4 2577   1.121   3.377   9.840  0.3801  0.3698  0.2797
  169MPD1    C5 2578   1.215   3.283   9.858  0.6077 -0.3789  0.0894
  169MPD1     H 2579   1.054   3.297   9.511  0.6812 -1.2167 -0.5969
  169MPD1    H1 2580   1.098   3.446   9.921 -1.8440 -0.4731  0.3787
  169MPD1    H2 2581   1.308   3.107   9.791 -0.9020 -0.0372 -0.5471
  169MPD1    H3 2582   1.263   3.284   9.955  2.6329  2.0479 -0.9408
  169MPD1     N 2583   0.960   3.484   9.682 -0.2320 -0.6190 -0.1290
  169MPD1    H5 2584   0.921   3.471   9.589  0.3330  2.1505 -0.7526
  169MPD1    N1 2585   1.202   3.090   9.541  0.8109  0.1994  0.2506
  169MPD1    H6 2586   1.125   3.083   9.476  0.7129 -2.5715  0.6482
  169MPD1    H7 2587   1.235   2.998   9.569 -2.9944 -0.9325  1.0156
  170MPD1     C 2588   2.872   3.316  13.034 -0.3656 -0.4512 -0.0754
  170MPD1    C1 2589   3.002   3.360  13.006  0.0552  0.5322  0.3664
  170MPD1    C2 2590   3.108   3.310  13.077  0.6160 -0.0739  0.1148
  170MPD1    C3 2591   3.086   3.217  13.175 -0.0918 -0.1505  0.7356
  170MPD1    C4 2592   2.961   3.172  13.207 -0.3716  0.3007  0.4842
  170MPD1    C5 2593   2.853   3.222  13.137  0.0490 -0.4850 -0.8488
  170MPD1     H 2594   3.208   3.348  13.061  1.0244 -0.9148  0.6716
  170MPD1    H1 2595   2.936   3.096  13.280 -1.3034 -0.2702 -0.4444
  170MPD1    H2 2596   2.787   3.354  12.979 -0.7547  0.5898  1.2538
  170MPD1    H3 2597   2.752   3.190  13.162 -0.4200  1.2969 -0.4297
  170MPD1     N 2598   3.202   3.196  13.247  0.0503  0.2111 -0.0444
  170MPD1    H5 2599   3.283   3.251  13.222  1.2290 -1.1348  0.7461
  170MPD1    N1 2600   3.024   3.483  12.948 -0.4650 -0.0025  0.2861
  170MPD1    H6 2601   2.959   3.509  12.874 -0.1439 -2.1962 -0.7879
  170MPD1    H7 2602   3.115   3.502  12.906 -1.2796 -0.7882 -1.8497
  171MPD1     C 2603   2.897   4.190  15.243  0.5606  1.0432 -0.8883
  171MPD1    C1 2604   2.805   4.087  15.228 -0.2945  0.7232  0.7415
  171MPD1    C2 2605   2.755   4.020  15.336 -0.0934 -0.3374  0.1534
  171MPD1    C3 2606   2.786   4.067  15.463  0.2670  0.3003  0.4238
  171MPD1    C4 2607   2.882   4.170  15.475 -0.1478 -0.9455  0.5513
  171MPD1    C5 2608   2.938   4.228  15.368 -0.8126 -0.4503 -0.2730
  171MPD1     H 2609   2.691   3.933  15.325 -2.9376  1.8563 -0.7465
  171MPD1    H1 2610   2.908   4.221  15.567  0.3947 -0.0548 -0.1017
  171MPD1    H2 2611   2.935   4.245  15.157 -0.1904  1.2784 -1.0786
  171MPD1    H3 2612   3.019   4.299  15.372 -0.6938 -0.5033 -1.6840
  171MPD1     N 2613   2.739   4.004  15.583 -0.2552  0.3296  0.3866
  171MPD1    H5 2614   2.789   4.032  15.667 -0.9423 -0.5548  1.0928
  171MPD1    N1 2615   2.784   4.033  15.098  0.1108  0.2164  0.1812
  171MPD1    H6 2616   2.793   4.095  15.018 -0.8523  0.2869  0.1331
  171MPD1    H7 2617   2.692   3.990  15.092  1.5258 -2.6543 -1.0780
  172MPD1     C 2618   0.865   2.963   0.485 -0.2772 -0.1405 -0.4284
  172MPD1    C1 2619   0.937   3.041   0.573  0.8138 -0.6076 -0.3777
  172MPD1    C2 2620   1.031   3.124   0.517 -0.4069  0.1040 -0.4606
  172MPD1    C3 2621   1.081   3.112   0.383 -0.4596  0.8009  0.0442
  172MPD1    C4 2622   1.020   3.021   0.304  0.6458 -0.3867 -0.3296
  172MPD1    C5 2623   0.910   2.952   0.356 -0.2614  0.3701  0.5439
  172MPD1     H 2624   1.069   3.203   0.580  1.9976  0.3368 -2.1880
  172MPD1    H1 2625   1.033   3.013   0.197 -0.5439 -1.9176 -0.3661
  172MPD1    H2 2626   0.786   2.896   0.514 -1.5451  1.8290  0.6354
  172MPD1    H3 2627   0.853   2.887   0.290  0.7596  0.3951 -0.3663
  172MPD1     N 2628   1.178   3.198   0.331  0.3470 -0.5374 -0.3583
  172MPD1    H5 2629   1.189   3.180   0.231  1.1056 -0.1890 -0.3338
  172MPD1    N1 2630   0.889   3.057   0.702  0.1340 -0.2660  0.2905
  172MPD1    H6 2631   0.848   2.970   0.734 -0.9618 -0.2036 -0.9619
  172MPD1    H7 2632   0.963   3.088   0.764  0.8992 -1.5276  0.0140
  173MPD1     C 2633   2.355   3.374  13.691 -0.0375  0.3099 -0.2639
  173MPD1    C1 2634   2.303   3.296  13.788  0.4042 -0.0098  0.3313
  173MPD1    C2 2635   2.378   3.230  13.886  0.1284  0.3244  0.2743
  173MPD1    C3 2636   2.513   3.269  13.903  0.2085 -0.5216 -0.6928
  173MPD1    C4 2637   2.564   3.368  13.814 -0.5386 -0.2217  0.5713
  173MPD1    C5 2638   2.483   3.419  13.714  0.1442  0.2821  0.2970
  173MPD1     H 2639   2.333   3.155  13.951  1.9201 -1.1152 -0.1609
  173MPD1    H1 2640   2.666   3.404  13.817 -1.5012  2.7217 -2.0506
  173MPD1    H2 2641   2.297   3.400  13.603 -0.8496 -0.1622  0.1344
  173MPD1    H3 2642   2.518   3.497  13.649 -0.4946  1.1615  1.0115
  173MPD1     N 2643   2.591   3.193  13.992 -0.2417  0.5857 -0.0447
  173MPD1    H5 2644   2.552   3.115  14.044  0.1971  0.8298  0.6405
  173MPD1    N1 2645   2.165   3.266  13.775  0.2350  0.4020  0.1179
  173MPD1    H6 2646   2.103   3.331  13.727  0.7777  0.0748 -1.0082
  173MPD1    H7 2647   2.126   3.234  13.864 -1.0316  2.1103  0.1735
  174MPD1     C 2648   3.412   2.486  14.067  0.6133 -1.1729  0.7094
  174MPD1    C1 2649   3.436   2.617  14.048 -0.0170 -0.0902  0.3908
  174MPD1    C2 2650   3.337   2.707  14.067 -1.0631 -0.2600 -0.3992
  174MPD1    C3 2651   3.206   2.667  14.107 -0.7745 -0.2175  0.3835
  174MPD1    C4 2652   3.184   2.534  14.130  0.7741 -0.2252 -0.2989
  174MPD1    C5 2653   3.284   2.448  14.111 -0.1169  1.0573  0.2209
  174MPD1     H 2654   3.353   2.806  14.024  2.2322 -0.5291  0.2364
  174MPD1    H1 2655   3.085   2.506  14.163  0.8225  0.3446  0.3338
  174MPD1    H2 2656   3.486   2.409  14.049  1.3057 -0.5567  0.9255
  174MPD1    H3 2657   3.269   2.340  14.113 -1.8764  1.3024  0.5037
  174MPD1     N 2658   3.094   2.750  14.123  0.2177  0.9654  0.4651
  174MPD1    H5 2659   3.012   2.694  14.147  1.3505 -1.7033 -1.7841
  174MPD1    N1 2660   3.564   2.650  13.996  0.4747  0.0419  0.3494
  174MPD1    H6 2661   3.634   2.584  14.030 -0.6778 -1.7013 -0.6521
  174MPD1    H7 2662   3.602   2.741  14.020  2.3653 -0.6071 -0.1425
  175MPD1     C 2663   1.556   4.106  14.996  0.4818  0.4776 -0.1301
  175MPD1    C1 2664   1.430   4.145  15.030 -0.4604  0.5065 -0.1464
  175MPD1    C2 2665   1.399   4.178  15.159  0.5068 -0.4629  0.3874
  175MPD1    C3 2666   1.496   4.172  15.260  0.7016  0.6467  0.1127
  175MPD1    C4 2667   1.624   4.151  15.224 -1.0587  0.2877  0.1257
  175MPD1    C5 2668   1.658   4.122  15.091  0.8698  0.2837 -0.0659
  175MPD1     H 2669   1.296   4.206  15.177  0.2264  0.2408 -2.4391
  175MPD1    H1 2670   1.691   4.145  15.309  1.2364 -1.2073 -1.8145
  175MPD1    H2 2671   1.576   4.082  14.892 -0.6779 -0.6847 -0.0892
  175MPD1    H3 2672   1.764   4.101  15.085  1.5577  3.1081  1.9365
  175MPD1     N 2673   1.463   4.206  15.392  0.3493 -0.3619 -0.2680
  175MPD1    H5 2674   1.544   4.199  15.452 -1.1449 -0.7538  1.6772
  175MPD1    N1 2675   1.325   4.138  14.933  0.1736 -0.0783 -0.3421
  175MPD1    H6 2676   1.336   4.100  14.839  2.0476 -0.6525  0.1150
  175MPD1    H7 2677   1.247   4.203  14.935  0.7820  0.5838  1.7964
  176MPD1     C 2678   2.762   1.039   0.194  0.4594 -0.8457 -0.0934
  176MPD1    C1 2679   2.781   1.141   0.288 -0.4156  0.2179  0.0593
  176MPD1    C2 2680   2.865   1.248   0.252  0.1695 -0.6955 -0.1687
  176MPD1    C3 2681   2.919   1.255   0.123 -0.0160 -0.0276  0.3239
  176MPD1    C4 2682   2.894   1.151   0.032  0.8665  0.5136  0.1403
  176MPD1    C5 2683   2.828   1.047   0.074  0.0805 -0.2841 -0.9252
  176MPD1     H 2684   2.887   1.327   0.322 -0.3427 -1.3707  0.7511
  176MPD1    H1 2685   2.951   1.141  17.626 -1.4087 -2.4200 -0.9411
  176MPD1    H2 2686   2.713   0.944   0.212  0.7187 -1.0451 -0.4184
  176MPD1    H3 2687   2.814   0.964   0.005  0.5465 -3.1063  2.4280
  176MPD1     N 2688   2.985   1.372   0.085  0.1032  0.2290 -0.3364
  176MPD1    H5 2689   2.999   1.434   0.164 -0.4208 -0.7035  0.4892
  176MPD1    N1 2690   2.681   1.145   0.386  0.6477 -0.4907 -0.3088
  176MPD1    H6 2691   2.642   1.054   0.411  0.2364  0.3742  2.1807
  176MPD1    H7 2692   2.717   1.190   0.469 -0.9049 -0.1762  0.2057
  177MPD1     C 2693   1.629   1.079  10.547  0.5692 -0.0243 -0.1076
  177MPD1    C1 2694   1.554   1.011  10.452  0.3672  0.9193 -0.5883
  177MPD1    C2 2695   1.499   1.094  10.353  0.1428  0.2257  0.0072
  177MPD1    C3 2696   1.496   1.234  10.355 -0.4093  0.5979 -0.2456
  177MPD1    C4 2697   1.554   1.293  10.468 -0.5456  0.0324  0.7049
  177MPD1    C5 2698   1.623   1.215  10.558  0.6083 -0.1022  0.1680
  177MPD1     H 2699   1.442   1.044  10.275 -0.7983  0.9841  0.2178
  177MPD1    H1 2700   1.561   1.401  10.477 -2.6180  0.2910 -0.6816
  177MPD1    H2 2701   1.679   1.022  10.625 -1.4559 -0.5266  0.8042
  177MPD1    H3 2702   1.675   1.272  10.634 -0.3577  1.4128 -0.3171
  177MPD1     N 2703   1.449   1.307  10.239  0.1841 -0.6666 -0.3991
  177MPD1    H5 2704   1.394   1.260  10.169  0.3863  0.0892 -1.0750
  177MPD1    N1 2705   1.559   0.870  10.430 -0.0896 -0.0377 -0.3151
  177MPD1    H6 2706   1.574   0.819  10.518  0.1621  2.5499  1.1343
  177MPD1    H7 2707   1.484   0.832  10.373 -1.9192  1.0995  1.3201
  178MPD1     C 2708   3.947   2.758   0.045  0.1320 -0.3287  0.0156
  178MPD1    C1 2709   3.971   2.659   0.141  0.1709  0.6597  0.6962
  178MPD1    C2 2710   3.985   2.529   0.094  0.4072  0.7021 -0.1962
  178MPD1    C3 2711   3.967   2.500  17.648 -0.2377 -0.0958 -0.0634
  178MPD1    C4 2712   3.927   2.596  17.558 -0.0891 -0.3037  0.6322
  178MPD1    C5 2713   3.916   2.723  17.601 -0.0161  0.5389  0.0243
  178MPD1     H 2714   3.991   2.458   0.176 -1.2474  2.2600  1.2407
  178MPD1    H1 2715   3.896   2.574  17.456  0.9275 -2.0196  0.7077
  178MPD1    H2 2716   3.925   2.860   0.074 -0.2468  0.4757 -3.2018
  178MPD1    H3 2717   3.883   2.793  17.525 -0.8786  0.0274 -0.0710
  178MPD1     N 2718   3.970   2.361  17.614 -0.7750  0.6912 -0.1786
  178MPD1    H5 2719   3.936   2.342  17.520 -0.6598 -0.5652  0.0395
  178MPD1    N1 2720   3.951   2.690   0.279  0.1699  0.0364  0.6090
  178MPD1    H6 2721   4.025   2.652   0.338 -0.0838  0.5266  1.2507
  178MPD1    H7 2722   3.959   2.791   0.287 -0.3537  0.0380  1.1187
  179MPD1     C 2723   3.684   0.620  15.279  0.7416  0.1310 -0.0356
  179MPD1    C1 2724   3.705   0.633  15.415 -0.0482 -0.5084 -0.4933
  179MPD1    C2 2725   3.668   0.534  15.502 -0.8776 -0.2201 -0.8824
  179MPD1    C3 2726   3.588   0.434  15.455  0.4114 -0.4832  0.7922
  179MPD1    C4 2727   3.545   0.429  15.323 -0.6548 -0.1636  0.2233
  179MPD1    C5 2728   3.594   0.522  15.239  0.5392 -0.2255 -0.1939
  179MPD1     H 2729   3.703   0.534  15.605 -1.2829  2.8272 -0.7460
  179MPD1    H1 2730   3.488   0.348  15.278  0.6208 -0.9454  0.0107
  179MPD1    H2 2731   3.721   0.693  15.208 -3.5568  0.5398 -1.8522
  179MPD1    H3 2732   3.566   0.514  15.134  0.5203  1.0640 -0.2893
  179MPD1     N 2733   3.542   0.329  15.530  0.1346 -0.1801  0.4212
  179MPD1    H5 2734   3.491   0.254  15.485 -0.1727  1.1039 -1.3831
  179MPD1    N1 2735   3.783   0.738  15.465 -0.4339 -0.4148  0.1696
  179MPD1    H6 2736   3.764   0.771  15.559  3.2973 -2.1589  1.5821
  179MPD1    H7 2737   3.792   0.817  15.402 -0.5450 -0.1983  0.4278
  180MPD1     C 2738   3.116   1.478  15.138  0.4886  0.2592 -0.0594
  180MPD1    C1 2739   3.193   1.577  15.085  0.0664  0.5155  0.0064
  180MPD1    C2 2740   3.197   1.590  14.949 -0.3992  0.9414  0.3626
  180MPD1    C3 2741   3.116   1.509  14.871  0.4679  0.0077  0.0781
  180MPD1    C4 2742   3.034   1.413  14.927 -0.5325  0.0983 -0.7384
  180MPD1    C5 2743   3.047   1.387  15.067 -0.8299  0.3590  0.5217
  180MPD1     H 2744   3.268   1.659  14.905  0.3937  1.5768  2.6116
  180MPD1    H1 2745   2.972   1.350  14.863 -0.5272  1.2813 -1.9104
  180MPD1    H2 2746   3.124   1.469  15.246  0.5546  1.3586  0.0280
  180MPD1    H3 2747   2.974   1.326  15.117 -1.7954 -0.2653 -1.6374
  180MPD1     N 2748   3.117   1.530  14.732 -0.0497 -0.7719  0.0073
  180MPD1    H5 2749   3.175   1.608  14.700  0.7474 -0.4732  2.2122
  180MPD1    N1 2750   3.293   1.630  15.164  0.3844  0.2595  0.1675
  180MPD1    H6 2751   3.345   1.712  15.133  2.4522 -1.0440  0.2003
  180MPD1    H7 2752   3.268   1.640  15.262 -0.1731 -0.9459  0.1453
  181MPD1     C 2753   4.314   2.461  10.658 -0.1730 -0.0215  0.3335
  181MPD1    C1 2754   4.239   2.567  10.678  0.0674  0.5828  0.0251
  181MPD1    C2 2755   4.306   2.684  10.722 -0.1616  0.4372  0.3133
  181MPD1    C3 2756   4.431   2.688  10.762  0.0593  0.1882 -0.0010
  181MPD1    C4 2757   4.505   2.571  10.750 -0.7350 -0.5407 -0.2933
  181MPD1    C5 2758   4.452   2.459  10.691 -0.8223 -0.3060  0.3961
  181MPD1     H 2759   4.244   2.772  10.709 -2.2319 -1.2681 -1.4944
  181MPD1    H1 2760   4.609   2.584  10.776 -0.9210 -1.2387  0.7921
  181MPD1    H2 2761   4.271   2.370  10.618 -2.4429  1.5945 -0.9148
  181MPD1    H3 2762   4.522   2.377  10.682  0.3734  0.6529  0.8791
  181MPD1     N 2763   4.501   2.800  10.803  0.3886 -0.0195 -0.2092
  181MPD1    H5 2764   4.595   2.781  10.835  0.8059 -0.1754 -1.5330
  181MPD1    N1 2765   4.113   2.593  10.622 -0.1288  0.1292 -0.1954
  181MPD1    H6 2766   4.060   2.656  10.682  1.0982  0.2867  0.7195
  181MPD1    H7 2767   4.062   2.506  10.634  1.8659 -0.9560  0.3750
  182MPD1     C 2768   1.303   2.213   1.041 -0.1161  0.3301 -0.1410
  182MPD1    C1 2769   1.311   2.192   0.908  1.0534 -0.3199  0.4968
  182MPD1    C2 2770   1.200   2.207   0.829  0.1329  0.9707  0.0891
  182MPD1    C3 2771   1.076   2.231   0.880 -0.2287  0.5292  0.4277
  182MPD1    C4 2772   1.071   2.260   1.007 -0.3863 -0.2856 -0.1154
  182MPD1    C5 2773   1.178   2.250   1.088 -0.2449 -0.7058 -0.4959
  182MPD1     H 2774   1.218   2.207   0.723  0.4186  2.1094  0.1435
  182MPD1    H1 2775   0.972   2.267   1.053 -1.8177  0.0047 -3.2669
  182MPD1    H2 2776   1.390   2.229   1.103  1.2783 -1.6389 -1.5837
  182MPD1    H3 2777   1.171   2.288   1.190  0.9410 -0.8048 -0.3815
  182MPD1     N 2778   0.958   2.228   0.802 -0.0077  0.4346 -0.5436
  182MPD1    H5 2779   0.874   2.256   0.852  0.9667  2.1423  0.1447
  182MPD1    N1 2780   1.439   2.173   0.850 -0.0131 -0.5305  0.4333
  182MPD1    H6 2781   1.485   2.105   0.910  1.8577 -0.7668 -1.2522
  182MPD1    H7 2782   1.430   2.119   0.764  0.5483  0.9119 -0.5220
  183MPD1     C 2783   0.900   2.840   9.141 -0.2991  0.8352  0.5231
  183MPD1    C1 2784   0.902   2.756   9.247 -0.4493 -0.1413 -0.4639
  183MPD1    C2 2785   0.891   2.801   9.377  0.3352  0.8377 -0.2502
  183MPD1    C3 2786   0.852   2.935   9.395 -0.6235  0.0299 -0.0491
  183MPD1    C4 2787   0.838   3.022   9.279 -0.6513  0.1119  1.2091
  183MPD1    C5 2788   0.868   2.969   9.156 -0.5140  0.1982 -0.2762
  183MPD1     H 2789   0.916   2.736   9.460 -0.9356  0.4414 -0.1791
  183MPD1    H1 2790   0.797   3.122   9.287  0.4849  0.7383 -1.0559
  183MPD1    H2 2791   0.919   2.798   9.043 -0.7873 -1.9738  1.6165
  183MPD1    H3 2792   0.855   3.043   9.078 -0.9180 -0.7963 -1.1397
  183MPD1     N 2793   0.845   2.988   9.529  0.0299 -0.4244  0.5396
  183MPD1    H5 2794   0.850   2.927   9.610  2.0432 -0.9685 -0.0171
  183MPD1    N1 2795   0.902   2.622   9.218 -0.3654 -0.3845  0.0809
  183MPD1    H6 2796   0.860   2.568   9.294  1.3124 -0.8218  0.7013
  183MPD1    H7 2797   0.854   2.595   9.133 -0.0722 -0.0095 -0.2022
  184MPD1     C 2798   0.599   0.713  10.453 -0.0520  0.9781 -0.1262
  184MPD1    C1 2799   0.647   0.637  10.351 -0.5050 -0.3330 -0.1316
  184MPD1    C2 2800   0.647   0.686  10.220  0.1045  0.4745 -0.1803
  184MPD1    C3 2801   0.624   0.820  10.197 -0.5407 -1.0561 -0.4300
  184MPD1    C4 2802   0.578   0.903  10.302 -0.3680 -0.4753 -0.2960
  184MPD1    C5 2803   0.565   0.847  10.425 -0.5190 -0.8139  0.3834
  184MPD1     H 2804   0.674   0.617  10.140  1.7549  0.2862  0.5328
  184MPD1    H1 2805   0.533   1.001  10.290  0.7262  0.4209  2.8282
  184MPD1    H2 2806   0.584   0.681  10.555 -1.6726 -0.8654 -0.9484
  184MPD1    H3 2807   0.526   0.919  10.496 -0.2847  0.3516 -0.6629
  184MPD1     N 2808   0.637   0.890  10.074  0.6506  0.6166  0.4809
  184MPD1    H5 2809   0.627   0.991  10.069  0.2021  0.5340 -0.3591
  184MPD1    N1 2810   0.682   0.504  10.379 -0.4572  0.0184 -0.6978
  184MPD1    H6 2811   0.715   0.488  10.474 -0.6713 -1.5811 -0.8843
  184MPD1    H7 2812   0.747   0.463  10.311 -0.3760  0.4102 -0.8615
  185MPD1     C 2813   0.498   0.681   9.116  0.4395  0.3934  0.1191
  185MPD1    C1 2814   0.514   0.818   9.133 -0.5064  0.2844  0.0745
  185MPD1    C2 2815   0.582   0.863   9.244  0.5836 -0.0682  0.1424
  185MPD1    C3 2816   0.631   0.777   9.342  0.4473  0.0921 -0.2215
  185MPD1    C4 2817   0.627   0.640   9.317  0.4771 -0.2558  0.5667
  185MPD1    C5 2818   0.555   0.593   9.206 -0.5453  0.0020 -0.1479
  185MPD1     H 2819   0.585   0.970   9.256  1.1663 -0.0455 -0.1742
  185MPD1    H1 2820   0.679   0.574   9.385 -0.9600 -1.4035  0.5511
  185MPD1    H2 2821   0.438   0.645   9.033 -0.6754  0.1042  1.0499
  185MPD1    H3 2822   0.551   0.486   9.192  0.7516  0.0562 -1.0036
  185MPD1     N 2823   0.688   0.823   9.467 -0.7268  0.7745 -0.1541
  185MPD1    H5 2824   0.713   0.751   9.534  0.5214  0.7408 -0.6569
  185MPD1    N1 2825   0.448   0.907   9.046 -0.0616 -0.2681 -0.5229
  185MPD1    H6 2826   0.500   0.994   9.037 -0.5810  0.1253  0.3449
  185MPD1    H7 2827   0.418   0.872   8.955 -2.2854 -2.3403  1.0226
  186MPD1     C 2828   3.958   0.768  15.739 -0.0035 -0.1191 -0.0431
  186MPD1    C1 2829   3.972   0.690  15.851  0.0039 -0.1476 -0.2315
  186MPD1    C2 2830   3.911   0.738  15.969 -0.1974 -0.1051  0.0040
  186MPD1    C3 2831   3.849   0.859  15.970 -0.2455  0.6351 -0.4109
  186MPD1    C4 2832   3.843   0.936  15.856 -0.4652  0.3369 -0.3100
  186MPD1    C5 2833   3.889   0.882  15.738 -0.4716 -0.2614  0.0565
  186MPD1     H 2834   3.917   0.684  16.063  0.6397  0.8481  0.4981
  186MPD1    H1 2835   3.792   1.031  15.849  1.7981  1.5083 -1.2791
  186MPD1    H2 2836   3.996   0.730  15.645 -1.2741  3.3942 -1.9757
  186MPD1    H3 2837   3.882   0.936  15.644 -2.2245  0.7382  0.7673
  186MPD1     N 2838   3.803   0.919  16.092 -0.0956  0.2346 -0.4446
  186MPD1    H5 2839   3.761   1.011  16.089 -0.9548 -0.1226  0.6486
  186MPD1    N1 2840   4.036   0.562  15.845  0.0053  0.0518  0.2482
  186MPD1    H6 2841   4.096   0.546  15.926  0.4379 -1.6274 -0.3874
  186MPD1    H7 2842   4.106   0.561  15.771  0.8616  2.2255  1.0196
  187MPD1     C 2843   3.571   2.361   0.106  0.1475 -0.0041  0.2607
  187MPD1    C1 2844   3.442   2.332   0.142 -0.0236  0.6994  0.0391
  187MPD1    C2 2845   3.352   2.322   0.046 -0.2066 -0.0605  0.1349
  187MPD1    C3 2846   3.378   2.356  17.599  0.7645  0.3000 -0.1416
  187MPD1    C4 2847   3.509   2.393  17.564 -0.1091  0.3867 -0.1845
  187MPD1    C5 2848   3.600   2.395  17.665  0.6270 -0.1830 -0.1281
  187MPD1     H 2849   3.250   2.307   0.080 -0.6188  1.2864 -0.5115
  187MPD1    H1 2850   3.536   2.426  17.465  1.0288 -1.0619 -0.3513
  187MPD1    H2 2851   3.642   2.383   0.184 -2.3861  0.7057  2.3585
  187MPD1    H3 2852   3.689   2.452  17.643  0.4317 -0.3658 -1.3912
  187MPD1     N 2853   3.278   2.390  17.502  0.3999  0.2758 -0.1368
  187MPD1    H5 2854   3.321   2.428  17.419  3.3730 -0.0460  1.2308
  187MPD1    N1 2855   3.400   2.334   0.278 -0.5436  0.0078  0.1171
  187MPD1    H6 2856   3.472   2.311   0.346 -0.4346  2.0805  0.6771
  187MPD1    H7 2857   3.315   2.282   0.299  0.0790 -1.4340 -0.9432
  188MPD1     C 2858   2.510   2.140   9.132 -0.5898  0.0833 -0.4047
  188MPD1    C1 2859   2.478   2.101   9.258 -0.5652 -0.7696 -0.2835
  188MPD1    C2 2860   2.554   2.003   9.322  0.5741  0.5578 -0.4122
  188MPD1    C3 2861   2.657   1.937   9.252 -0.0788 -0.0835 -0.3090
  188MPD1    C4 2862   2.682   1.980   9.125  0.2787  0.4714  0.8266
  188MPD1    C5 2863   2.613   2.082   9.067 -0.4957  0.7425 -0.3751
  188MPD1     H 2864   2.526   1.975   9.423 -1.4300 -0.1280 -1.1530
  188MPD1    H1 2865   2.748   1.924   9.060  1.1804  1.4829  0.8681
  188MPD1    H2 2866   2.469   2.221   9.073 -0.3764 -0.6082 -1.5062
  188MPD1    H3 2867   2.633   2.105   8.963 -1.8660 -1.1603 -1.0549
  188MPD1     N 2868   2.752   1.845   9.309  0.1902 -0.1030  0.3979
  188MPD1    H5 2869   2.818   1.807   9.242 -2.4704 -0.0362 -2.2667
  188MPD1    N1 2870   2.391   2.181   9.335  0.0010  0.1117 -0.1554
  188MPD1    H6 2871   2.355   2.134   9.418 -0.2722  0.7156  0.0720
  188MPD1    H7 2872   2.314   2.219   9.281 -0.5804  0.4062  0.8708
  189MPD1     C 2873   0.443   2.554   0.013  0.1391  0.7936  0.0265
  189MPD1    C1 2874   0.361   2.482   0.102  0.5850  0.5414 -0.1430
  189MPD1    C2 2875   0.236   2.538   0.132  0.2432  0.7982  0.0108
  189MPD1    C3 2876   0.184   2.633   0.057  0.3966  0.2681  1.3906
  189MPD1    C4 2877   0.264   2.705  17.657 -0.5023 -0.2441 -0.4644
  189MPD1    C5 2878   0.393   2.668  17.639 -0.4421  0.1727  0.1505
  189MPD1     H 2879   0.174   2.496   0.211  0.5072  0.3393 -0.0212
  189MPD1    H1 2880   0.231   2.797  17.609 -3.0296 -1.0237 -0.1988
  189MPD1    H2 2881   0.546   2.523   0.000  0.9959  3.2209  0.9305
  189MPD1    H3 2882   0.459   2.731  17.580  0.3609 -0.0697  0.7890
  189MPD1     N 2883   0.051   2.673   0.092  0.5295 -0.2214  0.2033
  189MPD1    H5 2884   0.011   2.609   0.160  1.3209 -1.9978 -1.0050
  189MPD1    N1 2885   0.413   2.378   0.175 -0.2693 -0.7186 -0.3526
  189MPD1    H6 2886   0.343   2.318   0.217 -1.2579 -0.9612 -2.3595
  189MPD1    H7 2887   0.483   2.318   0.131  1.2588  1.2268 -0.5844
  190MPD1     C 2888   3.139   1.138  15.410  0.5044 -0.3525  0.2856
  190MPD1    C1 2889   3.109   1.099  15.536 -0.9613  0.4675 -0.0759
  190MPD1    C2 2890   3.158   1.180  15.641  0.0593  0.3085 -0.2727
  190MPD1    C3 2891   3.207   1.303  15.620  0.5584  0.2105  0.0945
  190MPD1    C4 2892   3.237   1.335  15.491 -1.2396  0.1601  0.1237
  190MPD1    C5 2893   3.209   1.253  15.388 -0.4699  0.0762  0.4722
  190MPD1     H 2894   3.137   1.154  15.745 -0.9061  0.4359 -0.4316
  190MPD1    H1 2895   3.294   1.423  15.467  0.4708 -0.7182  0.9750
  190MPD1    H2 2896   3.132   1.061  15.334 -1.1231  1.4413 -1.3979
  190MPD1    H3 2897   3.248   1.271  15.289 -2.3522  2.1036  0.1065
  190MPD1     N 2898   3.230   1.390  15.731 -0.3508 -0.2113  0.2550
  190MPD1    H5 2899   3.194   1.364  15.823  0.6269  0.5176  0.8478
  190MPD1    N1 2900   3.066   0.966  15.552  0.5524  0.4653  0.3573
  190MPD1    H6 2901   3.032   0.910  15.473  2.1119 -0.0869  0.0652
  190MPD1    H7 2902   2.998   0.963  15.628  1.5655  0.7763  1.2712
  191MPD1     C 2903   2.412   3.122  11.468  0.6418 -0.3377 -0.1589
  191MPD1    C1 2904   2.463   3.247  11.445  0.4318  0.9140 -0.8900
  191MPD1    C2 2905   2.524   3.317  11.551  0.8647  0.4318  0.2528
  191MPD1    C3 2906   2.537   3.259  11.672 -0.8703 -0.8067 -0.6731
  191MPD1    C4 2907   2.480   3.137  11.699  0.0708 -0.5938  0.3225
  191MPD1    C5 2908   2.417   3.065  11.597  0.6293 -0.0949  0.3402
  191MPD1     H 2909   2.553   3.420  11.537  0.6831  0.5500  0.7539
  191MPD1    H1 2910   2.508   3.085  11.789  1.3188 -3.5477 -1.7747
  191MPD1    H2 2911   2.361   3.060  11.395 -2.2267 -0.8556  2.3277
  191MPD1    H3 2912   2.398   2.961  11.620 -0.5412 -0.1247 -0.7499
  191MPD1     N 2913   2.615   3.330  11.770 -0.4524 -0.4029  0.1221
  191MPD1    H5 2914   2.670   3.412  11.748 -2.0301  0.8958  1.0467
  191MPD1    N1 2915   2.445   3.312  11.322 -0.5208  0.4671 -0.0439
  191MPD1    H6 2916   2.495   3.401  11.316 -3.0176  1.8742 -0.2628
  191MPD1    H7 2917   2.468   3.256  11.240 -1.1996 -0.6579  0.5495
  192MPD1     C 2918   2.795   2.876  12.671  0.5123  0.1570  0.3083
  192MPD1    C1 2919   2.858   2.995  12.677 -0.7443 -0.1835 -0.2591
  192MPD1    C2 2920   2.846   3.082  12.568  0.3491  0.0619 -0.2404
  192MPD1    C3 2921   2.808   3.037  12.438 -0.5537  0.1483 -0.8220
  192MPD1    C4 2922   2.755   2.912  12.438  0.0821 -0.2826  0.8193
  192MPD1    C5 2923   2.741   2.840  12.552 -0.3371  0.1076  0.0089
  192MPD1     H 2924   2.879   3.184  12.583 -1.5402  0.6183  0.2164
  192MPD1    H1 2925   2.723   2.868  12.344 -2.2126  1.6384  0.6688
  192MPD1    H2 2926   2.794   2.810  12.757 -0.0414  1.1638  1.0729
  192MPD1    H3 2927   2.693   2.742  12.547 -0.9135  0.4270 -0.6677
  192MPD1     N 2928   2.821   3.114  12.316 -0.3156  0.7121  0.1383
  192MPD1    H5 2929   2.785   3.059  12.239 -1.0595 -0.6551  1.4552
  192MPD1    N1 2930   2.914   3.039  12.797 -0.2310 -0.3116 -0.1159
  192MPD1    H6 2931   2.962   2.970  12.855  1.8034  0.8646 -0.3993
  192MPD1    H7 2932   2.974   3.121  12.789  0.2946 -0.5025  1.9257
  193MPD1     C 2933   2.040   4.006  16.572 -1.0798  0.1239  0.5689
  193MPD1    C1 2934   2.134   3.955  16.485  0.4257  0.3158  0.3251
  193MPD1    C2 2935   2.267   3.990  16.511  1.0347  0.2748  0.3130
  193MPD1    C3 2936   2.305   4.052  16.632 -0.0169  0.5169  0.4663
  193MPD1    C4 2937   2.208   4.095  16.724 -0.5439 -0.6513  0.1034
  193MPD1    C5 2938   2.076   4.073  16.684 -0.2654  0.1112 -0.3327
  193MPD1     H 2939   2.340   3.966  16.435 -0.3120 -0.3818 -0.7851
  193MPD1    H1 2940   2.234   4.150  16.814  1.0179 -1.0033 -0.1312
  193MPD1    H2 2941   1.935   4.000  16.546 -0.6868  0.4399 -1.0723
  193MPD1    H3 2942   2.004   4.114  16.754  0.1291 -3.0013  1.8867
  193MPD1     N 2943   2.442   4.078  16.662 -0.0970  0.5128 -0.4480
  193MPD1    H5 2944   2.459   4.116  16.755  3.0655  0.5072 -1.0220
  193MPD1    N1 2945   2.094   3.916  16.360  0.3280  0.1770  0.7198
  193MPD1    H6 2946   2.011   3.861  16.342  0.6478 -0.2809  0.6244
  193MPD1    H7 2947   2.162   3.869  16.300  0.4069  1.6603 -0.3834
  194MPD1     C 2948   0.521   1.533  16.501 -0.6008 -0.6565  0.4643
  194MPD1    C1 2949   0.468   1.443  16.413  0.5019  0.9043  0.6132
  194MPD1    C2 2950   0.480   1.311  16.452 -0.5874 -0.1032  0.2198
  194MPD1    C3 2951   0.545   1.265  16.564 -0.3997  0.1230  0.4172
  194MPD1    C4 2952   0.601   1.360  16.646 -0.4910 -0.6519  0.3139
  194MPD1    C5 2953   0.585   1.491  16.612 -0.2140  0.1071  0.3913
  194MPD1     H 2954   0.432   1.238  16.387 -2.0526  0.1718  0.9954
  194MPD1    H1 2955   0.653   1.340  16.739  0.6920 -1.1164 -0.4450
  194MPD1    H2 2956   0.521   1.640  16.485  0.3119 -0.5601  1.1089
  194MPD1    H3 2957   0.636   1.564  16.673 -0.6222  1.4880 -0.9147
  194MPD1     N 2958   0.563   1.133  16.600  0.1954  0.3703 -0.2364
  194MPD1    H5 2959   0.601   1.120  16.694 -0.9787  1.2624  0.3581
  194MPD1    N1 2960   0.377   1.487  16.306  0.2932  0.2097  0.7746
  194MPD1    H6 2961   0.354   1.417  16.236  0.9064 -0.0065  0.7803
  194MPD1    H7 2962   0.415   1.562  16.248  2.9123 -0.7243  1.2421
  195MPD1     C 2963   2.792   3.345   0.302 -0.3420 -0.5760 -0.0645
  195MPD1    C1 2964   2.873   3.256   0.227  0.7993  0.3072  0.0142
  195MPD1    C2 2965   2.838   3.120   0.219 -0.5914  0.1642 -0.1927
  195MPD1    C3 2966   2.737   3.070   0.305 -0.1655 -0.1483  0.2514
  195MPD1    C4 2967   2.674   3.162   0.391 -0.0911 -0.4075 -0.0191
  195MPD1    C5 2968   2.698   3.294   0.385 -0.3944  0.0764  0.2508
  195MPD1     H 2969   2.895   3.048   0.161  1.1132  2.0708 -0.9067
  195MPD1    H1 2970   2.603   3.125   0.464  1.8832 -2.2841  0.9431
  195MPD1    H2 2971   2.793   3.452   0.285  0.3439 -0.9717 -2.6061
  195MPD1    H3 2972   2.636   3.358   0.446 -0.8353  1.0837 -1.2575
  195MPD1     N 2973   2.706   2.931   0.315  0.0977  0.5072  0.4785
  195MPD1    H5 2974   2.634   2.914   0.384  0.8265  1.3744  1.4620
  195MPD1    N1 2975   2.951   3.310   0.121  0.2420  0.2353  0.0928
  195MPD1    H6 2976   3.033   3.250   0.117  1.6324  2.1215  0.4647
  195MPD1    H7 2977   2.998   3.398   0.141 -0.7566  0.8411 -0.2153
  196MPD1     C 2978   1.851   1.637   0.745 -0.2574 -0.3182 -0.1541
  196MPD1    C1 2979   1.815   1.723   0.643  0.1341 -0.3042  0.1355
  196MPD1    C2 2980   1.794   1.855   0.669 -0.0373 -0.4871  1.0710
  196MPD1    C3 2981   1.817   1.913   0.786 -0.9256  0.3406  0.4779
  196MPD1    C4 2982   1.870   1.829   0.879 -0.0447  0.1216  0.7957
  196MPD1    C5 2983   1.879   1.693   0.866  0.7773 -0.2658 -0.1820
  196MPD1     H 2984   1.762   1.913   0.583 -1.1412 -1.3841  0.8859
  196MPD1    H1 2985   1.880   1.870   0.979 -1.1361  0.9692  0.5689
  196MPD1    H2 2986   1.852   1.529   0.735 -1.8802 -0.2623 -0.9864
  196MPD1    H3 2987   1.892   1.626   0.950  0.2038 -2.2263 -1.6645
  196MPD1     N 2988   1.805   2.053   0.815  0.7324 -0.5276 -0.7148
  196MPD1    H5 2989   1.825   2.083   0.910  0.7295 -0.6019 -0.6905
  196MPD1    N1 2990   1.779   1.665   0.518  0.5951 -0.6090  0.1486
  196MPD1    H6 2991   1.840   1.589   0.487 -1.0208 -0.7802 -2.6074
  196MPD1    H7 2992   1.762   1.740   0.451 -2.6474  0.8962  2.6997
  197MPD1     C 2993   0.722   3.731  17.295  0.9339 -0.4594 -0.2125
  197MPD1    C1 2994   0.834   3.765  17.378  0.1900 -0.9269 -0.3180
  197MPD1    C2 2995   0.951   3.828  17.323 -0.1961  0.9547  0.5112
  197MPD1    C3 2996   0.935   3.885  17.198 -0.0368  0.0765  0.0169
  197MPD1    C4 2997   0.825   3.859  17.118  0.1629 -0.3296  0.3066
  197MPD1    C5 2998   0.727   3.780  17.170  0.8646  0.2649 -0.0968
  197MPD1     H 2999   1.034   3.857  17.387 -1.1556  2.1106  1.2424
  197MPD1    H1 3000   0.821   3.892  17.015 -1.6732  1.1737  0.8574
  197MPD1    H2 3001   0.638   3.678  17.338  0.7878  0.3496  0.5037
  197MPD1    H3 3002   0.642   3.758  17.106 -0.4639  0.0957  1.7431
  197MPD1     N 3003   1.038   3.972  17.140  0.4533  0.0876 -0.0093
  197MPD1    H5 3004   1.011   4.016  17.053  0.6293 -1.5129 -0.8833
  197MPD1    N1 3005   0.846   3.707  17.507 -0.4205 -0.5025  0.4172
  197MPD1    H6 3006   0.757   3.699  17.556 -0.1654  0.0118  0.9604
  197MPD1    H7 3007   0.917   3.760  17.557  0.0310 -1.6835  1.0202
  198MPD1     C 3008   3.030   2.036  15.798  0.5217  0.2754  0.1810
  198MPD1    C1 3009   3.109   2.109  15.710  0.6846 -0.3193 -0.5744
  198MPD1    C2 3010   3.234   2.142  15.755  0.3182  0.5487  0.0886
  198MPD1    C3 3011   3.285   2.104  15.881  0.0883  0.2160  0.0113
  198MPD1    C4 3012   3.211   2.022  15.964  1.0477  0.2673 -0.3073
  198MPD1    C5 3013   3.082   2.002  15.918  0.0719  0.0270 -0.1755
  198MPD1     H 3014   3.295   2.210  15.695 -0.1529  1.7644  0.9994
  198MPD1    H1 3015   3.236   1.979  16.061  0.7234 -1.0639 -0.8088
  198MPD1    H2 3016   2.924   2.027  15.778  0.5091  2.1570 -0.6657
  198MPD1    H3 3017   3.023   1.941  15.985  0.9120 -1.0588 -0.4220
  198MPD1     N 3018   3.408   2.163  15.913  0.3144 -0.1637 -0.0668
  198MPD1    H5 3019   3.455   2.232  15.856 -0.7699  0.1800 -0.5382
  198MPD1    N1 3020   3.043   2.175  15.614  0.0197  0.5974 -0.7099
  198MPD1    H6 3021   2.968   2.114  15.581 -0.3538 -0.1858  1.6088
  198MPD1    H7 3022   3.096   2.218  15.538 -0.1229  0.7225 -0.7386
  199MPD1     C 3023   1.480   3.853  10.823 -0.0201  0.0234 -0.0978
  199MPD1    C1 3024   1.432   3.969  10.864 -0.2663  0.1458  0.2690
  199MPD1    C2 3025   1.328   4.029  10.802  0.8022 -0.0186 -0.3886
  199MPD1    C3 3026   1.249   3.944  10.720 -0.0838 -0.1184  0.4050
  199MPD1    C4 3027   1.287   3.815  10.683  0.1430 -0.0639 -0.3493
  199MPD1    C5 3028   1.414   3.777  10.730 -0.6693  0.0232 -0.1797
  199MPD1     H 3029   1.299   4.129  10.831 -0.7717 -0.7251  0.5051
  199MPD1    H1 3030   1.223   3.737  10.643 -0.6907  1.8075 -2.6040
  199MPD1    H2 3031   1.562   3.806  10.877 -0.9256 -1.0389  0.3618
  199MPD1    H3 3032   1.446   3.674  10.721  1.4845  0.8379 -1.9807
  199MPD1     N 3033   1.122   3.984  10.677 -0.1093 -0.4038 -0.1687
  199MPD1    H5 3034   1.068   3.911  10.631  2.2220 -1.7906 -0.7237
  199MPD1    N1 3035   1.501   4.045  10.967  0.3474 -0.3881 -0.1604
  199MPD1    H6 3036   1.547   3.984  11.034 -0.6602 -0.6987  0.2440
  199MPD1    H7 3037   1.446   4.113  11.019 -1.6010 -0.0941 -2.6293
  200MPD1     C 3038   4.332   3.996  15.377 -0.0028 -0.6070  0.2478
  200MPD1    C1 3039   4.296   3.886  15.308 -0.0580  0.0150 -0.3290
  200MPD1    C2 3040   4.378   3.840  15.207  0.4012 -0.2083  0.1957
  200MPD1    C3 3041   4.491   3.907  15.164  0.6103  0.1281  0.1343
  200MPD1    C4 3042   4.524   4.014  15.244 -0.0890 -0.1705  1.1088
  200MPD1    C5 3043   4.449   4.064  15.348 -0.4724  0.1116  0.4259
  200MPD1     H 3044   4.356   3.745  15.159  2.0355 -0.5517  0.1413
  200MPD1    H1 3045   4.608   4.078  15.220  2.1075 -3.2217  0.7779
  200MPD1    H2 3046   4.272   4.031  15.460 -2.5710  0.0988 -1.9101
  200MPD1    H3 3047   4.476   4.148  15.410  3.2956 -0.6501 -0.1684
  200MPD1     N 3048   4.576   3.857  15.059 -0.5683  0.7267 -0.2488
  200MPD1    H5 3049   4.538   3.774  15.013 -0.8358  0.6279  0.1510
  200MPD1    N1 3050   4.179   3.816  15.334 -0.4226  0.1403 -0.0605
  200MPD1    H6 3051   4.153   3.819  15.432 -1.7098  0.3318 -0.4073
  200MPD1    H7 3052   4.173   3.720  15.302  1.1568  0.0933 -0.2226
  201MPD1     C 3053   1.333   2.842  13.769  0.1232  0.0511 -0.1683
  201MPD1    C1 3054   1.445   2.864  13.849 -0.5358  0.2865  0.2091
  201MPD1    C2 3055   1.559   2.790  13.813 -0.0045  0.0393  0.0393
  201MPD1    C3 3056   1.565   2.714  13.698  0.1381 -0.4348  0.3063
  201MPD1    C4 3057   1.454   2.702  13.615 -0.2129  0.0989  0.1270
  201MPD1    C5 3058   1.344   2.769  13.659 -0.1128  0.5048  0.5889
  201MPD1     H 3059   1.655   2.797  13.862  0.8446  1.0607 -1.7789
  201MPD1    H1 3060   1.446   2.644  13.523 -3.0156 -2.0821  1.7426
  201MPD1    H2 3061   1.235   2.884  13.785  0.5568  0.3078  1.7940
  201MPD1    H3 3062   1.256   2.766  13.596 -0.4305 -0.0172  1.0621
  201MPD1     N 3063   1.687   2.640  13.675 -0.0748 -0.3536 -0.1760
  201MPD1    H5 3064   1.759   2.651  13.746 -0.5663  0.3777  0.2100
  201MPD1    N1 3065   1.434   2.940  13.971 -0.1027 -0.0559 -0.2597
  201MPD1    H6 3066   1.393   2.874  14.036  1.5300  0.3673  1.2118
  201MPD1    H7 3067   1.522   2.952  14.022 -1.2489 -1.3291  2.0075
  202MPD1     C 3068   1.509   2.220   9.053 -0.3148 -0.1686 -0.3557
  202MPD1    C1 3069   1.438   2.313   9.127 -0.1380  0.0481  0.2998
  202MPD1    C2 3070   1.494   2.362   9.243 -0.2439  0.1644 -0.3848
  202MPD1    C3 3071   1.578   2.284   9.314 -0.1920 -0.2402  0.4899
  202MPD1    C4 3072   1.648   2.186   9.244 -0.6002 -0.1307 -0.3280
  202MPD1    C5 3073   1.612   2.160   9.114 -0.2747  0.7387  0.3275
  202MPD1     H 3074   1.454   2.453   9.286 -0.6133 -0.4986  0.6671
  202MPD1    H1 3075   1.735   2.133   9.282  0.2919  1.1345 -0.6272
  202MPD1    H2 3076   1.486   2.195   8.950 -2.8502 -1.1157  0.4281
  202MPD1    H3 3077   1.666   2.091   9.049  1.9710  2.1632  0.6906
  202MPD1     N 3078   1.616   2.316   9.447 -0.1521  0.0117  0.3289
  202MPD1    H5 3079   1.694   2.261   9.481  0.9055  0.4589 -1.3815
  202MPD1    N1 3080   1.342   2.393   9.055  0.3003  0.2343  0.2119
  202MPD1    H6 3081   1.271   2.340   9.004  1.4646 -0.7537 -0.3977
  202MPD1    H7 3082   1.294   2.461   9.113  2.2800  1.5246  0.3282
  203MPD1     C 3083   1.059   3.843  13.006  0.1797  0.1715 -0.0993
  203MPD1    C1 3084   0.984   3.735  13.026 -0.3708  0.2683 -0.0637
  203MPD1    C2 3085   1.047   3.616  13.025 -0.3242  0.0373 -0.6308
  203MPD1    C3 3086   1.176   3.592  12.972 -0.3576 -0.9564 -0.7217
  203MPD1    C4 3087   1.250   3.703  12.943  0.0739  0.6409  0.4542
  203MPD1    C5 3088   1.189   3.825  12.969  0.7245 -0.7372  0.0540
  203MPD1     H 3089   0.982   3.534  13.056 -1.3840  0.3962 -1.8901
  203MPD1    H1 3090   1.356   3.688  12.923  0.0323  0.1277  0.6112
  203MPD1    H2 3091   1.026   3.945  13.024  1.8414  0.7104 -0.1097
  203MPD1    H3 3092   1.250   3.913  12.950  0.3726 -0.1812  1.5295
  203MPD1     N 3093   1.228   3.459  12.964 -0.3217 -0.2446 -0.3661
  203MPD1    H5 3094   1.166   3.392  13.008  2.3614 -0.3180  3.3259
  203MPD1    N1 3095   0.856   3.747  13.077 -0.9167  0.0826 -0.2643
  203MPD1    H6 3096   0.793   3.811  13.030 -3.0026 -1.7377  0.0448
  203MPD1    H7 3097   0.808   3.659  13.059  0.8786 -1.3827  2.1296
  204MPD1     C 3098   0.704   4.451  17.513 -0.8963 -0.0683  0.3938
  204MPD1    C1 3099   0.740   4.513  17.392  0.0163 -0.7658 -0.6466
  204MPD1    C2 3100   0.656   4.489  17.278 -0.6234 -0.1866  0.4177
  204MPD1    C3 3101   0.532   4.430  17.300  0.5258 -0.7410 -0.4766
  204MPD1    C4 3102   0.494   4.375  17.417  0.3511  0.6307 -0.9777
  204MPD1    C5 3103   0.586   4.384  17.527 -0.5731  0.1906 -0.2090
  204MPD1     H 3104   0.686   4.525  17.180 -1.4467  1.7816  0.9012
  204MPD1    H1 3105   0.403   4.320  17.433 -1.0207  3.5085  1.0329
  204MPD1    H2 3106   0.778   4.441  17.591  0.1825  0.6294 -0.5582
  204MPD1    H3 3107   0.563   4.338  17.623  0.9117 -0.7940 -0.3424
  204MPD1     N 3108   0.447   4.412  17.185 -0.4879  0.1154 -0.0549
  204MPD1    H5 3109   0.486   4.439  17.095 -1.9480 -0.2180 -0.7957
  204MPD1    N1 3110   0.872   4.566  17.377  0.3056 -0.2075 -0.1649
  204MPD1    H6 3111   0.912   4.599  17.464  1.8862 -0.6227 -0.7399
  204MPD1    H7 3112   0.884   4.642  17.310  2.0508  2.2240  2.9087
  205MPD1     C 3113   0.849   3.654  16.349  0.1906  0.1463  0.3472
  205MPD1    C1 3114   0.836   3.533  16.410 -0.8786  0.4746  0.2657
  205MPD1    C2 3115   0.726   3.524  16.492  0.0367 -0.0259  0.3303
  205MPD1    C3 3116   0.639   3.627  16.533  0.1972  0.1146 -0.1975
  205MPD1    C4 3117   0.657   3.743  16.471 -0.2246  0.0308  0.8003
  205MPD1    C5 3118   0.766   3.759  16.388 -0.2859  0.1462 -0.2687
  205MPD1     H 3119   0.710   3.426  16.536 -0.6963 -1.7256 -3.7089
  205MPD1    H1 3120   0.597   3.833  16.487  0.0391  0.6293 -1.6306
  205MPD1    H2 3121   0.933   3.672  16.283 -0.6958  0.9494 -0.5547
  205MPD1    H3 3122   0.784   3.855  16.341 -2.6333  0.7244  0.0666
  205MPD1     N 3123   0.523   3.617  16.622  0.6401  0.4095  0.2050
  205MPD1    H5 3124   0.468   3.699  16.646  0.7017  0.8703 -1.2401
  205MPD1    N1 3125   0.915   3.423  16.366 -0.6970 -0.0391 -0.1705
  205MPD1    H6 3126   0.910   3.347  16.434  1.6662  0.6740  0.7884
  205MPD1    H7 3127   1.013   3.443  16.346 -1.1661  1.5511 -0.8398
  206MPD1     C 3128   1.298   0.927  16.945  0.1710 -0.3966 -0.2717
  206MPD1    C1 3129   1.276   1.064  16.930  0.3997 -0.5102  0.3078
  206MPD1    C2 3130   1.185   1.109  16.839  0.0667 -0.3089  0.0099
  206MPD1    C3 3131   1.114   1.022  16.757  0.1042  0.1779 -0.3190
  206MPD1    C4 3132   1.135   0.888  16.780 -0.2516 -0.0599 -0.4613
  206MPD1    C5 3133   1.219   0.838  16.872 -0.2750 -0.4399  0.0230
  206MPD1     H 3134   1.179   1.216  16.823 -2.1720 -0.4356  0.0207
  206MPD1    H1 3135   1.074   0.817  16.725 -3.1312  0.6286  1.8929
  206MPD1    H2 3136   1.359   0.882  17.022 -0.2170  0.3053  0.4511
  206MPD1    H3 3137   1.230   0.732  16.892  2.2252 -0.2370 -0.2791
  206MPD1     N 3138   1.032   1.058  16.647  0.3213 -0.0298 -0.6867
  206MPD1    H5 3139   0.983   0.984  16.597  0.0192  1.3331 -2.4342
  206MPD1    N1 3140   1.333   1.153  17.022  0.2257  0.0351  0.3092
  206MPD1    H6 3141   1.429   1.124  17.041  1.0854  1.9742 -1.1113
  206MPD1    H7 3142   1.328   1.248  16.987 -1.8054 -1.2693 -2.8473
  207MPD1     C 3143   1.240   4.367  10.107 -0.0548  0.1187 -0.0970
  207MPD1    C1 3144   1.364   4.435  10.097  0.2378  0.4615 -0.2354
  207MPD1    C2 3145   1.440   4.422   9.980  0.0332 -0.4332  0.2016
  207MPD1    C3 3146   1.404   4.320   9.886 -0.2647  0.9740 -0.3712
  207MPD1    C4 3147   1.292   4.236   9.916  0.1811  0.1828 -0.2733
  207MPD1    C5 3148   1.215   4.257  10.026 -0.0597 -0.7548 -0.1107
  207MPD1     H 3149   1.518   4.496   9.965 -1.2463  0.9444  0.3919
  207MPD1    H1 3150   1.259   4.155   9.852 -1.1127 -1.0156  1.9469
  207MPD1    H2 3151   1.166   4.381  10.185  1.5182 -0.0857  1.4115
  207MPD1    H3 3152   1.129   4.194  10.047 -1.1696  1.2931  1.4909
  207MPD1     N 3153   1.478   4.287   9.775  0.2706 -0.6680  0.5062
  207MPD1    H5 3154   1.455   4.199   9.730 -0.3635 -1.3071  2.0757
  207MPD1    N1 3155   1.394   4.542  10.180  0.4360 -0.3667 -0.2346
  207MPD1    H6 3156   1.488   4.569  10.152  1.5892 -3.7308  0.4349
  207MPD1    H7 3157   1.395   4.529  10.281  1.1092  3.2338  0.2535
  208MPD1     C 3158   1.070   2.624  16.580 -0.5104  0.3564  0.5271
  208MPD1    C1 3159   1.057   2.725  16.672 -0.5273 -0.6187  0.2228
  208MPD1    C2 3160   0.983   2.704  16.788 -0.0558 -0.1707  0.8132
  208MPD1    C3 3161   0.913   2.588  16.802 -0.8744  0.0276 -0.2623
  208MPD1    C4 3162   0.930   2.487  16.710  0.0193  0.2797  0.7670
  208MPD1    C5 3163   0.997   2.510  16.595  0.1935  0.4875 -0.2631
  208MPD1     H 3164   0.975   2.782  16.863 -1.7429 -0.0876  0.5407
  208MPD1    H1 3165   0.878   2.393  16.721 -2.1170  1.6176  1.9285
  208MPD1    H2 3166   1.137   2.628  16.494 -0.6356  1.0604  0.4637
  208MPD1    H3 3167   0.992   2.427  16.526  2.3235  0.6387 -0.5936
  208MPD1     N 3168   0.836   2.578  16.923  0.0320 -0.3651  0.1893
  208MPD1    H5 3169   0.814   2.657  16.983 -0.1184  0.5927 -1.1105
  208MPD1    N1 3170   1.149   2.835  16.671 -0.5723  0.0655  0.6799
  208MPD1    H6 3171   1.176   2.849  16.574 -0.1826  1.0074  0.9283
  208MPD1    H7 3172   1.107   2.923  16.701  0.8899  0.6132  1.1038
  209MPD1     C 3173   1.157   3.365  10.327 -0.2533 -0.1211  0.4624
  209MPD1    C1 3174   1.237   3.471  10.294  0.3900  0.4524 -0.0210
  209MPD1    C2 3175   1.343   3.438  10.214 -0.2450 -0.0896  0.3236
  209MPD1    C3 3176   1.383   3.310  10.178 -0.1977  0.5179 -0.0905
  209MPD1    C4 3177   1.305   3.208  10.219  0.3239 -0.6266 -0.3535
  209MPD1    C5 3178   1.195   3.236  10.295 -0.4013 -0.2824 -0.3753
  209MPD1     H 3179   1.405   3.519  10.176 -1.2570  0.0457 -1.0423
  209MPD1    H1 3180   1.342   3.109  10.196 -1.8162 -1.1607 -1.5262
  209MPD1    H2 3181   1.069   3.386  10.386  0.1700 -1.3109  1.5237
  209MPD1    H3 3182   1.142   3.145  10.321 -0.6313 -0.0398  0.0046
  209MPD1     N 3183   1.484   3.295  10.082 -0.3517 -0.4065  0.0199
  209MPD1    H5 3184   1.517   3.376  10.031  1.9819  0.6498  3.2263
  209MPD1    N1 3185   1.199   3.609  10.312  0.4441 -0.0138  0.5502
  209MPD1    H6 3186   1.134   3.630  10.387  0.6916 -1.5431  1.1890
  209MPD1    H7 3187   1.277   3.674  10.310  0.9040 -0.5104  3.1253
  210MPD1     C 3188   2.106   2.530  10.075 -0.2285  0.3111  0.1489
  210MPD1    C1 3189   2.128   2.572   9.948  0.0043 -0.0732  0.6857
  210MPD1    C2 3190   2.057   2.681   9.907  0.2889 -0.0308 -0.3148
  210MPD1    C3 3191   1.959   2.742   9.985  0.0825  0.1132 -1.0612
  210MPD1    C4 3192   1.942   2.688  10.118 -0.9541 -1.1216  0.9391
  210MPD1    C5 3193   2.017   2.584  10.160  0.2827  0.0325 -0.0309
  210MPD1     H 3194   2.075   2.720   9.807  0.9773  1.7667  0.4953
  210MPD1    H1 3195   1.872   2.728  10.191 -2.1817 -1.5003 -0.0389
  210MPD1    H2 3196   2.170   2.451  10.112 -1.7660  1.1234  4.5095
  210MPD1    H3 3197   2.010   2.563  10.266 -0.1916 -3.4857 -0.7810
  210MPD1     N 3198   1.889   2.862   9.951  0.4090 -0.6378  0.0369
  210MPD1    H5 3199   1.812   2.891  10.010 -0.7669 -0.8466 -1.4009
  210MPD1    N1 3200   2.227   2.508   9.875 -0.8434  0.0868 -0.3564
  210MPD1    H6 3201   2.307   2.571   9.870  0.4589 -1.4780  1.0983
  210MPD1    H7 3202   2.268   2.423   9.911 -0.3799  0.4863  0.0648
  211MPD1     C 3203   1.387   3.069  15.763 -0.4205 -0.2376 -0.7597
  211MPD1    C1 3204   1.320   2.979  15.847 -0.2146 -0.3271 -0.0936
  211MPD1    C2 3205   1.196   3.011  15.897  0.5583 -0.3418 -0.2284
  211MPD1    C3 3206   1.133   3.131  15.870 -0.2939  0.2730 -0.3151
  211MPD1    C4 3207   1.205   3.221  15.790 -0.3681 -0.6208  0.3737
  211MPD1    C5 3208   1.325   3.190  15.734  0.3605  0.5375  0.6129
  211MPD1     H 3209   1.149   2.953  15.975 -4.0817  3.4201 -0.2007
  211MPD1    H1 3210   1.162   3.317  15.764  1.6114 -0.4233 -2.1041
  211MPD1    H2 3211   1.479   3.040  15.715  0.0296 -0.5418  0.2765
  211MPD1    H3 3212   1.370   3.260  15.664  0.3163  0.7770  0.8243
  211MPD1     N 3213   1.020   3.170  15.944 -0.3936 -0.4314  0.5874
  211MPD1    H5 3214   0.983   3.090  15.996 -3.8505  1.8200  1.6225
  211MPD1    N1 3215   1.394   2.870  15.892  0.0509 -0.3586  0.3861
  211MPD1    H6 3216   1.467   2.842  15.825  1.7361  3.9098  0.4640
  211MPD1    H7 3217   1.337   2.788  15.912 -0.7416  0.0135 -0.3243
  212MPD1     C 3218   0.291   1.441  16.900 -0.7152  0.0299 -0.3965
  212MPD1    C1 3219   0.172   1.468  16.836 -0.3281 -0.5998  0.0601
  212MPD1    C2 3220   0.058   1.399  16.874  0.1652 -0.0402  0.2565
  212MPD1    C3 3221   0.065   1.284  16.957  0.4817 -0.2303 -0.3060
  212MPD1    C4 3222   0.188   1.256  17.010  0.2221 -0.4689  0.9822
  212MPD1    C5 3223   0.297   1.331  16.986 -0.0275  1.6637 -0.3492
  212MPD1     H 3224   4.685   1.444  16.841 -0.2793  0.3686  2.0214
  212MPD1    H1 3225   0.206   1.180  17.086  0.9329  1.4811  2.7486
  212MPD1    H2 3226   0.384   1.489  16.871 -0.0517 -1.9093 -1.5048
  212MPD1    H3 3227   0.390   1.308  17.037 -0.0401 -0.2965 -1.2022
  212MPD1     N 3228   4.679   1.214  17.011  0.1311 -0.0835 -0.2201
  212MPD1    H5 3229   4.703   1.121  17.043  0.6368  1.0435  2.5995
  212MPD1    N1 3230   0.159   1.577  16.749 -0.2229 -0.0195 -0.2053
  212MPD1    H6 3231   0.243   1.617  16.707  0.2656  0.3380  1.1295
  212MPD1    H7 3232   0.125   1.654  16.806 -0.5877 -0.0970 -0.3212
  213MPD1     C 3233   2.673   1.605  15.949 -0.6437  0.2782 -0.4102
  213MPD1    C1 3234   2.578   1.563  15.859 -0.4798 -0.1510  0.0057
  213MPD1    C2 3235   2.566   1.642  15.748  0.4115 -0.3026  0.5256
  213MPD1    C3 3236   2.655   1.746  15.715 -1.0631 -0.1733  0.2184
  213MPD1    C4 3237   2.764   1.764  15.796 -0.6483 -0.0266 -0.0485
  213MPD1    C5 3238   2.768   1.702  15.917 -0.5213 -0.0475  0.5264
  213MPD1     H 3239   2.485   1.626  15.678  1.8697 -1.2616 -0.9465
  213MPD1    H1 3240   2.838   1.841  15.776  0.2497 -1.0073 -0.4957
  213MPD1    H2 3241   2.675   1.578  16.054 -0.6534 -2.0234 -1.0033
  213MPD1    H3 3242   2.839   1.721  15.996 -0.9849 -1.8307  1.3842
  213MPD1     N 3243   2.646   1.805  15.580 -0.8704  0.4809 -0.2258
  213MPD1    H5 3244   2.566   1.773  15.526 -1.6802 -0.3739  1.4565
  213MPD1    N1 3245   2.465   1.493  15.908 -0.6341 -0.2691 -0.1270
  213MPD1    H6 3246   2.493   1.422  15.975  0.6708  0.0845 -0.3156
  213MPD1    H7 3247   2.421   1.440  15.832  2.8445 -1.3149 -1.3865
  214MPD1     C 3248   2.453   1.444  14.710  0.6729  0.4127  0.2553
  214MPD1    C1 3249   2.360   1.456  14.814  0.0012 -0.3006 -0.2442
  214MPD1    C2 3250   2.397   1.548  14.915 -0.7058 -0.6020  0.5023
  214MPD1    C3 3251   2.522   1.616  14.914 -0.0883 -0.0909 -0.1764
  214MPD1    C4 3252   2.612   1.584  14.818  0.3844  0.0123 -0.2870
  214MPD1    C5 3253   2.574   1.502  14.712 -0.4177 -0.1408 -0.5079
  214MPD1     H 3254   2.317   1.572  14.985 -0.2976 -0.9935  1.1030
  214MPD1    H1 3255   2.709   1.632  14.812  1.0278 -1.0298  1.7514
  214MPD1    H2 3256   2.437   1.385  14.621 -2.6668 -0.4941  1.4459
  214MPD1    H3 3257   2.650   1.478  14.638  0.6726 -1.4968  1.0590
  214MPD1     N 3258   2.573   1.713  15.003  0.3083  0.4048 -0.0187
  214MPD1    H5 3259   2.663   1.754  14.983  0.9811 -0.5116  1.1630
  214MPD1    N1 3260   2.234   1.398  14.796 -0.5269  0.1133 -0.2869
  214MPD1    H6 3261   2.252   1.314  14.741  0.6308  2.3026 -3.2376
  214MPD1    H7 3262   2.190   1.377  14.885 -0.0487  0.0266 -0.0703
  215MPD1     C 3263   3.057   2.337  10.384 -0.1733  0.3957 -0.5886
  215MPD1    C1 3264   3.134   2.382  10.485 -0.0137  0.0692 -0.0351
  215MPD1    C2 3265   3.105   2.506  10.543 -0.0950 -0.6579 -0.0620
  215MPD1    C3 3266   3.005   2.584  10.487  0.2063  0.0949  0.5610
  215MPD1    C4 3267   2.926   2.530  10.392  0.4727 -0.6262  0.2214
  215MPD1    C5 3268   2.951   2.409  10.343 -0.1067 -0.1318  0.0917
  215MPD1     H 3269   3.165   2.541  10.626 -2.9447  1.2553  1.1942
  215MPD1    H1 3270   2.829   2.572  10.368  0.6603 -0.3172  0.0124
  215MPD1    H2 3271   3.089   2.249  10.328  1.2779  3.0268 -3.8697
  215MPD1    H3 3272   2.892   2.362  10.266  0.1813  1.2935 -0.9897
  215MPD1     N 3273   2.978   2.708  10.547 -0.5090  0.2441  0.4269
  215MPD1    H5 3274   3.038   2.732  10.625  1.0436  1.5229 -1.1494
  215MPD1    N1 3275   3.244   2.314  10.535 -0.1976 -0.2198  0.1841
  215MPD1    H6 3276   3.240   2.215  10.510 -0.0900 -0.0048 -0.6795
  215MPD1    H7 3277   3.261   2.323  10.635 -1.8493  0.7106  0.3904
  216MPD1     C 3278   0.163   0.927  16.704 -0.1466 -0.1731 -0.6899
  216MPD1    C1 3279   0.075   0.848  16.641  0.4173  0.4669 -0.4347
  216MPD1    C2 3280   0.025   0.741  16.714 -0.1386 -0.2074  0.3874
  216MPD1    C3 3281   0.035   0.738  16.852  0.0534 -0.1229  0.5681
  216MPD1    C4 3282   0.120   0.829  16.916  0.1904 -0.1006 -0.5735
  216MPD1    C5 3283   0.181   0.917  16.841 -0.6136  0.2271  0.3800
  216MPD1     H 3284   4.687   0.670  16.657  2.0847 -0.0942 -2.0320
  216MPD1    H1 3285   0.136   0.832  17.023  1.1853 -0.6988 -0.7162
  216MPD1    H2 3286   0.211   1.013  16.660 -0.5040  0.5663  0.3739
  216MPD1    H3 3287   0.248   0.984  16.893  1.5525 -0.0682 -2.0284
  216MPD1     N 3288   4.691   0.629  16.918 -0.8123 -0.4618  0.2400
  216MPD1    H5 3289   4.632   0.569  16.861 -3.0458  0.5239  1.5215
  216MPD1    N1 3290   0.063   0.857  16.501  0.5404  0.0944  0.5745
  216MPD1    H6 3291   4.688   0.843  16.469  1.7858 -0.7518 -2.8114
  216MPD1    H7 3292   0.108   0.940  16.463  0.3980 -0.8219 -1.6257
  217MPD1     C 3293   4.579   2.058   8.982  0.6349 -0.1218 -0.0798
  217MPD1    C1 3294   4.709   2.005   8.971 -0.2147 -1.0126 -0.7459
  217MPD1    C2 3295   0.089   2.071   9.041  0.8514  0.3975  0.0853
  217MPD1    C3 3296   0.062   2.186   9.109  0.2800 -0.4384 -0.3172
  217MPD1    C4 3297   4.655   2.236   9.125 -0.0137  0.4139  0.2096
  217MPD1    C5 3298   4.555   2.165   9.065 -0.2825 -0.2928 -0.0960
  217MPD1     H 3299   0.182   2.016   9.040  0.6245  0.0100  0.5385
  217MPD1    H1 3300   4.622   2.317   9.189 -0.5505  0.0110  0.4332
  217MPD1    H2 3301   4.494   2.019   8.927 -0.1764 -0.4584  1.4045
  217MPD1    H3 3302   4.456   2.209   9.073 -0.9783 -1.9057  0.2654
  217MPD1     N 3303   0.163   2.249   9.184 -1.0172  0.2521  0.5136
  217MPD1    H5 3304   0.125   2.330   9.233 -2.6943  0.5258 -1.1997
  217MPD1    N1 3305   0.021   1.897   8.888  0.3307  0.0736  0.2419
  217MPD1    H6 3306   0.109   1.852   8.911  0.3296  0.2044  0.5062
  217MPD1    H7 3307   4.668   1.828   8.899 -1.0169  1.2900 -1.2295
  218MPD1     C 3308   1.815   2.627  12.492  0.4906  0.6473  0.0397
  218MPD1    C1 3309   1.914   2.581  12.571  0.2537 -0.6410 -0.2401
  218MPD1    C2 3310   1.998   2.663  12.642  0.1923  0.3849  0.2316
  218MPD1    C3 3311   1.977   2.805  12.637 -0.9164 -0.7251  1.3733
  218MPD1    C4 3312   1.875   2.851  12.566  0.4718 -0.2023  0.3012
  218MPD1    C5 3313   1.794   2.767  12.496  0.7775 -0.1378 -0.0903
  218MPD1     H 3314   2.090   2.626  12.684  0.1286  0.4553  0.4329
  218MPD1    H1 3315   1.845   2.955  12.569  0.4566 -0.1878 -0.4570
  218MPD1    H2 3316   1.748   2.559  12.439 -1.0430  2.2839 -0.1510
  218MPD1    H3 3317   1.707   2.812  12.450  0.7371 -0.1574 -0.0332
  218MPD1     N 3318   2.063   2.889  12.714 -0.1469  0.4713 -0.1638
  218MPD1    H5 3319   2.133   2.853  12.778  0.2059  1.4027 -0.0150
  218MPD1    N1 3320   1.936   2.444  12.573 -0.2597  0.3870  0.3464
  218MPD1    H6 3321   1.964   2.416  12.666  0.0595 -0.2179  0.0689
  218MPD1    H7 3322   1.841   2.408  12.567 -0.1594  0.7513 -3.8178
  219MPD1     C 3323   2.631   3.759  12.643  0.4732 -0.2175  0.8262
  219MPD1    C1 3324   2.700   3.648  12.689 -0.5797  0.1809 -0.2927
  219MPD1    C2 3325   2.625   3.531  12.716 -0.0819 -0.3006  0.2684
  219MPD1    C3 3326   2.489   3.526  12.700 -0.2035 -0.4343  0.1890
  219MPD1    C4 3327   2.419   3.639  12.659  0.3582  0.2535 -0.2365
  219MPD1    C5 3328   2.493   3.746  12.625 -0.1516 -0.3717 -0.1466
  219MPD1     H 3329   2.669   3.442  12.759 -2.0270 -0.7343  1.3376
  219MPD1    H1 3330   2.311   3.634  12.664  0.2264  0.4970 -2.5997
  219MPD1    H2 3331   2.678   3.853  12.616  0.0459 -0.2286  0.0361
  219MPD1    H3 3332   2.446   3.832  12.578 -1.0339 -0.1173  1.2091
  219MPD1     N 3333   2.403   3.417  12.744 -0.5489  0.3709  0.5787
  219MPD1    H5 3334   2.304   3.438  12.732 -0.8157  0.4095  2.7530
  219MPD1    N1 3335   2.836   3.663  12.720  0.5092  0.0324 -0.2322
  219MPD1    H6 3336   2.868   3.752  12.682 -0.6388  1.1391  1.4041
  219MPD1    H7 3337   2.892   3.593  12.671 -1.1154  0.7129 -3.0687
  220MPD1     C 3338   1.984   4.410   9.902 -0.2325 -0.7322  0.1179
  220MPD1    C1 3339   1.907   4.309   9.955 -0.6071 -0.6484 -0.4190
  220MPD1    C2 3340   1.958   4.185   9.966  0.4061  0.1192 -0.4252
  220MPD1    C3 3341   2.076   4.147   9.902  0.3229  0.0090 -0.1220
  220MPD1    C4 3342   2.146   4.250   9.838  0.6483 -0.0508  0.4700
  220MPD1    C5 3343   2.100   4.380   9.838  0.0043 -0.3509  0.1811
  220MPD1     H 3344   1.891   4.109  10.004  0.8217  1.0386  2.1825
  220MPD1    H1 3345   2.249   4.233   9.808  0.0616 -1.1161 -0.9389
  220MPD1    H2 3346   1.942   4.510   9.897  1.0881 -0.0670  2.2993
  220MPD1    H3 3347   2.156   4.460   9.791  0.0359 -0.6079 -0.2213
  220MPD1     N 3348   2.112   4.013   9.911  0.1790 -0.2703 -0.1111
  220MPD1    H5 3349   2.050   3.949   9.960 -1.0679  1.2876  0.3199
  220MPD1    N1 3350   1.790   4.343  10.015 -0.2707 -0.4272 -0.8047
  220MPD1    H6 3351   1.721   4.269  10.004 -1.6829  0.7639  0.0530
  220MPD1    H7 3352   1.749   4.418   9.959  1.0714 -0.8395 -2.3451
  221MPD1     C 3353   4.598   3.018  16.688  0.3259 -0.2352 -0.9244
  221MPD1    C1 3354   4.688   3.118  16.687  0.0190 -0.4451  0.4281
  221MPD1    C2 3355   0.102   3.085  16.678  0.0480  0.4733  0.3572
  221MPD1    C3 3356   0.145   2.952  16.660 -0.2180  0.0753 -0.1894
  221MPD1    C4 3357   0.051   2.848  16.674  0.0680 -0.0958 -0.0439
  221MPD1    C5 3358   4.638   2.889  16.688 -0.0099  0.2337  0.3272
  221MPD1     H 3359   0.177   3.164  16.677  1.8295 -1.2192 -0.9390
  221MPD1    H1 3360   0.074   2.742  16.678  0.3997  0.0263  1.5337
  221MPD1    H2 3361   4.493   3.033  16.708  0.6942  1.1933 -0.0846
  221MPD1    H3 3362   4.563   2.811  16.688 -0.5664  0.7682 -0.3985
  221MPD1     N 3363   0.276   2.907  16.657  0.2376 -0.4298  0.0751
  221MPD1    H5 3364   0.294   2.807  16.659  2.6229 -0.0290 -2.2618
  221MPD1    N1 3365   4.643   3.245  16.670 -0.6538 -0.1668 -0.2019
  221MPD1    H6 3366   4.708   3.311  16.712  0.8137 -0.0789 -2.5960
  221MPD1    H7 3367   4.553   3.253  16.716 -0.1733 -0.8914  0.8558
  222MPD1     C 3368   0.909   1.113  17.673  0.3760  0.4205 -0.3081
  222MPD1    C1 3369   1.031   1.140  17.614  0.1143 -0.0912  0.1420
  222MPD1    C2 3370   1.032   1.243  17.525  0.1745 -0.0655 -0.1090
  222MPD1    C3 3371   0.913   1.312  17.496  1.0986 -0.3658 -0.2671
  222MPD1    C4 3372   0.795   1.283  17.560  1.0025 -0.4985 -0.4270
  222MPD1    C5 3373   0.793   1.176  17.650  0.0168  0.0149  0.5811
  222MPD1     H 3374   1.123   1.259  17.469 -0.2858 -1.7358 -1.3450
  222MPD1    H1 3375   0.701   1.333  17.538  1.4893  0.3819 -0.4949
  222MPD1    H2 3376   0.906   1.029   0.055  0.0825 -1.1660 -2.2724
  222MPD1    H3 3377   0.702   1.139   0.010 -0.0291  0.3712  0.7849
  222MPD1     N 3378   0.914   1.423  17.404 -0.0748 -0.1158 -0.4610
  222MPD1    H5 3379   0.832   1.482  17.399  0.3445  0.2864 -2.5477
  222MPD1    N1 3380   1.150   1.069  17.652 -0.4286  0.0940  0.5314
  222MPD1    H6 3381   1.139   1.043   0.064  2.1074 -4.1760 -0.2961
  222MPD1    H7 3382   1.237   1.120  17.645  0.9047 -2.1431  0.7924
  223MPD1     C 3383   1.412   2.148  16.724  0.4283 -1.0994 -0.1840
  223MPD1    C1 3384   1.288   2.203  16.762 -0.1383  0.4687  0.4738
  223MPD1    C2 3385   1.222   2.125  16.856  0.1013  0.0067  0.6787
  223MPD1    C3 3386   1.269   1.999  16.899  0.3822  0.0841  0.1478
  223MPD1    C4 3387   1.390   1.953  16.845 -0.3541  0.3496 -0.0598
  223MPD1    C5 3388   1.463   2.031  16.765 -0.4305 -0.1745  0.3732
  223MPD1     H 3389   1.129   2.158  16.899  1.1215 -0.4290  3.1906
  223MPD1    H1 3390   1.429   1.858  16.880  2.5907  0.3113 -3.4352
  223MPD1    H2 3391   1.473   2.212  16.660 -0.8795  1.1034  0.7635
  223MPD1    H3 3392   1.559   1.989  16.736  0.0285 -0.0924  1.7702
  223MPD1     N 3393   1.177   1.922  16.972  0.3872 -0.2532 -0.9707
  223MPD1    H5 3394   1.092   1.963  17.009  1.0481  0.5223 -0.3078
  223MPD1    N1 3395   1.249   2.332  16.730 -0.0743 -0.4532  0.2572
  223MPD1    H6 3396   1.147   2.337  16.737  0.1136  2.3306  0.8357
  223MPD1    H7 3397   1.275   2.346  16.632 -1.0909  0.3452  0.0935
  224MPD1     C 3398   0.225   3.315   9.581 -0.7684 -0.1419 -0.2813
  224MPD1    C1 3399   0.311   3.216   9.544 -0.5803  0.1503 -0.0307
  224MPD1    C2 3400   0.337   3.128   9.648 -0.8610 -0.3457 -0.4240
  224MPD1    C3 3401   0.309   3.151   9.783  0.1963 -0.0075  0.6373
  224MPD1    C4 3402   0.231   3.258   9.815 -0.4787  0.1877 -0.2671
  224MPD1    C5 3403   0.195   3.332   9.712 -0.1774  0.0983  0.1281
  224MPD1     H 3404   0.396   3.043   9.614 -1.2635 -1.2537  1.1825
  224MPD1    H1 3405   0.215   3.290   9.918 -2.4713  1.6432 -1.0118
  224MPD1    H2 3406   0.180   3.377   9.504 -1.0559  2.2690  1.8066
  224MPD1    H3 3407   0.132   3.419   9.729 -0.7863 -0.4630  0.7528
  224MPD1     N 3408   0.368   3.074   9.893 -0.0089  0.0376 -0.3293
  224MPD1    H5 3409   0.345   3.104   9.987 -0.7053 -1.6122  0.0270
  224MPD1    N1 3410   0.326   3.179   9.411 -0.2954  0.0067 -0.1855
  224MPD1    H6 3411   0.321   3.262   9.352 -0.4118 -0.0601 -0.2697
  224MPD1    H7 3412   0.396   3.110   9.386  0.5237  0.9547 -0.5296
  225MPD1     C 3413   2.938   4.260  12.472 -1.0138  0.2540 -0.3232
  225MPD1    C1 3414   2.849   4.301  12.572 -0.2636 -0.1707 -0.6815
  225MPD1    C2 3415   2.715   4.275  12.556  0.3429 -0.2877 -0.4433
  225MPD1    C3 3416   2.667   4.216  12.446  0.7019  0.4431  0.2825
  225MPD1    C4 3417   2.759   4.167  12.352 -0.3402 -0.1092 -0.6910
  225MPD1    C5 3418   2.893   4.193  12.361 -0.5251 -0.3002  0.3735
  225MPD1     H 3419   2.644   4.307  12.632  0.4203  0.4480 -0.6798
  225MPD1    H1 3420   2.710   4.107  12.277 -0.1237  0.5602 -1.3621
  225MPD1    H2 3421   3.045   4.268  12.483 -0.6880 -0.9222 -2.5570
  225MPD1    H3 3422   2.954   4.161  12.278 -0.2313  1.4514 -0.0774
  225MPD1     N 3423   2.530   4.199  12.421 -0.0266 -0.1823 -0.0186
  225MPD1    H5 3424   2.505   4.158  12.331  0.6509  1.5690 -0.9827
  225MPD1    N1 3425   2.903   4.364  12.687  0.0670 -0.2909 -0.1544
  225MPD1    H6 3426   3.003   4.354  12.703  0.1504 -0.7101 -0.9394
  225MPD1    H7 3427   2.858   4.335  12.773  0.6633 -1.4317 -0.2319
  226MPD1     C 3428   0.898   3.619  10.757  0.0504 -0.3887 -1.0948
  226MPD1    C1 3429   0.846   3.533  10.665  0.0535 -0.5141  0.0858
  226MPD1    C2 3430   0.728   3.565  10.608  0.2793  0.0920  0.9583
  226MPD1    C3 3431   0.644   3.654  10.671  0.4582  0.1935 -0.1725
  226MPD1    C4 3432   0.689   3.722  10.781  0.8430 -0.6412  0.3773
  226MPD1    C5 3433   0.823   3.716  10.810 -0.2898  0.5865  0.7688
  226MPD1     H 3434   0.699   3.530  10.510 -0.8225  2.4280  0.4374
  226MPD1    H1 3435   0.629   3.784  10.847 -1.6097 -0.1993 -2.3004
  226MPD1    H2 3436   1.002   3.598  10.783  0.0580  0.0090 -0.8003
  226MPD1    H3 3437   0.863   3.778  10.890  2.2912  0.3316 -0.3115
  226MPD1     N 3438   0.514   3.665  10.621  0.3513 -0.8820 -0.4548
  226MPD1    H5 3439   0.485   3.599  10.549  2.6151  0.1407 -2.3134
  226MPD1    N1 3440   0.942   3.452  10.596 -0.4404 -0.4021 -0.9582
  226MPD1    H6 3441   0.899   3.384  10.532 -0.6264 -1.1380 -0.0446
  226MPD1    H7 3442   1.016   3.411  10.652 -1.8054  1.0782  1.9029
  227MPD1     C 3443   4.201   3.923  10.757  0.4337 -0.9494 -0.0876
  227MPD1    C1 3444   4.214   3.860  10.637  1.2236 -0.2905  0.3361
  227MPD1    C2 3445   4.338   3.841  10.588  1.0898 -0.5475 -0.1105
  227MPD1    C3 3446   4.450   3.896  10.646 -0.0346 -0.4872  0.1661
  227MPD1    C4 3447   4.432   3.975  10.753 -0.5044 -0.0769  0.0414
  227MPD1    C5 3448   4.308   3.989  10.807 -0.5015 -0.0921 -0.4301
  227MPD1     H 3449   4.356   3.779  10.501  1.1376 -0.5567 -0.0936
  227MPD1    H1 3450   4.518   4.018  10.804  1.3165 -0.8026 -2.4563
  227MPD1    H2 3451   4.104   3.944  10.802  2.1531  0.2602  3.0829
  227MPD1    H3 3452   4.297   4.047  10.898 -0.1566 -1.9253  0.7882
  227MPD1     N 3453   4.568   3.859  10.589 -0.8928 -0.3846 -0.6296
  227MPD1    H5 3454   4.565   3.792  10.513 -3.7138 -0.4043 -0.4953
  227MPD1    N1 3455   4.099   3.804  10.578  0.4530 -0.3873  0.0849
  227MPD1    H6 3456   4.112   3.792  10.478 -2.5846 -0.9508 -0.2453
  227MPD1    H7 3457   4.017   3.858  10.606  0.9169 -0.0314  0.7422
  228MPD1     C 3458   4.476   2.085  12.894 -0.0125  0.1500  0.4681
  228MPD1    C1 3459   4.407   2.094  12.777  0.3813 -0.6966  0.0731
  228MPD1    C2 3460   4.344   1.976  12.731  0.3059 -0.0320 -0.0463
  228MPD1    C3 3461   4.352   1.856  12.803 -1.1545  0.0547 -0.0413
  228MPD1    C4 3462   4.431   1.848  12.914  0.1559 -0.2111  0.8082
  228MPD1    C5 3463   4.489   1.961  12.961  0.1773 -0.4018 -0.3275
  228MPD1     H 3464   4.299   1.978  12.633 -0.5095  0.5506  0.3352
  228MPD1    H1 3465   4.441   1.758  12.973  2.0688 -1.4614 -1.4302
  228MPD1    H2 3466   4.529   2.163  12.947  0.0185 -0.1878  0.9324
  228MPD1    H3 3467   4.545   1.953  13.053 -0.7923  0.5568  0.3454
  228MPD1     N 3468   4.288   1.745  12.744  0.4801  0.5499 -0.8325
  228MPD1    H5 3469   4.229   1.764  12.664 -3.1125  0.3669  1.7920
  228MPD1    N1 3470   4.376   2.222  12.718  0.2457  0.5757 -0.1718
  228MPD1    H6 3471   4.367   2.221  12.617  0.4855  1.3092 -0.2067
  228MPD1    H7 3472   4.449   2.290  12.742  2.0022 -1.2395 -0.4338
  229MPD1     C 3473   3.378   0.701  14.443  0.4412 -0.3848 -0.3276
  229MPD1    C1 3474   3.424   0.793  14.534  0.3414  0.5683  0.2902
  229MPD1    C2 3475   3.559   0.782  14.571 -0.1833 -0.2474 -0.8473
  229MPD1    C3 3476   3.643   0.688  14.517 -0.0975 -0.2959 -0.2296
  229MPD1    C4 3477   3.595   0.594  14.430  0.9476 -0.3103 -0.9678
  229MPD1    C5 3478   3.465   0.602  14.399  0.0021  0.0167 -0.0204
  229MPD1     H 3479   3.598   0.845  14.651 -1.5958  0.1793 -0.4843
  229MPD1    H1 3480   3.652   0.515  14.381  1.6270  0.7481 -1.8784
  229MPD1    H2 3481   3.275   0.699  14.411  0.7237 -0.5199 -1.2190
  229MPD1    H3 3482   3.417   0.518  14.349  2.7242 -0.4657 -1.7922
  229MPD1     N 3483   3.780   0.680  14.560 -0.0579 -0.0662  0.8510
  229MPD1    H5 3484   3.821   0.591  14.534 -0.1830  0.1322 -0.0296
  229MPD1    N1 3485   3.333   0.881  14.597  0.5704  0.1631 -1.1126
  229MPD1    H6 3486   3.379   0.961  14.642 -3.5623  1.3222  1.0125
  229MPD1    H7 3487   3.266   0.919  14.531  0.4135  0.6095 -0.6958
  230MPD1     C 3488   4.277   0.829  15.513 -0.0893  0.5553  0.7133
  230MPD1    C1 3489   4.331   0.722  15.450  0.1810  0.2358 -0.9467
  230MPD1    C2 3490   4.296   0.693  15.318 -0.1708  0.5863 -0.6481
  230MPD1    C3 3491   4.201   0.772  15.250 -0.0040  0.7652  0.3156
  230MPD1    C4 3492   4.159   0.886  15.315 -1.0654 -0.1328 -0.0313
  230MPD1    C5 3493   4.189   0.913  15.443 -0.2298 -0.1318  0.4339
  230MPD1     H 3494   4.338   0.608  15.266  0.7631 -0.2588  1.5197
  230MPD1    H1 3495   4.086   0.951  15.269 -1.6557 -1.4364 -0.9346
  230MPD1    H2 3496   4.299   0.847  15.618  0.6988 -1.4213  0.9070
  230MPD1    H3 3497   4.140   0.997  15.491  0.5124  0.8934 -0.6040
  230MPD1     N 3498   4.169   0.743  15.116  0.5350 -0.0807  0.7014
  230MPD1    H5 3499   4.219   0.667  15.071  0.4834  0.2210  0.1444
  230MPD1    N1 3500   4.424   0.637  15.515 -0.1393  1.1541  0.4544
  230MPD1    H6 3501   4.473   0.572  15.454 -0.7316  0.0776  1.1215
  230MPD1    H7 3502   4.482   0.689  15.581  0.2057  1.1658  0.1439
  231MPD1     C 3503   2.337   1.885  15.638  0.1502 -0.2343 -0.5879
  231MPD1    C1 3504   2.321   1.834  15.508 -0.4880 -0.5355 -0.2299
  231MPD1    C2 3505   2.323   1.931  15.411  0.1242 -0.4638  0.0379
  231MPD1    C3 3506   2.336   2.067  15.431  0.3156 -0.6206  0.3098
  231MPD1    C4 3507   2.356   2.112  15.557  0.1877 -0.3335 -0.6109
  231MPD1    C5 3508   2.352   2.019  15.658  0.8931  0.0730 -1.2666
  231MPD1     H 3509   2.314   1.906  15.306  1.5755 -2.5463  0.4217
  231MPD1    H1 3510   2.378   2.215  15.584  0.8640  0.3133 -3.5522
  231MPD1    H2 3511   2.348   1.820  15.724  2.3196 -2.2832 -2.4098
  231MPD1    H3 3512   2.358   2.054  15.760 -1.9695 -2.8260 -0.0694
  231MPD1     N 3513   2.354   2.144  15.316 -0.0008  0.0790 -0.6706
  231MPD1    H5 3514   2.317   2.109  15.228 -1.1230 -0.7109  0.1127
  231MPD1    N1 3515   2.324   1.698  15.480  0.1266  0.1302 -0.1633
  231MPD1    H6 3516   2.279   1.645  15.554  2.7480  0.8762  1.9853
  231MPD1    H7 3517   2.269   1.681  15.397 -0.6781  0.3133  0.3316
  232MPD1     C 3518   4.168   0.414  17.064  0.5840 -0.3468 -0.4106
  232MPD1    C1 3519   4.171   0.473  17.189 -0.1864  0.2687  1.0110
  232MPD1    C2 3520   4.124   0.396  17.289  0.2040  0.0280  0.7605
  232MPD1    C3 3521   4.077   0.272  17.271  0.1903 -0.0481  0.5937
  232MPD1    C4 3522   4.080   0.205  17.150 -0.0676 -0.4899  0.6065
  232MPD1    C5 3523   4.131   0.281  17.044 -0.1224 -0.4209  0.0868
  232MPD1     H 3524   4.121   0.432  17.391  0.7807  1.5628  0.2423
  232MPD1    H1 3525   4.052   0.101  17.141  3.5218 -1.3988 -0.2617
  232MPD1    H2 3526   4.196   0.472  16.977 -0.2901  0.8635  0.1100
  232MPD1    H3 3527   4.137   0.234  16.946  0.7127 -1.6135  0.7158
  232MPD1     N 3528   4.040   0.204  17.395 -0.5276  0.2192  0.1361
  232MPD1    H5 3529   4.010   0.267  17.469  2.6195  2.3287 -0.3602
  232MPD1    N1 3530   4.234   0.597  17.218 -0.2276 -0.1070  0.2922
  232MPD1    H6 3531   4.283   0.643  17.142 -0.9823 -0.5745 -0.4783
  232MPD1    H7 3532   4.285   0.615  17.304  1.6369  0.3233 -0.9018
  233MPD1     C 3533   4.129   2.777   1.277 -0.8644 -0.3369 -0.3252
  233MPD1    C1 3534   4.234   2.828   1.343  0.5131  0.2544  0.1080
  233MPD1    C2 3535   4.349   2.751   1.347  0.4397  0.0275 -0.1301
  233MPD1    C3 3536   4.349   2.630   1.297  0.7915  0.2385  0.0924
  233MPD1    C4 3537   4.241   2.582   1.233  0.1030 -0.0608  0.0267
  233MPD1    C5 3538   4.137   2.658   1.220  0.1385 -0.8119 -0.7601
  233MPD1     H 3539   4.439   2.787   1.397 -0.4055  0.5001  1.0481
  233MPD1    H1 3540   4.242   2.483   1.189 -0.4342  0.0271 -0.1689
  233MPD1    H2 3541   4.035   2.832   1.274 -1.1143 -0.6756  1.4454
  233MPD1    H3 3542   4.047   2.614   1.177 -0.3585  0.9426 -1.5528
  233MPD1     N 3543   4.461   2.540   1.291 -0.3171 -0.2986  0.3944
  233MPD1    H5 3544   4.461   2.466   1.221 -0.2995  1.4619 -1.4732
  233MPD1    N1 3545   4.228   2.961   1.385 -0.3518 -0.3225 -0.3612
  233MPD1    H6 3546   4.136   2.981   1.426 -0.3163  1.2202 -1.0219
  233MPD1    H7 3547   4.298   2.982   1.455  0.6139  1.9272 -1.9951
  234MPD1     C 3548   1.865   1.670  10.023 -0.7550 -0.1663  0.6353
  234MPD1    C1 3549   1.759   1.690  10.108  0.2711 -0.0499 -0.7671
  234MPD1    C2 3550   1.674   1.791  10.081 -0.0562  0.4971  0.4579
  234MPD1    C3 3551   1.673   1.858   9.961  0.3501 -0.3413 -0.6324
  234MPD1    C4 3552   1.773   1.836   9.872  0.6942  0.0287 -0.7280
  234MPD1    C5 3553   1.864   1.742   9.913 -0.5828  0.9891 -1.0101
  234MPD1     H 3554   1.591   1.816  10.147  1.0530 -1.3062  2.5120
  234MPD1    H1 3555   1.778   1.887   9.777  0.8779 -1.3613 -1.4654
  234MPD1    H2 3556   1.938   1.592  10.045  1.0866  1.2290 -0.5282
  234MPD1    H3 3557   1.948   1.730   9.845 -0.0665  4.2633 -0.9356
  234MPD1     N 3558   1.560   1.939   9.926  0.2761 -0.0720  0.5957
  234MPD1    H5 3559   1.500   1.951  10.006  1.5393 -0.5466  1.6252
  234MPD1    N1 3560   1.756   1.624  10.228  0.3443  0.1111  0.0989
  234MPD1    H6 3561   1.663   1.610  10.266  1.1282 -0.0303  1.9619
  234MPD1    H7 3562   1.802   1.533  10.220 -0.8213 -0.4962  0.3032
  235MPD1     C 3563   1.647   0.673  10.030  0.0326  0.1358  0.1276
  235MPD1    C1 3564   1.635   0.552   9.959 -0.3625  0.9144  0.0223
  235MPD1    C2 3565   1.711   0.534   9.847 -0.2587 -0.0052 -0.8790
  235MPD1    C3 3566   1.797   0.631   9.796  0.3445  0.2009 -0.3911
  235MPD1    C4 3567   1.789   0.750   9.856 -0.3571 -0.1330  0.4190
  235MPD1    C5 3568   1.725   0.774   9.974 -0.3311 -0.1890  0.4737
  235MPD1     H 3569   1.708   0.439   9.795 -3.2139 -1.0198  1.1624
  235MPD1    H1 3570   1.846   0.836   9.824  0.2101 -0.1806  1.2994
  235MPD1    H2 3571   1.594   0.695  10.122  0.2667  2.3201 -0.2676
  235MPD1    H3 3572   1.723   0.871  10.022  0.8737  0.6169 -1.1111
  235MPD1     N 3573   1.884   0.603   9.684  0.4928 -0.0001 -0.4104
  235MPD1    H5 3574   1.878   0.513   9.638 -1.8690 -0.6620  1.2305
  235MPD1    N1 3575   1.575   0.446  10.031  0.5060 -0.2258  0.1377
  235MPD1    H6 3576   1.562   0.359   9.980  0.6207 -0.3441  0.3114
  235MPD1    H7 3577   1.501   0.469  10.097  0.9979 -1.1142  0.9985
  236MPD1     C 3578   2.895   0.879  11.140  0.1274  0.6902  0.2683
  236MPD1    C1 3579   2.929   0.745  11.130  0.3053  0.5751  0.2565
  236MPD1    C2 3580   2.969   0.696  11.006 -0.4327 -0.0484 -0.5048
  236MPD1    C3 3581   2.933   0.771  10.890  0.6122  0.1048  0.5021
  236MPD1    C4 3582   2.876   0.895  10.907 -1.0655 -1.1521 -0.2692
  236MPD1    C5 3583   2.866   0.949  11.027 -0.8240  0.1883 -0.8099
  236MPD1     H 3584   3.017   0.599  11.000  1.1215  0.6033  1.2948
  236MPD1    H1 3585   2.861   0.965  10.826  2.2750  0.7975  0.8248
  236MPD1    H2 3586   2.870   0.918  11.238  3.9271  0.9100  1.1547
  236MPD1    H3 3587   2.829   1.050  11.033 -0.2807  0.3216  0.2694
  236MPD1     N 3588   2.957   0.723  10.757 -0.2247  0.0159 -0.1804
  236MPD1    H5 3589   2.938   0.781  10.676 -1.6368  0.1036  0.2124
  236MPD1    N1 3590   2.962   0.666  11.247 -0.5217 -0.4058  0.1760
  236MPD1    H6 3591   2.910   0.701  11.327  1.4257  0.1749  1.1785
  236MPD1    H7 3592   2.965   0.565  11.247  1.9395 -0.3203  2.0248
  237MPD1     C 3593   2.233   2.621  15.668  0.5434 -0.5183 -0.5097
  237MPD1    C1 3594   2.269   2.661  15.537  0.2961  0.9539  0.2841
  237MPD1    C2 3595   2.215   2.784  15.493 -0.3709  0.0963 -0.4353
  237MPD1    C3 3596   2.112   2.856  15.559 -0.3239 -0.3248 -0.3794
  237MPD1    C4 3597   2.074   2.807  15.677  0.1980  0.2466 -0.0304
  237MPD1    C5 3598   2.130   2.697  15.734 -0.3980 -0.1292 -0.0491
  237MPD1     H 3599   2.254   2.828  15.402  0.5407  1.9006  0.8466
  237MPD1    H1 3600   1.998   2.856  15.737 -1.0112  0.9453 -2.1257
  237MPD1    H2 3601   2.268   2.529  15.715  1.2289 -1.9549 -3.8418
  237MPD1    H3 3602   2.096   2.667  15.833  1.3817  2.5062  1.3657
  237MPD1     N 3603   2.041   2.969  15.509 -0.2557 -0.3725 -0.6512
  237MPD1    H5 3604   1.967   3.014  15.561  0.8773  1.1865 -0.4085
  237MPD1    N1 3605   2.378   2.607  15.468 -0.1975 -0.1810  0.1901
  237MPD1    H6 3606   2.371   2.629  15.369  0.1869 -2.9305 -0.4236
  237MPD1    H7 3607   2.389   2.507  15.480  2.3038 -0.0647 -1.1766
  238MPD1     C 3608   3.475   2.786  15.417  1.2762 -0.3497  0.4658
  238MPD1    C1 3609   3.452   2.679  15.495  0.2016 -0.2196  0.7991
  238MPD1    C2 3610   3.397   2.562  15.439  0.3475 -0.0562  0.0349
  238MPD1    C3 3611   3.389   2.543  15.308 -0.4500 -0.0733 -0.1248
  238MPD1    C4 3612   3.430   2.645  15.230  0.2447 -0.0066 -0.3967
  238MPD1    C5 3613   3.484   2.760  15.281  0.0608 -0.2594  0.3754
  238MPD1     H 3614   3.366   2.485  15.509 -2.4231 -0.4217 -1.6294
  238MPD1    H1 3615   3.425   2.636  15.122 -1.7201  1.4979 -0.4390
  238MPD1    H2 3616   3.509   2.884  15.450  0.9768 -0.9771  2.5848
  238MPD1    H3 3617   3.517   2.836  15.211 -0.3016 -1.0230 -0.6220
  238MPD1     N 3618   3.349   2.425  15.242  0.2852 -0.2046 -0.0772
  238MPD1    H5 3619   3.365   2.420  15.142 -0.8323 -0.9237 -0.2222
  238MPD1    N1 3620   3.437   2.698  15.634  0.3336  0.4687  0.2304
  238MPD1    H6 3621   3.516   2.755  15.663  2.1973 -2.6856  1.2640
  238MPD1    H7 3622   3.449   2.611  15.685  0.9369  0.6654  0.4136
  239MPD1     C 3623   4.353   2.749  14.854 -0.6432 -0.6090 -0.2852
  239MPD1    C1 3624   4.276   2.850  14.915  0.2723  0.5831 -0.6818
  239MPD1    C2 3625   4.193   2.919  14.824  0.1030 -0.0408  0.2012
  239MPD1    C3 3626   4.161   2.874  14.699  0.2365 -0.2878  0.0448
  239MPD1    C4 3627   4.233   2.771  14.647  0.8143  0.2740  0.0218
  239MPD1    C5 3628   4.324   2.707  14.724  0.0010  0.0853 -0.6244
  239MPD1     H 3629   4.145   3.006  14.867 -1.2697 -1.5164  1.6755
  239MPD1    H1 3630   4.211   2.733  14.548  3.5178  1.4045 -0.9991
  239MPD1    H2 3631   4.420   2.686  14.911 -1.4710  0.5071  1.9215
  239MPD1    H3 3632   4.377   2.625  14.677 -1.6680 -0.7677 -1.0220
  239MPD1     N 3633   4.064   2.934  14.622 -0.0786  0.0265  0.6158
  239MPD1    H5 3634   4.050   2.899  14.528  0.2342 -0.6105  0.8108
  239MPD1    N1 3635   4.314   2.901  15.043  0.1251  0.0720 -0.6582
  239MPD1    H6 3636   4.343   2.831  15.110  0.0906  0.4164 -0.2871
  239MPD1    H7 3637   4.234   2.943  15.089  1.7144 -0.2701  2.3675
  240MPD1     C 3638   3.205   3.383  14.208  0.1559 -0.1776 -0.3695
  240MPD1    C1 3639   3.103   3.300  14.252  0.1927 -0.8291 -0.1761
  240MPD1    C2 3640   3.144   3.175  14.300  0.7458  0.1898  0.7396
  240MPD1    C3 3641   3.272   3.136  14.306  0.9725  0.6727  0.0323
  240MPD1    C4 3642   3.370   3.214  14.245 -0.4481  0.2262  0.5293
  240MPD1    C5 3643   3.331   3.339  14.190 -0.2078  0.4417  0.0933
  240MPD1     H 3644   3.068   3.105  14.333  1.5307 -0.9027  0.2286
  240MPD1    H1 3645   3.469   3.169  14.237 -0.6145  0.2276 -1.6173
  240MPD1    H2 3646   3.190   3.487  14.180 -1.3186 -0.7730 -1.7622
  240MPD1    H3 3647   3.400   3.412  14.149  0.1729  0.2747  0.4272
  240MPD1     N 3648   3.297   3.009  14.362 -0.6356  0.6118  0.3000
  240MPD1    H5 3649   3.222   2.958  14.407 -0.3206 -0.8630 -0.8470
  240MPD1    N1 3650   2.975   3.327  14.225 -0.7758  0.4318  0.7316
  240MPD1    H6 3651   2.916   3.265  14.279 -1.4246  0.8191  0.4619
  240MPD1    H7 3652   2.951   3.424  14.246  1.8648  1.7378 -2.3106
  241MPD1     C 3653   3.969   2.679  15.012  0.1068  0.1278  0.1965
  241MPD1    C1 3654   3.831   2.674  15.045  0.8650  0.5096  0.2784
  241MPD1    C2 3655   3.738   2.678  14.946  0.4703 -0.2015  0.3169
  241MPD1    C3 3656   3.771   2.667  14.809 -0.0220 -0.5970 -0.2968
  241MPD1    C4 3657   3.906   2.651  14.783  0.1410  0.0479 -0.2346
  241MPD1    C5 3658   4.003   2.652  14.882 -0.3200  0.2924  0.3989
  241MPD1     H 3659   3.638   2.670  14.987  0.4534  2.8993  0.9526
  241MPD1    H1 3660   3.938   2.627  14.682 -1.5144 -1.7655 -0.3254
  241MPD1    H2 3661   4.050   2.703  15.080 -1.3817 -1.4848  2.5511
  241MPD1    H3 3662   4.106   2.627  14.860 -0.5610 -1.1393  0.9315
  241MPD1     N 3663   3.676   2.668  14.706 -0.1645 -0.4133  0.3725
  241MPD1    H5 3664   3.719   2.649  14.616  2.1519 -0.1491  1.4235
  241MPD1    N1 3665   3.797   2.699  15.180  0.0032 -0.0840 -0.0963
  241MPD1    H6 3666   3.699   2.687  15.202  0.1038 -0.2277  0.2862
  241MPD1    H7 3667   3.855   2.670  15.259  0.4750 -0.6394 -0.6449
  242MPD1     C 3668   3.126   0.965  16.182 -0.1172 -0.1832  0.1107
  242MPD1    C1 3669   3.222   1.060  16.148  0.3466 -0.7675  0.1717
  242MPD1    C2 3670   3.282   1.064  16.022  0.0991  0.7022 -0.2918
  242MPD1    C3 3671   3.269   0.955  15.936  0.0440  0.1222  0.6965
  242MPD1    C4 3672   3.179   0.856  15.974  0.3587 -0.5078  0.4986
  242MPD1    C5 3673   3.103   0.866  16.086  0.6408  0.1123 -0.1874
  242MPD1     H 3674   3.353   1.146  16.013 -0.9785  1.4565 -1.8339
  242MPD1    H1 3675   3.186   0.760  15.925 -2.0807 -1.3467  1.7755
  242MPD1    H2 3676   3.068   0.963  16.274  0.4448 -2.0620  0.4288
  242MPD1    H3 3677   3.030   0.787  16.101  1.3134 -0.6057 -0.6787
  242MPD1     N 3678   3.340   0.948  15.820 -0.5590 -0.0420  0.4070
  242MPD1    H5 3679   3.319   0.873  15.755 -1.5022 -0.5625  1.2958
  242MPD1    N1 3680   3.226   1.173  16.233  0.8202  0.3024  0.1124
  242MPD1    H6 3681   3.218   1.137  16.328 -2.6562  1.7283  0.3694
  242MPD1    H7 3682   3.309   1.230  16.221  2.4190 -1.2617  3.9482
  243MPD1     C 3683   1.007   0.133  17.150  0.5926 -0.2267  0.0246
  243MPD1    C1 3684   0.950   0.074  17.047  0.3302 -0.5132 -0.4411
  243MPD1    C2 3685   0.812   0.064  17.044  0.0146 -0.0713 -0.4337
  243MPD1    C3 3686   0.733   0.112  17.143 -0.0614  0.1712 -0.2076
  243MPD1    C4 3687   0.794   0.169  17.254  0.5823  0.5429 -0.1226
  243MPD1    C5 3688   0.932   0.188  17.248 -0.2368  0.0202 -0.0639
  243MPD1     H 3689   0.756   0.022  16.961  1.5913 -0.4988 -1.2855
  243MPD1    H1 3690   0.741   0.208  17.340  2.0069 -0.1165  1.0619
  243MPD1    H2 3691   1.113   0.112  17.162  1.0745  1.2576 -1.5407
  243MPD1    H3 3692   0.983   0.227  17.336 -0.0937  0.1475 -0.2033
  243MPD1     N 3693   0.598   0.076  17.137 -0.1340  0.2898 -0.6509
  243MPD1    H5 3694   0.574   0.018  17.057 -1.5518 -0.5282  0.3637
  243MPD1    N1 3695   1.029   0.032  16.936  0.1166 -0.1148 -0.1434
  243MPD1    H6 3696   1.128   0.019  16.956  0.3218 -0.0690 -1.0852
  243MPD1    H7 3697   0.988   4.680  16.878 -2.7013 -0.3170  2.1579
  244MPD1     C 3698   0.043   4.378   0.059 -0.0435  0.3991  0.3313
  244MPD1    C1 3699   0.171   4.414   0.034 -0.1375 -0.3841  0.6160
  244MPD1    C2 3700   0.205   4.479  17.604 -1.0367 -0.2425 -0.5865
  244MPD1    C3 3701   0.102   4.515  17.517 -0.0555 -0.2733  0.0226
  244MPD1    C4 3702   4.696   4.464  17.533 -0.3271  0.3923 -0.0036
  244MPD1    C5 3703   4.670   4.400  17.649  0.2205 -0.1410  0.3673
  244MPD1     H 3704   0.306   4.513  17.586 -1.0749  0.8887  1.3020
  244MPD1    H1 3705   4.613   4.465  17.463  0.0329  0.3009 -0.4326
  244MPD1    H2 3706   0.012   4.325   0.148 -0.1826  0.2861  0.2169
  244MPD1    H3 3707   4.571   4.358  17.657  0.8218 -1.5482  0.3949
  244MPD1     N 3708   0.140   4.605  17.418  0.1321  1.1051  0.2241
  244MPD1    H5 3709   0.236   4.639  17.426  0.8210 -0.8959  0.3317
  244MPD1    N1 3710   0.254   4.408   0.145  0.2697  0.1757  0.3726
  244MPD1    H6 3711   0.351   4.397   0.115  1.4347  1.2883  3.5885
  244MPD1    H7 3712   0.224   4.326   0.197 -0.8880  0.0847 -0.4540
  245MPD1     C 3713   1.490   0.075  13.717  0.4647  0.1061 -0.4678
  245MPD1    C1 3714   1.593   0.048  13.808 -0.2025 -0.2672  0.0035
  245MPD1    C2 3715   1.710   0.121  13.799 -0.2966  0.0990 -0.2448
  245MPD1    C3 3716   1.719   0.233  13.718 -0.9373 -0.3010 -0.8087
  245MPD1    C4 3717   1.612   0.265  13.641  0.7424 -0.0969  0.6096
  245MPD1    C5 3718   1.499   0.188  13.641  0.1216  1.4599  0.1045
  245MPD1     H 3719   1.794   0.089  13.860  0.7128  1.4113 -0.9387
  245MPD1    H1 3720   1.616   0.347  13.570  0.3819 -0.6369 -0.0295
  245MPD1    H2 3721   1.403   0.010  13.710  1.3494 -1.2079  0.7667
  245MPD1    H3 3722   1.430   0.224  13.566  0.6481 -0.1772 -1.1653
  245MPD1     N 3723   1.839   0.308  13.725 -0.4037  0.0033  0.0619
  245MPD1    H5 3724   1.902   0.268  13.793 -1.4040 -0.7673  0.5344
  245MPD1    N1 3725   1.580   4.650  13.878  0.3564 -0.4713 -0.1369
  245MPD1    H6 3726   1.486   4.615  13.896 -0.6482  2.2289 -0.1282
  245MPD1    H7 3727   1.619   4.656  13.972 -1.6207  0.4806  0.6188
  246MPD1     C 3728   2.548   1.965   9.992  0.2034 -0.1468 -0.2132
  246MPD1    C1 3729   2.584   1.896   9.878 -0.6102  0.2636  0.3867
  246MPD1    C2 3730   2.637   1.772   9.900 -0.3045  0.0077 -0.1204
  246MPD1    C3 3731   2.660   1.720  10.024 -0.1307 -0.7929 -0.3015
  246MPD1    C4 3732   2.646   1.804  10.134 -0.2194 -0.5714 -0.2431
  246MPD1    C5 3733   2.575   1.918  10.116  0.3953 -0.8832 -0.3510
  246MPD1     H 3734   2.668   1.714   9.815  0.5306 -0.0646  0.2308
  246MPD1    H1 3735   2.652   1.768  10.236  0.5999 -1.5568 -0.6456
  246MPD1    H2 3736   2.494   2.060   9.989 -3.2587 -2.0490  1.1563
  246MPD1    H3 3737   2.572   1.995  10.192 -3.1358  1.5611 -2.9497
  246MPD1     N 3738   2.693   1.582  10.029 -0.4504  0.5112  0.3363
  246MPD1    H5 3739   2.706   1.526   9.945 -0.0560  1.5841 -0.3223
  246MPD1    N1 3740   2.542   1.951   9.757  0.1147  0.1333  0.4084
  246MPD1    H6 3741   2.544   2.052   9.751 -1.1983 -0.0226 -2.7693
  246MPD1    H7 3742   2.607   1.916   9.687 -0.5378 -0.4075  0.0699
  247MPD1     C 3743   0.330   0.424  15.838  0.1355 -0.0859 -0.0161
  247MPD1    C1 3744   0.402   0.373  15.729 -0.8311 -0.7960 -0.7305
  247MPD1    C2 3745   0.517   0.300  15.748  0.1637  0.5452  0.2027
  247MPD1    C3 3746   0.569   0.270  15.871  0.2035  0.6549  1.0880
  247MPD1    C4 3747   0.487   0.301  15.979  0.6100 -0.0006 -0.0639
  247MPD1    C5 3748   0.373   0.375  15.960 -0.1957 -0.5306  0.8025
  247MPD1     H 3749   0.567   0.273  15.656 -1.4247  0.6937 -0.7143
  247MPD1    H1 3750   0.498   0.266  16.081 -0.0767 -0.4664 -0.1536
  247MPD1    H2 3751   0.244   0.490  15.834  1.6084  1.7985 -0.5648
  247MPD1    H3 3752   0.327   0.408  16.052 -1.1545  0.6214 -0.0976
  247MPD1     N 3753   0.694   0.202  15.900 -0.2505 -0.2008  0.1718
  247MPD1    H5 3754   0.713   0.176  15.996  0.3444 -3.3414 -0.7964
  247MPD1    N1 3755   0.369   0.412  15.594 -0.0924 -0.1926 -0.8999
  247MPD1    H6 3756   0.424   0.363  15.524 -1.2375 -0.1812 -1.8034
  247MPD1    H7 3757   0.269   0.408  15.575 -0.1870 -1.3520 -0.1832
  248MPD1     C 3758   2.435   0.188  17.627  0.2671  0.4807 -0.3056
  248MPD1    C1 3759   2.439   0.090   0.031  0.2545  0.3261 -0.6000
  248MPD1    C2 3760   2.363   0.100   0.156  0.4681 -0.2930  0.5844
  248MPD1    C3 3761   2.314   0.229   0.193 -0.2476  0.3891  0.3312
  248MPD1    C4 3762   2.341   0.329   0.109 -0.2705 -0.0781  0.3790
  248MPD1    C5 3763   2.391   0.312  17.669 -0.2013  0.2309 -0.1510
  248MPD1     H 3764   2.362   0.019   0.228 -1.1071  0.1132  1.0233
  248MPD1    H1 3765   2.295   0.424   0.131  0.0928  0.1231  0.2645
  248MPD1    H2 3766   2.474   0.185  17.525  0.0173  1.8136 -0.4392
  248MPD1    H3 3767   2.407   0.399  17.607 -1.6069  0.4414 -0.2345
  248MPD1     N 3768   2.247   0.241   0.314  0.2447 -0.0415 -0.3753
  248MPD1    H5 3769   2.237   0.151   0.361 -1.1152  0.1597 -0.2662
  248MPD1    N1 3770   2.491   4.688  17.669 -0.4787 -0.2518  0.0141
  248MPD1    H6 3771   2.571   4.712  17.611 -2.0169  3.0955 -0.7216
  248MPD1    H7 3772   2.535   4.636   0.059 -2.0834 -2.5646 -0.6598
  249MPD1     C 3773   3.609   0.194   9.414  0.9289 -0.2769 -0.3096
  249MPD1    C1 3774   3.739   0.166   9.418  0.1621 -0.5696  0.1650
  249MPD1    C2 3775   3.785   0.036   9.435  0.2193 -0.1317 -0.0230
  249MPD1    C3 3776   3.698   4.656   9.482  0.3947  0.3585 -0.0348
  249MPD1    C4 3777   3.562   4.683   9.478 -0.6980  0.5692  0.0570
  249MPD1    C5 3778   3.525   0.092   9.443  0.0059 -0.3667  0.5078
  249MPD1     H 3779   3.891   0.018   9.423  0.6835  2.0226  0.8094
  249MPD1    H1 3780   3.487   4.607   9.499  0.1825 -1.0487 -2.7468
  249MPD1    H2 3781   3.563   0.292   9.405  0.8399 -0.2127  0.8396
  249MPD1    H3 3782   3.418   0.106   9.442  0.4392  3.0403  2.1127
  249MPD1     N 3783   3.742   4.521   9.495  0.1515  0.2482  0.4125
  249MPD1    H5 3784   3.842   4.503   9.485 -0.4369 -1.0241 -3.1720
  249MPD1    N1 3785   3.825   0.259   9.363 -0.6828 -0.2583  0.0124
  249MPD1    H6 3786   3.795   0.350   9.397 -1.5159 -1.1212  1.5793
  249MPD1    H7 3787   3.926   0.255   9.374 -0.4875 -0.9968 -2.0446
  250MPD2     C 3788   3.891   3.274  13.294 -0.0192 -0.3320  0.1476
  250MPD2    C1 3789   3.995   3.189  13.265 -0.1991 -0.0468  0.6011
  250MPD2    C2 3790   3.955   3.066  13.209 -0.5897  0.2611 -0.2716
  250MPD2    C3 3791   3.830   3.023  13.180  0.6202 -0.0014  0.1119
  250MPD2    C4 3792   3.729   3.110  13.217  0.7985 -0.0299 -0.9437
  250MPD2    C5 3793   3.762   3.229  13.263  0.2304  0.3276  0.1459
  250MPD2     H 3794   4.043   3.008  13.185  0.0699  1.6200 -1.1404
  250MPD2    H1 3795   3.628   3.090  13.185  0.4374 -0.7453  0.6491
  250MPD2    H2 3796   3.899   3.373  13.338  0.2826  0.0407 -0.7515
  250MPD2    H3 3797   3.679   3.299  13.264  0.7053  0.9338 -1.5378
  250MPD2     N 3798   3.791   2.897  13.124 -0.1214 -0.4224 -0.1959
  250MPD2    H5 3799   3.694   2.881  13.100 -0.8366  1.5927  1.2930
  250MPD2    N1 3800   4.134   3.225  13.268 -0.5355  0.9480 -0.2213
  250MPD2    H7 3801   4.203   3.172  13.215  0.2524  1.2845  0.4619
  251TMC3    C1 3802   4.314   3.379  13.275 -0.6632 -0.4659 -0.3410
  251TMC3    C2 3803   4.389   3.446  13.374  0.0628 -0.2913  0.0209
  251TMC3    C3 3804   4.527   3.430  13.368  0.9910 -0.4695  0.3077
  251TMC3    C4 3805   4.378   3.316  13.171 -0.1793  0.1401 -0.2211
  251TMC3    C5 3806   4.516   3.301  13.167  0.3848 -0.0059  0.3142
  251TMC3    C6 3807   4.591   3.360  13.265  0.6418  0.0947  0.3424
  251TMC3     C 3808   4.180   3.348  13.314  0.0880 -0.3414 -0.1239
  251TMC3     O 3809   4.123   3.423  13.396 -0.2775 -0.4365 -0.5868
  251TMC3     H 3810   4.346   3.500  13.458  2.5688  1.3202  0.2738
  251TMC3    H1 3811   4.311   3.267  13.102 -2.2174  2.8448 -0.1529
  251TMC3    H2 3812   4.697   3.360  13.245  0.7220  0.4565  0.7716
  251TMC3    C7 3813   4.597   3.244  13.059  0.3693 -0.2382 -0.1159
  251TMC3    C8 3814   4.611   3.521  13.447  0.4300 -0.0571  0.4645
  251TMC3    O1 3815   4.712   3.215  13.091  0.5057  0.5277  0.4924
  251TMC3    O2 3816   4.579   3.638  13.427 -0.0500 -0.2086 -0.3695
  252TMC3    C1 3817   0.806   3.659   9.710  0.3939  0.0224  0.1912
  252TMC3    C2 3818   0.857   3.718   9.593  0.3322 -0.5284 -0.2395
  252TMC3    C3 3819   0.804   3.836   9.556 -0.0932 -0.1157 -0.5169
  252TMC3    C4 3820   0.721   3.727   9.795  0.9969  0.5254  0.1496
  252TMC3    C5 3821   0.666   3.845   9.745  0.1144  0.2674 -0.4819
  252TMC3    C6 3822   0.697   3.897   9.626 -0.0174 -0.4846  0.7682
  252TMC3     C 3823   0.888   3.554   9.768 -0.3201  0.2131  0.0792
  252TMC3     O 3824   0.900   3.552   9.891 -0.2898  0.1257 -0.1754
  252TMC3     H 3825   0.928   3.668   9.527  1.3480 -0.5839  0.8917
  252TMC3    H1 3826   0.689   3.679   9.886  1.4473 -0.6127 -0.2880
  252TMC3    H2 3827   0.665   3.995   9.591  3.0476 -0.0538 -0.8801
  252TMC3    C7 3828   0.566   3.915   9.824  0.3034 -0.1815 -0.2493
  252TMC3    C8 3829   0.887   3.913   9.459 -0.5291 -0.5259  0.3144
  252TMC3    O1 3830   0.493   3.997   9.762  0.1237  0.9355 -0.0505
  252TMC3    O2 3831   0.941   3.857   9.364  0.2079  0.4959 -0.2355
  253MPD2     C 3832   1.431   3.437  14.816  0.1449 -0.2574 -0.3938
  253MPD2    C1 3833   1.364   3.535  14.883 -0.3659 -1.2772  0.0291
  253MPD2    C2 3834   1.423   3.613  14.982  0.1422  0.5495  0.3354
  253MPD2    C3 3835   1.558   3.586  15.018 -0.0271 -0.5367  0.4558
  253MPD2    C4 3836   1.615   3.471  14.971 -0.8075 -0.4946 -0.0612
  253MPD2    C5 3837   1.551   3.394  14.870  0.1126 -0.0233  0.0842
  253MPD2     H 3838   1.370   3.693  15.033 -0.4270 -1.2069  2.5297
  253MPD2    H1 3839   1.714   3.439  15.001  0.7585  0.7588 -3.9469
  253MPD2    H2 3840   1.397   3.372  14.736 -0.2826  0.5123 -0.8376
  253MPD2    H3 3841   1.594   3.299  14.841  2.2544  0.5750  1.3020
  253MPD2     N 3842   1.622   3.652  15.131  0.4864  0.8855 -0.3040
  253MPD2    H5 3843   1.719   3.626  15.145  0.5390  1.8767  1.1512
  253MPD2    N1 3844   1.230   3.570  14.856  0.2970  0.0014 -0.4865
  253MPD2    H7 3845   1.201   3.660  14.892  0.4215  0.4288 -1.4487
  254TMC3    C1 3846   1.654   3.782  15.326  0.0354 -0.5547  0.8497
  254TMC3    C2 3847   1.580   3.866  15.404 -0.5168 -0.1184 -1.3126
  254TMC3    C3 3848   1.609   3.866  15.537  0.1816 -0.1805 -0.6263
  254TMC3    C4 3849   1.750   3.703  15.380  0.5401 -0.2063  0.2706
  254TMC3    C5 3850   1.783   3.724  15.514 -0.1328  0.6195  0.3004
  254TMC3    C6 3851   1.705   3.794  15.592 -0.1641  1.0471  0.1235
  254TMC3     C 3852   1.562   3.730  15.222 -1.3331  0.9076 -0.1061
  254TMC3     O 3853   1.444   3.757  15.248 -0.2351  0.0812  0.4340
  254TMC3     H 3854   1.510   3.935  15.358 -0.8339 -0.0040 -0.6569
  254TMC3    H1 3855   1.797   3.623  15.324 -0.8779 -1.0413  0.2720
  254TMC3    H2 3856   1.722   3.803  15.699  0.7772 -2.0459  0.2549
  254TMC3    C7 3857   1.894   3.645  15.561 -0.5862  0.1088 -0.2489
  254TMC3    C8 3858   1.504   3.912  15.623  0.1282  0.4183  0.0357
  254TMC3    O1 3859   1.974   3.608  15.480 -0.4404  0.3084 -0.2218
  254TMC3    O2 3860   1.531   3.945  15.736  0.3333 -0.1309 -0.2744
  255MPD2     C 3861   4.176   0.620  10.387 -0.0876 -0.4911  0.3099
  255MPD2    C1 3862   4.253   0.732  10.413 -0.7167  0.2561 -0.3538
  255MPD2    C2 3863   4.385   0.716  10.410 -0.1544  0.4450 -0.0794
  255MPD2    C3 3864   4.446   0.596  10.367 -0.6110 -0.4435 -1.4284
  255MPD2    C4 3865   4.370   0.488  10.338 -0.0461 -0.7050  0.3420
  255MPD2    C5 3866   4.231   0.497  10.353 -0.8124  0.1103  0.3211
  255MPD2     H 3867   4.460   0.790  10.433  0.6347  0.0912 -1.5335
  255MPD2    H1 3868   4.415   0.392  10.316  0.4272 -0.6659  1.1352
  255MPD2    H2 3869   4.070   0.642  10.401 -0.3187 -0.9520 -0.7403
  255MPD2    H3 3870   4.169   0.410  10.332  0.2332  0.3176 -3.6971
  255MPD2     N 3871   4.587   0.595  10.355 -0.5734  0.5667  0.0995
  255MPD2    H5 3872   4.625   0.689  10.353  0.1481  0.2536 -0.5571
  255MPD2    N1 3873   4.185   0.852  10.435  0.0272  0.1981  1.0673
  255MPD2    H7 3874   4.083   0.856  10.435  0.0320 -0.3603 -1.4352
  256TMC3    C1 3875   4.174   1.093  10.444  0.0371  0.1186  0.1073
  256TMC3    C2 3876   4.228   1.205  10.497  0.2388  0.0817 -0.1853
  256TMC3    C3 3877   4.150   1.315  10.500  0.0946 -0.4997  0.0798
  256TMC3    C4 3878   4.061   1.086  10.381 -0.0990  0.4821 -0.6016
  256TMC3    C5 3879   3.985   1.197  10.382 -0.6105 -0.2475 -0.8348
  256TMC3    C6 3880   4.023   1.309  10.452  0.4075 -0.0619  0.4839
  256TMC3     C 3881   4.250   0.972  10.449 -0.5220  0.4251  0.4525
  256TMC3     O 3882   4.367   0.988  10.475  0.5551 -0.5650 -0.4501
  256TMC3     H 3883   4.327   1.199  10.542 -0.6567 -1.8699  1.5133
  256TMC3    H1 3884   4.054   1.007  10.307  3.8799 -0.3881 -0.0541
  256TMC3    H2 3885   3.981   1.407  10.433 -0.8933 -0.8967 -1.0502
  256TMC3    C7 3886   3.895   1.217  10.266  0.2662  0.8132  0.7957
  256TMC3    C8 3887   4.221   1.437  10.516 -0.3091 -0.1213  0.0300
  256TMC3    O1 3888   3.926   1.174  10.154 -0.0760  0.3647  0.4560
  256TMC3    O2 3889   4.339   1.435  10.517  0.0529 -0.1327  0.1467
  257MPD2     C 3890   3.644   3.866  13.291 -0.1887 -0.5359  0.0796
  257MPD2    C1 3891   3.583   3.787  13.193  0.3913 -0.0744 -0.0586
  257MPD2    C2 3892   3.535   3.663  13.219  0.4226  0.3363 -0.0874
  257MPD2    C3 3893   3.556   3.604  13.343 -0.3551  0.0839  0.1333
  257MPD2    C4 3894   3.592   3.698  13.446 -0.1297 -0.1098  0.0249
  257MPD2    C5 3895   3.647   3.816  13.415  0.6108 -0.1924 -0.1816
  257MPD2     H 3896   3.501   3.592  13.145 -0.0163 -0.8308  1.2303
  257MPD2    H1 3897   3.588   3.675  13.552  0.2522 -0.2028  0.0202
  257MPD2    H2 3898   3.687   3.964  13.271 -0.6247  0.2447  2.9606
  257MPD2    H3 3899   3.693   3.883  13.487  1.0242 -0.0375 -0.5885
  257MPD2     N 3900   3.526   3.472  13.372 -0.1301 -0.0748  0.0418
  257MPD2    H5 3901   3.506   3.411  13.293 -2.0117  0.0046  0.4569
  257MPD2    N1 3902   3.576   3.844  13.070  0.0954  0.6054  0.5142
  257MPD2    H7 3903   3.601   3.942  13.076 -1.1713  1.0814 -2.2996
  258TMC3    C1 3904   3.505   3.274  13.486 -0.1189 -0.3119 -0.2211
  258TMC3    C2 3905   3.378   3.250  13.440  0.7870 -0.3624 -0.2517
  258TMC3    C3 3906   3.348   3.121  13.418  0.5919 -0.4241 -0.8251
  258TMC3    C4 3907   3.572   3.177  13.557 -0.5401  0.4046  0.1978
  258TMC3    C5 3908   3.532   3.049  13.547 -0.1178 -0.2531  0.2251
  258TMC3    C6 3909   3.426   3.026  13.467  0.7044 -0.5771  0.1112
  258TMC3     C 3910   3.544   3.414  13.493 -0.5612 -0.1581  0.4396
  258TMC3     O 3911   3.601   3.445  13.596  0.2268  0.0855  0.3429
  258TMC3     H 3912   3.320   3.334  13.402 -0.8607  0.8446  5.0509
  258TMC3    H1 3913   3.672   3.201  13.593  0.3129 -0.4259 -1.6040
  258TMC3    H2 3914   3.393   2.930  13.431 -1.3694  0.2613 -0.2264
  258TMC3    C7 3915   3.629   2.946  13.545  0.6047 -0.2399 -0.1389
  258TMC3    C8 3916   3.222   3.100  13.346 -0.5017  0.3320  0.1124
  258TMC3    O1 3917   3.636   2.877  13.448 -0.3024  0.4334  0.2406
  258TMC3    O2 3918   3.142   3.021  13.397  0.3351  0.2417 -0.0025
  259MPD2     C 3919   2.486   0.455   1.237 -0.1196 -0.1385  0.1515
  259MPD2    C1 3920   2.536   0.330   1.252 -0.8196 -0.4670  0.3079
  259MPD2    C2 3921   2.621   0.285   1.146  0.9671  0.1355 -0.2742
  259MPD2    C3 3922   2.666   0.363   1.044 -0.0020  0.2976 -0.5877
  259MPD2    C4 3923   2.613   0.494   1.041 -0.2227 -0.2042 -0.5081
  259MPD2    C5 3924   2.509   0.533   1.126  0.3498  0.5512  0.4816
  259MPD2     H 3925   2.661   0.185   1.156  0.9614  0.1539 -0.0734
  259MPD2    H1 3926   2.632   0.565   0.962 -1.0964 -0.9016 -1.3500
  259MPD2    H2 3927   2.410   0.498   1.301 -1.1635  0.5778 -1.5698
  259MPD2    H3 3928   2.450   0.623   1.119 -0.7992 -0.4321 -2.3086
  259MPD2     N 3929   2.758   0.313   0.950 -0.1054 -0.1308 -0.3248
  259MPD2    H5 3930   2.791   0.217   0.956  0.1145 -0.1885 -2.6748
  259MPD2    N1 3931   2.489   0.264   1.372 -0.5913  0.5990 -0.5570
  259MPD2    H7 3932   2.432   0.314   1.441 -1.1942  1.0678 -1.3913
  260TMC3    C1 3933   2.907   0.308   0.774 -0.2022  0.7772 -0.1280
  260TMC3    C2 3934   3.018   0.374   0.727 -0.3111 -0.2731  0.7118
  260TMC3    C3 3935   3.104   0.301   0.647 -0.3720  0.2671  0.1004
  260TMC3    C4 3936   2.863   0.182   0.730 -0.2253 -0.8539 -0.7181
  260TMC3    C5 3937   2.953   0.110   0.650  0.5489 -0.2559  0.0400
  260TMC3    C6 3938   3.069   0.171   0.601 -0.9028 -0.8642  0.2864
  260TMC3     C 3939   2.822   0.389   0.859  0.0273 -0.1370 -0.2328
  260TMC3     O 3940   2.843   0.512   0.856 -0.2466 -0.1771  0.4112
  260TMC3     H 3941   3.048   0.471   0.765  1.9665 -0.1251 -1.5089
  260TMC3    H1 3942   2.765   0.139   0.750 -0.6355 -0.1580 -1.2282
  260TMC3    H2 3943   3.142   0.107   0.553 -0.2344  2.0085 -2.5261
  260TMC3    C7 3944   2.931   4.688   0.628 -0.0295  0.2453  0.0878
  260TMC3    C8 3945   3.233   0.365   0.605 -0.0206 -0.6299 -0.2189
  260TMC3    O1 3946   2.993   4.648   0.530 -0.3915 -0.2225  0.4532
  260TMC3    O2 3947   3.264   0.464   0.665 -0.0615 -0.2998  0.1638
  261MPD2     C 3948   3.490   2.888  12.480 -0.1137  0.4880 -0.0390
  261MPD2    C1 3949   3.619   2.917  12.520  0.5730  0.5257 -0.7289
  261MPD2    C2 3950   3.689   3.013  12.448 -0.7882  0.7349  0.0787
  261MPD2    C3 3951   3.635   3.082  12.347 -0.0053  0.1622 -0.2117
  261MPD2    C4 3952   3.504   3.057  12.305  0.5069 -0.2346 -0.6982
  261MPD2    C5 3953   3.436   2.959  12.376  0.4083 -0.8067  0.2631
  261MPD2     H 3954   3.794   3.034  12.466 -0.9436  1.5341  0.0371
  261MPD2    H1 3955   3.452   3.109  12.226  0.9452  2.6197  0.9156
  261MPD2    H2 3956   3.421   2.823  12.533  0.4125 -0.8005 -0.9463
  261MPD2    H3 3957   3.332   2.947  12.348  0.9122 -1.0618 -1.4645
  261MPD2     N 3958   3.726   3.159  12.269 -0.1662  0.1935  0.5375
  261MPD2    H5 3959   3.823   3.170  12.297 -0.2833  0.8529  0.6787
  261MPD2    N1 3960   3.679   2.862  12.639  0.1835  0.0502  0.5399
  261MPD2    H7 3961   3.775   2.892  12.653  0.3957  0.1330 -1.0402
  262TMC3    C1 3962   3.813   3.318  12.123 -0.4135 -0.9868  0.0843
  262TMC3    C2 3963   3.792   3.441  12.077 -0.0892 -0.6085 -0.4076
  262TMC3    C3 3964   3.891   3.494  11.996  0.7508  0.2529  0.1200
  262TMC3    C4 3965   3.924   3.240  12.103  0.4473 -0.6413 -0.3879
  262TMC3    C5 3966   4.016   3.302  12.025 -0.0577  0.3170 -0.0156
  262TMC3    C6 3967   4.005   3.430  11.968  0.0008  0.0412  0.0915
  262TMC3     C 3968   3.696   3.247  12.171  0.2735 -0.1984  0.3367
  262TMC3     O 3969   3.593   3.283  12.119 -0.4379 -0.0667  0.5319
  262TMC3     H 3970   3.697   3.490  12.097 -1.0926 -1.5968 -2.6993
  262TMC3    H1 3971   3.926   3.138  12.139  0.9354 -1.3315 -2.3959
  262TMC3    H2 3972   4.071   3.485  11.902 -0.0437 -1.1619 -0.9531
  262TMC3    C7 3973   4.123   3.207  11.989 -0.2640 -0.0249  0.3292
  262TMC3    C8 3974   3.879   3.633  11.952  0.4795 -0.3569 -0.2614
  262TMC3    O1 3975   4.117   3.089  12.026  0.2575  0.3686 -0.3294
  262TMC3    O2 3976   3.976   3.695  11.919  0.0126 -0.3459  0.0683
  263MPD2     C 3977   0.814   2.473  11.618  0.2538 -0.6647 -0.1584
  263MPD2    C1 3978   0.844   2.605  11.652 -0.2602 -0.1477  0.2369
  263MPD2    C2 3979   0.809   2.708  11.566  0.7426  0.3735  0.7229
  263MPD2    C3 3980   0.767   2.676  11.438  0.1516  0.5075 -0.1141
  263MPD2    C4 3981   0.751   2.541  11.400 -0.6319 -0.2277  0.2391
  263MPD2    C5 3982   0.771   2.444  11.492  0.3995 -0.6100  0.2671
  263MPD2     H 3983   0.830   2.812  11.586 -0.7452  0.4917  1.6359
  263MPD2    H1 3984   0.711   2.512  11.303 -2.6779 -0.2194  1.0721
  263MPD2    H2 3985   0.846   2.390  11.681 -2.1526 -1.7982 -0.4364
  263MPD2    H3 3986   0.748   2.340  11.470  0.6072 -1.0343  2.0648
  263MPD2     N 3987   0.734   2.787  11.362 -0.0889  0.3729 -0.0175
  263MPD2    H5 3988   0.749   2.875  11.411 -1.9328  1.2979 -1.1226
  263MPD2    N1 3989   0.930   2.630  11.760  0.3903  0.7818 -0.1085
  263MPD2    H7 3990   0.963   2.550  11.813  0.0508  0.8964  0.2784
  264TMC3    C1 3991   0.641   2.917  11.188 -0.8557  0.1343  0.0713
  264TMC3    C2 3992   0.584   3.004  11.275 -0.5603 -0.4999  0.3289
  264TMC3    C3 3993   0.582   3.132  11.240  0.0983 -0.8436  0.2655
  264TMC3    C4 3994   0.701   2.955  11.077 -0.0944  0.3098 -0.2009
  264TMC3    C5 3995   0.697   3.086  11.042 -0.2294 -0.7753  0.2410
  264TMC3    C6 3996   0.638   3.177  11.127  0.5228  0.7520  0.0054
  264TMC3     C 3997   0.685   2.786  11.241 -0.2272 -0.3280  0.6255
  264TMC3     O 3998   0.686   2.702  11.154 -0.1894  0.4198 -0.4566
  264TMC3     H 3999   0.534   2.962  11.362  3.1204  0.6565  2.9714
  264TMC3    H1 4000   0.760   2.889  11.015  0.2823 -2.3396  2.9987
  264TMC3    H2 4001   0.616   3.277  11.094  0.0677  0.2997 -1.0608
  264TMC3    C7 4002   0.809   3.125  10.958 -0.1817 -0.2866 -0.4301
  264TMC3    C8 4003   0.560   3.227  11.353 -0.0546  0.7234 -0.6232
  264TMC3    O1 4004   0.856   3.045  10.885  0.2216 -0.0471  0.5119
  264TMC3    O2 4005   0.507   3.189  11.458 -0.2612 -0.2616 -0.1358
  265MPD2     C 4006   2.704   3.195  15.810 -0.0823  0.3574  0.4474
  265MPD2    C1 4007   2.732   3.297  15.716 -0.3957  0.4582  0.5027
  265MPD2    C2 4008   2.786   3.264  15.592 -0.1505 -0.5628 -0.7216
  265MPD2    C3 4009   2.801   3.132  15.556 -0.3879  0.3233 -0.1155
  265MPD2    C4 4010   2.792   3.033  15.652 -0.0315 -0.1885 -0.2235
  265MPD2    C5 4011   2.733   3.064  15.774 -0.1583  0.2680  0.3588
  265MPD2     H 4012   2.816   3.344  15.526  0.9166 -0.0107  0.4270
  265MPD2    H1 4013   2.807   2.929  15.626 -0.7071 -0.0234 -1.2528
  265MPD2    H2 4014   2.664   3.212  15.909  0.8972  4.5843  0.1058
  265MPD2    H3 4015   2.724   2.981  15.843  0.4659 -1.2293 -1.3683
  265MPD2     N 4016   2.826   3.084  15.429 -0.5302 -0.3193 -0.1164
  265MPD2    H5 4017   2.819   2.983  15.421  0.7217 -0.3408 -1.0029
  265MPD2    N1 4018   2.696   3.438  15.737 -0.0094 -0.0119 -0.4374
  265MPD2    H7 4019   2.713   3.495  15.655 -0.4132 -0.8092 -1.0762
  266TMC3    C1 4020   2.626   3.644  15.845 -0.5155  1.0405  0.0241
  266TMC3    C2 4021   2.620   3.716  15.959 -0.4755  0.3482 -0.7389
  266TMC3    C3 4022   2.625   3.854  15.962 -0.3091  0.3372  0.2221
  266TMC3    C4 4023   2.625   3.712  15.722 -0.1173  0.0189  0.1248
  266TMC3    C5 4024   2.632   3.847  15.731  0.3453  0.2281  0.1850
  266TMC3    C6 4025   2.626   3.922  15.844  0.4416 -0.6085 -0.0544
  266TMC3     C 4026   2.651   3.493  15.859 -0.3252 -0.7031  0.5022
  266TMC3     O 4027   2.644   3.440  15.968  0.1254 -0.1408  0.3286
  266TMC3     H 4028   2.624   3.662  16.053  0.4244  1.5954 -0.0680
  266TMC3    H1 4029   2.642   3.663  15.626 -1.2461 -0.7695  0.3362
  266TMC3    H2 4030   2.647   4.028  15.833 -2.0510 -0.4494 -3.3009
  266TMC3    C7 4031   2.645   3.909  15.593  0.2756 -0.0379  0.2881
  266TMC3    C8 4032   2.684   3.912  16.082  0.3397  0.1050  0.1632
  266TMC3    O1 4033   2.582   3.853  15.501 -0.2176 -0.1380  0.3974
  266TMC3    O2 4034   2.708   3.831  16.168  1.0712 -0.3550  0.8503
  267MPD2     C 4035   0.043   0.055   0.040  0.4323 -0.2937 -0.8083
  267MPD2    C1 4036   0.085   0.174  17.679  0.0336 -0.1914 -0.2898
  267MPD2    C2 4037   0.000   0.253  17.606 -0.5930 -0.0379 -0.6345
  267MPD2    C3 4038   4.585   0.213  17.592  0.2603  0.1319  0.1997
  267MPD2    C4 4039   4.543   0.094  17.651  0.4106 -0.4911  0.0310
  267MPD2    C5 4040   4.637   0.017   0.027 -0.3350 -0.0114  0.0697
  267MPD2     H 4041   0.037   0.345  17.563 -0.8351  0.1804 -0.3748
  267MPD2    H1 4042   4.445   0.053  17.630  0.4024 -1.1302  1.3172
  267MPD2    H2 4043   0.111   4.712   0.096 -0.4672  0.1837  0.8592
  267MPD2    H3 4044   4.607   4.640   0.061  0.5992 -0.5218 -0.5766
  267MPD2     N 4045   4.511   0.267  17.490  0.0000  0.2899  0.0051
  267MPD2    H5 4046   4.445   0.203  17.447 -0.3701  1.5652 -1.3173
  267MPD2    N1 4047   0.221   0.197   0.021  0.8913  0.7331  0.0591
  267MPD2    H7 4048   0.278   0.130   0.071  1.5875  1.9838  0.9249
  268TMC3    C1 4049   0.438   0.281  17.670 -0.3115  0.3277 -0.5339
  268TMC3    C2 4050   0.531   0.346  17.585 -0.1458 -0.6723  0.2762
  268TMC3    C3 4051   0.663   0.361  17.628  1.0002  0.5323  1.0874
  268TMC3    C4 4052   0.485   0.230   0.107  0.4877 -0.0936 -0.1524
  268TMC3    C5 4053   0.610   0.260   0.149  0.1725 -0.4095  0.1317
  268TMC3    C6 4054   0.701   0.321   0.068  0.2218 -0.2764  0.0752
  268TMC3     C 4055   0.298   0.278  17.628 -0.2569 -0.0634 -0.9116
  268TMC3     O 4056   0.270   0.321  17.515  0.1713 -0.0601  0.0262
  268TMC3     H 4057   0.485   0.371  17.490 -1.0196  2.6124  1.5669
  268TMC3    H1 4058   0.420   0.180   0.178 -1.0760  1.3259 -0.5625
  268TMC3    H2 4059   0.799   0.338   0.110 -0.4117  0.6074  1.2023
  268TMC3    C7 4060   0.645   0.207   0.283 -0.2305  0.4153 -0.4555
  268TMC3    C8 4061   0.752   0.432  17.544 -0.1812 -0.1228 -0.0827
  268TMC3    O1 4062   0.573   0.121   0.328  0.4545  0.5979 -0.0713
  268TMC3    O2 4063   0.864   0.456  17.593  0.2511 -0.0841  0.1109
  269MPD2     C 4064   0.388   3.884  15.893 -0.4771  0.0537 -0.4770
  269MPD2    C1 4065   0.260   3.928  15.898  0.5961 -0.1003  0.6386
  269MPD2    C2 4066   0.223   4.057  15.858  0.7148 -0.4658 -0.2742
  269MPD2    C3 4067   0.319   4.134  15.794 -0.8143  0.0059  0.0954
  269MPD2    C4 4068   0.443   4.094  15.790 -0.4876  0.5486 -0.5994
  269MPD2    C5 4069   0.481   3.974  15.846 -0.4223  0.0476 -0.6297
  269MPD2     H 4070   0.125   4.097  15.884  0.8652 -1.3986  1.7409
  269MPD2    H1 4071   0.517   4.164  15.752  0.3683 -0.0882 -0.0950
  269MPD2    H2 4072   0.419   3.784  15.923 -0.1600  0.1459 -0.4980
  269MPD2    H3 4073   0.582   3.939  15.831 -1.4443 -2.8613 -0.7645
  269MPD2     N 4074   0.278   4.266  15.749  0.1040  0.3200  1.1381
  269MPD2    H5 4075   0.191   4.301  15.790  1.8629  4.1395  1.6710
  269MPD2    N1 4076   0.168   3.830  15.934 -0.4004 -0.5101  0.2735
  269MPD2    H7 4077   0.199   3.736  15.958  0.1502 -0.6751 -1.0941
  270TMC3    C1 4078   4.684   3.722  15.965 -0.1737  0.6630  0.8545
  270TMC3    C2 4079   4.588   3.673  15.879  0.0860 -0.3562 -0.4887
  270TMC3    C3 4080   4.578   3.538  15.858  0.3269 -0.2716  0.0674
  270TMC3    C4 4081   0.042   3.647  16.042  0.5683  0.1206  0.1668
  270TMC3    C5 4082   0.037   3.517  16.015  0.7063  0.0512 -0.1211
  270TMC3    C6 4083   4.662   3.457  15.926 -0.0291 -0.5627 -0.1085
  270TMC3     C 4084   0.029   3.847  15.920  0.7489  0.0620 -0.0031
  270TMC3     O 4085   4.681   3.935  15.870 -0.2329  0.2335  0.1583
  270TMC3     H 4086   4.532   3.738  15.812 -0.8577  0.4261  1.0513
  270TMC3    H1 4087   0.100   3.688  16.124  0.0622  0.0370  0.5664
  270TMC3    H2 4088   4.671   3.353  15.897  0.0712 -0.5836  0.0001
  270TMC3    C7 4089   0.175   3.466  16.011 -0.0992  0.3734 -0.2529
  270TMC3    C8 4090   4.545   3.488  15.729 -0.0268 -0.0847 -0.4483
  270TMC3    O1 4091   0.266   3.543  16.006 -0.2130 -0.1064  0.1383
  270TMC3    O2 4092   4.584   3.550  15.632 -0.3677  0.0751  0.4101
  271MPD2     C 4093   4.297   3.358  14.178 -0.8700  0.5851 -0.2154
  271MPD2    C1 4094   4.222   3.371  14.295 -0.1442 -0.0753  0.0795
  271MPD2    C2 4095   4.106   3.447  14.298 -0.4920  0.1106 -0.0690
  271MPD2    C3 4096   4.062   3.502  14.182 -0.1757 -0.1787 -0.3430
  271MPD2    C4 4097   4.133   3.486  14.069  0.5186  0.1988 -0.1984
  271MPD2    C5 4098   4.255   3.427  14.071 -0.1047 -0.0997 -0.7817
  271MPD2     H 4099   4.049   3.440  14.389 -0.6342  2.0241 -0.0096
  271MPD2    H1 4100   4.111   3.532  13.973  3.2223 -0.1023 -0.9596
  271MPD2    H2 4101   4.393   3.308  14.178 -0.4452  1.3877 -2.3178
  271MPD2    H3 4102   4.325   3.418  13.989  2.7784 -0.2473  1.6923
  271MPD2     N 4103   3.939   3.574  14.173 -0.0830 -0.1784 -0.2479
  271MPD2    H5 4104   3.899   3.597  14.082  1.1278 -1.3192 -1.0672
  271MPD2    N1 4105   4.259   3.305  14.412 -0.4254  0.0311 -0.6660
  271MPD2    H7 4106   4.192   3.326  14.485  0.0860 -2.0186  0.3974
  272TMC3    C1 4107   4.367   3.142  14.545 -0.0267 -0.2507  0.3401
  272TMC3    C2 4108   4.459   3.041  14.555  0.4754  0.1170 -0.1927
  272TMC3    C3 4109   4.531   3.016  14.671 -0.3575  0.0567  0.1088
  272TMC3    C4 4110   4.339   3.216  14.656  0.5577 -0.4054  0.9101
  272TMC3    C5 4111   4.423   3.213  14.758 -0.0158 -0.3423 -0.2742
  272TMC3    C6 4112   4.521   3.113  14.775  0.0754 -0.1852  0.4409
  272TMC3     C 4113   4.359   3.209  14.417  0.6339 -0.4512 -0.1248
  272TMC3     O 4114   4.436   3.170  14.332 -0.3127  0.1822 -0.2593
  272TMC3     H 4115   4.482   2.978  14.469 -0.7604 -0.5524 -0.0269
  272TMC3    H1 4116   4.277   3.304  14.643  1.2878 -0.1684 -1.0111
  272TMC3    H2 4117   4.575   3.096  14.867  0.1386 -1.7616  0.1212
  272TMC3    C7 4118   4.373   3.260  14.884  0.6747 -0.9010  0.1365
  272TMC3    C8 4119   4.653   2.945  14.644  0.5682  0.0319 -0.9391
  272TMC3    O1 4120   4.253   3.288  14.889 -0.4068  0.1029 -0.4180
  272TMC3    O2 4121   4.673   2.909  14.533 -0.2028  0.1059  0.1926
  273MPD2     C 4122   1.864   1.535  12.007  0.0404  0.4208 -0.0582
  273MPD2    C1 4123   1.852   1.665  11.982 -0.3218  0.5979 -0.2192
  273MPD2    C2 4124   1.799   1.710  11.862  0.7611  0.0187  0.9275
  273MPD2    C3 4125   1.746   1.621  11.771 -0.3800  0.2186 -0.2734
  273MPD2    C4 4126   1.752   1.483  11.801 -0.4630  0.2707  0.0699
  273MPD2    C5 4127   1.805   1.448  11.925  0.0675 -0.7203  0.5006
  273MPD2     H 4128   1.778   1.816  11.857 -0.5609 -0.1993  1.7279
  273MPD2    H1 4129   1.719   1.409  11.729  1.0933 -0.0855 -0.2881
  273MPD2    H2 4130   1.904   1.493  12.099 -4.5613 -0.4430  1.5528
  273MPD2    H3 4131   1.817   1.345  11.958  2.9511 -0.9317 -1.1661
  273MPD2     N 4132   1.693   1.665  11.647 -0.4118 -0.0935  0.2390
  273MPD2    H5 4133   1.675   1.593  11.577  1.4616 -1.0521  0.7441
  273MPD2    N1 4134   1.881   1.766  12.078  0.0876  0.5902  0.8323
  273MPD2    H7 4135   1.867   1.864  12.055 -0.6447  1.0701  3.3388
  274TMC3    C1 4136   1.654   1.810  11.467  0.0508  0.2810 -0.2153
  274TMC3    C2 4137   1.532   1.765  11.433 -0.1664 -0.4312  0.6096
  274TMC3    C3 4138   1.452   1.842  11.352  0.2631 -0.3634  0.6136
  274TMC3    C4 4139   1.685   1.938  11.431  0.3262  0.2731  0.4059
  274TMC3    C5 4140   1.606   2.017  11.361 -0.2799  0.4273 -0.2766
  274TMC3    C6 4141   1.491   1.963  11.301  0.4771  0.8327  0.2162
  274TMC3     C 4142   1.688   1.792  11.606 -1.0892 -0.1204  0.0575
  274TMC3     O 4143   1.691   1.896  11.672 -0.5480  0.7007  0.3139
  274TMC3     H 4144   1.505   1.670  11.478 -2.9369  0.2253  0.3237
  274TMC3    H1 4145   1.781   1.965  11.474 -0.0433 -0.2528  1.5679
  274TMC3    H2 4146   1.425   2.025  11.242  0.9850  0.8641 -0.3177
  274TMC3    C7 4147   1.581   2.136  11.436 -0.1422 -0.9979  0.1360
  274TMC3    C8 4148   1.317   1.804  11.320 -0.6795 -0.0044  0.0149
  274TMC3    O1 4149   1.468   2.189  11.432 -0.0805 -0.1254 -0.4651
  274TMC3    O2 4150   1.238   1.896  11.319 -0.0485  0.3665  0.1176
  275MPD2     C 4151   1.407   3.664  14.431 -0.3251 -0.3551 -0.1127
  275MPD2    C1 4152   1.344   3.783  14.422 -0.2156  0.6172 -0.6428
  275MPD2    C2 4153   1.206   3.787  14.444  0.4021 -0.1677  0.0596
  275MPD2    C3 4154   1.133   3.671  14.462  0.5227  0.3256 -0.6077
  275MPD2    C4 4155   1.198   3.553  14.468 -0.4086  0.3726 -0.1725
  275MPD2    C5 4156   1.334   3.549  14.466 -0.2535 -0.1771 -0.5194
  275MPD2     H 4157   1.165   3.885  14.427 -3.3851 -1.7558  0.1293
  275MPD2    H1 4158   1.146   3.460  14.484  1.9697 -0.9174  0.1731
  275MPD2    H2 4159   1.509   3.646  14.399  0.1623  1.3844  0.4699
  275MPD2    H3 4160   1.395   3.462  14.486  1.7799  1.6832  1.3714
  275MPD2     N 4161   0.991   3.677  14.476  0.0733 -0.2657  0.2516
  275MPD2    H5 4162   0.944   3.588  14.490 -0.7501  0.3720  1.5265
  275MPD2    N1 4163   1.399   3.912  14.398  0.1480  0.2758  0.2313
  275MPD2    H7 4164   1.335   3.991  14.406 -1.2049 -0.9586  1.6645
  276TMC3    C1 4165   1.563   4.079  14.390 -0.3268 -0.5896  0.4222
  276TMC3    C2 4166   1.459   4.163  14.350  1.0371  0.1862 -0.0689
  276TMC3    C3 4167   1.421   4.265  14.437  0.1621 -0.1711  0.2124
  276TMC3    C4 4168   1.638   4.104  14.503 -0.5735  0.0979  0.7302
  276TMC3    C5 4169   1.617   4.224  14.570  0.1788 -0.0509  0.3185
  276TMC3    C6 4170   1.504   4.296  14.539 -0.1494  0.9370  0.6857
  276TMC3     C 4171   1.532   3.934  14.372  0.1827  0.0877  0.0967
  276TMC3     O 4172   1.629   3.858  14.357 -0.1925 -0.3812  0.0424
  276TMC3     H 4173   1.394   4.147  14.265  2.1051 -0.3649 -0.7792
  276TMC3    H1 4174   1.705   4.027  14.538  0.3724  0.6787  0.1845
  276TMC3    H2 4175   1.476   4.379  14.603 -0.6128  0.6454  0.8575
  276TMC3    C7 4176   1.699   4.273  14.683 -0.2623  0.5466 -0.0812
  276TMC3    C8 4177   1.290   4.240  14.495  0.2827 -0.1239  0.7143
  276TMC3    O1 4178   1.649   4.361  14.752  0.5661 -0.7729  0.5616
  276TMC3    O2 4179   1.251   4.136  14.446 -0.1044  0.1456 -0.0826
  277MPD2     C 4180   3.218   3.643  13.395  0.2950  0.1621  0.2393
  277MPD2    C1 4181   3.119   3.632  13.305  0.7849  0.2551 -0.1715
  277MPD2    C2 4182   3.008   3.556  13.328  0.0540 -0.2795 -0.3371
  277MPD2    C3 4183   3.000   3.482  13.448 -0.6947  0.2499 -0.6194
  277MPD2    C4 4184   3.104   3.492  13.539  0.0354 -0.6962  0.1154
  277MPD2    C5 4185   3.209   3.573  13.510 -0.0409  0.2646  0.5736
  277MPD2     H 4186   2.933   3.541  13.252 -0.2963  1.5180 -0.3539
  277MPD2    H1 4187   3.109   3.440  13.634  0.4199  3.1841  2.2127
  277MPD2    H2 4188   3.301   3.709  13.369 -1.9707  2.0372 -2.1963
  277MPD2    H3 4189   3.285   3.581  13.586 -1.0311 -3.5870  2.0017
  277MPD2     N 4190   2.895   3.388  13.458 -0.3958  0.5306  0.0717
  277MPD2    H5 4191   2.817   3.410  13.398 -0.2010  0.8101 -0.0808
  277MPD2    N1 4192   3.118   3.697  13.182  0.2390 -0.0546  0.0055
  277MPD2    H7 4193   3.065   3.647  13.111 -0.4113 -1.1049  1.2314
  278TMC3    C1 4194   2.770   3.202  13.542  0.2130 -0.4644 -0.4922
  278TMC3    C2 4195   2.736   3.135  13.656  0.3505  0.1611 -0.3389
  278TMC3    C3 4196   2.615   3.071  13.654  0.6342 -0.3790 -0.4080
  278TMC3    C4 4197   2.679   3.225  13.443  0.5671  0.1811  0.0835
  278TMC3    C5 4198   2.562   3.154  13.443  0.4374  0.7437 -0.1448
  278TMC3    C6 4199   2.522   3.080  13.554  0.4782 -0.3221 -0.0921
  278TMC3     C 4200   2.893   3.282  13.553  0.2087 -0.0030  0.1114
  278TMC3     O 4201   2.976   3.247  13.636  0.0487 -0.2232 -0.2292
  278TMC3     H 4202   2.801   3.135  13.743 -0.2602 -0.2579  0.1213
  278TMC3    H1 4203   2.698   3.292  13.360  0.8143 -0.4662 -0.3758
  278TMC3    H2 4204   2.432   3.019  13.555 -0.1827  0.6452  0.8385
  278TMC3    C7 4205   2.467   3.199  13.343  0.0559 -0.2624  0.0987
  278TMC3    C8 4206   2.607   2.956  13.746  0.6249 -0.5566  0.4740
  278TMC3    O1 4207   2.507   3.263  13.248 -0.0942  0.1728 -0.0673
  278TMC3    O2 4208   2.714   2.918  13.785 -0.8732 -0.4433  0.1726
  279MPD2     C 4209   1.542   2.983  17.568 -0.3122 -0.0449  0.7508
  279MPD2    C1 4210   1.549   3.116  17.573  0.5607  0.8570 -0.1098
  279MPD2    C2 4211   1.659   3.180  17.530  0.1351  0.4896 -0.4456
  279MPD2    C3 4212   1.766   3.108  17.469 -0.3872  0.1115 -0.4116
  279MPD2    C4 4213   1.742   2.976  17.435  0.5031  0.3221 -0.9021
  279MPD2    C5 4214   1.639   2.916  17.499 -0.3166 -0.4294 -0.4723
  279MPD2     H 4215   1.664   3.287  17.549 -1.6991  0.7191 -1.2895
  279MPD2    H1 4216   1.813   2.918  17.377  0.8525 -0.6085  0.4354
  279MPD2    H2 4217   1.457   2.930  17.610  0.2614 -0.7164  1.0550
  279MPD2    H3 4218   1.627   2.808  17.493 -1.6291 -0.1748 -2.5550
  279MPD2     N 4219   1.886   3.168  17.436  0.2719 -0.3708 -0.8669
  279MPD2    H5 4220   1.945   3.110  17.378  0.0079  0.1594 -1.6566
  279MPD2    N1 4221   1.451   3.186  17.647  0.4421  0.1853  0.7393
  279MPD2    H7 4222   1.381   3.132   0.011  0.0610  0.4470  0.4806
  280TMC3    C1 4223   1.384   3.385   0.079 -0.2477  0.3887  0.2231
  280TMC3    C2 4224   1.354   3.309   0.192 -0.0793 -1.0935  0.7900
  280TMC3    C3 4225   1.334   3.370   0.310 -1.1423 -0.4170  0.1603
  280TMC3    C4 4226   1.397   3.517   0.095 -0.8277  0.8055 -0.4922
  280TMC3    C5 4227   1.369   3.571   0.218 -1.1564 -0.0886 -0.4910
  280TMC3    C6 4228   1.344   3.499   0.334  0.7836  0.3986  0.9899
  280TMC3     C 4229   1.443   3.325  17.635  0.2948 -0.6369 -0.3753
  280TMC3     O 4230   1.480   3.410  17.550 -0.5576 -0.1952  0.2533
  280TMC3     H 4231   1.356   3.200   0.188  0.1760 -1.0166 -1.1905
  280TMC3    H1 4232   1.427   3.572   0.007 -1.4391 -2.2466 -2.6335
  280TMC3    H2 4233   1.310   3.543   0.427  2.2411  2.0952  0.7320
  280TMC3    C7 4234   1.396   3.711   0.229 -0.3854 -0.0290  0.1753
  280TMC3    C8 4235   1.246   3.290   0.399 -0.3827 -0.4216 -0.1887
  280TMC3    O1 4236   1.442   3.754   0.334 -0.3142  0.4202 -0.1436
  280TMC3    O2 4237   1.231   3.338   0.510  0.2289 -0.1541  0.0971
  281TMC3    C1 4238   0.639   3.049  12.950  0.1782 -0.2873  0.3100
  281TMC3    C2 4239   0.550   3.097  12.853 -0.0040  0.3250 -0.1937
  281TMC3    C3 4240   0.434   3.031  12.825  0.3085  0.0824  0.1110
  281TMC3    C4 4241   0.612   2.935  13.015 -0.0233  0.6029 -0.2334
  281TMC3    C5 4242   0.489   2.878  12.985  0.9567 -0.1702 -0.2287
  281TMC3    C6 4243   0.400   2.919  12.891 -0.3128 -0.5691 -0.6908
  281TMC3     C 4244   0.694   3.156  13.029  0.2519 -0.1091  0.3790
  281TMC3     O 4245   0.775   3.123  13.111  0.1455 -0.1716 -0.4249
  281TMC3     H 4246   0.565   3.192  12.802  2.0660  1.0046  1.6755
  281TMC3    H1 4247   0.672   2.894  13.096 -0.3441  1.5597  0.4781
  281TMC3    H2 4248   0.317   2.854  12.868 -1.7591  0.0154  2.9085
  281TMC3    C7 4249   0.428   2.790  13.072  0.5130 -0.3658  0.0248
  281TMC3    C8 4250   0.319   3.117  12.803  0.2174 -0.3034  0.1661
  281TMC3    O1 4251   0.327   2.733  13.041  0.3770  0.0341 -0.2825
  281TMC3    O2 4252   0.318   3.221  12.872  0.6643 -0.3918 -0.0186
  282MPD2     C 4253   2.437   4.711  14.948 -0.0415 -0.1668 -0.0526
  282MPD2    C1 4254   2.468   0.105  15.018  0.0155  0.1737 -0.2577
  282MPD2    C2 4255   2.466   0.222  14.944 -0.8640 -0.0233 -0.5032
  282MPD2    C3 4256   2.446   0.225  14.809 -0.8501 -0.2027 -0.5979
  282MPD2    C4 4257   2.425   0.104  14.738  0.5034  0.2571  0.7967
  282MPD2    C5 4258   2.414   4.709  14.811  0.0397  0.7216  0.1003
  282MPD2     H 4259   2.486   0.310  15.005  0.6960 -0.3317 -0.5763
  282MPD2    H1 4260   2.405   0.102  14.631  0.5604 -0.1470  0.7939
  282MPD2    H2 4261   2.435   4.616  15.001  1.8789  0.6805  1.5545
  282MPD2    H3 4262   2.389   4.616  14.761 -1.3688  0.9598  0.3658
  282MPD2     N 4263   2.439   0.360  14.749  0.0542 -0.1223  0.0465
  282MPD2    H5 4264   2.440   0.438  14.815 -0.1107  2.0199 -2.4686
  282MPD2    N1 4265   2.512   0.096  15.155  0.2576 -0.5217  0.0722
  282MPD2    H7 4266   2.535   0.180  15.206 -0.1954  1.4372 -2.9364
  283TMC3    C1 4267   2.559   0.026  15.377  0.1099  0.7305  0.4134
  283TMC3    C2 4268   2.582   0.161  15.401 -0.3266 -0.0322  0.5272
  283TMC3    C3 4269   2.583   0.188  15.533 -0.1364 -0.3003  0.3553
  283TMC3    C4 4270   2.545   4.649  15.469  0.3523 -0.7114  0.1835
  283TMC3    C5 4271   2.556   4.680  15.602 -0.0388 -0.6254  0.9505
  283TMC3    C6 4272   2.573   0.098  15.635 -0.5357  0.2824  0.6928
  283TMC3     C 4273   2.519   4.708  15.238 -0.1004  0.1044  0.0785
  283TMC3     O 4274   2.505   4.588  15.216 -0.2686 -0.2611  0.7978
  283TMC3     H 4275   2.586   0.245  15.333 -2.3348 -0.2283  0.1784
  283TMC3    H1 4276   2.553   4.543  15.446  0.2213 -0.8885  0.9529
  283TMC3    H2 4277   2.585   0.127  15.739  1.0843  0.6498  0.3981
  283TMC3    C7 4278   2.444   4.631  15.684 -0.5495  0.0936 -0.4738
  283TMC3    C8 4279   2.593   0.332  15.561 -0.1623 -0.3958 -0.2638
  283TMC3    O1 4280   2.407   4.704  15.775  0.0896  0.4617 -0.2553
  283TMC3    O2 4281   2.637   0.413  15.480  0.1911  0.6070 -0.0891
  284MPD2     C 4282   1.271   4.351  12.513 -0.1322 -0.2047  0.1377
  284MPD2    C1 4283   1.236   4.325  12.386 -0.4264  0.0375  0.1060
  284MPD2    C2 4284   1.164   4.213  12.350  0.2317 -0.1869 -0.4801
  284MPD2    C3 4285   1.134   4.124  12.454  0.1216 -0.2822 -0.5120
  284MPD2    C4 4286   1.174   4.149  12.580 -0.2762 -0.2329 -0.1075
  284MPD2    C5 4287   1.239   4.267  12.612  0.3196 -0.1884  0.4297
  284MPD2     H 4288   1.129   4.199  12.248 -0.7627  0.3598 -0.2080
  284MPD2    H1 4289   1.165   4.071  12.655  0.0016  0.2042  0.3843
  284MPD2    H2 4290   1.332   4.435  12.543 -0.1164  0.1567 -0.9183
  284MPD2    H3 4291   1.269   4.279  12.715  1.1401 -2.2637  0.4325
  284MPD2     N 4292   1.079   4.000  12.414  0.1794 -0.5614 -0.4944
  284MPD2    H5 4293   1.105   3.919  12.469  0.4280  0.1311  0.4129
  284MPD2    N1 4294   1.258   4.422  12.283  0.3368  0.0804 -0.3439
  284MPD2    H7 4295   1.230   4.388  12.191 -1.1153  1.4079 -0.4051
  285TMC3    C1 4296   1.295   4.613  12.168 -0.7236  0.6371 -0.0847
  285TMC3    C2 4297   1.291   4.532  12.059  0.5315  0.6140  0.0919
  285TMC3    C3 4298   1.240   4.577  11.943 -0.3534 -0.6553 -0.1705
  285TMC3    C4 4299   1.243   0.017  12.154 -0.3579  0.4598 -0.4246
  285TMC3    C5 4300   1.176   0.056  12.042 -0.5051 -0.4161  0.3307
  285TMC3    C6 4301   1.176   4.695  11.932 -0.1969 -0.2256 -0.6463
  285TMC3     C 4302   1.285   4.552  12.300 -0.2174  0.1735  0.4747
  285TMC3     O 4303   1.273   4.623  12.403 -0.0753  0.3353 -0.0690
  285TMC3     H 4304   1.331   4.432  12.070  0.1329  0.2374 -1.7741
  285TMC3    H1 4305   1.226   0.058  12.253 -0.7812 -1.4065  0.2590
  285TMC3    H2 4306   1.112   4.718  11.847  0.8895 -0.4734 -1.5261
  285TMC3    C7 4307   1.124   0.194  12.030  0.1423  0.1239 -0.8915
  285TMC3    C8 4308   1.254   4.493  11.830 -0.4046 -0.0711 -0.1358
  285TMC3    O1 4309   1.065   0.209  11.925 -0.1568 -0.2631 -0.1256
  285TMC3    O2 4310   1.257   4.371  11.850 -0.4580 -0.2420  0.7581
  286MPD2     C 4311   0.883   3.378   1.302  0.0896  0.2153 -0.4920
  286MPD2    C1 4312   0.891   3.385   1.167 -0.6925 -0.2472 -0.8679
  286MPD2    C2 4313   0.988   3.307   1.104 -0.6527  0.0990 -0.6879
  286MPD2    C3 4314   1.074   3.225   1.178  0.0283  0.2729 -0.3094
  286MPD2    C4 4315   1.059   3.216   1.314 -0.2108 -0.1142 -0.2164
  286MPD2    C5 4316   0.964   3.289   1.369  0.1904  0.0737  0.8695
  286MPD2     H 4317   0.992   3.319   0.997 -2.1238 -0.4974 -0.8018
  286MPD2    H1 4318   1.113   3.150   1.381 -1.4209  0.1249  0.9859
  286MPD2    H2 4319   0.813   3.433   1.364 -0.8506 -0.7795 -0.6843
  286MPD2    H3 4320   0.952   3.288   1.477 -1.2153 -1.2039  0.7084
  286MPD2     N 4321   1.168   3.139   1.115 -0.6192  0.3959  0.7202
  286MPD2    H5 4322   1.232   3.091   1.178  0.5478 -0.8533 -1.4063
  286MPD2    N1 4323   0.809   3.478   1.095 -0.2078  0.1948 -0.1267
  286MPD2    H7 4324   0.812   3.475   0.994 -1.5193 -1.6279 -0.1055
  287TMC3    C1 4325   1.261   3.006   0.953 -0.2817 -0.5849 -0.4991
  287TMC3    C2 4326   1.227   2.891   0.881 -0.1163  0.0447  0.2821
  287TMC3    C3 4327   1.308   2.783   0.890  0.2961  0.3701  0.1445
  287TMC3    C4 4328   1.374   3.001   1.033 -0.6153 -0.1154 -0.0643
  287TMC3    C5 4329   1.454   2.892   1.034  1.1018  0.3718  1.0528
  287TMC3    C6 4330   1.428   2.782   0.963 -0.4362  0.7600  0.6930
  287TMC3     C 4331   1.164   3.108   0.979  0.1862 -0.1888  0.6300
  287TMC3     O 4332   1.071   3.124   0.901 -0.2847  0.5787  0.2657
  287TMC3     H 4333   1.153   2.903   0.802 -0.5128 -1.4843  0.4197
  287TMC3    H1 4334   1.396   3.081   1.102 -1.2048 -0.2374  0.2611
  287TMC3    H2 4335   1.485   2.689   0.965 -0.2058  0.8928  0.1909
  287TMC3    C7 4336   1.569   2.897   1.113  0.4978  0.1015 -0.8068
  287TMC3    C8 4337   1.264   2.667   0.828  0.4445  0.0686  0.1601
  287TMC3    O1 4338   1.563   2.934   1.232 -0.3507 -0.7124  0.4485
  287TMC3    O2 4339   1.346   2.573   0.815 -0.5388 -0.3239 -0.2437
  288TMC3    C1 4340   2.964   2.940  14.129  0.1052  0.2209 -0.1807
  288TMC3    C2 4341   2.900   2.897  14.244 -0.9410  0.0376 -0.4120
  288TMC3    C3 4342   2.786   2.954  14.276  0.0199 -0.2553 -0.7230
  288TMC3    C4 4343   2.912   3.032  14.045  0.1788  0.0016 -0.0577
  288TMC3    C5 4344   2.786   3.085  14.077 -0.3889  0.0883 -0.4487
  288TMC3    C6 4345   2.734   3.053  14.199 -0.0589 -0.3746 -0.8232
  288TMC3     C 4346   3.096   2.884  14.110  0.7079  0.6451  0.1104
  288TMC3     O 4347   3.175   2.959  14.051 -0.0947  0.1843  0.0442
  288TMC3     H 4348   2.938   2.829  14.319 -0.7753 -0.9620 -1.3842
  288TMC3    H1 4349   2.967   3.067  13.959  1.4442  2.3948  1.7439
  288TMC3    H2 4350   2.648   3.108  14.236  0.8987  0.9974 -0.6306
  288TMC3    C7 4351   2.732   3.192  14.000 -0.4749  0.5600  0.9600
  288TMC3    C8 4352   2.788   2.985  14.420  0.0309 -0.4088  0.2258
  288TMC3    O1 4353   2.814   3.265  13.945  0.1021 -0.0672 -0.4613
  288TMC3    O2 4354   2.790   3.101  14.451 -0.2810 -0.4091  0.2766
  289MPD2     C 4355   3.097   2.228  14.629 -0.4320 -0.1388  0.4487
  289MPD2    C1 4356   3.086   2.328  14.536  0.3977  0.9648  0.0465
  289MPD2    C2 4357   2.982   2.319  14.444 -0.3450  0.4435 -0.0592
  289MPD2    C3 4358   2.904   2.203  14.435 -0.0120 -0.5106  1.3751
  289MPD2    C4 4359   2.917   2.101  14.521  0.1993 -0.6068  0.4136
  289MPD2    C5 4360   3.014   2.114  14.619 -0.0293 -0.4264  0.0014
  289MPD2     H 4361   2.965   2.394  14.368 -0.5023  0.8891  0.4131
  289MPD2    H1 4362   2.866   2.005  14.527 -0.9799 -0.1008 -1.4176
  289MPD2    H2 4363   3.167   2.220  14.711 -0.6916  0.2313  0.7031
  289MPD2    H3 4364   3.024   2.034  14.691  1.4368  0.2567  0.5506
  289MPD2     N 4365   2.798   2.185  14.347  0.0229  0.3569 -0.0595
  289MPD2    H5 4366   2.757   2.092  14.348 -0.3440  0.5293  0.4652
  289MPD2    N1 4367   3.168   2.442  14.540 -0.8461  0.3090  0.0102
  289MPD2    H7 4368   3.246   2.433  14.604  0.5457  1.2795 -1.5587
  290TMC3    C1 4369   2.633   2.243  14.193 -0.0482 -0.7034  0.2738
  290TMC3    C2 4370   2.544   2.343  14.169 -0.1094 -0.2837  0.6591
  290TMC3    C3 4371   2.412   2.310  14.149 -0.0350 -0.3369  1.1146
  290TMC3    C4 4372   2.582   2.110  14.210  0.4346 -0.6237  0.5036
  290TMC3    C5 4373   2.451   2.082  14.187 -0.3366 -0.2227 -0.4423
  290TMC3    C6 4374   2.364   2.185  14.165  1.1270 -0.8758  0.1084
  290TMC3     C 4375   2.753   2.281  14.267 -0.1609 -0.0027 -0.2189
  290TMC3     O 4376   2.782   2.399  14.257 -0.5237  0.0557 -0.4317
  290TMC3     H 4377   2.581   2.445  14.171  3.5076 -1.5753 -2.5190
  290TMC3    H1 4378   2.642   2.024  14.239  1.2205 -0.8206 -1.7126
  290TMC3    H2 4379   2.257   2.168  14.163  0.7369  1.6591  0.4523
  290TMC3    C7 4380   2.383   1.964  14.249 -0.2621 -0.5065 -0.3635
  290TMC3    C8 4381   2.314   2.418  14.161 -0.7354 -0.0424 -0.1468
  290TMC3    O1 4382   2.276   1.977  14.303 -0.3545 -0.2226  0.1691
  290TMC3    O2 4383   2.206   2.398  14.111  0.0825  0.0033 -0.7433
  291MPD2     C 4384   2.055   2.462   0.433 -0.2145  0.3429  0.3838
  291MPD2    C1 4385   2.153   2.368   0.457 -0.2330  0.5423 -0.7475
  291MPD2    C2 4386   2.286   2.396   0.464 -0.5405  0.3375 -0.4545
  291MPD2    C3 4387   2.325   2.528   0.461 -0.0394  0.0450  0.0945
  291MPD2    C4 4388   2.228   2.624   0.445 -0.6251  0.0387 -0.3066
  291MPD2    C5 4389   2.096   2.587   0.428 -0.4490  0.3864  0.1774
  291MPD2     H 4390   2.359   2.319   0.488 -0.6483  0.0992 -0.8869
  291MPD2    H1 4391   2.242   2.731   0.454 -0.3433 -0.1284  1.2417
  291MPD2    H2 4392   1.948   2.449   0.421 -0.1772  0.8815 -0.5612
  291MPD2    H3 4393   2.022   2.667   0.424 -0.9118  0.0101  1.2507
  291MPD2     N 4394   2.456   2.578   0.476  0.3305  0.5783 -0.4809
  291MPD2    H5 4395   2.480   2.676   0.465  0.6992  0.6049  0.5694
  291MPD2    N1 4396   2.112   2.235   0.480  0.4311  0.0960  0.5990
  291MPD2    H7 4397   2.189   2.171   0.499 -0.5927 -1.7701 -1.6498
  292TMC3    C1 4398   2.000   2.035   0.466  0.4728 -0.3275  0.9335
  292TMC3    C2 4399   2.099   1.983   0.548 -0.1909  0.6095  0.3026
  292TMC3    C3 4400   2.173   1.879   0.511 -0.0692  1.4540 -0.7290
  292TMC3    C4 4401   1.959   1.963   0.354  0.3269  0.7621  0.4678
  292TMC3    C5 4402   2.031   1.850   0.322 -0.6628  0.0982  0.6657
  292TMC3    C6 4403   2.152   1.814   0.389 -0.0494 -0.3558 -0.1833
  292TMC3     C 4404   1.985   2.179   0.453  0.2721  0.2714 -0.2219
  292TMC3     O 4405   1.881   2.229   0.418 -0.3803  0.1359 -0.1798
  292TMC3     H 4406   2.124   2.034   0.641 -0.7946 -0.8866  1.2864
  292TMC3    H1 4407   1.879   1.997   0.289  2.1369  1.1408 -1.5548
  292TMC3    H2 4408   2.207   1.724   0.367 -2.3682 -1.7682 -0.1828
  292TMC3    C7 4409   1.992   1.759   0.211  0.7477 -0.4068 -0.0268
  292TMC3    C8 4410   2.256   1.811   0.603 -0.5235  0.1592  0.0977
  292TMC3    O1 4411   2.083   1.703   0.152  0.5111  0.2890  0.5458
  292TMC3    O2 4412   2.337   1.738   0.550  0.3186  0.0918 -0.1779
  293MPD2     C 4413   3.866   3.743  12.855 -0.9668 -0.6841  0.3846
  293MPD2    C1 4414   3.829   3.637  12.930  0.0374 -0.1055 -0.7216
  293MPD2    C2 4415   3.863   3.627  13.064 -0.1734  0.0505  0.2116
  293MPD2    C3 4416   3.937   3.728  13.135 -0.4978 -0.4599  0.1808
  293MPD2    C4 4417   3.973   3.834  13.058 -0.1007 -0.2503  0.8907
  293MPD2    C5 4418   3.937   3.839  12.925 -0.1345  0.1337  0.9456
  293MPD2     H 4419   3.820   3.554  13.131 -1.4624 -0.6571 -1.3842
  293MPD2    H1 4420   4.026   3.920  13.099  0.7907 -1.2908  1.9019
  293MPD2    H2 4421   3.826   3.762  12.755  0.2644 -1.2755 -0.2124
  293MPD2    H3 4422   3.965   3.931  12.876  1.3035 -0.8815 -0.1111
  293MPD2     N 4423   3.969   3.712  13.268  0.7293  0.0961  0.2249
  293MPD2    H5 4424   3.939   3.629  13.317 -2.7417  0.1603 -1.7593
  293MPD2    N1 4425   3.739   3.549  12.855 -0.3303  0.6758  0.0388
  293MPD2    H7 4426   3.745   3.578  12.758  0.6967 -1.3664 -0.4900
  294TMC3    C1 4427   3.599   3.360  12.806  0.0771  0.1455  0.2258
  294TMC3    C2 4428   3.562   3.232  12.839 -0.7393 -0.0089  0.3075
  294TMC3    C3 4429   3.481   3.158  12.756 -0.1397 -0.5388  0.0512
  294TMC3    C4 4430   3.530   3.431  12.710 -0.4401 -0.2677  0.1497
  294TMC3    C5 4431   3.455   3.346  12.630  0.0554  0.6762  0.1049
  294TMC3    C6 4432   3.431   3.212  12.641  0.0291  0.3341  0.2814
  294TMC3     C 4433   3.666   3.438  12.904 -0.0627  0.4159 -0.2353
  294TMC3     O 4434   3.656   3.413  13.025 -0.0417  0.3352 -0.6094
  294TMC3     H 4435   3.605   3.174  12.921 -1.0680 -0.3342  0.2501
  294TMC3    H1 4436   3.541   3.538  12.696 -2.2341 -0.3858 -2.0473
  294TMC3    H2 4437   3.349   3.163  12.590  0.7303 -1.2560  0.6848
  294TMC3    C7 4438   3.388   3.417  12.525  0.0510  0.3350 -0.4385
  294TMC3    C8 4439   3.399   3.073  12.834  0.4320 -0.0014  0.4783
  294TMC3    O1 4440   3.399   3.539  12.544 -0.2094  0.2499  0.0577
  294TMC3    O2 4441   3.388   3.112  12.949 -0.0811 -0.5178 -0.0892
  295MPD2     C 4442   0.352   2.017   0.350  0.3602 -0.5655 -0.2854
  295MPD2    C1 4443   0.227   2.073   0.316 -0.5364  0.2074 -0.3193
  295MPD2    C2 4444   0.122   2.077   0.416  0.5900  1.0048  0.5862
  295MPD2    C3 4445   0.148   2.025   0.545  0.4904  0.2118 -0.1524
  295MPD2    C4 4446   0.272   1.975   0.574  0.9476 -0.3265  0.0679
  295MPD2    C5 4447   0.371   1.969   0.478  0.3006  0.7738  0.3419
  295MPD2     H 4448   0.026   2.124   0.397  1.3369  2.4940  0.5321
  295MPD2    H1 4449   0.307   1.938   0.670 -1.9190 -1.2996  0.7285
  295MPD2    H2 4450   0.428   2.018   0.273 -0.2945  1.6662 -0.8977
  295MPD2    H3 4451   0.467   1.927   0.506 -1.2660 -1.9494  1.6428
  295MPD2     N 4452   0.052   2.029   0.653  0.7901 -0.1980  0.2960
  295MPD2    H5 4453   0.074   1.973   0.734  1.6289  2.7109  2.0658
  295MPD2    N1 4454   0.219   2.122   0.188 -0.1303  0.1378  0.3326
  295MPD2    H7 4455   0.301   2.120   0.128  0.7395  3.2073  1.4645
  296TMC3    C1 4456   4.581   2.042   0.782 -0.0147 -0.4262  0.1767
  296TMC3    C2 4457   4.661   2.022   0.889  0.1034 -0.9785  0.1268
  296TMC3    C3 4458   4.595   1.967   0.999 -0.5460  0.2196  0.3401
  296TMC3    C4 4459   4.443   2.015   0.789  0.3470 -0.3604  0.1900
  296TMC3    C5 4460   4.385   1.984   0.914 -0.2122  0.0121  0.0194
  296TMC3    C6 4461   4.461   1.950   1.022 -0.0482  0.8140  0.6557
  296TMC3     C 4462   4.641   2.055   0.648  0.3131  0.3320  0.4481
  296TMC3     O 4463   4.571   2.077   0.552  0.4293  0.0480  0.0284
  296TMC3     H 4464   0.044   2.052   0.904 -0.8319  1.6053  1.4482
  296TMC3    H1 4465   4.386   2.021   0.696 -0.3702  1.4620  0.7357
  296TMC3    H2 4466   4.429   1.909   1.117  1.2905 -0.4374  0.5763
  296TMC3    C7 4467   4.244   1.999   0.923  0.3333 -0.0854 -0.6046
  296TMC3    C8 4468   4.664   1.968   1.125 -0.2528 -0.9380 -0.3916
  296TMC3    O1 4469   4.181   2.090   0.865  0.2424  0.0392  1.2190
  296TMC3    O2 4470   0.055   1.914   1.129 -0.3397 -0.3868  0.1280
  297MPD2     C 4471   1.528   4.110  16.179 -0.1869 -0.1106 -1.0304
  297MPD2    C1 4472   1.599   4.170  16.078  0.1706 -0.0271  0.2915
  297MPD2    C2 4473   1.734   4.169  16.083  0.0901  0.2242  0.6654
  297MPD2    C3 4474   1.799   4.121  16.194 -0.0116 -0.1762  0.1698
  297MPD2    C4 4475   1.727   4.067  16.296 -0.0073 -0.5637  0.4291
  297MPD2    C5 4476   1.585   4.057  16.287  0.1243  0.0126 -0.3688
  297MPD2     H 4477   1.786   4.229  16.009  1.3618 -3.1103 -1.0914
  297MPD2    H1 4478   1.779   4.039  16.387  0.1546  0.5479  0.6777
  297MPD2    H2 4479   1.420   4.102  16.172 -0.1595  0.2440 -1.7993
  297MPD2    H3 4480   1.535   4.020  16.376 -1.1792  1.6353 -0.4380
  297MPD2     N 4481   1.934   4.134  16.212 -0.5514 -0.1658  0.1325
  297MPD2    H5 4482   1.977   4.122  16.303 -1.1617  0.8026  0.5459
  297MPD2    N1 4483   1.523   4.227  15.975  0.3898 -0.5130  0.3163
  297MPD2    H7 4484   1.422   4.228  15.983  0.4578  1.2780  0.9837
  298TMC3    C1 4485   1.459   4.311  15.780 -0.0016  0.6024  0.0181
  298TMC3    C2 4486   1.463   4.275  15.650  0.5227 -0.0416 -0.0960
  298TMC3    C3 4487   1.347   4.250  15.585 -0.2527 -0.1232  0.1934
  298TMC3    C4 4488   1.342   4.328  15.852 -0.0716 -0.1255  0.5185
  298TMC3    C5 4489   1.227   4.298  15.778 -0.0913 -0.7458  0.5625
  298TMC3    C6 4490   1.224   4.264  15.645 -0.7059 -0.8092 -0.2119
  298TMC3     C 4491   1.571   4.269  15.857 -0.1599 -0.0365 -0.3047
  298TMC3     O 4492   1.684   4.256  15.816  0.4343  0.1573 -0.3543
  298TMC3     H 4493   1.562   4.263  15.607  1.0149  2.7828  0.2386
  298TMC3    H1 4494   1.332   4.383  15.944 -0.1029  0.3615  0.2223
  298TMC3    H2 4495   1.132   4.238  15.595 -0.6744 -2.6924  0.7088
  298TMC3    C7 4496   1.101   4.339  15.834  0.3830  0.2584  0.6717
  298TMC3    C8 4497   1.338   4.225  15.444  0.5246 -0.3283  0.9406
  298TMC3    O1 4498   1.099   4.367  15.953  0.4761  0.3983  0.4075
  298TMC3    O2 4499   1.226   4.220  15.400  0.2254 -0.0293  0.0501
  299MPD2     C 4500   2.508   3.983  10.349 -0.3433  0.2466 -0.7932
  299MPD2    C1 4501   2.520   3.875  10.442 -0.0505  0.6141  0.0979
  299MPD2    C2 4502   2.415   3.784  10.447  0.0219  0.2058 -0.9323
  299MPD2    C3 4503   2.304   3.799  10.367  0.2796  0.6331  0.5521
  299MPD2    C4 4504   2.303   3.891  10.261  0.1865 -0.1074 -0.1153
  299MPD2    C5 4505   2.411   3.978  10.247  0.0389  0.4697  0.1744
  299MPD2     H 4506   2.424   3.710  10.525 -0.1784 -0.6379 -1.7049
  299MPD2    H1 4507   2.223   3.906  10.189  0.1453 -1.2128 -0.2984
  299MPD2    H2 4508   2.577   4.066  10.352 -0.8844  0.6207  1.1708
  299MPD2    H3 4509   2.404   4.064  10.181 -3.5680 -0.6491 -0.9180
  299MPD2     N 4510   2.177   3.734  10.394  0.1551 -0.4208  0.1476
  299MPD2    H5 4511   2.095   3.752  10.338  0.3483  2.3278  0.7518
  299MPD2    N1 4512   2.630   3.885  10.530 -0.5960 -0.1284 -0.6464
  299MPD2    H7 4513   2.686   3.969  10.518  0.7740 -1.0998 -1.0737
  300TMC3    C1 4514   2.023   3.605  10.511 -0.5132  0.2309 -0.5657
  300TMC3    C2 4515   1.921   3.661  10.431  0.2834  0.1417  0.1663
  300TMC3    C3 4516   1.792   3.656  10.473  0.0571 -0.0186 -0.9441
  300TMC3    C4 4517   2.001   3.521  10.616 -0.6039  1.0559  0.3777
  300TMC3    C5 4518   1.870   3.528  10.667  0.4599 -0.4914  0.2835
  300TMC3    C6 4519   1.771   3.601  10.603 -0.0199  0.1903 -0.2133
  300TMC3     C 4520   2.161   3.638  10.494  0.0269  0.4551  0.1528
  300TMC3     O 4521   2.238   3.591  10.577 -0.1854 -0.0450  0.7165
  300TMC3     H 4522   1.938   3.711  10.337 -2.8495 -0.8139 -0.9076
  300TMC3    H1 4523   2.075   3.466  10.673 -2.1293  2.1289  3.3999
  300TMC3    H2 4524   1.670   3.602  10.643  0.7432 -0.4570  1.7235
  300TMC3    C7 4525   1.822   3.438  10.778 -0.1114  0.2819 -0.5002
  300TMC3    C8 4526   1.693   3.759  10.452 -0.7374  0.4211 -0.2167
  300TMC3    O1 4527   1.893   3.339  10.803  0.7238 -0.6807 -0.2630
  300TMC3    O2 4528   1.579   3.740  10.481 -0.4189 -0.2771 -0.8311
  301MPD2     C 4529   3.922   0.788   1.318  0.5379  0.1971  0.0052
  301MPD2    C1 4530   3.790   0.812   1.281 -0.1691  0.5234 -0.0232
  301MPD2    C2 4531   3.742   0.750   1.167  0.3941  0.0723 -0.1886
  301MPD2    C3 4532   3.832   0.679   1.086  0.5832 -0.6226  0.1537
  301MPD2    C4 4533   3.965   0.690   1.109 -0.9860 -0.6294 -1.0123
  301MPD2    C5 4534   4.007   0.731   1.232 -0.4894  0.4827  0.6638
  301MPD2     H 4535   3.635   0.761   1.151  0.7959  1.1639 -2.0438
  301MPD2    H1 4536   4.027   0.635   1.038  1.2811  0.8701 -0.1884
  301MPD2    H2 4537   3.968   0.823   1.410 -1.6080  0.7924  0.8451
  301MPD2    H3 4538   4.111   0.717   1.260  0.3004 -0.6782 -2.7719
  301MPD2     N 4539   3.795   0.603   0.976 -0.2181 -0.6109 -0.0265
  301MPD2    H5 4540   3.868   0.541   0.943 -0.5071 -1.2951  0.6049
  301MPD2    N1 4541   3.703   0.877   1.365 -0.2081 -0.2813  0.0008
  301MPD2    H7 4542   3.609   0.897   1.330  0.0709  0.3624 -0.3968
  302TMC3    C1 4543   3.660   0.487   0.839 -0.9993  0.3491  0.1115
  302TMC3    C2 4544   3.768   0.433   0.779  0.4384 -0.2389  0.5937
  302TMC3    C3 4545   3.756   0.310   0.722 -0.2289  0.9120 -0.6511
  302TMC3    C4 4546   3.542   0.418   0.851  0.1812  0.2178  0.4162
  302TMC3    C5 4547   3.548   0.285   0.821 -1.0614  0.6383  0.5179
  302TMC3    C6 4548   3.653   0.225   0.753  0.2913  0.1620  0.5155
  302TMC3     C 4549   3.669   0.590   0.930  1.1629  0.1598 -0.0954
  302TMC3     O 4550   3.567   0.652   0.963  0.2040  0.2133 -0.5296
  302TMC3     H 4551   3.857   0.496   0.773 -1.2332  2.1608  1.1814
  302TMC3    H1 4552   3.467   0.460   0.917  0.5385  1.0655  0.2815
  302TMC3    H2 4553   3.657   0.117   0.742 -0.9944  0.0382  1.2434
  302TMC3    C7 4554   3.429   0.202   0.829  0.5470  0.3251  0.5414
  302TMC3    C8 4555   3.871   0.257   0.640  0.3831  0.5149  0.1590
  302TMC3    O1 4556   3.425   0.110   0.750  0.0871 -0.2145  0.9526
  302TMC3    O2 4557   3.981   0.308   0.645  0.1620  0.0397 -0.1058
  303MPD2     C 4558   3.805   4.050  11.326  0.4736 -0.2009 -0.1081
  303MPD2    C1 4559   3.826   3.923  11.275  0.1781 -0.0697  0.1810
  303MPD2    C2 4560   3.952   3.868  11.251 -0.1469 -0.2639 -0.4052
  303MPD2    C3 4561   4.061   3.953  11.258  0.3647 -0.1479  0.0231
  303MPD2    C4 4562   4.046   4.075  11.318  0.3777  1.2133  0.3206
  303MPD2    C5 4563   3.921   4.123  11.349 -0.5899  0.5259 -0.3006
  303MPD2     H 4564   3.958   3.764  11.220 -1.3543 -0.7477  0.9913
  303MPD2    H1 4565   4.129   4.143  11.331  0.1009  1.5920  0.0846
  303MPD2    H2 4566   3.708   4.086  11.359  0.2367  1.5411 -2.6572
  303MPD2    H3 4567   3.914   4.224  11.386  2.1343  0.6362 -0.1114
  303MPD2     N 4568   4.189   3.922  11.199 -0.0235 -0.1606  0.3922
  303MPD2    H5 4569   4.258   3.995  11.217 -0.9257  0.9985 -0.8532
  303MPD2    N1 4570   3.710   3.849  11.241  0.1730  0.2811  0.0449
  303MPD2    H7 4571   3.621   3.895  11.227  0.2558 -0.5324 -3.1626
  304TMC3    C1 4572   3.585   3.680  11.138  0.1917 -0.0278 -0.6420
  304TMC3    C2 4573   3.543   3.766  11.043 -0.0931 -0.2875  0.6858
  304TMC3    C3 4574   3.487   3.700  10.933  0.7431 -0.2742  0.2840
  304TMC3    C4 4575   3.552   3.548  11.146 -0.1844 -0.7481 -0.1557
  304TMC3    C5 4576   3.483   3.493  11.043 -0.7271 -0.0744  0.2673
  304TMC3    C6 4577   3.441   3.573  10.937 -0.7598 -0.0544 -0.3178
  304TMC3     C 4578   3.709   3.713  11.202  0.1105  0.5021 -0.2538
  304TMC3     O 4579   3.794   3.625  11.218  0.3016 -0.5223  0.6382
  304TMC3     H 4580   3.579   3.868  11.036 -0.5744 -0.2137 -0.9013
  304TMC3    H1 4581   3.599   3.493  11.227  2.0791  0.7518 -0.4347
  304TMC3    H2 4582   3.392   3.527  10.852  1.3039 -2.7808 -0.0430
  304TMC3    C7 4583   3.542   3.370  10.986 -0.4188 -0.1870  0.3375
  304TMC3    C8 4584   3.565   3.738  10.813  0.1787  0.5500  0.1906
  304TMC3    O1 4585   3.560   3.376  10.867 -0.3693 -0.0578  0.0472
  304TMC3    O2 4586   3.628   3.846  10.808 -0.5188 -0.1731  0.1070
  305MPD2     C 4587   2.703   0.151  14.436 -0.3609 -0.1993  0.0719
  305MPD2    C1 4588   2.810   0.212  14.378 -0.4039 -0.2692 -0.5831
  305MPD2    C2 4589   2.813   0.218  14.244 -0.2233 -0.2857 -0.2110
  305MPD2    C3 4590   2.708   0.174  14.169 -0.1533 -0.0227 -0.5349
  305MPD2    C4 4591   2.601   0.110  14.229  0.1756  0.3106  0.7076
  305MPD2    C5 4592   2.600   0.098  14.363 -0.3088  0.8100 -0.2377
  305MPD2     H 4593   2.893   0.273  14.195  0.7317  0.1602  1.8448
  305MPD2    H1 4594   2.516   0.067  14.176  0.3532 -0.0277  0.7005
  305MPD2    H2 4595   2.698   0.146  14.544 -2.1290 -3.2465 -0.1163
  305MPD2    H3 4596   2.512   0.050  14.405  0.4757  0.2612  0.7552
  305MPD2     N 4597   2.701   0.200  14.027  0.2283 -0.3012 -0.0610
  305MPD2    H5 4598   2.615   0.172  13.980  0.7877 -0.5612 -0.9374
  305MPD2    N1 4599   2.916   0.262  14.460 -0.2160  0.5319 -0.3264
  305MPD2    H7 4600   2.906   0.267  14.561 -1.8839 -3.0576 -0.2966
  306TMC3    C1 4601   3.112   0.378  14.519 -0.2974  0.2232 -0.6276
  306TMC3    C2 4602   3.248   0.367  14.519 -0.0693  0.0827  0.5388
  306TMC3    C3 4603   3.312   0.405  14.633  0.1396 -0.1382 -0.4573
  306TMC3    C4 4604   3.048   0.447  14.623 -0.1221  0.4821  0.8584
  306TMC3    C5 4605   3.119   0.482  14.733  0.1789 -0.5523  0.5791
  306TMC3    C6 4606   3.248   0.452  14.740  0.2427  0.0627 -0.0310
  306TMC3     C 4607   3.042   0.302  14.414 -0.2293  0.1841  0.1396
  306TMC3     O 4608   3.097   0.279  14.308 -0.7965  0.0067 -0.2011
  306TMC3     H 4609   3.300   0.332  14.431 -0.4057  0.3261  0.2495
  306TMC3    H1 4610   2.941   0.457  14.634 -0.5303 -2.4651 -0.5042
  306TMC3    H2 4611   3.304   0.470  14.831  1.2482  0.4682 -0.7279
  306TMC3    C7 4612   3.046   0.500  14.858  0.0892  0.1960 -0.4454
  306TMC3    C8 4613   3.451   0.367  14.654  0.4816 -0.1475  0.0727
  306TMC3    O1 4614   2.942   0.443  14.878  0.3045  0.1346 -0.5791
  306TMC3    O2 4615   3.483   0.260  14.609 -0.4915 -0.4209  0.5116
  307MPD2     C 4616   0.498   2.986   0.459 -0.1697 -0.4403  0.0079
  307MPD2    C1 4617   0.477   3.088   0.371  0.1746 -0.3287  0.6034
  307MPD2    C2 4618   0.452   3.216   0.428  0.5867 -0.7333 -0.0423
  307MPD2    C3 4619   0.427   3.230   0.563 -0.1418 -0.2457 -0.3504
  307MPD2    C4 4620   0.441   3.120   0.648  0.6289 -0.6064 -0.4244
  307MPD2    C5 4621   0.480   3.002   0.596  0.3489 -0.3258 -0.4700
  307MPD2     H 4622   0.445   3.307   0.368  1.7092 -0.9098 -0.4296
  307MPD2    H1 4623   0.430   3.123   0.756  1.6451  0.2822 -0.3411
  307MPD2    H2 4624   0.526   2.890   0.416 -1.0512 -1.1523  1.0068
  307MPD2    H3 4625   0.498   2.920   0.665 -3.5196  0.1036  1.0487
  307MPD2     N 4626   0.377   3.353   0.614  0.0282 -0.3690 -0.1883
  307MPD2    H5 4627   0.364   3.423   0.542  1.3542 -1.2394 -1.2552
  307MPD2    N1 4628   0.483   3.074   0.229 -0.2252  0.0412  0.0429
  307MPD2    H7 4629   0.458   3.157   0.176  1.1114  0.6187  0.3181
  308TMC3    C1 4630   0.090   3.656   0.759 -0.0573  0.1259  0.2574
  308TMC3    C2 4631   0.151   3.761   0.706  0.6529  0.2674  0.1486
  308TMC3    C3 4632   0.285   3.742   0.667  0.2818  0.5831  0.1594
  308TMC3    C4 4633   0.157   3.534   0.779 -0.1277 -0.0902  0.0919
  308TMC3    C5 4634   0.281   3.515   0.733 -0.6368  0.2980 -0.4592
  308TMC3    C6 4635   0.354   3.623   0.684 -0.3380 -0.4545  0.9770
  308TMC3     C 4636   4.674   3.668   0.809 -0.2015  0.5709 -0.9145
  308TMC3     O 4637   4.637   3.572   0.874 -0.2546 -0.1837 -0.1060
  308TMC3     H 4638   0.110   3.861   0.710  0.1881  0.1214 -0.9985
  308TMC3    H1 4639   0.105   3.444   0.809  0.4221 -0.2079  0.6772
  308TMC3    H2 4640   0.457   3.619   0.650 -0.6782  1.0313 -0.2047
  308TMC3    C7 4641   0.325   3.377   0.736  0.1207 -0.4291 -0.4078
  308TMC3    C8 4642   0.342   3.843   0.583  0.0251  1.0146  0.5948
  308TMC3    O1 4643   0.323   3.311   0.840  1.0891  0.3217 -0.6218
  308TMC3    O2 4644   0.462   3.857   0.593  0.3132 -0.2010  0.2806
  309MPD2     C 4645   4.344   3.510  17.135  0.1356  0.2087  0.2581
  309MPD2    C1 4646   4.310   3.613  17.050 -0.5103 -0.3234  0.3208
  309MPD2    C2 4647   4.221   3.709  17.094  0.1222 -0.3367 -0.4513
  309MPD2    C3 4648   4.165   3.700  17.223 -0.6093 -0.2165 -0.0130
  309MPD2    C4 4649   4.204   3.599  17.312  0.4710  0.4901  0.1306
  309MPD2    C5 4650   4.292   3.506  17.261  0.6102  0.4761  0.0180
  309MPD2     H 4651   4.194   3.780  17.017 -0.4592 -1.5230 -1.3569
  309MPD2    H1 4652   4.174   3.608  17.416  0.5929 -1.3313  0.3204
  309MPD2    H2 4653   4.401   3.424  17.102 -0.1877  0.7105 -1.6204
  309MPD2    H3 4654   4.318   3.419  17.319  0.3260  0.3039 -0.1150
  309MPD2     N 4655   4.061   3.788  17.262 -0.2907  0.0095 -0.0501
  309MPD2    H5 4656   4.027   3.778  17.357 -2.1018 -0.2722 -0.7186
  309MPD2    N1 4657   4.366   3.631  16.921 -0.2275 -1.0408  0.1189
  309MPD2    H7 4658   4.330   3.706  16.863  1.4010  0.7537  1.4412
  310TMC3    C1 4659   4.486   3.610  16.727 -0.4537 -0.5803 -0.2667
  310TMC3    C2 4660   4.388   3.685  16.655 -0.2158 -0.0858  0.3019
  310TMC3    C3 4661   4.432   3.748  16.540 -0.7413 -0.0743 -0.1694
  310TMC3    C4 4662   4.608   3.589  16.673 -0.7410  0.9016  0.0817
  310TMC3    C5 4663   4.647   3.645  16.553  0.1666  0.4928  0.6436
  310TMC3    C6 4664   4.560   3.732  16.486 -0.2081  0.0357 -0.4890
  310TMC3     C 4665   4.469   3.566  16.862  0.4743 -0.2604  0.5554
  310TMC3     O 4666   4.556   3.494  16.908  0.7606  0.5801  0.0260
  310TMC3     H 4667   4.282   3.686  16.679 -0.4161 -0.5744 -0.5594
  310TMC3    H1 4668   4.683   3.526  16.720 -1.9832 -0.1519  0.6578
  310TMC3    H2 4669   4.581   3.782  16.393  1.5993 -0.9962 -0.6515
  310TMC3    C7 4670   0.057   3.617  16.502  0.8466  0.6542 -0.3916
  310TMC3    C8 4671   4.348   3.837  16.465 -0.4066 -0.3321  0.0693
  310TMC3    O1 4672   0.112   3.511  16.527  0.5599  0.1732  0.0939
  310TMC3    O2 4673   4.375   3.847  16.346 -0.5885  0.2729 -0.2384
  311MPD2     C 4674   1.670   4.695  13.353  0.6928  0.5847  0.1456
  311MPD2    C1 4675   1.653   0.105  13.325 -0.5540  0.1787  0.0257
  311MPD2    C2 4676   1.529   0.153  13.308  0.1824 -0.0381 -0.6333
  311MPD2    C3 4677   1.420   0.057  13.292  0.1832 -0.1046  0.4172
  311MPD2    C4 4678   1.437   4.643  13.316  0.5587  0.1612  0.2788
  311MPD2    C5 4679   1.566   4.608  13.339  0.3927 -0.0395  0.5312
  311MPD2     H 4680   1.517   0.256  13.279 -2.1838 -0.9867 -3.0333
  311MPD2    H1 4681   1.360   4.569  13.297  2.0346 -1.1816 -0.5152
  311MPD2    H2 4682   1.764   4.648  13.376  0.0420 -0.5477  0.4826
  311MPD2    H3 4683   1.595   4.504  13.347  1.9488  0.4446  1.2524
  311MPD2     N 4684   1.299   0.110  13.257  0.2509  0.5979  0.2059
  311MPD2    H5 4685   1.299   0.210  13.236 -0.1089  0.6625  0.5196
  311MPD2    N1 4686   1.759   0.198  13.308 -0.2221 -0.0421  0.4091
  311MPD2    H7 4687   1.724   0.291  13.291  1.2265  0.5011  0.4048
  312TMC3    C1 4688   1.068   0.128  13.228 -0.5360 -0.5767 -0.1221
  312TMC3    C2 4689   0.963   0.088  13.155 -0.6623 -0.7633  0.2237
  312TMC3    C3 4690   0.856   0.173  13.143 -0.2507 -0.5271 -0.1151
  312TMC3    C4 4691   1.081   0.251  13.285  0.3001 -0.2892 -0.2069
  312TMC3    C5 4692   0.969   0.322  13.287 -0.9007  0.4197  0.5949
  312TMC3    C6 4693   0.857   0.292  13.219  0.1426  0.0465 -0.5209
  312TMC3     C 4694   1.184   0.037  13.231  0.0469  0.0135 -0.0951
  312TMC3     O 4695   1.167   4.637  13.212 -0.5166 -0.0486  0.0219
  312TMC3     H 4696   0.966   4.715  13.100 -2.7556 -1.0938  0.6454
  312TMC3    H1 4697   1.176   0.283  13.325 -0.5690  0.0752  1.5669
  312TMC3    H2 4698   0.765   0.346  13.240  0.1247 -0.0248 -0.4125
  312TMC3    C7 4699   0.957   0.423  13.384  0.0180 -0.0993 -0.1856
  312TMC3    C8 4700   0.733   0.128  13.091  0.5760  0.1827 -0.2856
  312TMC3    O1 4701   0.878   0.514  13.362  0.1455  0.1964 -0.0800
  312TMC3    O2 4702   0.716   0.012  13.063  1.2462  0.1686  0.1319
  313MPD2     C 4703   1.109   4.028  11.071  0.8530  0.6997  0.3907
  313MPD2    C1 4704   1.031   4.137  11.104 -0.4238  0.3749  0.4664
  313MPD2    C2 4705   0.905   4.115  11.150 -0.2827  0.5565 -0.5780
  313MPD2    C3 4706   0.852   3.980  11.161 -0.0339 -0.1135  0.3782
  313MPD2    C4 4707   0.936   3.871  11.130  0.1897 -0.3204  0.1457
  313MPD2    C5 4708   1.062   3.900  11.080 -0.3833 -0.2640 -0.0881
  313MPD2     H 4709   0.838   4.195  11.181  1.2542  2.1354 -1.3252
  313MPD2    H1 4710   0.902   3.768  11.142  0.4033 -0.5519 -1.2774
  313MPD2    H2 4711   1.210   4.036  11.031 -0.6539  2.4888 -2.9953
  313MPD2    H3 4712   1.121   3.811  11.060 -1.4597 -1.1592  0.7443
  313MPD2     N 4713   0.721   3.968  11.210  0.3603 -0.2365 -0.0065
  313MPD2    H5 4714   0.677   4.052  11.244  0.9247 -0.2205  0.6741
  313MPD2    N1 4715   1.073   4.274  11.081  0.1472 -0.3346 -0.0244
  313MPD2    H7 4716   1.012   4.354  11.096  0.3069 -0.1942 -0.1313
  314TMC3    C1 4717   1.223   4.425  10.977  0.0687 -0.1694  0.1529
  314TMC3    C2 4718   1.351   4.464  10.962 -0.0510 -0.1008  0.4128
  314TMC3    C3 4719   1.402   4.540  10.860  0.1541 -1.0892  0.0501
  314TMC3    C4 4720   1.128   4.473  10.891  0.3116  0.0301 -0.5862
  314TMC3    C5 4721   1.174   4.558  10.791 -0.0379  0.5055  0.2160
  314TMC3    C6 4722   1.312   4.592  10.774  0.5849 -0.5453 -0.2946
  314TMC3     C 4723   1.202   4.299  11.050 -0.1548  0.2490 -0.6772
  314TMC3     O 4724   1.299   4.234  11.087 -0.5203  0.5220  0.7259
  314TMC3     H 4725   1.422   4.413  11.026 -1.8328  0.0829  2.5492
  314TMC3    H1 4726   1.025   4.445  10.904  0.5693 -0.2129  0.9092
  314TMC3    H2 4727   1.347   4.654  10.693  0.4391  1.6063  1.2816
  314TMC3    C7 4728   1.070   4.575  10.683 -0.4438 -0.2200 -0.3560
  314TMC3    C8 4729   1.500   4.639  10.910 -0.0492  0.1303  0.3528
  314TMC3    O1 4730   0.953   4.558  10.715 -0.0963  0.3277  0.0692
  314TMC3    O2 4731   1.479   0.030  10.877 -0.1334 -0.4376  0.1898
  315MPD2     C 4732   0.485   3.791  17.628 -0.1401  0.3513  0.4745
  315MPD2    C1 4733   0.588   3.839   0.020 -0.3910 -0.0295 -0.2328
  315MPD2    C2 4734   0.663   3.944  17.665  0.5659  0.7082 -0.2058
  315MPD2    C3 4735   0.650   3.989  17.533 -0.2064  0.2058  0.5829
  315MPD2    C4 4736   0.546   3.948  17.456 -0.1552  0.4021  0.4705
  315MPD2    C5 4737   0.469   3.847  17.508 -0.8830 -0.3005  0.5627
  315MPD2     H 4738   0.752   3.979   0.031  0.6307  0.2139  0.0189
  315MPD2    H1 4739   0.508   3.981  17.360  0.9190  0.2284 -0.0185
  315MPD2    H2 4740   0.419   3.707  17.648  0.4843 -0.6768 -1.7995
  315MPD2    H3 4741   0.393   3.817  17.438 -0.0578  3.7720 -2.1256
  315MPD2     N 4742   0.759   4.074  17.486  0.6290  0.4268 -0.6100
  315MPD2    H5 4743   0.831   4.094  17.555  1.8002 -1.5588 -1.2474
  315MPD2    N1 4744   0.627   3.771   0.134 -0.6651 -0.1200  0.1154
  315MPD2    H7 4745   0.708   3.803   0.187  0.3157 -1.9082 -0.2823
  316TMC3    C1 4746   0.892   4.209  17.337 -0.4056 -0.0417 -0.4792
  316TMC3    C2 4747   0.996   4.189  17.430  0.1056  0.2152 -0.0831
  316TMC3    C3 4748   1.103   4.271  17.413 -0.1054  0.6523 -0.2647
  316TMC3    C4 4749   0.919   4.262  17.209 -0.2766  1.1379 -0.3237
  316TMC3    C5 4750   1.024   4.344  17.198 -0.3847 -0.2619 -0.2584
  316TMC3    C6 4751   1.102   4.360  17.309 -0.2489 -0.2822  0.7406
  316TMC3     C 4752   0.770   4.133  17.362 -0.3867  0.0884  0.7837
  316TMC3     O 4753   0.687   4.125  17.271 -1.1126 -1.2646  0.5907
  316TMC3     H 4754   0.982   4.136  17.523 -0.7818  2.3586  1.0113
  316TMC3    H1 4755   0.844   4.239  17.134  1.0669 -3.1377 -0.3830
  316TMC3    H2 4756   1.179   4.437  17.305  0.9661 -1.6232 -2.0116
  316TMC3    C7 4757   1.080   4.401  17.076  0.4203 -0.4211  0.2251
  316TMC3    C8 4758   1.205   4.276  17.512  0.3645  0.1680 -0.3826
  316TMC3    O1 4759   1.193   4.439  17.084  0.5147  0.2773 -0.2669
  316TMC3    O2 4760   1.267   4.379  17.537 -0.2737  0.8787 -0.4814
  317MPD2     C 4761   3.083   1.440  12.048  0.1659  0.5157  0.5844
  317MPD2    C1 4762   3.220   1.465  12.073  0.4141  0.2298 -0.4828
  317MPD2    C2 4763   3.260   1.435  12.197 -0.1924 -0.3441  0.0433
  317MPD2    C3 4764   3.173   1.395  12.304 -0.0630 -0.1780 -0.1374
  317MPD2    C4 4765   3.039   1.360  12.271  0.2951 -0.2945 -0.2596
  317MPD2    C5 4766   2.995   1.390  12.145  0.0918  0.3096 -0.5919
  317MPD2     H 4767   3.368   1.428  12.211 -0.2880  2.1652  2.1476
  317MPD2    H1 4768   2.974   1.303  12.337 -1.1399 -1.1918 -2.4658
  317MPD2    H2 4769   3.052   1.421  11.946 -2.0690 -1.1313  1.5695
  317MPD2    H3 4770   2.895   1.358  12.119  0.2906  0.5473 -1.6227
  317MPD2     N 4771   3.228   1.368  12.433  0.8824  0.1372 -0.5334
  317MPD2    H5 4772   3.328   1.353  12.439  0.6802 -1.7555 -1.9171
  317MPD2    N1 4773   3.310   1.510  11.972 -0.1251  0.6604  0.0185
  317MPD2    H7 4774   3.407   1.524  12.002 -0.2939 -0.8358  1.2743
  318TMC3    C1 4775   3.227   1.282  12.653 -1.0307  0.3163  0.2047
  318TMC3    C2 4776   3.158   1.292  12.767 -0.8142 -0.1776 -0.1496
  318TMC3    C3 4777   3.219   1.323  12.887 -0.4211 -0.6902  0.2075
  318TMC3    C4 4778   3.356   1.329  12.660 -0.9453  0.2699 -1.0533
  318TMC3    C5 4779   3.412   1.379  12.778 -0.5904 -0.5895  0.6954
  318TMC3    C6 4780   3.337   1.381  12.895 -1.1065  0.4702 -0.0324
  318TMC3     C 4781   3.151   1.333  12.539  0.8351 -0.8442 -0.3324
  318TMC3     O 4782   3.028   1.340  12.548 -0.1746 -0.5809  0.5936
  318TMC3     H 4783   3.057   1.252  12.768 -0.2890 -1.4987  0.3934
  318TMC3    H1 4784   3.423   1.312  12.576 -1.4108  0.7584 -1.5354
  318TMC3    H2 4785   3.375   1.428  12.985  0.9738 -1.8438  0.3010
  318TMC3    C7 4786   3.513   1.471  12.757  0.2288  0.5615  0.2908
  318TMC3    C8 4787   3.163   1.268  13.015  0.2655  0.3145  0.0977
  318TMC3    O1 4788   3.541   1.505  12.646  0.4000 -0.3638  0.1569
  318TMC3    O2 4789   3.246   1.249  13.103 -0.2487 -0.1790  0.3997
  319MPD2     C 4790   3.961   3.693  16.403 -0.0315  0.6079  0.2950
  319MPD2    C1 4791   3.892   3.579  16.450 -0.0088  0.0429 -0.3098
  319MPD2    C2 4792   3.923   3.457  16.393 -0.0136  0.5540  0.0750
  319MPD2    C3 4793   4.002   3.453  16.278  0.1144  0.0856 -0.6930
  319MPD2    C4 4794   4.078   3.563  16.237 -0.0039  0.1716 -0.8499
  319MPD2    C5 4795   4.058   3.678  16.308 -0.1378  0.2592  0.7949
  319MPD2     H 4796   3.862   3.373  16.424  0.2468 -0.2580 -1.5758
  319MPD2    H1 4797   4.151   3.564  16.158  0.6424  1.2607 -0.2318
  319MPD2    H2 4798   3.938   3.793  16.435 -0.9942  1.0381 -1.7491
  319MPD2    H3 4799   4.113   3.767  16.279  0.2144  0.2858  1.5382
  319MPD2     N 4800   4.004   3.336  16.195 -0.0199  0.3073  0.0525
  319MPD2    H5 4801   4.031   3.348  16.098  1.7730  3.9897  1.0056
  319MPD2    N1 4802   3.782   3.588  16.535  0.0282  0.4647 -0.2902
  319MPD2    H7 4803   3.721   3.507  16.541  0.8855 -0.0632  1.1547
  320TMC3    C1 4804   3.890   3.137  16.127 -0.6313  0.2351 -0.2288
  320TMC3    C2 4805   3.797   3.207  16.051  0.4799  0.1594 -0.0187
  320TMC3    C3 4806   3.665   3.159  16.048  0.3819 -0.4367  0.5596
  320TMC3    C4 4807   3.854   3.010  16.173 -0.2464  0.1891  0.3511
  320TMC3    C5 4808   3.726   2.967  16.151 -0.7593  0.1060 -0.6444
  320TMC3    C6 4809   3.626   3.044  16.100 -0.6465 -0.8562 -0.0105
  320TMC3     C 4810   3.961   3.210  16.236 -0.2779 -0.2365 -0.3005
  320TMC3     O 4811   3.951   3.156  16.346  0.1536  0.2867 -0.5694
  320TMC3     H 4812   3.819   3.312  16.034  0.0196  0.0964 -1.0164
  320TMC3    H1 4813   3.918   2.944  16.232  0.4348 -0.0202 -0.6279
  320TMC3    H2 4814   3.529   2.996  16.088 -0.9554 -0.7561  2.1060
  320TMC3    C7 4815   3.676   2.869  16.245 -0.0472  0.3743  0.0173
  320TMC3    C8 4816   3.561   3.259  16.019 -0.0823  0.3439 -0.4504
  320TMC3    O1 4817   3.707   2.750  16.226  0.5967 -0.1433 -0.6178
  320TMC3    O2 4818   3.605   3.370  15.983  0.0615 -0.2827 -0.2190
  321TMC3    C1 4819   3.633   3.679  16.696 -0.2478  0.0774  0.0336
  321TMC3    C2 4820   3.566   3.556  16.681 -0.0858 -0.2443 -0.6607
  321TMC3    C3 4821   3.490   3.515  16.789  0.5623 -0.8824  0.6656
  321TMC3    C4 4822   3.629   3.754  16.814 -0.0837  0.3578 -0.5498
  321TMC3    C5 4823   3.542   3.710  16.908 -0.9373  0.2236 -0.1280
  321TMC3    C6 4824   3.474   3.597  16.893 -0.1642 -0.1244 -0.2201
  321TMC3     C 4825   3.746   3.701  16.605 -0.0115 -0.5669 -0.1477
  321TMC3     O 4826   3.795   3.814  16.603  0.6596  0.1095 -0.1871
  321TMC3     H 4827   3.565   3.500  16.588  0.6242 -0.2563 -0.6575
  321TMC3    H1 4828   3.690   3.841  16.833 -2.7068  2.1985 -0.5509
  321TMC3    H2 4829   3.427   3.564  16.985  1.1184  0.8385  0.7821
  321TMC3    C7 4830   3.576   3.723  17.048 -0.1243  0.1409 -0.0366
  321TMC3    C8 4831   3.551   3.392  16.839  0.4078  0.6785 -0.1972
  321TMC3    O1 4832   3.482   3.762  17.117  0.4068 -0.6507 -0.4054
  321TMC3    O2 4833   3.561   3.379  16.960 -0.5647  0.1568 -0.3115
  322MPD2     C 4834   2.775   4.606  13.489  0.4188  0.0592 -0.1217
  322MPD2    C1 4835   2.825   4.542  13.604 -0.6551 -0.0583 -0.3846
  322MPD2    C2 4836   2.794   4.410  13.620  0.0818  0.0446 -0.1460
  322MPD2    C3 4837   2.732   4.337  13.514  0.2475 -0.1409 -0.3232
  322MPD2    C4 4838   2.687   4.401  13.404 -0.2086 -0.6166  0.1932
  322MPD2    C5 4839   2.706   4.534  13.396 -0.1766 -0.1633  0.4861
  322MPD2     H 4840   2.823   4.359  13.711 -2.4082  1.9757  1.7343
  322MPD2    H1 4841   2.627   4.358  13.324  2.8264 -1.7677 -1.4570
  322MPD2    H2 4842   2.774   4.714  13.481 -0.5782  0.1688  1.3991
  322MPD2    H3 4843   2.652   4.585  13.317 -1.7648  0.1510  1.7775
  322MPD2     N 4844   2.744   4.202  13.511 -0.8705 -0.1797 -0.0238
  322MPD2    H5 4845   2.813   4.156  13.569 -0.5657  0.0787 -0.1804
  322MPD2    N1 4846   2.889   4.636  13.695 -0.4392 -0.1484  0.1985
  322MPD2    H7 4847   2.912   0.007  13.659 -2.1074 -0.2120 -1.0240
  323TMC3    C1 4848   2.991   4.699  13.895 -0.6174  0.3965  0.6625
  323TMC3    C2 4849   3.082   0.064  13.838 -0.3014 -0.2494 -0.3538
  323TMC3    C3 4850   3.163   0.127  13.928  0.7393 -0.1226 -0.3651
  323TMC3    C4 4851   2.971   4.684  14.028 -0.2351  0.1614 -0.0350
  323TMC3    C5 4852   3.063   0.015  14.112 -0.0524 -0.3357 -0.2560
  323TMC3    C6 4853   3.160   0.108  14.064  0.2766 -0.0215  0.0282
  323TMC3     C 4854   2.928   4.595  13.820 -0.1501 -0.3505 -0.0004
  323TMC3     O 4855   2.907   4.487  13.877  0.0844 -0.0365 -0.5428
  323TMC3     H 4856   3.091   0.055  13.730 -1.1573  1.7078 -0.6018
  323TMC3    H1 4857   2.903   4.608  14.065 -0.9285  0.5310 -0.5324
  323TMC3    H2 4858   3.227   0.157  14.134  0.5138  0.8010 -0.7766
  323TMC3    C7 4859   3.105   4.635  14.212  0.0636 -0.3090  0.6125
  323TMC3    C8 4860   3.265   0.210  13.868  0.0466  0.6538 -0.3808
  323TMC3    O1 4861   3.079   4.519  14.184  0.2654 -0.2289  0.2970
  323TMC3    O2 4862   3.296   0.186  13.752 -0.5710 -0.8796  0.2552
  324MPD2     C 4863   0.006   0.918  13.949 -0.1572  0.0605  0.3057
  324MPD2    C1 4864   0.010   1.051  13.973  0.5227 -0.0023 -0.8044
  324MPD2    C2 4865   4.613   1.120  13.981  0.1441  0.4160  0.8791
  324MPD2    C3 4866   4.492   1.061  13.950 -0.7141 -0.4894 -0.0822
  324MPD2    C4 4867   4.487   0.927  13.928 -0.5904  0.8996 -0.4325
  324MPD2    C5 4868   4.604   0.856  13.934  0.3796 -0.2287 -0.4364
  324MPD2     H 4869   4.611   1.223  14.016 -0.1195  0.4908  0.6478
  324MPD2    H1 4870   4.391   0.880  13.908 -1.1208  1.7268  0.1375
  324MPD2    H2 4871   0.090   0.851  13.940  0.7818  0.9517  2.6603
  324MPD2    H3 4872   4.603   0.751  13.910  3.0126 -0.6292  1.2908
  324MPD2     N 4873   4.365   1.130  13.935  0.6826  0.1043  0.0994
  324MPD2    H5 4874   4.289   1.068  13.911  0.9302  0.2188 -0.9902
  324MPD2    N1 4875   0.136   1.120  14.004  0.1335 -0.0691 -0.5172
  324MPD2    H7 4876   0.122   1.215  14.035 -0.5139 -0.3249 -0.0105
  325TMC3    C1 4877   4.205   1.308  13.926  0.2579  0.3645  0.0138
  325TMC3    C2 4878   4.108   1.220  13.887 -0.0596  0.2219 -0.3684
  325TMC3    C3 4879   3.976   1.259  13.909 -0.0101  0.2748 -0.5895
  325TMC3    C4 4880   4.173   1.427  13.985 -0.1219 -0.4980  0.3089
  325TMC3    C5 4881   4.039   1.450  14.021 -0.1596  0.6631 -0.4999
  325TMC3    C6 4882   3.937   1.376  13.967  0.1740  0.3635  0.3582
  325TMC3     C 4883   4.350   1.268  13.937 -0.0486  0.2455 -0.2815
  325TMC3     O 4884   4.434   1.358  13.937 -0.4058  0.0452 -0.5158
  325TMC3     H 4885   4.138   1.126  13.841 -0.8515 -0.6034  0.7922
  325TMC3    H1 4886   4.257   1.484  14.023  1.0013 -2.1189  0.2436
  325TMC3    H2 4887   3.834   1.412  13.964 -0.4942 -1.5331  0.5922
  325TMC3    C7 4888   4.017   1.518  14.146 -0.6788 -0.6747 -1.2266
  325TMC3    C8 4889   3.879   1.181  13.839  0.5108 -0.1615 -0.4513
  325TMC3    O1 4890   4.117   1.561  14.211 -0.0818  0.5392 -0.0610
  325TMC3    O2 4891   3.931   1.113  13.750  0.4176  0.5199  0.8277
  326MPD2     C 4892   1.028   1.975  11.852 -0.4182  0.6119 -0.5783
  326MPD2    C1 4893   0.955   1.997  11.743 -0.2986 -0.2447 -0.6071
  326MPD2    C2 4894   0.984   2.097  11.659  0.3090 -0.3047 -0.9763
  326MPD2    C3 4895   1.089   2.184  11.686 -0.5846  0.1227 -0.9008
  326MPD2    C4 4896   1.171   2.156  11.798  0.1961 -0.1549  0.6463
  326MPD2    C5 4897   1.144   2.044  11.867  0.3183 -0.1116  0.1212
  326MPD2     H 4898   0.917   2.109  11.575 -1.2747  0.9474  0.4701
  326MPD2    H1 4899   1.254   2.219  11.826 -0.4464  0.5390  0.9933
  326MPD2    H2 4900   1.017   1.893  11.922 -0.1614 -0.7495 -2.1626
  326MPD2    H3 4901   1.199   2.011  11.955  1.8316  0.7136 -0.5148
  326MPD2     N 4902   1.130   2.291  11.604  0.3097 -0.3237  0.5520
  326MPD2    H5 4903   1.216   2.342  11.621  0.1612 -0.5151  1.8810
  326MPD2    N1 4904   0.838   1.931  11.709 -0.5873  0.4949 -0.0076
  326MPD2    H7 4905   0.794   1.962  11.623  0.7257  1.6238 -0.2692
  327TMC3    C1 4906   0.677   1.779  11.691  0.3976 -0.1003 -0.1111
  327TMC3    C2 4907   0.615   1.890  11.639 -0.4624 -0.0945 -0.0900
  327TMC3    C3 4908   0.582   1.900  11.504  0.6049 -0.9159 -0.1113
  327TMC3    C4 4909   0.698   1.672  11.611 -0.2253 -0.0059 -0.4229
  327TMC3    C5 4910   0.657   1.681  11.483  0.3790  0.0048 -0.2610
  327TMC3    C6 4911   0.608   1.795  11.425  0.2930  0.3221  0.0690
  327TMC3     C 4912   0.791   1.816  11.771 -0.2171  0.2345  0.5355
  327TMC3     O 4913   0.819   1.776  11.881 -0.4719 -1.0565  0.0125
  327TMC3     H 4914   0.591   1.969  11.709  3.4937  1.1672 -0.1790
  327TMC3    H1 4915   0.761   1.588  11.638  1.9931  1.3304 -1.4244
  327TMC3    H2 4916   0.562   1.789  11.327 -0.7476  0.7533  0.5293
  327TMC3    C7 4917   0.715   1.599  11.384  0.0228 -0.1164  0.2525
  327TMC3    C8 4918   0.541   2.026  11.444  0.1197  0.2256 -0.1195
  327TMC3    O1 4919   0.673   1.483  11.376  0.5611  0.6478  0.3573
  327TMC3    O2 4920   0.526   2.032  11.322  0.3677  0.1917  0.5128
  328MPD2     C 4921   3.206   2.108  17.253 -0.7329 -0.0012  0.4501
  328MPD2    C1 4922   3.111   2.018  17.281  0.1162  0.8105 -0.0539
  328MPD2    C2 4923   2.983   2.035  17.229 -0.4382  0.4627 -0.0423
  328MPD2    C3 4924   2.961   2.112  17.119 -0.7316 -0.3297  0.9486
  328MPD2    C4 4925   3.065   2.199  17.088  0.2540  0.2296  0.3375
  328MPD2    C5 4926   3.180   2.207  17.164 -0.3908 -0.2434 -0.5875
  328MPD2     H 4927   2.898   1.974  17.256  0.3418 -1.1216 -1.1679
  328MPD2    H1 4928   3.042   2.271  17.010 -2.0568 -0.8405  0.0180
  328MPD2    H2 4929   3.303   2.099  17.300 -1.2863 -1.5451  1.3138
  328MPD2    H3 4930   3.238   2.298  17.155  0.0438 -0.8660 -4.0800
  328MPD2     N 4931   2.836   2.136  17.051  0.4874 -0.1085  0.3116
  328MPD2    H5 4932   2.830   2.210  16.981 -0.6955 -0.7320 -0.2438
  328MPD2    N1 4933   3.142   1.925  17.384  0.3810 -0.2646  0.1943
  328MPD2    H7 4934   3.238   1.924  17.416 -0.0486  2.8638  1.4771
  329TMC3    C1 4935   3.108   1.749  17.535 -0.0182 -0.0009  0.4446
  329TMC3    C2 4936   3.142   1.811  17.650  0.1434  0.1908 -0.3403
  329TMC3    C3 4937   3.148   1.728   0.078  0.1585 -0.6704 -0.7240
  329TMC3    C4 4938   3.067   1.610  17.530  0.0190  0.4213  0.3531
  329TMC3    C5 4939   3.086   1.536  17.643 -0.2434  0.8302 -0.7054
  329TMC3    C6 4940   3.116   1.594   0.077 -0.2204 -0.7227 -0.2849
  329TMC3     C 4941   3.054   1.832  17.433 -0.3757  0.1436  0.1812
  329TMC3     O 4942   2.946   1.792  17.392 -0.3306 -0.1712  0.3635
  329TMC3     H 4943   3.168   1.915  17.658 -0.6654  0.4315 -0.8011
  329TMC3    H1 4944   3.050   1.566  17.432  1.9309  0.8270 -0.1734
  329TMC3    H2 4945   3.136   1.536   0.167  1.6348  0.7236  0.2249
  329TMC3    C7 4946   3.018   1.406  17.644  0.1819  0.7506  0.1392
  329TMC3    C8 4947   3.164   1.792   0.213  0.2728  0.4009  0.3331
  329TMC3    O1 4948   2.981   1.357  17.536 -0.1250 -0.2871 -0.9253
  329TMC3    O2 4949   3.188   1.715   0.305 -0.2592  0.4377  0.3183
  330TMC3    C1 4950   1.274   1.671   9.979 -0.6493 -0.1172 -0.2333
  330TMC3    C2 4951   1.243   1.592   9.873  0.1626  0.2742 -0.1375
  330TMC3    C3 4952   1.280   1.458   9.884 -0.5019  0.4986  0.2737
  330TMC3    C4 4953   1.339   1.628  10.090  0.3261  0.0901 -0.2719
  330TMC3    C5 4954   1.374   1.498  10.095 -0.1799 -0.0391 -0.5546
  330TMC3    C6 4955   1.350   1.406   9.995  0.9065 -0.2644  0.2852
  330TMC3     C 4956   1.231   1.809   9.983  0.1337 -0.3853  0.2412
  330TMC3     O 4957   1.265   1.881  10.077  0.0504 -0.3371  0.8432
  330TMC3     H 4958   1.175   1.617   9.792  0.0522 -2.5406 -0.9161
  330TMC3    H1 4959   1.343   1.695  10.175  3.3433  1.7333 -1.7401
  330TMC3    H2 4960   1.392   1.306   9.993 -1.3816 -1.2164 -1.6011
  330TMC3    C7 4961   1.443   1.446  10.219  0.0316 -0.7537 -0.0127
  330TMC3    C8 4962   1.263   1.374   9.776 -0.0431 -0.0497 -0.0340
  330TMC3    O1 4963   1.502   1.532  10.279 -0.0956  0.4970  0.0119
  330TMC3    O2 4964   1.261   1.428   9.665 -0.1874 -0.3094  0.6795
  331MPD2     C 4965   4.299   0.284  12.876 -0.1433 -0.3928 -0.6544
  331MPD2    C1 4966   4.193   0.340  12.810 -0.2526  0.0585  0.3655
  331MPD2    C2 4967   4.100   0.252  12.761  0.0713 -0.2518  0.0730
  331MPD2    C3 4968   4.110   0.115  12.773  0.5641 -0.3166 -0.2278
  331MPD2    C4 4969   4.220   0.060  12.822 -1.7876 -0.0265  0.5671
  331MPD2    C5 4970   4.313   0.145  12.883 -0.4491  0.4461  0.0383
  331MPD2     H 4971   4.012   0.290  12.711 -0.2002 -1.2490 -0.2104
  331MPD2    H1 4972   4.244   4.675  12.828 -0.3909  0.1180 -2.4183
  331MPD2    H2 4973   4.380   0.341  12.921 -0.0700 -1.3886  0.5026
  331MPD2    H3 4974   4.403   0.106  12.929 -0.0831 -0.2385 -1.2523
  331MPD2     N 4975   4.007   0.036  12.717  0.0907 -0.1223  0.7265
  331MPD2    H5 4976   3.924   0.081  12.680  1.3356  0.7280 -1.0403
  331MPD2    N1 4977   4.190   0.480  12.793  0.1387  0.2108  0.0540
  331MPD2    H7 4978   4.263   0.535  12.838  1.4619 -0.1748 -1.6135
  332TMC3    C1 4979   3.893   4.577  12.611 -0.3913 -0.4103 -0.4454
  332TMC3    C2 4980   3.883   4.657  12.502 -0.2940 -0.8604 -0.0148
  332TMC3    C3 4981   3.824   4.604  12.388 -0.0289  0.6026  1.2307
  332TMC3    C4 4982   3.880   4.441  12.590  0.3612  1.1029 -0.3837
  332TMC3    C5 4983   3.832   4.389  12.472 -0.6599 -0.9767 -0.0806
  332TMC3    C6 4984   3.792   4.475  12.373 -0.1595 -0.6030  0.1266
  332TMC3     C 4985   4.000   4.618  12.701 -0.0682  0.2810  0.0323
  332TMC3     O 4986   4.074   4.536  12.754 -0.0513 -0.3238  0.3022
  332TMC3     H 4987   3.928   0.035  12.501 -3.1552  0.4325 -1.0601
  332TMC3    H1 4988   3.910   4.377  12.672 -2.5277  0.3666  0.1211
  332TMC3    H2 4989   3.761   4.448  12.273 -1.0089  1.7438 -0.2474
  332TMC3    C7 4990   3.919   4.286  12.427 -0.2805 -0.1993  0.1186
  332TMC3    C8 4991   3.841   4.678  12.264 -0.5883  1.1255  0.7708
  332TMC3    O1 4992   3.898   4.253  12.308  0.2029  0.4774 -0.4863
  332TMC3    O2 4993   3.913   4.641  12.173 -0.1411  0.2772 -0.2804
  333MPD2     C 4994   3.639   0.369  10.874  0.5728 -0.1747  0.1518
  333MPD2    C1 4995   3.761   0.328  10.921  0.0345  0.2214  0.3906
  333MPD2    C2 4996   3.763   0.236  11.028  0.2533 -0.7495  0.0617
  333MPD2    C3 4997   3.654   0.197  11.102 -0.3052 -0.4008 -0.3158
  333MPD2    C4 4998   3.536   0.251  11.059 -0.0821 -0.5092 -0.8303
  333MPD2    C5 4999   3.529   0.326  10.944 -0.1190  0.1427  0.2427
  333MPD2     H 5000   3.859   0.219  11.075 -0.4324  0.8790  2.0474
  333MPD2    H1 5001   3.438   0.231  11.102  0.6240 -1.3001  0.4388
  333MPD2    H2 5002   3.624   0.440  10.794  1.8674 -1.7155 -1.4629
  333MPD2    H3 5003   3.439   0.370  10.902  0.1249  0.2652 -0.1518
  333MPD2     N 5004   3.669   0.113  11.209  0.0970  0.4077 -0.4370
  333MPD2    H5 5005   3.762   0.083  11.233 -0.3353 -1.3797 -0.9861
  333MPD2    N1 5006   3.879   0.389  10.866  0.6949 -0.1557  0.1382
  333MPD2    H7 5007   3.867   0.453  10.787 -1.7905 -0.7553  0.0100
  334TMC3    C1 5008   4.093   0.424  10.796  0.1338 -0.3463  0.2998
  334TMC3    C2 5009   4.213   0.361  10.785  0.7859 -0.7638 -0.0143
  334TMC3    C3 5010   4.330   0.435  10.762  0.5200  0.4830 -0.2583
  334TMC3    C4 5011   4.086   0.560  10.783 -0.3648 -0.5164 -0.3739
  334TMC3    C5 5012   4.199   0.629  10.746  0.4596 -0.0806 -0.2637
  334TMC3    C6 5013   4.320   0.563  10.735  0.6002  0.0120 -0.3612
  334TMC3     C 5014   4.009   0.345  10.873  0.3246 -0.6041  0.3310
  334TMC3     O 5015   4.044   0.239  10.924 -0.0009 -0.0041  0.9428
  334TMC3     H 5016   4.225   0.255  10.804 -1.2876 -0.9386  0.3016
  334TMC3    H1 5017   3.992   0.600  10.821 -0.6339 -0.9628 -0.5764
  334TMC3    H2 5018   4.404   0.623  10.702  1.9009 -2.6267 -1.8814
  334TMC3    C7 5019   4.222   0.767  10.787  1.0812 -0.2055 -0.1906
  334TMC3    C8 5020   4.446   0.364  10.703 -0.1606  0.1858  0.3024
  334TMC3    O1 5021   4.332   0.805  10.819  0.7553 -0.5936  0.3101
  334TMC3    O2 5022   4.426   0.246  10.678  0.8299 -0.0010  0.2868
  335TMC3    C1 5023   3.996   2.136  17.617  0.6381  0.5152  0.4358
  335TMC3    C2 5024   3.869   2.119  17.560 -0.5833 -0.7688 -0.5038
  335TMC3    C3 5025   3.843   1.992  17.506  1.1626 -0.3361 -0.2119
  335TMC3    C4 5026   4.091   2.038  17.608  0.3811  0.3978  0.7225
  335TMC3    C5 5027   4.063   1.922  17.536  0.3199 -0.0057  0.7125
  335TMC3    C6 5028   3.933   1.892  17.497 -0.3477 -0.3697  0.2867
  335TMC3     C 5029   4.036   2.265  17.680 -0.5146 -0.5074  0.3909
  335TMC3     O 5030   4.105   2.265   0.097 -0.4562 -0.0585 -0.1556
  335TMC3     H 5031   3.789   2.192  17.566 -1.8023 -2.2551  1.0689
  335TMC3    H1 5032   4.191   2.058  17.644  1.6293 -2.4123 -1.1994
  335TMC3    H2 5033   3.925   1.809  17.428  2.9536  0.0786 -0.6443
  335TMC3    C7 5034   4.169   1.838  17.510 -0.1057 -0.6476 -0.2435
  335TMC3    C8 5035   3.715   1.967  17.459 -0.2549  0.3998 -0.4251
  335TMC3    O1 5036   4.276   1.897  17.487  0.0203 -0.1725 -0.6183
  335TMC3    O2 5037   3.643   2.052  17.407  0.1653 -0.4592 -0.3455
  336MPD2     C 5038   3.595   4.554  16.256  0.1826 -0.0193  0.0700
  336MPD2    C1 5039   3.607   4.495  16.134 -0.0169 -0.3617  0.3905
  336MPD2    C2 5040   3.646   4.364  16.126  0.4011  0.2831 -0.1695
  336MPD2    C3 5041   3.670   4.289  16.242  0.7958  0.1374  0.4807
  336MPD2    C4 5042   3.645   4.347  16.366  0.1621 -0.3322 -0.6392
  336MPD2    C5 5043   3.612   4.482  16.369  1.0468  0.0739  0.9377
  336MPD2     H 5044   3.638   4.312  16.031  2.8160 -1.8998  0.8166
  336MPD2    H1 5045   3.652   4.298  16.462  3.7900 -0.3672 -0.9197
  336MPD2    H2 5046   3.581   4.659  16.281  0.9818 -0.4904  2.5174
  336MPD2    H3 5047   3.582   4.530  16.462  1.0649  1.6393  0.1512
  336MPD2     N 5048   3.702   4.151  16.238  0.2410  0.2115  0.1422
  336MPD2    H5 5049   3.693   4.099  16.325 -1.5950  0.8467  0.3211
  336MPD2    N1 5050   3.590   4.565  16.015 -0.7931  0.1885 -0.0910
  336MPD2    H7 5051   3.599   4.511  15.929 -1.8624 -0.8906  0.4834
  337TMC3    C1 5052   3.539   0.020  15.862 -0.6360  0.4905 -0.2861
  337TMC3    C2 5053   3.453   4.660  15.795  0.7889  0.4407 -0.2896
  337TMC3    C3 5054   3.390   4.713  15.688 -0.0065 -0.7179  0.0311
  337TMC3    C4 5055   3.565   0.151  15.837 -0.1467 -0.5148  0.5278
  337TMC3    C5 5056   3.506   0.197  15.722 -0.5338 -0.5423 -0.0880
  337TMC3    C6 5057   3.412   0.123  15.650  0.0436 -0.2094  0.1441
  337TMC3     C 5058   3.579   4.703  16.000 -0.1939  0.5312 -0.0399
  337TMC3     O 5059   3.600   0.072  16.082  0.5788  0.4541 -0.0468
  337TMC3     H 5060   3.435   4.559  15.830 -0.1337  1.3379  1.8010
  337TMC3    H1 5061   3.630   0.208  15.902  0.7778  0.9655 -1.6773
  337TMC3    H2 5062   3.359   0.178  15.573  0.7557  2.2680  1.4120
  337TMC3    C7 5063   3.563   0.314  15.667 -0.0052 -0.5680 -0.2318
  337TMC3    C8 5064   3.278   4.637  15.635  0.4927  0.1744 -0.1316
  337TMC3    O1 5065   3.652   0.362  15.735  0.1000  0.1741  0.1576
  337TMC3    O2 5066   3.235   4.547  15.704 -0.1596 -0.4895  0.5264
  338MPD2     C 5067   3.582   4.549   0.924  0.1112  1.0136 -1.0725
  338MPD2    C1 5068   3.602   4.506   0.791  0.4935  0.0772 -0.0551
  338MPD2    C2 5069   3.500   4.451   0.722  0.1833 -0.7415  1.1336
  338MPD2    C3 5070   3.378   4.426   0.775  0.5127 -0.5959  0.4376
  338MPD2    C4 5071   3.358   4.469   0.902  0.3589  0.1271 -0.3214
  338MPD2    C5 5072   3.456   4.532   0.976 -0.0903 -0.3872 -0.0402
  338MPD2     H 5073   3.520   4.429   0.618 -0.6543 -1.8393  1.1970
  338MPD2    H1 5074   3.261   4.457   0.949  0.0573  0.0607 -0.9580
  338MPD2    H2 5075   3.656   4.605   0.980  0.7946  0.8461 -1.8131
  338MPD2    H3 5076   3.435   4.560   1.078 -1.6927 -0.8902 -0.2340
  338MPD2     N 5077   3.287   4.347   0.703 -0.1047 -0.1222 -0.0276
  338MPD2    H5 5078   3.309   4.333   0.605 -0.6644 -1.8057  0.0997
  338MPD2    N1 5079   3.723   4.516   0.728 -0.4905  0.4574 -0.2581
  338MPD2    H7 5080   3.732   4.475   0.636  0.6036  1.0962 -0.4309
  339TMC3    C1 5081   3.115   4.214   0.638  0.0909  0.3036 -0.7217
  339TMC3    C2 5082   3.135   4.080   0.663 -0.4123 -0.3163 -0.3688
  339TMC3    C3 5083   3.193   4.013   0.559 -0.5773 -0.7369 -0.0743
  339TMC3    C4 5084   3.144   4.274   0.521  0.0998  0.3599  0.2572
  339TMC3    C5 5085   3.170   4.195   0.411  0.2876 -0.3072 -0.1366
  339TMC3    C6 5086   3.207   4.065   0.436 -0.0604 -0.5181 -0.0381
  339TMC3     C 5087   3.170   4.293   0.748 -0.8334 -0.1986 -0.1135
  339TMC3     O 5088   3.136   4.276   0.866  0.2327  0.1177 -0.4206
  339TMC3     H 5089   3.130   4.046   0.766 -1.0228  0.8846  0.0038
  339TMC3    H1 5090   3.123   4.380   0.515 -1.7633 -0.0150  0.2932
  339TMC3    H2 5091   3.243   4.001   0.357 -1.1456 -1.5884  0.3355
  339TMC3    C7 5092   3.236   4.272   0.311 -0.2414  0.5068 -1.0125
  339TMC3    C8 5093   3.241   3.884   0.577  0.4302  0.6926  0.3577
  339TMC3    O1 5094   3.280   4.385   0.328 -0.1026 -0.7354  0.3507
  339TMC3    O2 5095   3.327   3.849   0.497 -0.0767 -0.3326  0.2580
  340MPD2     C 5096   3.463   1.401  10.040  0.0714  0.4489 -0.5645
  340MPD2    C1 5097   3.589   1.367   9.987  0.0462 -0.3797  0.5916
  340MPD2    C2 5098   3.698   1.335  10.075  0.2207  0.2127  0.3833
  340MPD2    C3 5099   3.684   1.329  10.215  0.3736  0.2272  0.3540
  340MPD2    C4 5100   3.560   1.375  10.266 -0.0795 -0.4239 -0.7678
  340MPD2    C5 5101   3.450   1.402  10.174 -0.7017 -0.1241 -0.3622
  340MPD2     H 5102   3.793   1.301  10.036  0.2536  0.4266  0.2762
  340MPD2    H1 5103   3.540   1.382  10.373 -1.5896  0.9391 -1.1407
  340MPD2    H2 5104   3.379   1.433   9.980 -0.9009 -1.2084 -0.0967
  340MPD2    H3 5105   3.351   1.415  10.218 -0.0228  2.7512  0.3191
  340MPD2     N 5106   3.786   1.295  10.303  0.5220  0.0586 -0.5858
  340MPD2    H5 5107   3.783   1.325  10.400  2.5533  1.6825 -1.0383
  340MPD2    N1 5108   3.609   1.369   9.842 -0.2449  0.5552 -0.4973
  340MPD2    H7 5109   3.531   1.373   9.778 -0.9381  0.6113  0.3465
  341TMC3    C1 5110   3.754   1.333   9.651 -0.2475  0.4462 -0.2939
  341TMC3    C2 5111   3.675   1.239   9.595  0.4461  0.4412 -0.5705
  341TMC3    C3 5112   3.712   1.189   9.472  0.0571 -0.6907 -0.0689
  341TMC3    C4 5113   3.867   1.378   9.594  0.3355 -0.0438 -0.5066
  341TMC3    C5 5114   3.905   1.319   9.479  0.6420 -0.0346  0.1160
  341TMC3    C6 5115   3.836   1.217   9.418 -0.5296  0.7216 -0.5703
  341TMC3     C 5116   3.738   1.370   9.792 -0.2924 -0.3266 -0.0381
  341TMC3     O 5117   3.846   1.395   9.841  0.1104  0.0218 -0.2803
  341TMC3     H 5118   3.579   1.210   9.638  1.6150 -3.9798 -0.9293
  341TMC3    H1 5119   3.935   1.449   9.641  1.4549 -1.8880  0.6635
  341TMC3    H2 5120   3.868   1.144   9.344 -0.9092  0.0002 -0.0239
  341TMC3    C7 5121   4.049   1.334   9.453 -0.3127 -0.6084 -0.4566
  341TMC3    C8 5122   3.634   1.083   9.419  0.6641  0.3962  0.0120
  341TMC3    O1 5123   4.113   1.411   9.519 -0.2856 -0.8365 -0.3634
  341TMC3    O2 5124   3.567   1.027   9.503 -0.3973 -0.0751 -0.2032
  342MPD2     C 5125   1.939   0.225   0.156  0.5259 -0.2700 -0.1981
  342MPD2    C1 5126   1.994   0.255   0.030  0.5341  0.0801  0.4202
  342MPD2    C2 5127   2.018   0.386   0.003  0.4719  0.1834  0.1964
  342MPD2    C3 5128   1.984   0.492   0.094 -0.0109  0.2154  0.1700
  342MPD2    C4 5129   1.915   0.455   0.207  0.3303 -0.4988  0.2908
  342MPD2    C5 5130   1.888   0.324   0.236 -0.1829 -0.3297 -0.6433
  342MPD2     H 5131   2.059   0.407  17.591 -3.2438  0.4052 -1.3321
  342MPD2    H1 5132   1.869   0.528   0.273  0.5552 -1.2660  1.3046
  342MPD2    H2 5133   1.926   0.122   0.186  0.6401 -0.8760 -2.2571
  342MPD2    H3 5134   1.825   0.298   0.320  1.4947  1.6421  1.2404
  342MPD2     N 5135   2.008   0.633   0.068 -0.2694 -0.8775 -0.0849
  342MPD2    H5 5136   1.979   0.699   0.140 -1.1062  2.1162 -3.1905
  342MPD2    N1 5137   2.028   0.154  17.626  0.8047  0.1335 -0.4292
  342MPD2    H7 5138   2.091   0.180  17.550  1.2275  0.6854  0.1119
  343TMC3    C1 5139   2.042   4.658  17.537  0.1723 -0.5492 -0.0936
  343TMC3    C2 5140   2.174   4.673  17.506 -0.2796  0.5714 -0.3093
  343TMC3    C3 5141   2.228   4.580  17.422 -0.5534  0.1834  0.1206
  343TMC3    C4 5142   1.964   4.554  17.495  0.3126 -0.2114  0.4601
  343TMC3    C5 5143   2.018   4.464  17.406 -0.3721 -0.3270 -0.1994
  343TMC3    C6 5144   2.156   4.470  17.367  0.6592  0.0900  0.0681
  343TMC3     C 5145   1.981   0.031  17.632 -0.2740 -0.6946 -0.3188
  343TMC3     O 5146   1.896   4.707   0.020 -0.0120 -0.1227  0.1280
  343TMC3     H 5147   2.228   0.025  17.565 -0.8951 -0.0129  0.9706
  343TMC3    H1 5148   1.864   4.538  17.534  0.1742  2.5122  1.1658
  343TMC3    H2 5149   2.204   4.405  17.295  1.5215 -1.1649  1.7769
  343TMC3    C7 5150   1.954   4.337  17.399 -0.3200  0.0943 -0.3012
  343TMC3    C8 5151   2.358   4.618  17.358  0.4665 -0.2240  0.3203
  343TMC3    O1 5152   1.972   4.277  17.294 -0.3837  0.1911 -0.6313
  343TMC3    O2 5153   2.381   0.016  17.359 -0.8775  0.5468 -0.2915
  344MPD2     C 5154   3.189   4.324  10.674  0.1252 -0.4492  0.0519
  344MPD2    C1 5155   3.096   4.269  10.589  0.1872 -0.0747  0.4632
  344MPD2    C2 5156   3.120   4.277  10.454  0.1908  0.2332 -0.3267
  344MPD2    C3 5157   3.223   4.360  10.405 -0.3523  0.5239  0.0229
  344MPD2    C4 5158   3.307   4.428  10.492 -0.1102  0.2803 -0.0839
  344MPD2    C5 5159   3.287   4.405  10.623  0.5472 -0.1043 -0.3415
  344MPD2     H 5160   3.067   4.217  10.381 -1.2934  1.7516 -0.4832
  344MPD2    H1 5161   3.390   4.493  10.466  0.7808 -0.2913  1.3391
  344MPD2    H2 5162   3.184   4.328  10.782  0.4773  0.0936  0.0492
  344MPD2    H3 5163   3.349   4.447  10.701  1.3559  0.0838 -1.0861
  344MPD2     N 5164   3.257   4.357  10.264  0.0425 -1.1409 -0.0384
  344MPD2    H5 5165   3.339   4.407  10.229 -1.6928  0.0724 -2.3605
  344MPD2    N1 5166   2.996   4.182  10.638 -0.0599  0.2773  0.1759
  344MPD2    H7 5167   2.931   4.139  10.572  1.5439  2.0955 -2.5457
  345TMC3    C1 5168   3.225   4.348  10.032  0.1442 -0.2540 -0.5936
  345TMC3    C2 5169   3.361   4.343  10.014 -0.1430 -0.4096  0.3057
  345TMC3    C3 5170   3.405   4.400   9.895  0.3159 -0.0256  0.7220
  345TMC3    C4 5171   3.142   4.423   9.942  0.0638 -0.6827 -0.0638
  345TMC3    C5 5172   3.197   4.483   9.829  0.5759  0.0607  0.2981
  345TMC3    C6 5173   3.331   4.468   9.806  0.0945  0.4513  0.0447
  345TMC3     C 5174   3.173   4.317  10.163 -0.5862 -0.1157  0.4937
  345TMC3     O 5175   3.052   4.286  10.171 -0.7210 -0.4290 -0.2989
  345TMC3     H 5176   3.435   4.295  10.077  0.0076 -1.9243 -1.0007
  345TMC3    H1 5177   3.040   4.431   9.975  0.2989  0.2165  0.4233
  345TMC3    H2 5178   3.373   4.506   9.713  1.2877 -2.5341 -0.6314
  345TMC3    C7 5179   3.138   4.607   9.780  1.2199  0.6255 -0.9717
  345TMC3    C8 5180   3.553   4.415   9.894  0.3501  0.2238  0.4460
  345TMC3    O1 5181   3.212   4.682   9.718 -0.0002  0.3442  0.0443
  345TMC3    O2 5182   3.617   4.314   9.913  0.0297  0.1271  0.3598
  346MPD2     C 5183   2.944   1.198  13.764 -1.0424  0.4604 -0.0382
  346MPD2    C1 5184   3.063   1.275  13.772  0.0962 -0.0971 -0.0836
  346MPD2    C2 5185   3.084   1.352  13.884  0.4905  0.7485 -0.2049
  346MPD2    C3 5186   2.979   1.369  13.977 -0.7886 -0.3277  0.3159
  346MPD2    C4 5187   2.856   1.305  13.963  0.6673 -0.7013  0.3009
  346MPD2    C5 5188   2.841   1.224  13.852  0.2557 -0.5545  0.0837
  346MPD2     H 5189   3.177   1.401  13.908 -0.9240  1.5201  3.7124
  346MPD2    H1 5190   2.776   1.316  14.034 -0.7674  1.0576 -1.5880
  346MPD2    H2 5191   2.920   1.132  13.680 -1.6044  1.0158 -0.3160
  346MPD2    H3 5192   2.740   1.190  13.835 -1.1722  3.0614  1.5033
  346MPD2     N 5193   3.014   1.449  14.089  0.2268  0.1614 -0.8483
  346MPD2    H5 5194   3.115   1.456  14.102  0.2811 -0.7536 -0.7143
  346MPD2    N1 5195   3.177   1.261  13.681  0.1741 -0.3797 -0.2748
  346MPD2    H7 5196   3.246   1.335  13.692 -0.0345 -0.0331 -1.2969
  347TMC3    C1 5197   3.016   1.547  14.290  0.0924  0.8143 -0.7731
  347TMC3    C2 5198   3.143   1.583  14.259 -0.2108  0.3675  0.0127
  347TMC3    C3 5199   3.239   1.580  14.352 -0.2963  0.8570  0.3720
  347TMC3    C4 5200   2.980   1.504  14.412  0.1428 -0.9706  0.4854
  347TMC3    C5 5201   3.079   1.522  14.506  0.5114 -0.2136  0.4203
  347TMC3    C6 5202   3.207   1.545  14.479 -0.5212  0.3263 -1.0377
  347TMC3     C 5203   2.933   1.499  14.183 -0.3253 -0.4297 -0.5733
  347TMC3     O 5204   2.812   1.490  14.201 -0.0838  0.4215  0.1554
  347TMC3     H 5205   3.163   1.629  14.162  0.6795 -1.9086 -0.8732
  347TMC3    H1 5206   2.878   1.470  14.429 -0.5142  0.5049 -0.5663
  347TMC3    H2 5207   3.285   1.535  14.554 -0.2665  1.2089 -1.1897
  347TMC3    C7 5208   3.042   1.468  14.635 -0.0580  0.8180  0.0999
  347TMC3    C8 5209   3.380   1.599  14.313 -0.4979  1.0878  0.4983
  347TMC3    O1 5210   2.961   1.376  14.646  0.3535 -0.2361 -0.1739
  347TMC3    O2 5211   3.398   1.615  14.192 -0.7551 -0.6469 -0.3726
  348MPD2     C 5212   1.960   1.035  12.194  0.1374 -0.1343 -0.1450
  348MPD2    C1 5213   1.916   0.947  12.095  0.2281 -0.3762 -0.2784
  348MPD2    C2 5214   1.916   0.990  11.962  0.3459  0.6439  0.4406
  348MPD2    C3 5215   1.967   1.113  11.928  0.0821  0.4224 -0.0346
  348MPD2    C4 5216   2.014   1.192  12.029  0.5889 -0.7594 -0.6026
  348MPD2    C5 5217   2.014   1.153  12.161 -0.7218  0.5676  0.1758
  348MPD2     H 5218   1.863   0.924  11.895  1.1190  2.5049 -2.0069
  348MPD2    H1 5219   2.058   1.288  12.006 -1.5465  0.1473 -0.9016
  348MPD2    H2 5220   1.955   1.007  12.298  0.8031 -1.5320 -0.4739
  348MPD2    H3 5221   2.030   1.213  12.250 -0.3236  1.2516 -0.3530
  348MPD2     N 5222   1.967   1.167  11.798 -0.0353 -0.3511 -0.2334
  348MPD2    H5 5223   1.997   1.264  11.785  0.1557 -0.3368  0.2836
  348MPD2    N1 5224   1.865   0.819  12.118  0.3377 -0.2387 -0.2672
  348MPD2    H7 5225   1.815   0.776  12.041  1.1733 -0.1840 -0.8425
  349TMC3    C1 5226   1.836   0.612  12.223  0.0025 -0.4100 -0.2889
  349TMC3    C2 5227   1.847   0.531  12.337  0.7034 -0.4285 -0.0249
  349TMC3    C3 5228   1.851   0.395  12.322 -0.0064  0.3386 -0.1400
  349TMC3    C4 5229   1.836   0.549  12.098  0.7597 -0.0183 -0.5047
  349TMC3    C5 5230   1.835   0.412  12.090  0.0975 -1.3962  0.0053
  349TMC3    C6 5231   1.848   0.333  12.202 -0.7384  1.4432 -0.0653
  349TMC3     C 5232   1.876   0.752  12.237 -0.4349 -0.6827 -0.3311
  349TMC3     O 5233   1.888   0.790  12.353 -0.6700  0.1323  0.1745
  349TMC3     H 5234   1.855   0.581  12.432 -1.3527 -1.7280  0.8366
  349TMC3    H1 5235   1.854   0.603  12.005  0.8332 -1.3109 -1.2466
  349TMC3    H2 5236   1.835   0.226  12.193 -0.4801  1.3174  1.0407
  349TMC3    C7 5237   1.795   0.344  11.962 -0.5955  0.9691  0.0972
  349TMC3    C8 5238   1.867   0.310  12.442  0.1809 -0.1026  0.9682
  349TMC3    O1 5239   1.816   0.223  11.956  0.1551 -0.9270  0.0325
  349TMC3    O2 5240   1.956   0.226  12.441  0.1678  0.4388  0.5146
  350MPD2     C 5241   4.538   3.511  11.263  0.2658 -0.8686 -1.2967
  350MPD2    C1 5242   4.654   3.485  11.190 -0.6522 -0.4131 -0.3699
  350MPD2    C2 5243   0.052   3.554  11.224 -0.2817 -0.1847  0.2534
  350MPD2    C3 5244   0.051   3.654  11.317  0.0721  0.2733 -0.4927
  350MPD2    C4 5245   4.653   3.689  11.377  0.9096  0.3816 -0.4425
  350MPD2    C5 5246   4.536   3.626  11.346 -0.0545 -0.0401  0.0259
  350MPD2     H 5247   0.139   3.521  11.168 -0.8479 -2.0624  0.4657
  350MPD2    H1 5248   4.648   3.775  11.444 -0.3384  0.1634 -0.2586
  350MPD2    H2 5249   4.447   3.458  11.239 -1.3712  1.0447  0.6478
  350MPD2    H3 5250   4.446   3.650  11.401  0.5249 -1.2474  1.5145
  350MPD2     N 5251   0.174   3.717  11.354  0.1334 -0.4242  0.2868
  350MPD2    H5 5252   0.258   3.671  11.319  0.7249  0.1318  0.9609
  350MPD2    N1 5253   4.666   3.388  11.085 -0.8633  0.3795  0.2600
  350MPD2    H7 5254   0.042   3.373  11.055 -0.4976 -0.4227  1.8604
  351TMC3    C1 5255   4.600   3.232  10.920 -0.3372  0.0258  0.3066
  351TMC3    C2 5256   0.012   3.223  10.885  0.3913 -0.3330 -0.2082
  351TMC3    C3 5257   0.038   3.106  10.818 -0.8692 -0.3881 -0.4714
  351TMC3    C4 5258   4.508   3.136  10.898 -0.4333 -0.1257 -0.4311
  351TMC3    C5 5259   4.550   3.018  10.859 -0.0845 -0.3518  0.2295
  351TMC3    C6 5260   4.679   2.994  10.807  0.0989 -0.3301 -0.4578
  351TMC3     C 5261   4.561   3.333  11.018  0.0877 -0.9288  0.9352
  351TMC3     O 5262   4.444   3.340  11.054 -0.3385  0.0792 -0.9429
  351TMC3     H 5263   0.078   3.308  10.896 -0.9022  0.9570 -2.4417
  351TMC3    H1 5264   4.404   3.151  10.927 -0.3818  0.8380 -0.7645
  351TMC3    H2 5265   4.720   2.904  10.763  1.3972 -0.7962  1.7323
  351TMC3    C7 5266   4.449   2.923  10.817 -0.5737  0.2931  0.0463
  351TMC3    C8 5267   0.173   3.097  10.757  0.4050 -0.7330 -0.9952
  351TMC3    O1 5268   4.339   2.963  10.792  0.4294  0.1364  0.3678
  351TMC3    O2 5269   0.189   3.000  10.690  0.2645 -0.2778  0.1494
  352MPD2     C 5270   2.883   1.333   1.266 -0.3962  0.2012  0.1481
  352MPD2    C1 5271   3.008   1.382   1.241 -0.0046  0.1111  0.6296
  352MPD2    C2 5272   3.119   1.312   1.288  0.3341  0.1343  0.1376
  352MPD2    C3 5273   3.101   1.185   1.343 -0.1217  0.3110  0.5565
  352MPD2    C4 5274   2.978   1.132   1.351  0.1563  0.2351  0.2020
  352MPD2    C5 5275   2.867   1.207   1.311  0.3903  0.3712 -0.3967
  352MPD2     H 5276   3.214   1.362   1.303  0.2277 -0.0051  1.2597
  352MPD2    H1 5277   2.956   1.038   1.401  2.4090 -0.8112 -0.8197
  352MPD2    H2 5278   2.794   1.378   1.225 -0.4364  0.6440  0.7313
  352MPD2    H3 5279   2.768   1.169   1.334  0.4714 -0.2415 -1.0793
  352MPD2     N 5280   3.198   1.124   1.417  0.5859 -0.5141 -0.2407
  352MPD2    H5 5281   3.174   1.041   1.470  2.8313 -0.5354  0.7637
  352MPD2    N1 5282   3.024   1.506   1.172 -0.1028  0.1523  0.2879
  352MPD2    H7 5283   2.942   1.563   1.152  0.7675  1.5046  0.5557
  353TMC3    C1 5284   3.405   1.073   1.510  0.6260  0.1624 -0.5122
  353TMC3    C2 5285   3.539   1.058   1.477  0.4374  0.2753  0.2436
  353TMC3    C3 5286   3.611   0.967   1.552  0.2906 -1.2148 -0.3082
  353TMC3    C4 5287   3.342   1.012   1.612  0.6665 -0.6835 -0.7279
  353TMC3    C5 5288   3.413   0.917   1.681 -0.3931 -0.6363  0.1054
  353TMC3    C6 5289   3.553   0.898   1.657 -0.4101 -0.2173 -0.5610
  353TMC3     C 5290   3.328   1.153   1.421  0.2776  0.2902 -0.1309
  353TMC3     O 5291   3.388   1.218   1.337 -1.0978  0.0542  0.2222
  353TMC3     H 5292   3.580   1.106   1.389 -0.8288  2.5554  0.8987
  353TMC3    H1 5293   3.237   1.033   1.628  0.8518 -1.1363  1.0838
  353TMC3    H2 5294   3.608   0.827   1.717  0.0394  1.3550  0.8803
  353TMC3    C7 5295   3.328   0.825   1.752  0.2146 -0.7602 -0.2073
  353TMC3    C8 5296   3.728   0.907   1.496 -0.1656  0.3472 -0.3336
  353TMC3    O1 5297   3.207   0.833   1.727  0.4396  0.4126  0.0031
  353TMC3    O2 5298   3.807   0.852   1.574 -0.5834 -0.4582 -0.3691
  354TMC3    C1 5299   0.716   2.336  13.426 -0.4288 -0.3769 -0.6171
  354TMC3    C2 5300   0.756   2.468  13.412  0.7616  0.7022  0.3226
  354TMC3    C3 5301   0.774   2.511  13.282 -0.4146 -0.1721 -0.2144
  354TMC3    C4 5302   0.699   2.253  13.323  0.4369 -0.6488 -0.3426
  354TMC3    C5 5303   0.728   2.301  13.198  0.6258 -0.1783  0.5328
  354TMC3    C6 5304   0.756   2.433  13.173 -0.2249  0.0996 -0.6869
  354TMC3     C 5305   0.723   2.279  13.561  0.9464  0.6243 -0.9526
  354TMC3     O 5306   0.673   2.171  13.577  0.1855 -0.1841  0.8190
  354TMC3     H 5307   0.775   2.532  13.497 -3.0363  1.4698  0.5859
  354TMC3    H1 5308   0.679   2.147  13.338 -1.2443 -0.0283  1.7345
  354TMC3    H2 5309   0.775   2.465  13.071  1.3632 -0.6770 -0.6452
  354TMC3    C7 5310   0.810   2.209  13.120  0.5800 -0.1673 -0.1486
  354TMC3    C8 5311   0.817   2.642  13.251 -0.2885  0.0046  0.7035
  354TMC3    O1 5312   0.796   2.087  13.137  0.3487  1.0097  0.1555
  354TMC3    O2 5313   0.826   2.672  13.132  0.2323 -0.1271  0.3851
  355MPD2     C 5314   1.135   3.315  12.262  0.1549  1.0540  0.2372
  355MPD2    C1 5315   1.122   3.287  12.130  0.3628  0.0401  0.0425
  355MPD2    C2 5316   1.233   3.251  12.060  0.4351  0.6029  0.4141
  355MPD2    C3 5317   1.357   3.254  12.113  0.1148 -0.0564 -1.0278
  355MPD2    C4 5318   1.371   3.278  12.252 -0.0434 -0.2448 -0.3821
  355MPD2    C5 5319   1.257   3.308  12.322  0.4048 -0.9249 -0.4983
  355MPD2     H 5320   1.224   3.236  11.953 -0.8706  2.9575  0.1944
  355MPD2    H1 5321   1.469   3.281  12.297  0.7419 -1.0527 -2.0438
  355MPD2    H2 5322   1.049   3.343  12.321 -0.4733 -0.4895  0.0630
  355MPD2    H3 5323   1.271   3.334  12.427 -2.0336  0.8833 -0.6355
  355MPD2     N 5324   1.479   3.249  12.039 -0.0085  0.1873 -0.7637
  355MPD2    H5 5325   1.561   3.273  12.093 -0.2532 -0.1391 -0.2490
  355MPD2    N1 5326   1.000   3.315  12.070 -0.2991 -0.5374  0.6166
  355MPD2    H7 5327   0.916   3.303  12.125  0.8886 -0.0076  2.5106
  356TMC3    C1 5328   1.614   3.294  11.851 -0.3575  0.2325 -0.8051
  356TMC3    C2 5329   1.596   3.389  11.749 -0.2082  0.2209 -0.2259
  356TMC3    C3 5330   1.696   3.473  11.739 -0.6535 -0.6111  0.2116
  356TMC3    C4 5331   1.720   3.284  11.932 -0.0112 -0.1778  0.4034
  356TMC3    C5 5332   1.820   3.379  11.917 -0.5006 -0.4524 -0.4774
  356TMC3    C6 5333   1.803   3.477  11.824  0.2047  0.0986  0.1001
  356TMC3     C 5334   1.492   3.233  11.904  0.5245 -0.5842 -0.0633
  356TMC3     O 5335   1.402   3.216  11.822  0.2269 -0.5390 -0.7037
  356TMC3     H 5336   1.506   3.387  11.688  1.0142  0.8080 -2.0290
  356TMC3    H1 5337   1.729   3.201  12.001 -0.2446  1.6083  2.6262
  356TMC3    H2 5338   1.890   3.539  11.807  1.6155 -1.6795  0.7571
  356TMC3    C7 5339   1.916   3.378  12.031  0.1894 -0.2730 -0.2532
  356TMC3    C8 5340   1.696   3.570  11.631 -0.0756  1.4319  0.8980
  356TMC3    O1 5341   1.902   3.289  12.118 -0.0601  0.0367 -0.1154
  356TMC3    O2 5342   1.588   3.600  11.587  0.8246 -0.1398 -0.2423
  357MPD2     C 5343   0.164   2.407   0.545 -0.8307 -0.0159  0.3865
  357MPD2    C1 5344   0.257   2.362   0.639 -0.1882 -0.2299 -0.3052
  357MPD2    C2 5345   0.239   2.385   0.774 -0.0899 -0.5041 -0.1190
  357MPD2    C3 5346   0.115   2.420   0.816  0.1911  0.2427  0.5930
  357MPD2    C4 5347   0.020   2.471   0.734 -0.5266  0.6451 -1.0339
  357MPD2    C5 5348   0.044   2.454   0.601 -0.3499 -0.1487  0.3501
  357MPD2     H 5349   0.312   2.356   0.849 -0.2720 -0.1867  0.1848
  357MPD2    H1 5350   4.640   2.488   0.770 -0.4399 -1.2057  0.0753
  357MPD2    H2 5351   0.179   2.393   0.439 -2.5688  0.0017  0.1366
  357MPD2    H3 5352   4.686   2.479   0.531 -1.2480 -0.1947  1.3517
  357MPD2     N 5353   0.085   2.419   0.958 -0.2385 -0.1068  0.0307
  357MPD2    H5 5354   4.713   2.453   0.983 -1.2989 -2.5392 -0.6613
  357MPD2    N1 5355   0.381   2.306   0.589  0.1018 -0.0547  0.7846
  357MPD2    H7 5356   0.384   2.295   0.489  1.1101 -0.3483  0.8471
  358TMC3    C1 5357   0.608   2.234   0.593 -0.3083 -0.5531 -0.1501
  358TMC3    C2 5358   0.613   2.229   0.453 -0.4536 -0.4123  0.1842
  358TMC3    C3 5359   0.724   2.168   0.395 -0.1521  0.9195 -0.0305
  358TMC3    C4 5360   0.712   2.209   0.668  0.0214  0.6270  0.1942
  358TMC3    C5 5361   0.828   2.160   0.607 -0.6056 -0.2866  0.0863
  358TMC3    C6 5362   0.828   2.119   0.474  0.3208 -0.2527 -0.9991
  358TMC3     C 5363   0.486   2.261   0.665  0.5255  0.2560  0.8493
  358TMC3     O 5364   0.493   2.263   0.791  0.1650 -0.1696 -0.2684
  358TMC3     H 5365   0.521   2.246   0.398  1.2813 -0.3222 -2.7266
  358TMC3    H1 5366   0.705   2.228   0.775 -2.2243  0.2310  0.1083
  358TMC3    H2 5367   0.920   2.101   0.419  0.9262 -0.1666 -0.0114
  358TMC3    C7 5368   0.953   2.167   0.677  0.4092  0.3716 -1.2443
  358TMC3    C8 5369   0.706   2.135   0.260 -0.1301  0.3522 -0.2838
  358TMC3    O1 5370   1.035   2.096   0.627 -0.2667  0.3846  0.1213
  358TMC3    O2 5371   0.613   2.192   0.202  0.6604 -0.0527  0.3061
  359MPD2     C 5372   1.880   2.056  12.865  0.3382 -0.1518 -0.3936
  359MPD2    C1 5373   1.821   1.998  12.757 -0.5402 -0.4356  0.2966
  359MPD2    C2 5374   1.695   1.945  12.766  0.1799  0.1954  0.1969
  359MPD2    C3 5375   1.619   1.951  12.884  0.1191  0.1303 -0.8335
  359MPD2    C4 5376   1.674   2.024  12.992  0.2040  0.0402  0.1225
  359MPD2    C5 5377   1.803   2.073  12.983  0.2344  0.3028 -0.0961
  359MPD2     H 5378   1.649   1.892  12.683 -0.2185  0.1944  0.4192
  359MPD2    H1 5379   1.618   2.030  13.085  0.9928 -0.7212  0.6343
  359MPD2    H2 5380   1.975   2.107  12.861 -0.0601  0.6395  0.4016
  359MPD2    H3 5381   1.847   2.129  13.065  0.3583  2.3377 -1.5498
  359MPD2     N 5382   1.496   1.895  12.893 -0.4801 -0.3459  0.1177
  359MPD2    H5 5383   1.437   1.866  12.816  0.9399 -0.7633 -0.8279
  359MPD2    N1 5384   1.888   1.974  12.632 -0.2701 -0.9705 -0.0606
  359MPD2    H7 5385   1.837   1.913  12.569 -1.4941 -0.9784  0.9216
  360TMC3    C1 5386   2.049   1.997  12.461  0.1087  0.6422 -0.2736
  360TMC3    C2 5387   2.076   2.103  12.386  0.1390  0.1201 -0.0411
  360TMC3    C3 5388   2.053   2.092  12.250 -0.0682  0.2521 -0.2943
  360TMC3    C4 5389   1.974   1.891  12.403 -0.3432  0.2539  0.5108
  360TMC3    C5 5390   1.951   1.889  12.271 -0.6741 -0.0901  0.4136
  360TMC3    C6 5391   1.992   1.991  12.190  0.1114 -0.2026 -0.0571
  360TMC3     C 5392   2.011   2.034  12.598 -0.0134 -0.8711  0.5826
  360TMC3     O 5393   2.062   2.138  12.640 -0.6710 -0.2822  0.4487
  360TMC3     H 5394   2.130   2.187  12.427 -0.4994 -1.7286  4.5325
  360TMC3    H1 5395   1.966   1.801  12.463 -2.4833  0.2442  0.2212
  360TMC3    H2 5396   1.961   2.001  12.086 -1.2904 -0.4288  0.3329
  360TMC3    C7 5397   1.921   1.759  12.211 -0.2574 -0.6314  0.8670
  360TMC3    C8 5398   2.109   2.200  12.168 -0.3131  0.7623 -0.1988
  360TMC3    O1 5399   1.921   1.662  12.281 -0.1063 -0.2919 -0.2846
  360TMC3    O2 5400   2.141   2.301  12.224 -0.4771  0.5447 -0.3247
  361MPD2     C 5401   2.934   0.562  16.686 -0.2238 -0.2844  0.3148
  361MPD2    C1 5402   2.917   0.604  16.814  0.7639  0.5959 -0.3814
  361MPD2    C2 5403   3.013   0.563  16.907 -0.1813  0.0591 -0.4977
  361MPD2    C3 5404   3.124   0.487  16.866  0.9439 -0.2329  0.5493
  361MPD2    C4 5405   3.144   0.453  16.736  0.0469 -0.1577  0.0404
  361MPD2    C5 5406   3.046   0.490  16.647  0.2194 -0.1552 -0.3988
  361MPD2     H 5407   2.999   0.582  17.012  1.1120 -2.2667  0.0933
  361MPD2    H1 5408   3.220   0.380  16.710  0.9112  0.3913  1.0230
  361MPD2    H2 5409   2.878   0.598  16.601 -1.8796  0.4265  1.7063
  361MPD2    H3 5410   3.038   0.458  16.544  0.9171  0.5155 -0.6527
  361MPD2     N 5411   3.209   0.430  16.964 -0.1835  0.2203 -0.4079
  361MPD2    H5 5412   3.278   0.361  16.936 -0.6022 -1.0648  1.7291
  361MPD2    N1 5413   2.814   0.693  16.848 -0.1843 -0.3400 -0.1500
  361MPD2    H7 5414   2.751   0.723  16.774  0.4153  0.5179 -0.3066
  362TMC3    C1 5415   2.656   0.812  16.989 -0.7474  0.0289 -0.0935
  362TMC3    C2 5416   2.567   0.795  17.094 -0.1744 -0.3749 -0.3539
  362TMC3    C3 5417   2.465   0.886  17.099 -0.5417  0.1409 -0.2994
  362TMC3    C4 5418   2.642   0.909  16.887  0.1766 -0.5831 -0.1139
  362TMC3    C5 5419   2.545   0.998  16.902 -0.3172 -0.0509 -0.1936
  362TMC3    C6 5420   2.448   0.988  17.001  0.0220 -0.6590  0.2095
  362TMC3     C 5421   2.775   0.726  16.973  0.3610 -0.8506 -0.0534
  362TMC3     O 5422   2.837   0.704  17.077  0.7018 -0.4022 -0.0861
  362TMC3     H 5423   2.588   0.732  17.180 -0.0757 -2.4557 -1.9318
  362TMC3    H1 5424   2.703   0.903  16.798  0.6099 -1.0744  0.2170
  362TMC3    H2 5425   2.352   1.039  16.996 -0.4123 -1.2868  2.1723
  362TMC3    C7 5426   2.493   1.066  16.788 -0.4653  0.0550 -0.2598
  362TMC3    C8 5427   2.367   0.850  17.200  0.4114  0.7839  0.8234
  362TMC3    O1 5428   2.428   1.162  16.816  0.1948  0.7817 -0.4530
  362TMC3    O2 5429   2.356   0.727  17.227  0.2455  0.2301  0.0001
  363TMC3    C1 5430   0.799   3.141   9.711 -0.1818 -1.0414  0.4522
  363TMC3    C2 5431   0.901   3.088   9.788 -0.3029 -0.3026  0.0512
  363TMC3    C3 5432   0.894   3.114   9.926  0.6213  0.3573 -0.2922
  363TMC3    C4 5433   0.707   3.231   9.765  0.2122  0.1160  0.6899
  363TMC3    C5 5434   0.714   3.259   9.902 -0.1906 -0.3239 -0.7224
  363TMC3    C6 5435   0.802   3.195   9.986 -0.6873  0.0041 -0.0575
  363TMC3     C 5436   0.796   3.116   9.566 -0.1403  0.5123  0.0271
  363TMC3     O 5437   0.749   3.201   9.494  0.2570 -0.1000 -0.4550
  363TMC3     H 5438   0.978   3.031   9.737 -0.5122 -1.4166  0.9821
  363TMC3    H1 5439   0.620   3.246   9.703  0.1507  0.2121  0.7994
  363TMC3    H2 5440   0.797   3.216  10.092 -0.8708 -0.5415  0.0408
  363TMC3    C7 5441   0.617   3.345   9.967 -0.1383 -0.4317 -0.5729
  363TMC3    C8 5442   0.982   3.052  10.017 -0.6534 -0.0005  0.3059
  363TMC3    O1 5443   0.607   3.332  10.089 -0.4956  0.6130  0.4168
  363TMC3    O2 5444   0.952   3.060  10.133  0.2617 -0.6340  0.0272
  364MPD2     C 5445   0.428   2.517  11.532  0.5354 -0.1374  0.4709
  364MPD2    C1 5446   0.420   2.445  11.415  0.2743 -0.2017  0.9199
  364MPD2    C2 5447   0.461   2.313  11.415  1.3919  0.7345  0.0034
  364MPD2    C3 5448   0.499   2.249  11.534 -0.1604 -0.1707  0.0416
  364MPD2    C4 5449   0.506   2.320  11.643 -0.1337  0.0808 -0.4474
  364MPD2    C5 5450   0.473   2.454  11.642 -0.6267  0.1072 -0.3836
  364MPD2     H 5451   0.464   2.252  11.326  0.1634  1.3575 -0.4730
  364MPD2    H1 5452   0.545   2.283  11.737  0.3559 -0.6426 -0.9439
  364MPD2    H2 5453   0.398   2.621  11.538 -0.8614 -0.5404  0.5061
  364MPD2    H3 5454   0.480   2.509  11.735  1.0981 -0.1845 -0.3497
  364MPD2     N 5455   0.528   2.117  11.543  0.1819  0.0637  0.3736
  364MPD2    H5 5456   0.540   2.093  11.641  0.5187 -1.0463  0.0586
  364MPD2    N1 5457   0.389   2.522  11.301 -0.4472 -0.5123 -0.2264
  364MPD2    H7 5458   0.381   2.622  11.319 -0.2083 -0.6288  0.5334
  365TMC3    C1 5459   0.364   2.596  11.075 -0.4316 -0.2123 -0.3857
  365TMC3    C2 5460   0.384   2.567  10.943 -0.4943 -0.4751  1.1840
  365TMC3    C3 5461   0.400   2.668  10.858 -0.2044 -0.4548 -0.2864
  365TMC3    C4 5462   0.330   2.728  11.109 -0.2573  0.0333  0.3077
  365TMC3    C5 5463   0.346   2.826  11.022 -0.0784 -0.3880  0.0248
  365TMC3    C6 5464   0.382   2.799  10.895  0.3308 -0.4067 -0.0054
  365TMC3     C 5465   0.378   2.480  11.170  0.3833 -0.0505 -0.2699
  365TMC3     O 5466   0.388   2.365  11.122 -0.0880 -0.0049  0.0020
  365TMC3     H 5467   0.383   2.464  10.908 -0.1509 -0.2042  0.3792
  365TMC3    H1 5468   0.312   2.763  11.210  1.4460 -2.2583  1.4222
  365TMC3    H2 5469   0.387   2.888  10.832  0.7602  0.9194  1.8990
  365TMC3    C7 5470   0.304   2.954  11.066 -0.8566 -0.2022 -0.0074
  365TMC3    C8 5471   0.438   2.641  10.718 -0.3504 -0.8958  0.2400
  365TMC3    O1 5472   0.374   3.050  11.049 -0.2298 -0.4373 -0.0977
  365TMC3    O2 5473   0.494   2.732  10.657 -0.1545  0.3368 -0.3136
  366MPD2     C 5474   3.062   3.669  15.625  0.1017 -0.3850  0.0642
  366MPD2    C1 5475   3.144   3.660  15.509 -0.0366 -0.4077 -0.0189
  366MPD2    C2 5476   3.163   3.536  15.456  0.4363  0.1980 -1.0435
  366MPD2    C3 5477   3.127   3.421  15.519  0.1661  0.4540 -0.5003
  366MPD2    C4 5478   3.051   3.427  15.633 -0.4063 -0.1314 -0.2562
  366MPD2    C5 5479   3.022   3.550  15.680 -0.0763 -0.0646  0.1448
  366MPD2     H 5480   3.221   3.529  15.365  0.3990 -1.3802 -0.9453
  366MPD2    H1 5481   3.003   3.343  15.682 -0.9177 -0.4006 -1.2307
  366MPD2    H2 5482   3.030   3.764  15.666  2.0112  0.6554 -0.8575
  366MPD2    H3 5483   2.958   3.561  15.767 -0.0647 -3.0597  0.5337
  366MPD2     N 5484   3.178   3.308  15.452  0.3628  0.1991  0.2325
  366MPD2    H5 5485   3.229   3.320  15.365 -0.5694  1.9005 -0.0708
  366MPD2    N1 5486   3.200   3.768  15.442  0.1086  0.2534 -0.0260
  366MPD2    H7 5487   3.242   3.759  15.350 -0.2083 -0.3550 -0.1122
  367TMC3    C1 5488   3.274   3.998  15.437  0.2363  0.2211  0.6930
  367TMC3    C2 5489   3.358   4.079  15.509  0.2832 -0.0130 -0.1203
  367TMC3    C3 5490   3.442   4.168  15.445 -0.4186  0.0841 -0.3218
  367TMC3    C4 5491   3.273   3.997  15.305  0.0492  0.1197 -0.3550
  367TMC3    C5 5492   3.357   4.086  15.242  0.3903 -0.1375  0.6546
  367TMC3    C6 5493   3.431   4.178  15.312  0.4699  0.2301  0.4564
  367TMC3     C 5494   3.212   3.889  15.513  0.5789 -0.1036  0.6334
  367TMC3     O 5495   3.207   3.908  15.634 -0.4094 -0.3268 -0.0133
  367TMC3     H 5496   3.356   4.071  15.617  0.4371  1.6061  0.0041
  367TMC3    H1 5497   3.199   3.940  15.250  0.6107  1.4528 -2.4814
  367TMC3    H2 5498   3.500   4.247  15.264  3.5978 -1.6572  2.2919
  367TMC3    C7 5499   3.311   4.144  15.121 -0.2571  0.1255  0.7467
  367TMC3    C8 5500   3.542   4.239  15.523 -0.3319 -0.4514 -0.0822
  367TMC3    O1 5501   3.353   4.259  15.106 -0.2186 -0.3380 -0.0816
  367TMC3    O2 5502   3.552   4.190  15.634 -0.2275  0.3940  0.0179
  368MPD2     C 5503   0.266   0.561  13.297 -0.0202  0.2070 -0.7506
  368MPD2    C1 5504   0.292   0.686  13.253  0.3695  0.4187  0.4444
  368MPD2    C2 5505   0.424   0.719  13.263 -0.1912  0.4182  0.4441
  368MPD2    C3 5506   0.532   0.632  13.293 -0.0389  0.0404 -0.1383
  368MPD2    C4 5507   0.497   0.501  13.324 -0.2568  0.6801 -0.4563
  368MPD2    C5 5508   0.360   0.472  13.334  0.4712 -0.1968  0.6422
  368MPD2     H 5509   0.451   0.822  13.242  0.5988  0.0264 -0.4976
  368MPD2    H1 5510   0.564   0.423  13.359 -0.6958 -0.2369 -1.6730
  368MPD2    H2 5511   0.163   0.529  13.285  0.4679 -1.2170 -1.0490
  368MPD2    H3 5512   0.326   0.379  13.378  0.9794 -0.9005 -0.4578
  368MPD2     N 5513   0.666   0.679  13.299 -1.1007 -1.2626  0.6378
  368MPD2    H5 5514   0.741   0.614  13.322 -1.0514 -2.4406 -2.8491
  368MPD2    N1 5515   0.182   0.772  13.217  1.0847 -0.3032 -0.5681
  368MPD2    H7 5516   0.086   0.742  13.227  0.6787  1.4964  0.8745
  369TMC3    C1 5517   0.070   0.968  13.129  0.0052 -0.3022  0.0344
  369TMC3    C2 5518   0.082   1.100  13.127  0.3995 -0.1758  0.3864
  369TMC3    C3 5519   4.691   1.173  13.163 -0.0047  0.4258  0.1624
  369TMC3    C4 5520   4.670   0.898  13.141 -0.0139  0.0782  0.0612
  369TMC3    C5 5521   4.563   0.978  13.151  0.1146 -0.3611 -0.5934
  369TMC3    C6 5522   4.568   1.110  13.169 -0.2830 -0.0767 -0.1367
  369TMC3     C 5523   0.189   0.896  13.157 -0.4336 -0.5237 -0.3030
  369TMC3     O 5524   0.293   0.957  13.127  0.3550  0.1974  1.0701
  369TMC3     H 5525   0.176   1.154  13.119  0.3660 -0.0638  0.7351
  369TMC3    H1 5526   4.669   0.789  13.135 -1.2417  0.0324  1.3409
  369TMC3    H2 5527   4.480   1.173  13.178 -0.5392 -0.2498 -1.4559
  369TMC3    C7 5528   4.431   0.918  13.131  1.0370  0.5754  0.5093
  369TMC3    C8 5529   4.692   1.315  13.116 -0.1240  0.1618 -0.1766
  369TMC3    O1 5530   4.429   0.799  13.151 -0.1389  0.1576 -0.5664
  369TMC3    O2 5531   4.595   1.347  13.045  0.2448  0.3491 -0.4325
  370TMC3    C1 5532   3.967   1.714  16.535 -0.0867  0.0531 -0.1780
  370TMC3    C2 5533   3.883   1.658  16.625  0.0874 -0.2402 -0.6473
  370TMC3    C3 5534   3.790   1.571  16.574  0.5080  0.6390 -0.1324
  370TMC3    C4 5535   3.968   1.692  16.402  1.0528  0.9882  0.3405
  370TMC3    C5 5536   3.868   1.610  16.354  0.3339 -0.4785 -0.3578
  370TMC3    C6 5537   3.781   1.552  16.437  0.2014  0.3102 -0.4180
  370TMC3     C 5538   4.085   1.782  16.591 -0.6280 -0.2672 -0.2693
  370TMC3     O 5539   4.115   1.755  16.705 -0.1423  0.4460  0.0780
  370TMC3     H 5540   3.904   1.663  16.732  0.6521 -1.0792 -0.7118
  370TMC3    H1 5541   4.040   1.742  16.338  0.7684  1.3190  0.2797
  370TMC3    H2 5542   3.727   1.464  16.404 -0.3065  0.9416 -1.2441
  370TMC3    C7 5543   3.869   1.556  16.219  0.0177  0.3180  0.2541
  370TMC3    C8 5544   3.733   1.482  16.664  0.1692  0.4233 -0.1456
  370TMC3    O1 5545   3.767   1.576  16.152  0.2162 -0.5535  0.2021
  370TMC3    O2 5546   3.707   1.372  16.623 -0.2442 -0.2503 -0.3520
  371TMC3    C1 5547   0.316   4.483  15.642  0.5278  0.1890 -0.0163
  371TMC3    C2 5548   0.272   4.549  15.751  1.0516  0.4963  0.0495
  371TMC3    C3 5549   0.259   4.683  15.740  0.5055  0.4500 -0.1823
  371TMC3    C4 5550   0.359   4.551  15.533 -0.0047  0.1149  0.1727
  371TMC3    C5 5551   0.351   4.684  15.528 -0.4224  0.2733 -0.5858
  371TMC3    C6 5552   0.310   0.031  15.631  0.2325 -0.1866 -0.5526
  371TMC3     C 5553   0.344   4.342  15.655 -0.5447 -0.0130 -0.2723
  371TMC3     O 5554   0.410   4.292  15.569  0.0628  0.4990  0.0446
  371TMC3     H 5555   0.234   4.489  15.833 -2.3046 -0.3240 -2.1275
  371TMC3    H1 5556   0.384   4.493  15.445  3.0884  1.6013  0.0793
  371TMC3    H2 5557   0.297   0.138  15.641  2.4889  0.1837 -1.8371
  371TMC3    C7 5558   0.394   0.048  15.412 -0.4263 -0.2090  0.7021
  371TMC3    C8 5559   0.145   0.018  15.809  0.5145 -0.9144 -0.3729
  371TMC3    O1 5560   0.409   0.167  15.429  0.2648  0.5128  0.4996
  371TMC3    O2 5561   0.082   4.660  15.879 -0.2147  0.1983  0.2735
  372MPD2     C 5562   4.603   0.744  13.443 -0.0409  0.0688  0.1658
  372MPD2    C1 5563   4.711   0.711  13.530 -0.3470 -0.3563  0.6856
  372MPD2    C2 5564   0.012   0.580  13.561  0.4159 -0.5027  0.6276
  372MPD2    C3 5565   4.650   0.479  13.515  0.4330  0.0849  0.2956
  372MPD2    C4 5566   4.552   0.514  13.423 -0.0048 -0.6415 -0.2981
  372MPD2    C5 5567   4.522   0.642  13.397 -0.3304 -0.4271 -0.3653
  372MPD2     H 5568   0.096   0.559  13.627  1.6766  0.4741 -0.6715
  372MPD2    H1 5569   4.495   0.436  13.373  0.0096 -0.8250 -0.0268
  372MPD2    H2 5570   4.579   0.845  13.413 -2.0475 -0.3757  0.2417
  372MPD2    H3 5571   4.443   0.663  13.326 -0.9240  0.9902  0.7159
  372MPD2     N 5572   4.658   0.350  13.571  0.2569  0.3092  0.0435
  372MPD2    H5 5573   0.009   0.330  13.640 -1.6631 -0.5279  1.7816
  372MPD2    N1 5574   0.079   0.806  13.574 -0.4210  0.1937  0.5895
  372MPD2    H7 5575   0.159   0.768  13.624  0.5068  1.8897  0.3933
  373TMC3    C1 5576   4.607   0.124  13.604 -1.1572  0.4510 -0.1480
  373TMC3    C2 5577   4.626   0.140  13.743 -0.0412 -0.0421 -0.5241
  373TMC3    C3 5578   4.673   0.032  13.809 -0.5578 -0.5799 -0.1204
  373TMC3    C4 5579   4.641   0.011  13.540 -0.7869 -0.6483  0.3584
  373TMC3    C5 5580   4.692   4.629  13.612 -0.4099  0.7829 -0.0329
  373TMC3    C6 5581   0.004   4.642  13.744  0.0288  0.4069  0.4285
  373TMC3     C 5582   4.583   0.244  13.527  0.0727  0.5963  0.4761
  373TMC3     O 5583   4.516   0.233  13.426 -0.4233 -0.1987  0.2153
  373TMC3     H 5584   4.581   0.220  13.800  2.0827  1.9380 -1.6043
  373TMC3    H1 5585   4.624   4.719  13.434  1.1252  0.2581 -0.0564
  373TMC3    H2 5586   0.064   4.563  13.788 -1.1690  0.2241  1.7357
  373TMC3    C7 5587   0.013   4.516  13.532 -0.1200 -0.7046 -0.0857
  373TMC3    C8 5588   4.711   0.055  13.948 -0.7069  0.4236 -0.1015
  373TMC3    O1 5589   4.657   4.467  13.456 -0.3607  0.9068 -0.2020
  373TMC3    O2 5590   4.709   0.170  13.990 -0.1546 -0.2229 -0.6357
  374TMC3    C1 5591   0.700   0.933   9.855 -0.2762  0.0675 -0.1878
  374TMC3    C2 5592   0.753   1.056   9.893 -0.1851 -0.6406 -0.4015
  374TMC3    C3 5593   0.796   1.141   9.795  0.0360 -0.2103 -0.5991
  374TMC3    C4 5594   0.688   0.890   9.729  0.4799  0.0495  0.0184
  374TMC3    C5 5595   0.738   0.975   9.635 -0.4455  0.0206 -0.2231
  374TMC3    C6 5596   0.792   1.102   9.663  0.3990  0.0325 -0.3038
  374TMC3     C 5597   0.667   0.833   9.953 -0.5766  0.6079 -0.0230
  374TMC3     O 5598   0.684   0.717   9.929 -0.6309  0.4822  0.6113
  374TMC3     H 5599   0.762   1.086   9.997  1.9218  2.8141 -1.5746
  374TMC3    H1 5600   0.638   0.797   9.702  2.4452 -0.7420 -0.8822
  374TMC3    H2 5601   0.835   1.163   9.585  0.9026  1.7080  1.2839
  374TMC3    C7 5602   0.710   0.956   9.494 -0.0807  0.2761  0.8075
  374TMC3    C8 5603   0.852   1.271   9.837 -0.3884  0.0797  0.2431
  374TMC3    O1 5604   0.698   1.054   9.422  0.4403 -0.2593  0.1865
  374TMC3    O2 5605   0.858   1.349   9.742 -0.1108 -0.6585  0.2199
  375MPD2     C 5606   0.668   1.283  17.198  0.0868  0.0882  0.7021
  375MPD2    C1 5607   0.618   1.403  17.143  0.0453 -0.3473  0.3274
  375MPD2    C2 5608   0.691   1.451  17.036  0.1756  0.0095  0.7844
  375MPD2    C3 5609   0.802   1.389  16.986 -0.1158  0.1419 -0.2266
  375MPD2    C4 5610   0.847   1.270  17.044  0.0066 -0.3375  0.6048
  375MPD2    C5 5611   0.783   1.222  17.153 -0.6163 -0.2169 -0.6414
  375MPD2     H 5612   0.661   1.543  16.987  1.0454 -0.7714 -1.2105
  375MPD2    H1 5613   0.937   1.220  17.012  0.3554 -0.0391  1.1091
  375MPD2    H2 5614   0.625   1.245  17.289 -0.3808 -0.8630  0.0833
  375MPD2    H3 5615   0.821   1.136  17.206  0.4282  0.6673  0.0258
  375MPD2     N 5616   0.880   1.439  16.877 -0.3635 -0.4086  0.1897
  375MPD2    H5 5617   0.956   1.379  16.847  0.5062  0.7187  0.1018
  375MPD2    N1 5618   0.509   1.478  17.194  0.6246 -0.3470  0.2259
  375MPD2    H7 5619   0.494   1.571  17.156 -0.2417 -0.0438  1.3121
  376TMC3    C1 5620   0.978   1.576  16.721  0.1929 -0.0377 -0.5585
  376TMC3    C2 5621   1.108   1.548  16.758  0.0476  0.1151 -0.1976
  376TMC3    C3 5622   1.210   1.611  16.694 -0.0480  0.0399  0.8794
  376TMC3    C4 5623   0.952   1.671  16.627 -0.6619 -0.1363 -0.0548
  376TMC3    C5 5624   1.058   1.746  16.578  0.5894  0.0038 -0.1751
  376TMC3    C6 5625   1.186   1.715  16.615  0.5743  0.2083 -0.3394
  376TMC3     C 5626   0.876   1.564  16.825 -0.2005  0.5637 -0.0633
  376TMC3     O 5627   0.799   1.654  16.842  0.1827 -0.5559  0.1243
  376TMC3     H 5628   1.136   1.476  16.834 -0.0158 -0.1913 -0.4638
  376TMC3    H1 5629   0.848   1.686  16.601  0.3831  3.2048 -2.2826
  376TMC3    H2 5630   1.254   1.778  16.559 -0.8611  2.2629  0.2565
  376TMC3    C7 5631   1.027   1.861  16.499  0.1119 -0.4420  0.2215
  376TMC3    C8 5632   1.324   1.537  16.641 -0.7729 -0.0795  0.1889
  376TMC3    O1 5633   1.102   1.954  16.502  0.0534 -0.3111  0.7473
  376TMC3    O2 5634   1.403   1.612  16.581 -0.4430  0.2050  0.5713
  377MPD2     C 5635   3.104   1.041  12.097  0.0968 -0.2849 -0.7286
  377MPD2    C1 5636   3.192   1.053  12.204 -0.5845  0.3562 -0.4901
  377MPD2    C2 5637   3.141   1.040  12.330 -0.1506  0.8071  0.0089
  377MPD2    C3 5638   3.010   1.007  12.356  0.2810  0.0219 -0.7857
  377MPD2    C4 5639   2.920   1.005  12.247  0.4719  0.0632  0.6461
  377MPD2    C5 5640   2.962   1.032  12.118  0.3580 -0.0788  0.3070
  377MPD2     H 5641   3.202   1.057  12.418 -0.4497 -4.2097  1.1731
  377MPD2    H1 5642   2.814   0.993  12.266 -0.2315  2.1787 -2.0047
  377MPD2    H2 5643   3.132   1.052  11.992 -0.4923  0.5010 -0.7985
  377MPD2    H3 5644   2.896   1.022  12.033  0.1022  1.7614  0.2830
  377MPD2     N 5645   2.949   1.002  12.485  0.1800 -0.3470  0.3001
  377MPD2    H5 5646   2.848   0.997  12.486  0.1882 -1.4639 -2.7538
  377MPD2    N1 5647   3.325   1.088  12.167 -0.2266 -0.2680  0.2893
  377MPD2    H7 5648   3.347   1.068  12.070 -2.1642 -0.5999 -0.0615
  378TMC3    C1 5649   3.688   1.200  12.020 -0.8259 -0.7996 -0.1462
  378TMC3    C2 5650   3.562   1.184  12.068  0.2023 -0.2237  0.7927
  378TMC3    C3 5651   3.547   1.154  12.197  0.4939  0.5631  0.3424
  378TMC3    C4 5652   3.801   1.211  12.103  0.2495 -0.2724  0.1380
  378TMC3    C5 5653   3.774   1.204  12.236 -0.1556  0.1001  0.6743
  378TMC3    C6 5654   3.652   1.169  12.284 -0.5288  0.0732  0.1452
  378TMC3     C 5655   3.699   1.213  11.876 -0.7838  0.5484  0.0621
  378TMC3     O 5656   3.604   1.260  11.823  0.8096  0.3388 -0.0409
  378TMC3     H 5657   3.479   1.176  11.999  2.0093  0.2156 -1.4428
  378TMC3    H1 5658   3.893   1.247  12.061 -0.0239  0.0077 -0.2229
  378TMC3    H2 5659   3.644   1.178  12.392  0.8835 -0.2331  0.2749
  378TMC3    C7 5660   3.878   1.216  12.330 -0.2703  0.4359  0.6080
  378TMC3    C8 5661   3.422   1.124  12.259  0.0447  0.0067  0.0143
  378TMC3    O1 5662   3.843   1.241  12.443  0.1601 -0.1984  0.2724
  378TMC3    O2 5663   3.413   1.141  12.381  0.1835 -0.1006  0.1936
  379MPD2     C 5664   3.993   4.209  16.431 -0.5060 -0.3390  0.3908
  379MPD2    C1 5665   4.064   4.146  16.332 -0.3663 -0.5969 -0.3299
  379MPD2    C2 5666   4.151   4.044  16.365  0.6279  0.7116 -0.1395
  379MPD2    C3 5667   4.168   4.004  16.498 -0.1752 -1.3710  0.3540
  379MPD2    C4 5668   4.102   4.077  16.601  0.0059  0.0280  0.3695
  379MPD2    C5 5669   4.001   4.170  16.561  0.2766 -0.2157 -0.0781
  379MPD2     H 5670   4.214   3.994  16.292  1.0977 -2.8846  2.7506
  379MPD2    H1 5671   4.115   4.045  16.703 -1.4229  0.0811  0.5663
  379MPD2    H2 5672   3.921   4.287  16.409 -0.3928  0.0385  1.3670
  379MPD2    H3 5673   3.952   4.227  16.639 -1.7556 -2.5639  0.3798
  379MPD2     N 5674   4.251   3.900  16.541 -0.6830 -0.4516  0.0290
  379MPD2    H5 5675   4.248   3.879  16.640  1.8341  0.4720  0.3192
  379MPD2    N1 5676   4.064   4.200  16.206  0.1313  0.6239  0.3776
  379MPD2    H7 5677   4.017   4.290  16.205 -1.2157 -0.1061 -1.3959
  380TMC3    C1 5678   4.121   4.239  15.986 -0.4970 -0.8398  0.2792
  380TMC3    C2 5679   4.242   4.268  15.929 -0.2735 -0.3351 -0.0317
  380TMC3    C3 5680   4.276   4.394  15.905  0.3982 -0.2484  0.3394
  380TMC3    C4 5681   4.020   4.334  16.008  0.3336 -0.2321 -0.4262
  380TMC3    C5 5682   4.060   4.463  15.978  0.3525 -0.1252 -0.1875
  380TMC3    C6 5683   4.183   4.491  15.936 -0.0716 -0.5468 -0.0013
  380TMC3     C 5684   4.128   4.152  16.094  0.2344  0.1843  0.9451
  380TMC3     O 5685   4.186   4.043  16.086 -0.2068  0.6008  0.3307
  380TMC3     H 5686   4.305   4.183  15.903  0.4247  1.3487 -3.8235
  380TMC3    H1 5687   3.921   4.307  16.041  0.7270  0.5329  1.3930
  380TMC3    H2 5688   4.212   4.595  15.936 -1.6206 -0.1222  3.5881
  380TMC3    C7 5689   3.971   4.534  15.900 -0.2125 -0.2926  0.4096
  380TMC3    C8 5690   4.373   4.420  15.801 -0.0161  0.0140  0.0497
  380TMC3    O1 5691   3.970   4.657  15.908 -0.0510 -0.2974 -0.0844
  380TMC3    O2 5692   4.354   4.522  15.736 -0.0568 -0.2779 -0.3089
  381TMC3    C1 5693   3.752   0.944  16.315  0.2863 -0.6461 -0.1895
  381TMC3    C2 5694   3.823   1.061  16.326  0.0617  0.3239 -0.7535
  381TMC3    C3 5695   3.842   1.103  16.453  0.2544  0.2593  0.5455
  381TMC3    C4 5696   3.705   0.874  16.426 -0.0379  0.3701  0.3542
  381TMC3    C5 5697   3.736   0.918  16.553 -0.3217  0.7403 -0.0099
  381TMC3    C6 5698   3.792   1.040  16.566 -0.2161 -1.0383  0.4315
  381TMC3     C 5699   3.790   0.850  16.212 -0.3252 -0.3248 -0.5834
  381TMC3     O 5700   3.801   0.730  16.239 -0.2776 -0.3151  0.3948
  381TMC3     H 5701   3.857   1.122  16.244 -3.1080  1.9575 -0.8719
  381TMC3    H1 5702   3.660   0.776  16.416 -0.7277  0.7732 -0.5110
  381TMC3    H2 5703   3.811   1.079  16.666 -1.4763 -1.2237  0.7419
  381TMC3    C7 5704   3.722   0.824  16.660  0.7490  0.8602 -0.0778
  381TMC3    C8 5705   3.953   1.193  16.479  0.4001  0.0574  0.0330
  381TMC3    O1 5706   3.748   0.707  16.639  0.7112 -0.3158  0.1526
  381TMC3    O2 5707   4.002   1.227  16.372 -0.2550  0.2092 -0.5754
  382MPD2     C 5708   3.090   3.044  16.773  0.0297  0.3651  0.3551
  382MPD2    C1 5709   3.131   3.053  16.905 -0.6941 -0.0266  0.4027
  382MPD2    C2 5710   3.133   2.943  16.990  0.0456 -0.8351  0.0470
  382MPD2    C3 5711   3.075   2.831  16.940  0.1951  0.2660  0.5979
  382MPD2    C4 5712   3.028   2.827  16.810  0.1953 -0.4164 -0.2918
  382MPD2    C5 5713   3.043   2.929  16.726 -0.3651  0.4482  0.1964
  382MPD2     H 5714   3.178   2.958  17.087  0.6450 -0.9248 -0.2219
  382MPD2    H1 5715   2.987   2.737  16.766  0.0925 -0.4857 -0.0518
  382MPD2    H2 5716   3.107   3.129  16.707  0.8191  1.9929  2.6150
  382MPD2    H3 5717   3.022   2.923  16.620 -0.1504 -0.6738  0.2123
  382MPD2     N 5718   3.064   2.714  17.021  0.2198  0.1339 -0.2770
  382MPD2    H5 5719   3.011   2.635  16.986 -0.9232  0.8795 -0.2437
  382MPD2    N1 5720   3.160   3.176  16.971  0.9293 -0.2730  0.3496
  382MPD2    H7 5721   3.191   3.170  17.067  0.9306 -1.4180  0.2724
  383TMC3    C1 5722   3.060   2.572  17.215  0.1049  0.0478 -0.0516
  383TMC3    C2 5723   2.934   2.532  17.183  0.9188 -0.2707 -0.1815
  383TMC3    C3 5724   2.890   2.427  17.257 -0.4133 -0.9868 -0.7806
  383TMC3    C4 5725   3.118   2.527  17.327 -0.2272  0.2933 -0.1408
  383TMC3    C5 5726   3.073   2.415  17.389 -0.2026 -0.7057 -0.7162
  383TMC3    C6 5727   2.951   2.362  17.362 -0.5372  0.5808  0.2137
  383TMC3     C 5728   3.113   2.691  17.155  0.2544  0.1778  0.7018
  383TMC3     O 5729   3.193   2.759  17.222 -0.3254 -0.6351 -0.2380
  383TMC3     H 5730   2.874   2.581  17.107  1.3145 -0.3138 -0.5186
  383TMC3    H1 5731   3.211   2.575  17.354 -0.2594  1.7252 -2.6590
  383TMC3    H2 5732   2.898   2.290  17.423  0.1250 -0.7972 -0.8511
  383TMC3    C7 5733   3.142   2.365  17.505  0.1961  0.2820  0.0316
  383TMC3    C8 5734   2.748   2.401  17.226  0.1398 -0.6516 -0.3200
  383TMC3    O1 5735   3.078   2.314  17.596  0.0884 -0.2484  0.9894
  383TMC3    O2 5736   2.714   2.418  17.108 -0.2651  0.1778  0.1819
  384MPD2     C 5737   4.671   3.373  12.176 -0.0378 -0.2434 -0.3246
  384MPD2    C1 5738   4.608   3.367  12.293 -0.1794 -0.2168 -0.5511
  384MPD2    C2 5739   4.521   3.266  12.318  0.1920 -0.3810 -0.3335
  384MPD2    C3 5740   4.500   3.166  12.229  0.2389 -0.2181 -0.6811
  384MPD2    C4 5741   4.569   3.170  12.112  0.2818 -0.9326 -0.7116
  384MPD2    C5 5742   4.652   3.278  12.084  0.5082  0.3274  0.3473
  384MPD2     H 5743   4.475   3.262  12.416 -3.5713 -0.7028 -2.1150
  384MPD2    H1 5744   4.564   3.087  12.043  0.2314 -2.1937  0.8245
  384MPD2    H2 5745   0.025   3.448  12.154  0.8047 -0.1369  2.8435
  384MPD2    H3 5746   4.711   3.277  11.992  1.1053 -0.0905  0.7347
  384MPD2     N 5747   4.416   3.055  12.246 -0.5080 -0.1754 -0.0658
  384MPD2    H5 5748   4.410   2.986  12.172  1.0381 -0.7410  0.3246
  384MPD2    N1 5749   4.630   3.460  12.399 -0.1918  0.3451 -0.4801
  384MPD2    H7 5750   4.580   3.433  12.484  0.1227 -0.5728 -0.5906
  385TMC3    C1 5751   4.262   2.914  12.368 -0.3157 -0.7529  0.3334
  385TMC3    C2 5752   4.167   2.909  12.267  0.3975 -0.0587  0.0598
  385TMC3    C3 5753   4.039   2.859  12.304  0.1986  0.3503  0.1686
  385TMC3    C4 5754   4.230   2.894  12.502 -0.1418 -0.4000  0.4471
  385TMC3    C5 5755   4.106   2.856  12.533  0.0483  0.5337 -0.4176
  385TMC3    C6 5756   4.008   2.831  12.439 -0.6384  0.9985 -0.2061
  385TMC3     C 5757   4.329   3.040  12.353 -0.0765  0.1712  0.1413
  385TMC3     O 5758   4.323   3.108  12.456  0.3261 -0.1258  0.4890
  385TMC3     H 5759   4.192   2.926  12.162 -1.8431  0.9930 -0.3023
  385TMC3    H1 5760   4.306   2.887  12.580  1.7121  2.0001 -1.1407
  385TMC3    H2 5761   3.908   2.825  12.481 -0.2824  3.1486  0.9315
  385TMC3    C7 5762   4.056   2.941  12.637 -0.1357 -0.2507 -0.8465
  385TMC3    C8 5763   3.928   2.847  12.212 -0.5213 -0.2008 -0.5775
  385TMC3    O1 5764   3.960   2.908  12.700  0.2611 -0.1253  0.7450
  385TMC3    O2 5765   3.815   2.811  12.247 -0.3076  0.1697  0.5515
  386TMC3    C1 5766   0.389   1.147  11.901 -0.0664  0.3413 -0.5756
  386TMC3    C2 5767   0.365   1.092  11.781 -0.8028 -0.0973 -0.3803
  386TMC3    C3 5768   0.252   1.129  11.710 -0.2597  0.2017  0.2641
  386TMC3    C4 5769   0.303   1.241  11.966  0.0060 -0.0880 -0.5557
  386TMC3    C5 5770   0.193   1.276  11.889  0.1388  0.0868 -0.6124
  386TMC3    C6 5771   0.166   1.218  11.764 -0.5214  0.5650  0.4202
  386TMC3     C 5772   0.512   1.108  11.963  0.4392  0.4607 -0.7286
  386TMC3     O 5773   0.565   1.195  12.034  0.9124 -0.2765 -0.1744
  386TMC3     H 5774   0.436   1.020  11.741 -0.4666 -0.9667  1.8146
  386TMC3    H1 5775   0.327   1.280  12.064 -1.4141  0.4066 -0.3991
  386TMC3    H2 5776   0.068   1.218  11.717  0.7069 -1.4430 -2.0856
  386TMC3    C7 5777   0.103   1.374  11.952 -0.2025 -0.0852  0.2274
  386TMC3    C8 5778   0.240   1.090  11.568  0.3082 -0.1917 -0.5980
  386TMC3    O1 5779   0.150   1.422  12.058 -0.6985 -0.0956  0.3687
  386TMC3    O2 5780   0.292   0.988  11.537 -0.1895  0.3938 -0.2566
  387MPD2     C 5781   3.023   1.449  10.034 -0.2927  0.0467 -0.1955
  387MPD2    C1 5782   3.063   1.411   9.911 -0.1679 -0.1517 -0.4150
  387MPD2    C2 5783   3.107   1.288   9.893  0.4199 -0.1971  0.4174
  387MPD2    C3 5784   3.109   1.196   9.991  0.0362  0.2228  0.0019
  387MPD2    C4 5785   3.067   1.227  10.115 -1.2285  0.5177 -0.1170
  387MPD2    C5 5786   3.021   1.354  10.132 -0.2205 -0.3598 -0.5278
  387MPD2     H 5787   3.147   1.258   9.796  1.2957  1.6104  0.2122
  387MPD2    H1 5788   3.074   1.168  10.205  0.2188  1.6436  0.4966
  387MPD2    H2 5789   2.993   1.551  10.056 -0.3861 -0.2437  1.0271
  387MPD2    H3 5790   2.979   1.384  10.226 -2.2462 -0.2835 -1.4638
  387MPD2     N 5791   3.160   1.069   9.964  0.1943  0.5859  0.7480
  387MPD2    H5 5792   3.213   1.063   9.878 -2.2300 -1.3511 -0.6276
  387MPD2    N1 5793   3.064   1.498   9.801  0.2873 -0.0667  1.1401
  387MPD2    H7 5794   3.110   1.467   9.716 -1.9430  0.3365 -0.2055
  388TMC3    C1 5795   3.008   1.669   9.651 -0.0010 -0.3200 -0.5651
  388TMC3    C2 5796   2.898   1.745   9.619 -0.5095 -0.4116 -0.5839
  388TMC3    C3 5797   2.855   1.733   9.485  0.6115  0.7265 -0.4485
  388TMC3    C4 5798   3.081   1.594   9.555  0.8753 -0.1978  0.1461
  388TMC3    C5 5799   3.022   1.582   9.428 -0.6544 -0.6810  0.6400
  388TMC3    C6 5800   2.916   1.656   9.393  0.1302  0.1883  0.0814
  388TMC3     C 5801   3.007   1.621   9.788 -0.7455  0.0282 -1.0058
  388TMC3     O 5802   2.943   1.686   9.867 -0.3713  0.1509  0.4402
  388TMC3     H 5803   2.845   1.803   9.693  1.0583 -1.7475  1.5900
  388TMC3    H1 5804   3.169   1.535   9.576  0.7764 -0.7601 -1.0184
  388TMC3    H2 5805   2.872   1.638   9.295 -1.7569  1.6214  0.6573
  388TMC3    C7 5806   3.078   1.476   9.344 -0.4532  0.0242  0.3743
  388TMC3    C8 5807   2.750   1.821   9.440  0.3715  0.3989 -0.0085
  388TMC3    O1 5808   3.156   1.500   9.257  0.0678 -0.2910 -0.7974
  388TMC3    O2 5809   2.696   1.874   9.534  0.5177  0.2356  0.5976
  389MPD2     C 5810   2.303   4.719  11.278  0.2339  0.2169  0.3541
  389MPD2    C1 5811   2.252   4.597  11.239  0.0758  0.4177  0.1476
  389MPD2    C2 5812   2.182   4.516  11.329 -0.0885 -0.1733  0.4847
  389MPD2    C3 5813   2.162   4.564  11.458  1.0961  0.3111  0.2184
  389MPD2    C4 5814   2.221   4.681  11.496  0.4821 -0.3077 -0.0523
  389MPD2    C5 5815   2.290   0.040  11.407  0.3622  0.5470 -0.5208
  389MPD2     H 5816   2.163   4.414  11.298  1.3921 -0.2134 -0.2826
  389MPD2    H1 5817   2.222   4.712  11.600 -1.0138  0.1203 -0.1714
  389MPD2    H2 5818   2.352   0.064  11.207  0.1201  0.6755  0.6926
  389MPD2    H3 5819   2.334   0.132  11.443  0.7382  0.2718 -0.2794
  389MPD2     N 5820   2.083   4.495  11.555 -0.3930 -0.9482 -0.7306
  389MPD2    H5 5821   2.082   4.549  11.641 -0.5544 -0.2997 -1.1365
  389MPD2    N1 5822   2.265   4.566  11.102 -0.7126  0.0550  0.5821
  389MPD2    H7 5823   2.302   4.644  11.049 -2.0507  0.1789 -0.1758
  390TMC3    C1 5824   1.890   4.376  11.618 -0.1654 -0.2662  0.0849
  390TMC3    C2 5825   1.822   4.259  11.587  0.1204 -0.3449  0.4005
  390TMC3    C3 5826   1.684   4.262  11.589 -0.5670 -0.3473 -0.5712
  390TMC3    C4 5827   1.826   4.490  11.653  0.1839  0.6452 -0.4086
  390TMC3    C5 5828   1.691   4.486  11.679 -0.3627  0.5184  0.3228
  390TMC3    C6 5829   1.622   4.375  11.631 -0.5477  0.3113 -0.2041
  390TMC3     C 5830   1.994   4.398  11.522 -0.7119  0.6426 -0.2561
  390TMC3     O 5831   1.972   4.353  11.407  0.1102 -0.3739 -0.0533
  390TMC3     H 5832   1.878   4.173  11.552 -0.7812  0.7486 -3.7484
  390TMC3    H1 5833   1.890   4.576  11.669 -0.0835  0.6498  0.5991
  390TMC3    H2 5834   1.515   4.365  11.639 -0.3550 -0.3320  1.5134
  390TMC3    C7 5835   1.675   4.486  11.821  0.2688 -0.2336  0.3912
  390TMC3    C8 5836   1.635   4.147  11.648  0.9222  0.5824  0.4502
  390TMC3    O1 5837   1.754   4.546  11.896 -0.3742 -0.2551 -0.2641
  390TMC3    O2 5838   1.513   4.134  11.647 -0.5745 -0.0246 -0.5398
  391MPD2     C 5839   1.397   1.052  11.299 -0.0671  0.1918 -0.1926
  391MPD2    C1 5840   1.500   1.112  11.236 -0.3629 -0.0442  0.3690
  391MPD2    C2 5841   1.492   1.151  11.105 -0.5949  0.1003 -0.4163
  391MPD2    C3 5842   1.373   1.143  11.041  0.7396 -0.3447 -0.5191
  391MPD2    C4 5843   1.266   1.073  11.098  0.1491  0.2890  0.7555
  391MPD2    C5 5844   1.278   1.034  11.225  0.0713 -0.1957 -0.6539
  391MPD2     H 5845   1.573   1.205  11.058 -0.9484  2.3457  1.4997
  391MPD2    H1 5846   1.173   1.061  11.044  1.7559 -2.2475 -1.4440
  391MPD2    H2 5847   1.406   1.017  11.401 -0.0709  0.3497 -0.1372
  391MPD2    H3 5848   1.199   0.975  11.271  0.1829  0.0234 -0.1831
  391MPD2     N 5849   1.358   1.216  10.919  0.3306  0.1533 -0.0495
  391MPD2    H5 5850   1.436   1.272  10.887  0.3034 -0.6623 -1.5138
  391MPD2    N1 5851   1.622   1.122  11.304 -0.7344  0.6805  0.2945
  391MPD2    H7 5852   1.614   1.106  11.404  3.0435 -0.0057  0.4955
  392TMC3    C1 5853   1.249   1.341  10.751  0.0961  0.5399 -0.3907
  392TMC3    C2 5854   1.165   1.328  10.645  0.1841  0.1509 -0.2517
  392TMC3    C3 5855   1.204   1.390  10.532  0.6529 -0.0674 -0.1352
  392TMC3    C4 5856   1.360   1.428  10.750 -0.4228 -0.3757  0.3190
  392TMC3    C5 5857   1.374   1.506  10.638  0.2557 -0.1676 -0.6194
  392TMC3    C6 5858   1.297   1.483  10.525  0.0111  0.4128  0.2795
  392TMC3     C 5859   1.236   1.241  10.859  0.2352  0.1737  0.1145
  392TMC3     O 5860   1.118   1.202  10.872  0.0671 -0.3631 -0.0437
  392TMC3     H 5861   1.091   1.249  10.642 -1.2042  1.5465 -2.8830
  392TMC3    H1 5862   1.402   1.456  10.846  1.0703  0.9811 -0.7382
  392TMC3    H2 5863   1.335   1.523  10.431  0.7675  0.4356  0.5907
  392TMC3    C7 5864   1.478   1.610  10.658  0.3148 -0.3082  0.4249
  392TMC3    C8 5865   1.130   1.364  10.409 -0.5096  0.2251  0.2113
  392TMC3    O1 5866   1.567   1.593  10.738 -0.2641 -0.1394  0.3559
  392TMC3    O2 5867   1.085   1.251  10.392  0.5534 -0.2477  0.6128
  393TMC3    C1 5868   0.577   4.550  10.733 -0.4064  0.6818  0.2475
  393TMC3    C2 5869   0.449   4.597  10.758  0.2918  0.5020 -0.1585
  393TMC3    C3 5870   0.425   4.666  10.875  0.3815  0.4902 -0.2589
  393TMC3    C4 5871   0.665   4.539  10.834  0.0910  0.4139  0.4150
  393TMC3    C5 5872   0.629   4.595  10.954 -0.1040  0.0991  0.1986
  393TMC3    C6 5873   0.513   4.658  10.980  1.0145 -0.2492 -0.4083
  393TMC3     C 5874   0.584   4.465  10.609  0.1659  0.5426  0.0506
  393TMC3     O 5875   0.483   4.433  10.549 -0.2498 -0.3762  0.2014
  393TMC3     H 5876   0.383   4.617  10.675 -0.2078 -0.1034  0.0909
  393TMC3    H1 5877   0.756   4.481  10.820  0.4840  1.5178 -1.5721
  393TMC3    H2 5878   0.491   4.705  11.074  0.8043 -1.2496  0.0450
  393TMC3    C7 5879   0.724   4.561  11.063 -0.1832  0.7152 -0.1336
  393TMC3    C8 5880   0.300   0.016  10.886 -0.5710 -0.3200 -0.1019
  393TMC3    O1 5881   0.844   4.578  11.041 -0.3763 -0.4408  0.5013
  393TMC3    O2 5882   0.206   4.691  10.826 -0.6011  0.5067 -0.4099
  394TMC3    C1 5883   2.203   4.485  10.887  0.0315 -0.0130 -0.2187
  394TMC3    C2 5884   2.123   4.408  10.812 -0.4235 -0.1167 -0.6760
  394TMC3    C3 5885   2.150   4.389  10.677  0.4100 -0.2906  0.4719
  394TMC3    C4 5886   2.325   4.529  10.831 -0.6706  0.3015 -0.7635
  394TMC3    C5 5887   2.360   4.492  10.701 -0.6946 -0.4939  0.6005
  394TMC3    C6 5888   2.265   4.437  10.620 -0.3456  0.1316 -0.3589
  394TMC3     C 5889   2.187   4.466  11.036  0.4278  0.7673  0.6581
  394TMC3     O 5890   2.112   4.378  11.077  0.2303  0.2451 -0.1257
  394TMC3     H 5891   2.036   4.353  10.848  0.3761 -1.3487 -0.6295
  394TMC3    H1 5892   2.404   4.579  10.886 -0.9641  2.4774 -2.3388
  394TMC3    H2 5893   2.286   4.415  10.516  1.4539  2.5641 -0.4979
  394TMC3    C7 5894   2.471   4.563  10.638 -0.4345 -0.5232 -0.5921
  394TMC3    C8 5895   2.070   4.285  10.608  0.1334 -0.5073  0.0462
  394TMC3    O1 5896   2.575   4.567  10.703  0.7129 -0.0601 -0.0184
  394TMC3    O2 5897   2.126   4.215  10.528 -0.0670  0.5624 -0.0588
  395TMC3    C1 5898   1.695   1.521  14.737  0.2257  0.6539  0.1233
  395TMC3    C2 5899   1.572   1.580  14.745 -0.3878  0.5994  0.1840
  395TMC3    C3 5900   1.540   1.695  14.802  0.4824 -0.4858  0.3159
  395TMC3    C4 5901   1.804   1.599  14.763 -0.0411 -0.2325  0.3320
  395TMC3    C5 5902   1.768   1.727  14.795 -0.3786 -0.6110 -0.3319
  395TMC3    C6 5903   1.648   1.768  14.837 -0.0711 -0.0542 -0.5433
  395TMC3     C 5904   1.683   1.380  14.769 -0.2374  0.0969  0.3541
  395TMC3     O 5905   1.572   1.330  14.788  0.7870  0.3406  0.4324
  395TMC3     H 5906   1.496   1.524  14.690 -0.4011  0.6727  0.1274
  395TMC3    H1 5907   1.900   1.550  14.768  1.2998  2.1466 -1.9163
  395TMC3    H2 5908   1.646   1.858  14.897 -1.7921  0.8440 -1.9651
  395TMC3    C7 5909   1.881   1.819  14.807  0.4208  0.2281  0.3624
  395TMC3    C8 5910   1.434   1.683  14.906  0.1190  0.1316 -0.3157
  395TMC3    O1 5911   1.868   1.929  14.859  0.2610 -0.5684 -0.0522
  395TMC3    O2 5912   1.404   1.780  14.980  0.2710  0.0109  0.2735
  396MPD2     C 5913   1.484   2.690  16.773 -0.5850 -0.4851  0.9374
  396MPD2    C1 5914   1.562   2.774  16.843  0.1197 -0.4913  0.4012
  396MPD2    C2 5915   1.637   2.880  16.779  0.1226  0.7216  0.1024
  396MPD2    C3 5916   1.647   2.872  16.640 -0.0396 -0.0972  0.5953
  396MPD2    C4 5917   1.557   2.792  16.569  0.8058 -0.0782 -0.0432
  396MPD2    C5 5918   1.482   2.705  16.638  0.5481  0.1107 -0.5846
  396MPD2     H 5919   1.705   2.933  16.843 -0.2587  0.2518  0.9051
  396MPD2    H1 5920   1.543   2.819  16.465  0.9138 -0.4675 -0.1595
  396MPD2    H2 5921   1.426   2.612  16.820 -0.5310 -0.6690  0.6957
  396MPD2    H3 5922   1.414   2.637  16.588 -1.1888  2.0080 -0.7747
  396MPD2     N 5923   1.727   2.969  16.571  0.3971 -0.2717  0.0663
  396MPD2    H5 5924   1.769   3.041  16.627  0.1919 -0.4328  0.4302
  396MPD2    N1 5925   1.570   2.746  16.981 -0.4125 -0.1395  0.4294
  396MPD2    H7 5926   1.524   2.658  17.002 -2.2814  0.8812  0.6174
  397TMC3    C1 5927   1.662   2.745  17.196  0.0123 -0.2234 -0.1489
  397TMC3    C2 5928   1.790   2.700  17.184  0.1213  0.8945  0.2983
  397TMC3    C3 5929   1.813   2.564  17.160 -0.1307 -0.5952 -0.5953
  397TMC3    C4 5930   1.562   2.648  17.217 -0.3447  0.0328 -0.1082
  397TMC3    C5 5931   1.598   2.517  17.219  0.1282 -0.3865 -0.0012
  397TMC3    C6 5932   1.721   2.471  17.176 -0.9276  0.2741 -0.3220
  397TMC3     C 5933   1.633   2.823  17.079 -0.1870  0.3462  0.5032
  397TMC3     O 5934   1.689   2.931  17.069  0.0030  0.4762  0.2427
  397TMC3     H 5935   1.847   2.774  17.129 -3.0422  1.3230 -2.4507
  397TMC3    H1 5936   1.456   2.670  17.230 -0.3138 -0.0173  0.2417
  397TMC3    H2 5937   1.746   2.365  17.173  2.8017  1.1429 -0.4528
  397TMC3    C7 5938   1.519   2.417  17.279  0.0374  0.5312 -0.0669
  397TMC3    C8 5939   1.860   2.543  17.021  0.0794 -0.1354  0.3773
  397TMC3    O1 5940   1.429   2.461  17.348 -0.3581 -0.1306  0.4428
  397TMC3    O2 5941   1.795   2.458  16.961  0.1737  1.0647 -1.0241
  398MPD2     C 5942   4.171   3.304   0.069 -0.3247 -1.0163 -0.0683
  398MPD2    C1 5943   4.305   3.283   0.053  0.3351  0.0994 -0.4580
  398MPD2    C2 5944   4.391   3.380   0.009  0.0869 -0.2013  0.0391
  398MPD2    C3 5945   4.345   3.509  17.658  0.1923  0.1022 -0.0858
  398MPD2    C4 5946   4.215   3.530  17.680  0.2384 -1.0359  0.8707
  398MPD2    C5 5947   4.128   3.431   0.040  1.0142 -0.5603  0.2750
  398MPD2     H 5948   4.496   3.358  17.685  0.0931 -0.8418  1.6779
  398MPD2    H1 5949   4.163   3.620  17.651  2.0695 -0.1698  0.2768
  398MPD2    H2 5950   4.107   3.228   0.112 -2.3080  0.4349 -0.4817
  398MPD2    H3 5951   4.024   3.456   0.055  1.1916  0.8240 -0.8077
  398MPD2     N 5952   4.438   3.600  17.606  0.5252  0.2664  0.7387
  398MPD2    H5 5953   4.533   3.575  17.584 -0.5057 -3.0776  0.1207
  398MPD2    N1 5954   4.360   3.157   0.091  0.2447 -1.0013 -0.1754
  398MPD2    H7 5955   4.461   3.146   0.080  0.3246 -0.4431 -0.0143
  399TMC3    C1 5956   4.371   2.920   0.121 -0.4186 -0.0829 -0.5543
  399TMC3    C2 5957   4.508   2.911   0.097  0.5291  0.3243 -0.5999
  399TMC3    C3 5958   4.575   2.789   0.099 -0.5049 -0.6213  0.4004
  399TMC3    C4 5959   4.308   2.808   0.159 -0.9064 -0.0603  0.0788
  399TMC3    C5 5960   4.376   2.689   0.169 -1.0505  0.0534  0.4347
  399TMC3    C6 5961   4.506   2.675   0.129  0.2193  0.0188 -0.0746
  399TMC3     C 5962   4.288   3.041   0.112  0.1851 -1.0171  0.5060
  399TMC3     O 5963   4.171   3.024   0.107  0.3826  0.0459  0.0666
  399TMC3     H 5964   4.559   2.996   0.054  0.0665  1.0324  0.2673
  399TMC3    H1 5965   4.204   2.810   0.190 -0.8388 -0.6993  0.3665
  399TMC3    H2 5966   4.553   2.581   0.154  1.3190  0.7726  0.6829
  399TMC3    C7 5967   4.312   2.589   0.251 -0.9969 -0.2601  0.1954
  399TMC3    C8 5968   4.712   2.787   0.051 -0.2925  0.8222  0.3156
  399TMC3    O1 5969   4.337   2.472   0.225 -0.3425 -0.2753  0.4947
  399TMC3    O2 5970   0.046   2.886   0.004 -0.1069 -0.1358 -0.0613
  400TMC3    C1 5971   2.603   2.113  16.992 -0.5219 -0.3300  0.6870
  400TMC3    C2 5972   2.489   2.040  16.978  0.0113  0.1982  0.5495
  400TMC3    C3 5973   2.397   2.067  16.879  0.1031  0.2634  1.0516
  400TMC3    C4 5974   2.626   2.222  16.910  0.6466  1.2327  0.0027
  400TMC3    C5 5975   2.521   2.253  16.826 -0.1279 -0.0199  0.1511
  400TMC3    C6 5976   2.416   2.178  16.807  0.7270  0.3212 -0.4450
  400TMC3     C 5977   2.715   2.063  17.069 -0.3768 -0.5133  0.0158
  400TMC3     O 5978   2.690   1.971  17.143 -0.4513  0.3014 -0.4651
  400TMC3     H 5979   2.489   1.945  17.030  0.4364 -1.0747 -1.7568
  400TMC3    H1 5980   2.719   2.277  16.901  0.9604  0.7717  0.4332
  400TMC3    H2 5981   2.350   2.200  16.725  0.5451 -0.5143 -0.5248
  400TMC3    C7 5982   2.517   2.384  16.773 -0.5508  0.5203 -0.1810
  400TMC3    C8 5983   2.295   1.976  16.849 -0.1158  0.5131  0.3039
  400TMC3    O1 5984   2.451   2.408  16.674  0.2722 -0.0205 -0.2148
  400TMC3    O2 5985   2.226   1.995  16.747  0.0918 -0.2167  0.0372
  401MPD2     C 5986   1.469   1.461   1.471 -0.2066  0.3408  0.2326
  401MPD2    C1 5987   1.595   1.409   1.506 -0.0177 -0.3637 -0.0848
  401MPD2    C2 5988   1.602   1.271   1.528 -0.0361  0.9288  0.1878
  401MPD2    C3 5989   1.491   1.188   1.521 -0.5530 -0.2317 -0.1252
  401MPD2    C4 5990   1.362   1.247   1.497  0.2702 -0.1036  0.8789
  401MPD2    C5 5991   1.354   1.384   1.486  0.8137  0.4895 -0.7395
  401MPD2     H 5992   1.701   1.229   1.544 -0.1010  0.3131 -1.0443
  401MPD2    H1 5993   1.267   1.195   1.501  0.3035 -0.3839 -1.7846
  401MPD2    H2 5994   1.456   1.566   1.451  0.4435  0.0364 -1.7074
  401MPD2    H3 5995   1.256   1.429   1.481  0.3813 -0.4308 -0.6821
  401MPD2     N 5996   1.515   1.044   1.535  0.0724  0.0393  0.5974
  401MPD2    H5 5997   1.611   1.018   1.556 -0.0187 -1.0708 -0.3478
  401MPD2    N1 5998   1.714   1.481   1.516 -0.2792  0.3095 -0.6021
  401MPD2    H7 5999   1.798   1.428   1.534  0.0130  0.5392 -1.2667
  402TMC3    C1 6000   1.503   0.814   1.511  0.7561 -0.7700  0.0902
  402TMC3    C2 6001   1.425   0.701   1.505 -0.6014  0.4818  0.2035
  402TMC3    C3 6002   1.500   0.585   1.504  0.5291  0.2141  0.0949
  402TMC3    C4 6003   1.638   0.813   1.496  0.3469  0.9399  0.4137
  402TMC3    C5 6004   1.698   0.692   1.489 -0.1729 -0.6332 -0.5684
  402TMC3    C6 6005   1.638   0.578   1.496 -0.0972 -0.4023  0.2884
  402TMC3     C 6006   1.431   0.941   1.501 -0.7059 -0.6583 -0.3535
  402TMC3     O 6007   1.312   0.940   1.475  0.5467 -0.7323  0.3537
  402TMC3     H 6008   1.317   0.712   1.499 -0.7229 -0.4588  0.6698
  402TMC3    H1 6009   1.693   0.904   1.473 -1.9781  2.1030 -0.5835
  402TMC3    H2 6010   1.695   0.486   1.495  0.9806  0.2650  0.7171
  402TMC3    C7 6011   1.836   0.710   1.453 -0.0118 -0.7645 -0.1622
  402TMC3    C8 6012   1.440   0.452   1.535 -0.4608  0.2316 -0.6092
  402TMC3    O1 6013   1.897   0.808   1.487 -0.6232  0.4426 -0.1614
  402TMC3    O2 6014   1.519   0.364   1.578 -0.2499 -0.0590 -0.4048
  403MPD2     C 6015   4.361   3.399  13.711  0.0194 -0.1709 -0.6040
  403MPD2    C1 6016   4.385   3.535  13.729  0.1175  0.5201 -0.0048
  403MPD2    C2 6017   4.518   3.575  13.770 -0.1750  0.4747 -0.7402
  403MPD2    C3 6018   4.615   3.481  13.792  0.2258  0.1381 -0.3014
  403MPD2    C4 6019   4.589   3.350  13.765 -0.3175  0.3278  0.1517
  403MPD2    C5 6020   4.464   3.309  13.735 -0.4637  0.1853 -0.5645
  403MPD2     H 6021   4.542   3.681  13.773  1.2592  0.2151 -3.2352
  403MPD2    H1 6022   4.665   3.273  13.760 -0.2952  0.2704  1.3316
  403MPD2    H2 6023   4.264   3.359  13.685 -0.3455 -0.9257  1.9576
  403MPD2    H3 6024   4.447   3.203  13.721  0.5311 -0.0753  0.1879
  403MPD2     N 6025   0.023   3.522  13.837 -0.5359  0.4452 -0.2690
  403MPD2    H5 6026   0.010   3.616  13.872  1.1312  1.2240 -1.7039
  403MPD2    N1 6027   4.282   3.623  13.703 -0.7066  0.4188  0.5491
  403MPD2    H7 6028   4.201   3.577  13.661 -1.5108  3.0164 -0.7240
  404TMC3    C1 6029   4.150   3.808  13.686 -0.4655  0.5535 -0.3544
  404TMC3    C2 6030   4.045   3.751  13.741 -0.0092  1.2457  0.0827
  404TMC3    C3 6031   3.941   3.704  13.659  0.2312 -0.1312  0.3986
  404TMC3    C4 6032   4.152   3.822  13.548 -0.2744 -0.4540 -0.1981
  404TMC3    C5 6033   4.047   3.775  13.472  0.2566  0.4270 -0.4487
  404TMC3    C6 6034   3.946   3.699  13.524 -0.9637  0.2347  0.3431
  404TMC3     C 6035   4.279   3.758  13.727  0.1543 -0.6873  0.6702
  404TMC3     O 6036   4.375   3.832  13.749 -0.7461 -0.3595 -0.2744
  404TMC3     H 6037   4.050   3.721  13.845 -0.9067 -0.2792 -0.3077
  404TMC3    H1 6038   4.246   3.849  13.501 -0.1732 -0.5336 -0.0412
  404TMC3    H2 6039   3.855   3.680  13.469 -2.6825  2.3248  2.4697
  404TMC3    C7 6040   4.043   3.808  13.335  0.1652 -0.0402  0.1455
  404TMC3    C8 6041   3.879   3.586  13.713 -0.8373  0.3259 -0.0440
  404TMC3    O1 6042   4.098   3.910  13.298  0.7955 -0.0922 -0.0797
  404TMC3    O2 6043   3.821   3.603  13.819 -0.0450 -0.3265 -0.0097
  405MPD2     C 6044   4.671   4.299  14.581 -0.1962  0.0589  0.2367
  405MPD2    C1 6045   4.710   4.177  14.522  0.0091 -0.8269 -0.1426
  405MPD2    C2 6046   4.670   4.147  14.394  0.5286 -0.3712 -0.4436
  405MPD2    C3 6047   4.580   4.239  14.329  0.0735 -1.1532 -0.1333
  405MPD2    C4 6048   4.525   4.343  14.398  0.0228  0.1106 -0.2434
  405MPD2    C5 6049   4.582   4.382  14.521 -0.0879 -0.3247  0.0262
  405MPD2     H 6050   4.698   4.058  14.339 -1.6758 -1.1906 -0.2530
  405MPD2    H1 6051   4.454   4.409  14.348 -1.2499  1.9684  4.0483
  405MPD2    H2 6052   4.704   4.331  14.680 -1.4132  0.0591  0.6366
  405MPD2    H3 6053   4.552   4.478  14.561  2.5646 -0.5093  2.4456
  405MPD2     N 6054   4.535   4.205  14.196  0.6006  0.0346 -0.0430
  405MPD2    H5 6055   4.558   4.110  14.168 -0.9828 -0.8134  1.5385
  405MPD2    N1 6056   0.071   4.096  14.610  0.4949  0.1051  1.0586
  405MPD2    H7 6057   0.086   4.138  14.701  0.3912  0.8882  0.7148
  406TMC3    C1 6058   4.156   4.195  13.969  0.3780  0.3603 -0.0278
  406TMC3    C2 6059   4.147   4.063  13.994 -0.4246  0.1666 -0.4275
  406TMC3    C3 6060   4.264   3.996  14.031  0.1906 -0.4488  0.3304
  406TMC3    C4 6061   4.267   4.268  13.986  0.6719  0.5645  0.2798
  406TMC3    C5 6062   4.380   4.196  14.018 -0.0485 -0.1796 -0.1463
  406TMC3    C6 6063   4.385   4.064  14.041 -0.2382 -0.2685  0.4142
  406TMC3     C 6064   4.050   4.270  14.019 -0.3414 -0.3396  0.0016
  406TMC3     O 6065   3.939   4.250  13.969 -0.0258 -0.3394  0.1953
  406TMC3     H 6066   4.059   4.002  13.974 -0.6912  0.4887 -0.2524
  406TMC3    H1 6067   4.271   4.374  13.965 -0.6579  0.4352 -0.5975
  406TMC3    H2 6068   4.480   4.012  14.044 -0.4542 -0.7085 -0.3902
  406TMC3    C7 6069   4.456   4.275  14.109  0.0092 -0.1632 -0.1683
  406TMC3    C8 6070   4.245   3.891  14.128 -0.2523  0.2737  0.1339
  406TMC3    O1 6071   4.432   4.395  14.109 -0.4605 -0.2557 -0.2961
  406TMC3    O2 6072   4.137   3.836  14.130  0.0671 -0.1709  0.3276
  407MPD2     C 6073   2.558   1.602   9.124  0.7933 -0.7500  0.4416
  407MPD2    C1 6074   2.587   1.498   9.208 -1.0262 -0.7761  0.2087
  407MPD2    C2 6075   2.548   1.501   9.341 -0.4054  0.5643  0.0450
  407MPD2    C3 6076   2.477   1.606   9.385  0.1625  0.0984 -0.0691
  407MPD2    C4 6077   2.434   1.702   9.290 -0.1935  0.7089  0.4544
  407MPD2    C5 6078   2.466   1.698   9.159  0.3540  0.0514 -0.5634
  407MPD2     H 6079   2.580   1.429   9.415 -2.3107 -1.6545 -1.3053
  407MPD2    H1 6080   2.361   1.777   9.318 -0.5698  0.4823  0.0835
  407MPD2    H2 6081   2.593   1.608   9.021  0.2336  2.5633  0.4646
  407MPD2    H3 6082   2.425   1.773   9.092 -0.2352 -3.0140 -3.6502
  407MPD2     N 6083   2.441   1.626   9.525 -0.0469  0.3757  0.1685
  407MPD2    H5 6084   2.395   1.715   9.544  1.7060  1.0425  1.3513
  407MPD2    N1 6085   2.666   1.395   9.167  0.1073 -0.1236  0.2837
  407MPD2    H7 6086   2.690   1.327   9.239  0.1978  0.2870  0.6400
  408TMC3    C1 6087   2.753   1.220   9.043  0.1616 -0.0682  0.1919
  408TMC3    C2 6088   2.869   1.192   8.977 -0.2566 -0.2299 -0.1762
  408TMC3    C3 6089   2.943   1.085   9.025  0.0524  0.4306  0.4299
  408TMC3    C4 6090   2.716   1.142   9.148 -0.0531  0.4280  0.3398
  408TMC3    C5 6091   2.791   1.044   9.197  0.7671 -0.7410  0.5168
  408TMC3    C6 6092   2.909   1.007   9.131 -0.9532 -0.8634 -0.4272
  408TMC3     C 6093   2.701   1.358   9.041  0.2393  0.5226  0.3191
  408TMC3     O 6094   2.700   1.418   8.937  0.4132 -0.3047  1.2207
  408TMC3     H 6095   2.898   1.255   8.895  0.2282 -0.3973 -0.1359
  408TMC3    H1 6096   2.622   1.166   9.196 -0.8253 -0.1156 -0.8847
  408TMC3    H2 6097   2.975   0.927   9.164  0.3775  0.4161  0.0308
  408TMC3    C7 6098   2.768   1.019   9.336 -0.6760  0.0264  0.0691
  408TMC3    C8 6099   3.062   1.053   8.956 -0.0792  0.1620  0.6153
  408TMC3    O1 6100   2.702   1.102   9.399 -0.4078  0.4120  0.1915
  408TMC3    O2 6101   3.105   0.935   8.952 -0.2911 -0.7082 -0.2921
  409MPD2     C 6102   1.649   1.633  16.901  0.1294 -0.6820  0.2881
  409MPD2    C1 6103   1.699   1.703  17.006 -0.6590  0.4005  0.7552
  409MPD2    C2 6104   1.751   1.827  16.997 -0.3762 -0.2447  0.4538
  409MPD2    C3 6105   1.773   1.883  16.870 -0.7059 -0.0660 -0.1360
  409MPD2    C4 6106   1.736   1.802  16.764 -0.2878 -0.6941  0.3395
  409MPD2    C5 6107   1.662   1.686  16.777 -0.6912  0.2509 -0.0331
  409MPD2     H 6108   1.774   1.876  17.091 -2.3597  0.9825  0.3128
  409MPD2    H1 6109   1.758   1.831  16.662  0.8344 -1.6059  0.3206
  409MPD2    H2 6110   1.596   1.539  16.912 -1.5450  0.5764  2.7171
  409MPD2    H3 6111   1.630   1.623  16.694  2.5054  0.3854 -1.3748
  409MPD2     N 6112   1.842   2.004  16.841 -0.2161 -0.4384  0.1922
  409MPD2    H5 6113   1.890   2.014  16.752  2.3147 -0.3593  1.5737
  409MPD2    N1 6114   1.698   1.658  17.138 -0.1939  0.5414 -0.4762
  409MPD2    H7 6115   1.740   1.721  17.206 -1.1982  1.0733 -0.3564
  410TMC3    C1 6116   1.944   2.202  16.881  0.8405 -1.0289 -0.4652
  410TMC3    C2 6117   2.030   2.249  16.979 -0.3364  0.1868 -0.3590
  410TMC3    C3 6118   2.126   2.343  16.941 -0.1189  0.4331  0.0778
  410TMC3    C4 6119   1.957   2.227  16.746  0.2094 -0.0496  0.2097
  410TMC3    C5 6120   2.065   2.308  16.710 -0.2253 -0.2178 -0.7961
  410TMC3    C6 6121   2.137   2.375  16.807  0.0929 -0.7279 -0.4856
  410TMC3     C 6122   1.846   2.109  16.933  0.5246 -0.0823  0.4312
  410TMC3     O 6123   1.799   2.119  17.048 -0.2156 -0.9097 -0.1568
  410TMC3     H 6124   2.006   2.227  17.083 -1.5100 -0.5228 -0.7812
  410TMC3    H1 6125   1.883   2.197  16.674 -3.5341  3.0786  2.7739
  410TMC3    H2 6126   2.221   2.435  16.772 -1.3045  2.4153  1.5278
  410TMC3    C7 6127   2.088   2.341  16.569 -0.4988 -0.6591 -0.4213
  410TMC3    C8 6128   2.236   2.382  17.024  0.0876  0.4688 -0.3817
  410TMC3    O1 6129   2.022   2.272  16.489 -0.0065  0.5960 -0.2255
  410TMC3    O2 6130   2.320   2.466  16.984  0.1169 -1.1517 -0.6042
  411MPD2     C 6131   2.440   2.467  14.573 -0.0132 -0.2655 -0.6206
  411MPD2    C1 6132   2.317   2.480  14.631  0.1445  0.9736 -0.3117
  411MPD2    C2 6133   2.227   2.374  14.614 -0.0332 -0.2870 -0.1431
  411MPD2    C3 6134   2.250   2.261  14.544 -0.4754 -0.4043  0.2439
  411MPD2    C4 6135   2.381   2.246  14.505 -0.0224  0.8527 -0.4376
  411MPD2    C5 6136   2.476   2.349  14.515  0.6996  0.1213 -0.3282
  411MPD2     H 6137   2.123   2.386  14.643 -0.0663 -0.1178 -0.3262
  411MPD2    H1 6138   2.422   2.160  14.453  1.2500  1.3970 -0.3256
  411MPD2    H2 6139   2.519   2.541  14.574  0.9220 -1.2707  0.0457
  411MPD2    H3 6140   2.576   2.316  14.491  0.4343 -0.9324 -0.0108
  411MPD2     N 6141   2.152   2.174  14.502  0.2988 -0.2952 -0.5237
  411MPD2    H5 6142   2.176   2.108  14.429  1.7251 -2.6703  2.0856
  411MPD2    N1 6143   2.280   2.603  14.684 -0.2495  0.0890 -0.6533
  411MPD2    H7 6144   2.344   2.682  14.685 -0.7270  0.4539  0.6098
  412TMC3    C1 6145   1.928   2.069  14.494  0.1887 -0.3701 -0.5431
  412TMC3    C2 6146   1.803   2.071  14.542 -0.5920  0.0709 -0.3072
  412TMC3    C3 6147   1.710   1.978  14.497  0.4567  0.1431 -0.4206
  412TMC3    C4 6148   1.960   1.964  14.414  0.3804  0.9193 -0.5900
  412TMC3    C5 6149   1.870   1.870  14.383  0.4115 -0.3548 -0.1122
  412TMC3    C6 6150   1.743   1.867  14.422  0.6855  0.5230  0.0074
  412TMC3     C 6151   2.025   2.160  14.558  0.0985  0.3849  0.3910
  412TMC3     O 6152   1.974   2.215  14.656  0.2151  0.1807 -0.5926
  412TMC3     H 6153   1.766   2.162  14.589  1.5502  1.2649 -0.9201
  412TMC3    H1 6154   2.059   1.957  14.371  1.2499  0.0194  1.5868
  412TMC3    H2 6155   1.683   1.783  14.388  0.1262  0.8246  0.2464
  412TMC3    C7 6156   1.915   1.751  14.315 -0.8809 -0.6067 -0.2464
  412TMC3    C8 6157   1.584   2.039  14.459 -0.5946 -0.3562 -0.7569
  412TMC3    O1 6158   1.888   1.646  14.366  0.3649  0.1711 -0.7547
  412TMC3    O2 6159   1.563   2.158  14.478 -0.4159 -0.3764  0.3526
  413MPD2     C 6160   3.977   1.413  15.436  0.5995 -0.7735  0.6595
  413MPD2    C1 6161   3.922   1.294  15.385  0.5088  0.0869  0.2308
  413MPD2    C2 6162   3.974   1.239  15.272 -0.3886  0.0867 -0.2688
  413MPD2    C3 6163   4.084   1.292  15.215 -0.3975 -0.5743 -0.2486
  413MPD2    C4 6164   4.141   1.404  15.263  0.1782  0.7029 -0.4943
  413MPD2    C5 6165   4.086   1.466  15.376  0.2631  0.6067 -0.0239
  413MPD2     H 6166   3.928   1.150  15.230  1.3961 -0.1967 -1.6307
  413MPD2    H1 6167   4.229   1.454  15.225  1.1674 -0.9425 -0.3826
  413MPD2    H2 6168   3.939   1.460  15.527 -1.6842 -0.6764 -0.3413
  413MPD2    H3 6169   4.126   1.558  15.418  1.8252 -0.7957  1.5493
  413MPD2     N 6170   4.142   1.217  15.106  0.0812  0.5374 -0.3887
  413MPD2    H5 6171   4.092   1.130  15.090  4.0065 -1.9372  0.7955
  413MPD2    N1 6172   3.805   1.235  15.442 -0.0864 -0.1340 -0.6478
  413MPD2    H7 6173   3.744   1.282  15.508 -2.5525 -0.5450 -2.6380
  414TMC3    C1 6174   4.298   1.139  14.954  0.3364 -0.0550 -0.4555
  414TMC3    C2 6175   4.365   1.050  15.033  0.0730 -0.0285 -0.6708
  414TMC3    C3 6176   4.441   0.958  14.966 -0.1043  0.4223  0.1836
  414TMC3    C4 6177   4.303   1.149  14.819 -0.1886  0.6899 -0.3199
  414TMC3    C5 6178   4.386   1.062  14.759 -0.2334  0.7450  0.2555
  414TMC3    C6 6179   4.453   0.965  14.824 -0.4355 -0.5065 -0.1321
  414TMC3     C 6180   4.245   1.250  15.020 -0.8126 -0.3979 -0.4420
  414TMC3     O 6181   4.304   1.352  14.991 -0.5642 -0.5384  0.0198
  414TMC3     H 6182   4.351   1.048  15.140 -1.1824 -0.3798 -0.8412
  414TMC3    H1 6183   4.270   1.239  14.767 -0.1464 -0.0002 -1.5484
  414TMC3    H2 6184   4.517   0.894  14.771 -1.3020 -1.6335  0.3208
  414TMC3    C7 6185   4.468   1.133  14.665 -0.5055  1.0261  0.1938
  414TMC3    C8 6186   4.532   0.867  15.032 -0.2958 -0.4397  0.1870
  414TMC3    O1 6187   4.415   1.226  14.600 -0.0564 -0.0736 -0.2728
  414TMC3    O2 6188   4.567   0.768  14.967  0.0410  0.5483 -0.3395
  415TMC3    C1 6189   4.350   3.808  11.070 -0.3322  0.3795  0.0292
  415TMC3    C2 6190   4.444   3.902  11.108 -0.4138 -0.7070  0.4815
  415TMC3    C3 6191   4.573   3.883  11.065 -0.8105  0.1584  0.3901
  415TMC3    C4 6192   4.389   3.697  10.998 -0.0571 -0.5503 -0.4780
  415TMC3    C5 6193   4.520   3.683  10.956  0.1188 -0.2098 -0.2951
  415TMC3    C6 6194   4.616   3.769  10.992 -0.1255 -0.4345  0.3091
  415TMC3     C 6195   4.213   3.814  11.113  0.1459 -0.6050 -0.3083
  415TMC3     O 6196   4.132   3.732  11.068  0.0672 -0.2133 -0.4912
  415TMC3     H 6197   4.419   3.991  11.166  0.6610 -0.8443  1.1341
  415TMC3    H1 6198   4.318   3.615  10.986  1.1259 -1.3359 -2.1552
  415TMC3    H2 6199   0.001   3.750  10.975 -0.1219  1.0490 -1.3121
  415TMC3    C7 6200   4.551   3.612  10.831  0.2370  0.0757  0.0221
  415TMC3    C8 6201   4.667   3.979  11.114 -0.1690  0.3231  0.6120
  415TMC3    O1 6202   4.668   3.615  10.794  0.4020  0.4412 -0.1571
  415TMC3    O2 6203   4.633   4.047  11.214  0.1303  0.1412 -0.4210
  416MPD2     C 6204   1.769   2.499  11.762 -0.1580  0.2088 -0.0056
  416MPD2    C1 6205   1.637   2.473  11.729  0.4733 -0.2013  0.1512
  416MPD2    C2 6206   1.616   2.371  11.630 -0.0575 -0.2754  0.3086
  416MPD2    C3 6207   1.720   2.294  11.584  0.8761 -0.5758 -0.7872
  416MPD2    C4 6208   1.849   2.323  11.629  0.3585 -0.0142  0.3041
  416MPD2    C5 6209   1.871   2.421  11.718 -0.6690  0.4725  0.2272
  416MPD2     H 6210   1.518   2.350  11.591  0.5661 -0.6393 -1.0621
  416MPD2    H1 6211   1.934   2.260  11.607  1.6373  1.6415  0.5396
  416MPD2    H2 6212   1.795   2.586  11.822 -0.9977  0.3131  0.2067
  416MPD2    H3 6213   1.968   2.441  11.761 -1.1009  1.0566  0.9484
  416MPD2     N 6214   1.704   2.181  11.492  0.3031  0.3008 -0.4120
  416MPD2    H5 6215   1.791   2.134  11.469 -0.6620 -2.9746  2.4790
  416MPD2    N1 6216   1.542   2.546  11.797 -0.1533 -0.1477 -0.8188
  416MPD2    H7 6217   1.579   2.609  11.867 -0.2847 -0.2828 -0.6238
  417TMC3    C1 6218   1.325   2.623  11.854 -0.3356  0.0531  0.0591
  417TMC3    C2 6219   1.386   2.729  11.919 -0.4034  0.2509 -0.8372
  417TMC3    C3 6220   1.306   2.830  11.963  0.4060 -0.0326 -0.0485
  417TMC3    C4 6221   1.190   2.617  11.822  0.4654  0.1397 -0.1381
  417TMC3    C5 6222   1.114   2.723  11.868  0.4094  0.6181  0.0798
  417TMC3    C6 6223   1.171   2.829  11.934  0.2027 -0.2832 -0.4493
  417TMC3     C 6224   1.406   2.534  11.773  0.0625 -0.3829  0.1641
  417TMC3     O 6225   1.358   2.479  11.674 -0.0765 -0.0781 -0.5932
  417TMC3     H 6226   1.484   2.716  11.963 -1.4391 -2.5072  0.6389
  417TMC3    H1 6227   1.160   2.541  11.751  0.9874 -0.1269 -0.0722
  417TMC3    H2 6228   1.107   2.907  11.974  2.4549  0.2889  1.9778
  417TMC3    C7 6229   0.995   2.752  11.792 -0.2808  0.5400  0.0961
  417TMC3    C8 6230   1.346   2.893  12.085  0.5429 -0.2311 -0.2895
  417TMC3    O1 6231   0.975   2.870  11.766  0.5066 -0.2861 -0.3979
  417TMC3    O2 6232   1.258   2.914  12.170  0.4450  0.2417 -0.2834
  418TMC3    C1 6233   0.015   3.815  17.447  0.4261  0.1662 -0.6833
  418TMC3    C2 6234   4.615   3.756  17.465 -0.4072  0.7220 -1.0076
  418TMC3    C3 6235   4.524   3.813  17.553 -0.1424  0.7515  0.7403
  418TMC3    C4 6236   0.041   3.929  17.515 -0.1944 -0.3436  0.0387
  418TMC3    C5 6237   4.676   3.978  17.614  0.0876 -0.2647 -0.7584
  418TMC3    C6 6238   4.549   3.921  17.628  0.1354 -0.0942  0.3097
  418TMC3     C 6239   0.123   3.762  17.364  0.4974  0.3168 -0.3229
  418TMC3     O 6240   0.193   3.847  17.311 -0.0549 -0.3841  0.2642
  418TMC3     H 6241   4.584   3.673  17.403 -1.4889  0.0016  0.4909
  418TMC3    H1 6242   0.142   3.963  17.495 -0.3569  1.0318  1.6296
  418TMC3    H2 6243   4.486   3.964   0.019  0.7702 -0.7238  1.1802
  418TMC3    C7 6244   0.008   4.015   0.058  0.2448  0.0981 -0.4368
  418TMC3    C8 6245   4.414   3.734  17.598  0.1054  0.4683 -0.0077
  418TMC3    O1 6246   4.661   3.991   0.156  0.1127  0.3104  0.2958
  418TMC3    O2 6247   4.315   3.802  17.616 -0.2610  0.4918  0.2619
  419MPD2     C 6248   2.611   2.044  12.794  0.5338 -0.1597  0.3333
  419MPD2    C1 6249   2.625   2.181  12.812  0.1474  0.4029  0.0123
  419MPD2    C2 6250   2.574   2.227  12.933  0.8084  0.2316  0.1526
  419MPD2    C3 6251   2.524   2.142  13.034  0.2404 -0.2372 -1.0527
  419MPD2    C4 6252   2.512   2.010  13.010 -0.3872 -0.1448 -0.5277
  419MPD2    C5 6253   2.550   1.962  12.885 -0.1684  0.3147 -0.3918
  419MPD2     H 6254   2.588   2.331  12.960 -0.6449  0.2302  0.8968
  419MPD2    H1 6255   2.465   1.934  13.072 -1.6125  1.0474  0.0182
  419MPD2    H2 6256   2.655   1.986  12.712 -1.9652  0.2318 -1.2736
  419MPD2    H3 6257   2.538   1.857  12.858 -4.2635  0.6225  0.3461
  419MPD2     N 6258   2.493   2.194  13.158 -0.4002  0.2967  0.1234
  419MPD2    H5 6259   2.477   2.295  13.157 -0.4401  0.2890  0.0020
  419MPD2    N1 6260   2.686   2.267  12.721 -0.1545  0.2606 -0.1740
  419MPD2    H7 6261   2.701   2.364  12.744  0.0693 -0.1505  1.4376
  420TMC3    C1 6262   2.463   2.197  13.396 -0.1911 -0.4694 -0.0750
  420TMC3    C2 6263   2.412   2.321  13.378  0.3228 -0.2656 -0.0835
  420TMC3    C3 6264   2.438   2.397  13.490  0.1254 -0.1643 -0.3365
  420TMC3    C4 6265   2.506   2.143  13.515  0.2845  0.0412  0.1624
  420TMC3    C5 6266   2.527   2.227  13.619 -0.0070 -0.5153 -0.6150
  420TMC3    C6 6267   2.498   2.358  13.606  0.2934  0.6769  0.0372
  420TMC3     C 6268   2.481   2.120  13.274 -0.3149  0.4771 -0.5463
  420TMC3     O 6269   2.519   2.004  13.289 -0.1576 -0.6398 -0.1950
  420TMC3     H 6270   2.358   2.354  13.291  0.7363  1.1709  0.2131
  420TMC3    H1 6271   2.548   2.042  13.514 -0.3298 -0.2071 -0.2812
  420TMC3    H2 6272   2.539   2.427  13.678  2.5246 -0.5475 -0.0412
  420TMC3    C7 6273   2.601   2.186  13.741 -0.0477 -0.1642 -1.3102
  420TMC3    C8 6274   2.421   2.540  13.467  0.0221  0.7902 -0.3997
  420TMC3    O1 6275   2.664   2.268  13.809  0.1045 -0.1134  0.3110
  420TMC3    O2 6276   2.311   2.561  13.410 -0.7865  0.2565  0.2620
  421TMC3    C1 6277   0.233   3.527  13.921  0.6117  0.2057 -0.8160
  421TMC3    C2 6278   0.230   3.663  13.944 -0.1292 -0.3188  0.7492
  421TMC3    C3 6279   0.339   3.726  14.001  0.4041  0.8046  0.4155
  421TMC3    C4 6280   0.349   3.459  13.945  0.8091 -0.6251  0.2165
  421TMC3    C5 6281   0.454   3.524  14.003  0.3643  0.3771 -0.6783
  421TMC3    C6 6282   0.455   3.654  14.031 -0.0127 -0.7596 -0.5643
  421TMC3     C 6283   0.135   3.440  13.849 -0.9645 -0.2058 -0.3685
  421TMC3     O 6284   0.162   3.326  13.813  0.0568  0.2285 -0.5885
  421TMC3     H 6285   0.139   3.719  13.928 -0.9948 -2.0246 -0.1779
  421TMC3    H1 6286   0.358   3.353  13.926 -0.8650 -0.8584  0.6927
  421TMC3    H2 6287   0.541   3.700  14.077  0.3508 -1.2585 -0.7496
  421TMC3    C7 6288   0.561   3.447  14.051  0.2335  0.1949 -0.5822
  421TMC3    C8 6289   0.309   3.850  14.072 -0.9239 -0.0111 -1.2039
  421TMC3    O1 6290   0.667   3.502  14.034 -0.2026  0.2974  0.4867
  421TMC3    O2 6291   0.199   3.902  14.064 -0.0346 -0.1197  0.1228
  422TMC3    C1 6292   2.088   0.314  13.032 -0.2606 -0.3770 -0.4400
  422TMC3    C2 6293   2.064   0.446  13.045 -0.3686  0.1723 -0.1185
  422TMC3    C3 6294   1.986   0.489  13.154 -0.8271  0.7372 -0.0741
  422TMC3    C4 6295   2.048   0.224  13.128  0.0146  0.1640  0.6351
  422TMC3    C5 6296   1.967   0.260  13.232  0.0274  0.6310  0.3317
  422TMC3    C6 6297   1.941   0.393  13.248 -0.8267 -0.2085  0.1369
  422TMC3     C 6298   2.115   0.262  12.897  0.1207 -1.0465 -0.4428
  422TMC3     O 6299   2.096   0.335  12.802  0.2749  0.2188  0.1186
  422TMC3     H 6300   2.105   0.512  12.970 -2.7299  1.7489 -0.0240
  422TMC3    H1 6301   2.066   0.118  13.113 -2.0488  0.1413 -1.6276
  422TMC3    H2 6302   1.890   0.419  13.340  1.4000  0.9160  1.0418
  422TMC3    C7 6303   1.887   0.159  13.294  0.3132  0.5453 -0.2800
  422TMC3    C8 6304   1.992   0.631  13.188 -0.1006  0.0382  0.3983
  422TMC3    O1 6305   1.937   0.048  13.305 -0.6026  0.3844 -0.4856
  422TMC3    O2 6306   2.074   0.696  13.125  0.2251 -0.2489  0.2362
  423MPD2     C 6307   3.528   1.883   0.586  0.2645  0.2200  0.5124
  423MPD2    C1 6308   3.485   1.766   0.651  0.2802 -0.2425  0.3549
  423MPD2    C2 6309   3.521   1.641   0.598 -0.3421  0.1465 -0.6213
  423MPD2    C3 6310   3.603   1.633   0.494 -0.5550  1.2614 -0.2893
  423MPD2    C4 6311   3.657   1.746   0.440  0.2155 -0.0472  0.6604
  423MPD2    C5 6312   3.619   1.873   0.483  0.0469  0.1358 -0.3758
  423MPD2     H 6313   3.470   1.553   0.636  1.4268  0.6888  2.9465
  423MPD2    H1 6314   3.738   1.738   0.367 -0.5956  3.2467 -0.6328
  423MPD2    H2 6315   3.497   1.981   0.620  0.9163  0.4412  0.4562
  423MPD2    H3 6316   3.659   1.961   0.435 -0.5748  0.5892 -0.0546
  423MPD2     N 6317   3.630   1.513   0.417 -0.2387  0.4088  0.6962
  423MPD2    H5 6318   3.684   1.533   0.334  3.5511  2.0728  3.5564
  423MPD2    N1 6319   3.401   1.772   0.764  0.2913  0.0871 -0.6706
  423MPD2    H7 6320   3.379   1.676   0.790 -1.1697  0.5886 -0.0699
  424TMC3    C1 6321   3.277   1.845   0.956  0.1212 -0.4965 -0.0122
  424TMC3    C2 6322   3.238   1.714   0.975 -0.0025 -0.3946 -0.4997
  424TMC3    C3 6323   3.133   1.683   1.050  0.7562  0.3237  0.1027
  424TMC3    C4 6324   3.203   1.949   1.002  0.5060  0.4577 -0.3868
  424TMC3    C5 6325   3.096   1.911   1.082  0.2514 -0.1093 -0.0641
  424TMC3    C6 6326   3.053   1.788   1.110  0.1213 -0.4208  0.8877
  424TMC3     C 6327   3.369   1.879   0.848  0.0555  0.3209  0.0448
  424TMC3     O 6328   3.416   1.992   0.847  0.5247  0.1102  0.2592
  424TMC3     H 6329   3.317   1.644   0.946  1.2682 -0.4206  3.0354
  424TMC3    H1 6330   3.239   2.051   0.999 -1.2965  1.1219  0.2974
  424TMC3    H2 6331   2.972   1.775   1.181  0.1693 -2.5289  0.5581
  424TMC3    C7 6332   3.001   2.016   1.107 -0.4926  0.1109 -0.3582
  424TMC3    C8 6333   3.147   1.554   1.119 -0.4509 -0.4331 -0.4970
  424TMC3    O1 6334   3.023   2.121   1.044  0.2240  0.1201  0.4789
  424TMC3    O2 6335   3.253   1.497   1.096  0.0230  0.7024 -0.4060
  425MPD2     C 6336   2.791   0.935  17.338  0.6392 -0.3159 -0.2672
  425MPD2    C1 6337   2.750   0.822  17.401  0.7080 -0.7743  0.1036
  425MPD2    C2 6338   2.637   0.831  17.475  0.6544 -0.3879  0.8547
  425MPD2    C3 6339   2.568   0.953  17.497  0.5061 -0.4978  0.3229
  425MPD2    C4 6340   2.607   1.067  17.427  0.1582 -0.3517 -0.2603
  425MPD2    C5 6341   2.722   1.054  17.353 -0.4360  0.7412 -0.6379
  425MPD2     H 6342   2.600   0.745  17.528  0.9186 -1.1257 -0.1469
  425MPD2    H1 6343   2.558   1.163  17.437  0.9387  0.2087 -1.7935
  425MPD2    H2 6344   2.882   0.933  17.279  0.8682  2.6950  0.0030
  425MPD2    H3 6345   2.768   1.140  17.306  1.2188  1.1879  1.7935
  425MPD2     N 6346   2.457   0.954  17.582 -0.7297  0.1376  0.1562
  425MPD2    H5 6347   2.448   0.876  17.647 -1.6155  0.0417 -0.0878
  425MPD2    N1 6348   2.823   0.695  17.397 -0.8140 -0.1092 -0.2715
  425MPD2    H7 6349   2.902   0.672  17.338 -1.8766  1.6076 -2.3611
  426TMC3    C1 6350   2.886   0.477  17.438  0.2696 -0.0205 -0.1335
  426TMC3    C2 6351   2.883   0.447  17.309 -0.1592  0.8936  0.4738
  426TMC3    C3 6352   2.915   0.321  17.265 -0.2924 -0.2962 -0.3148
  426TMC3    C4 6353   2.891   0.374  17.525  0.7708 -0.2684 -0.0524
  426TMC3    C5 6354   2.892   0.242  17.482 -0.2665  0.2537 -1.0034
  426TMC3    C6 6355   2.908   0.210  17.350 -0.4307 -0.4491  0.2266
  426TMC3     C 6356   2.798   0.585  17.480  0.1783  0.0154 -0.3765
  426TMC3     O 6357   2.744   0.579  17.590  0.7301 -0.0315 -0.3222
  426TMC3     H 6358   2.876   0.527  17.237 -1.1282  1.7867  1.5497
  426TMC3    H1 6359   2.880   0.406  17.629  0.4135 -0.0851 -0.1454
  426TMC3    H2 6360   2.911   0.108  17.312 -0.9766 -0.3510 -0.0732
  426TMC3    C7 6361   2.866   0.135  17.572 -0.7983 -0.5689 -0.2407
  426TMC3    C8 6362   2.882   0.293  17.126  0.7508  0.2998 -0.8604
  426TMC3    O1 6363   2.830   0.030  17.516  0.2296  0.6912 -0.4279
  426TMC3    O2 6364   2.948   0.204  17.080 -0.3916 -0.4806 -0.1824
  427MPD2     C 6365   0.841   1.952  15.082  0.6424  0.5673  0.6044
  427MPD2    C1 6366   0.914   2.043  15.153 -0.9307 -0.5940  0.0224
  427MPD2    C2 6367   0.891   2.179  15.141  0.5401  0.2066 -0.1755
  427MPD2    C3 6368   0.775   2.222  15.079 -0.0633 -0.5051 -0.3194
  427MPD2    C4 6369   0.691   2.129  15.020 -0.2040 -0.4637 -0.3320
  427MPD2    C5 6370   0.724   1.994  15.016  0.4398 -0.3111 -0.5233
  427MPD2     H 6371   0.954   2.248  15.195 -0.5292  0.7561  0.3793
  427MPD2    H1 6372   0.600   2.159  14.970 -1.2193  0.4105  2.0275
  427MPD2    H2 6373   0.871   1.848  15.082  2.7596  1.1878 -0.9576
  427MPD2    H3 6374   0.668   1.926  14.954 -0.0591  0.8944 -1.3931
  427MPD2     N 6375   0.726   2.355  15.093 -0.2865  0.5569  0.7004
  427MPD2    H5 6376   0.626   2.368  15.081 -0.2694 -2.5332 -2.6785
  427MPD2    N1 6377   1.019   2.001  15.226 -0.0486 -0.4709 -0.9093
  427MPD2    H7 6378   1.085   2.068  15.264 -1.3303 -0.6480  1.6372
  428TMC3    C1 6379   1.159   1.855  15.351 -0.1661  0.8782 -0.0087
  428TMC3    C2 6380   1.165   1.732  15.423  0.0734  0.2315  0.5587
  428TMC3    C3 6381   1.296   1.687  15.451  0.3499 -0.2985 -0.2459
  428TMC3    C4 6382   1.274   1.925  15.321 -0.5998  0.1357  0.5764
  428TMC3    C5 6383   1.398   1.869  15.344  0.1807  0.3300  0.5963
  428TMC3    C6 6384   1.410   1.748  15.416 -0.2610  0.0067 -0.7080
  428TMC3     C 6385   1.042   1.873  15.265 -0.7943  0.0419  0.0211
  428TMC3     O 6386   0.951   1.789  15.272 -0.3350  0.0701  0.2666
  428TMC3     H 6387   1.083   1.661  15.429 -1.5930  2.1470  0.4412
  428TMC3    H1 6388   1.254   2.010  15.257  2.0414  0.4858  0.1846
  428TMC3    H2 6389   1.503   1.708  15.454  0.3098  0.6029 -1.4677
  428TMC3    C7 6390   1.501   1.971  15.378  0.0238  0.0907 -0.1805
  428TMC3    C8 6391   1.313   1.542  15.483 -0.1596 -0.2688 -0.0050
  428TMC3    O1 6392   1.467   2.088  15.385  0.4439  0.3122 -0.2596
  428TMC3    O2 6393   1.426   1.492  15.468 -0.4175 -0.4264  0.0443
  429MPD2     C 6394   2.215   2.963   0.008  0.3214 -0.3954  0.4689
  429MPD2    C1 6395   2.304   2.875  17.643  0.4249  1.2794 -0.0160
  429MPD2    C2 6396   2.419   2.922  17.588 -1.2274 -0.0047 -0.0213
  429MPD2    C3 6397   2.432   3.057  17.551  0.4821  0.0281  0.5896
  429MPD2    C4 6398   2.324   3.135  17.572 -0.0859  0.1989 -0.0245
  429MPD2    C5 6399   2.224   3.091  17.654  0.3534 -0.3495  0.3000
  429MPD2     H 6400   2.489   2.851  17.545  0.2707  0.7841  1.1205
  429MPD2    H1 6401   2.319   3.238  17.538  0.9790  0.1751 -0.2665
  429MPD2    H2 6402   2.122   2.934   0.055  1.0192 -0.6370  1.6974
  429MPD2    H3 6403   2.145   3.153   0.008  1.3566  2.5316 -2.1926
  429MPD2     N 6404   2.538   3.100  17.470 -0.1349 -0.5050 -0.1167
  429MPD2    H5 6405   2.608   3.026  17.463 -0.2542 -0.7402  1.2870
  429MPD2    N1 6406   2.311   2.741   0.003  0.5611  0.5551 -0.5835
  429MPD2    H7 6407   2.394   2.683  17.679  0.4859  0.1816  1.0128
  430TMC3    C1 6408   2.638   3.174  17.267  0.1159  0.1849 -0.2848
  430TMC3    C2 6409   2.666   3.271  17.180 -0.5537 -0.1817  0.0451
  430TMC3    C3 6410   2.757   3.252  17.070  0.0149  0.1485 -0.2823
  430TMC3    C4 6411   2.706   3.053  17.265  0.5758 -0.4247 -0.5870
  430TMC3    C5 6412   2.790   3.031  17.159 -0.1721  0.2389  0.0302
  430TMC3    C6 6413   2.813   3.124  17.059  1.0767  0.0252  0.2309
  430TMC3     C 6414   2.537   3.201  17.371  0.5376 -0.1272 -0.1718
  430TMC3     O 6415   2.481   3.308  17.381  0.0399  0.1135  0.0109
  430TMC3     H 6416   2.609   3.360  17.205  0.5985  1.0847 -1.7768
  430TMC3    H1 6417   2.665   2.973  17.326 -1.7113  0.5774 -0.7968
  430TMC3    H2 6418   2.886   3.111  16.980 -0.9149  3.7424 -2.2034
  430TMC3    C7 6419   2.750   2.908  17.092  0.1004 -0.1207  0.0630
  430TMC3    C8 6420   2.717   3.293  16.939  0.6188  0.0911  0.7189
  430TMC3    O1 6421   2.724   2.810  17.165  0.2604  0.7057 -0.1443
  430TMC3    O2 6422   2.779   3.247  16.847 -0.2930  0.5777 -0.6264
  431MPD2     C 6423   3.170   2.921  12.946  0.2693 -0.2955  1.2808
  431MPD2    C1 6424   3.219   2.914  12.815 -1.1683  0.6013  0.2028
  431MPD2    C2 6425   3.172   2.815  12.731  0.0936 -0.0432 -0.5368
  431MPD2    C3 6426   3.077   2.733  12.781  0.3406  0.5761  0.0421
  431MPD2    C4 6427   3.030   2.741  12.910  0.4437 -0.2330 -0.3566
  431MPD2    C5 6428   3.072   2.843  12.991  0.0310 -0.2547  0.0101
  431MPD2     H 6429   3.222   2.797  12.637 -2.5773 -0.7058 -1.8156
  431MPD2    H1 6430   2.967   2.665  12.954  2.1080 -1.4132  0.0329
  431MPD2    H2 6431   3.223   2.990  13.010  0.6055 -1.0797  1.8479
  431MPD2    H3 6432   3.027   2.864  13.088  0.0752 -1.5505  0.3159
  431MPD2     N 6433   3.021   2.629  12.702  0.2912 -0.2176 -0.6597
  431MPD2    H5 6434   2.953   2.571  12.750 -1.6793 -1.0871 -4.4793
  431MPD2    N1 6435   3.327   2.991  12.760  0.3441 -0.5248 -0.0053
  431MPD2    H7 6436   3.351   2.974  12.663  2.2887  1.1584  0.1755
  432TMC3    C1 6437   2.943   2.520  12.506 -0.2816 -0.0724  0.5873
  432TMC3    C2 6438   2.959   2.494  12.368  0.0217 -0.7105 -0.0659
  432TMC3    C3 6439   2.899   2.382  12.318  0.4690 -0.4508 -0.3541
  432TMC3    C4 6440   2.855   2.436  12.573 -0.2031 -0.0764  0.3595
  432TMC3    C5 6441   2.787   2.330  12.510 -0.1896  0.0882 -0.9899
  432TMC3    C6 6442   2.812   2.301  12.381  0.1201  0.1835  0.1071
  432TMC3     C 6443   3.034   2.616  12.563 -0.7981 -0.0503 -0.1196
  432TMC3     O 6444   3.099   2.685  12.480 -0.8415 -0.1181  0.2380
  432TMC3     H 6445   3.013   2.563  12.304 -0.6933 -0.8910 -0.8613
  432TMC3    H1 6446   2.841   2.450  12.680  1.6434 -4.3606  1.1652
  432TMC3    H2 6447   2.749   2.225  12.336 -0.6449  0.5156  0.6165
  432TMC3    C7 6448   2.727   2.223  12.591 -0.9503 -0.1263  0.4931
  432TMC3    C8 6449   2.927   2.342  12.179 -0.5811  0.2061 -0.8313
  432TMC3    O1 6450   2.728   2.111  12.539  0.1260  0.2426 -0.2285
  432TMC3    O2 6451   2.869   2.247  12.133  0.2126  0.2498  0.4792
  433MPD2     C 6452   2.088   1.899  10.681 -0.1747  0.1262  0.7781
  433MPD2    C1 6453   2.078   1.783  10.753  0.5072  0.0737 -0.5466
  433MPD2    C2 6454   2.124   1.776  10.883 -0.5925 -0.1861  0.1690
  433MPD2    C3 6455   2.188   1.885  10.936 -0.2877  0.2410  0.2977
  433MPD2    C4 6456   2.191   2.008  10.861 -0.6483  0.6566 -0.6038
  433MPD2    C5 6457   2.135   2.016  10.741  0.6509  0.3188 -0.5602
  433MPD2     H 6458   2.121   1.690  10.948  0.8823  0.4486  1.0795
  433MPD2    H1 6459   2.232   2.101  10.901  0.9745 -0.7180  0.9180
  433MPD2    H2 6460   2.050   1.905  10.579  0.4074 -3.5354  0.3536
  433MPD2    H3 6461   2.135   2.115  10.696 -0.0325  0.8441  0.5983
  433MPD2     N 6462   2.243   1.867  11.064  0.6971 -0.1802  0.3903
  433MPD2    H5 6463   2.247   1.771  11.096 -1.2769 -0.6083 -0.6582
  433MPD2    N1 6464   2.024   1.664  10.686  0.5028  0.5451  0.4836
  433MPD2    H7 6465   2.002   1.680  10.589 -0.7293  0.9253  0.8357
  434TMC3    C1 6466   1.945   1.436  10.676  0.0450 -0.0830  0.4260
  434TMC3    C2 6467   1.951   1.322  10.743 -0.0135 -0.0124 -0.3446
  434TMC3    C3 6468   1.971   1.206  10.676 -0.4608  0.0307  0.0821
  434TMC3    C4 6469   1.948   1.440  10.536 -0.2596 -1.0369 -0.6953
  434TMC3    C5 6470   1.948   1.320  10.471 -0.3541 -0.1351 -0.0696
  434TMC3    C6 6471   1.974   1.199  10.537  0.7334  0.1531  0.1066
  434TMC3     C 6472   1.979   1.551  10.755 -0.0305 -0.4401  0.2572
  434TMC3     O 6473   1.976   1.532  10.878  0.3873 -0.1719 -0.2725
  434TMC3     H 6474   1.938   1.319  10.851  1.1156 -0.1884 -0.2152
  434TMC3    H1 6475   1.956   1.536  10.487 -0.8825  0.1219  1.4574
  434TMC3    H2 6476   2.001   1.110  10.482  0.5815 -2.0205  3.5647
  434TMC3    C7 6477   1.949   1.319  10.328  0.0408  0.5362  0.6689
  434TMC3    C8 6478   2.040   1.102  10.748 -0.5856  0.3461 -0.8574
  434TMC3    O1 6479   1.961   1.426  10.266  0.0982 -0.4140 -0.0044
  434TMC3    O2 6480   2.093   1.141  10.847 -0.0032  0.2021 -0.2342
  435MPD2     C 6481   3.870   1.959  15.852 -0.1810 -0.1839  0.2715
  435MPD2    C1 6482   3.853   1.856  15.940  0.5358 -0.3397 -0.0153
  435MPD2    C2 6483   3.969   1.799  15.995  0.4806 -0.4164 -0.6228
  435MPD2    C3 6484   4.095   1.833  15.956 -0.3118 -0.7555  0.3294
  435MPD2    C4 6485   4.116   1.930  15.863 -0.2388  0.1876  0.3998
  435MPD2    C5 6486   3.999   1.991  15.817 -0.2078  0.2844  0.3733
  435MPD2     H 6487   3.963   1.730  16.078 -3.6482  2.0002  1.0816
  435MPD2    H1 6488   4.210   1.962  15.820 -0.7043  0.5466 -0.3637
  435MPD2    H2 6489   3.794   2.010  15.795 -0.6537 -1.6672 -0.4334
  435MPD2    H3 6490   4.011   2.062  15.735 -0.2576  0.2346  0.3225
  435MPD2     N 6491   4.202   1.774  16.023  0.0013  0.0372 -0.4183
  435MPD2    H5 6492   4.178   1.728  16.111  0.1377 -0.8624 -0.8491
  435MPD2    N1 6493   3.726   1.795  15.978  0.0732 -0.0135  0.4055
  435MPD2    H7 6494   3.721   1.725  16.052  0.1755  0.2090  0.6248
  436TMC3    C1 6495   3.428   1.535  16.070 -0.2657  1.0399 -0.0736
  436TMC3    C2 6496   3.494   1.660  16.067 -0.3902  0.4906  0.5488
  436TMC3    C3 6497   3.501   1.730  15.953  0.2472  0.4396 -0.6491
  436TMC3    C4 6498   3.359   1.487  15.970  0.7694  0.4571  0.3245
  436TMC3    C5 6499   3.365   1.556  15.851 -0.4661 -0.0650 -0.0480
  436TMC3    C6 6500   3.434   1.672  15.843  0.6959 -0.7315  0.2095
  436TMC3     C 6501   3.445   1.456  16.191 -0.0813 -1.1016 -0.6132
  436TMC3     O 6502   3.435   1.333  16.175 -0.1466 -0.4724 -1.0636
  436TMC3     H 6503   3.557   1.685  16.152 -1.7942  4.0858  0.5298
  436TMC3    H1 6504   3.314   1.390  15.977 -0.3643  1.1133  1.9352
  436TMC3    H2 6505   3.449   1.726  15.750  1.4776 -0.2004  0.6421
  436TMC3    C7 6506   3.330   1.488  15.726 -0.2706  0.0019  0.0542
  436TMC3    C8 6507   3.599   1.829  15.922 -0.2901  0.5154  0.3115
  436TMC3    O1 6508   3.395   1.528  15.631 -0.2950 -0.1263 -0.2568
  436TMC3    O2 6509   3.573   1.909  15.831 -0.2441 -0.1596  0.3038
  437TMC3    C1 6510   2.733   3.332  11.973 -0.9619  0.0205  0.0236
  437TMC3    C2 6511   2.763   3.257  12.088  0.5874  0.6020  0.0303
  437TMC3    C3 6512   2.855   3.303  12.170  0.5680  0.2211  0.2454
  437TMC3    C4 6513   2.779   3.462  11.963  0.4249  0.3730  0.1917
  437TMC3    C5 6514   2.881   3.503  12.050  0.1544 -0.1657  0.2566
  437TMC3    C6 6515   2.923   3.422  12.153 -0.3469 -0.7103  0.6307
  437TMC3     C 6516   2.609   3.300  11.904 -0.3754  0.2678 -0.3773
  437TMC3     O 6517   2.522   3.240  11.964 -0.5335 -0.3903 -0.3221
  437TMC3     H 6518   2.695   3.178  12.116  0.4468  0.9099  0.5536
  437TMC3    H1 6519   2.717   3.529  11.904 -1.0059  0.7245  2.0683
  437TMC3    H2 6520   3.005   3.448  12.219  0.1296  2.3183 -1.1557
  437TMC3    C7 6521   2.923   3.642  12.045 -0.0162  0.2223 -0.2329
  437TMC3    C8 6522   2.879   3.239  12.297  0.6909 -0.7155 -0.6131
  437TMC3    O1 6523   2.910   3.706  11.939 -0.2881  0.0683 -0.3744
  437TMC3    O2 6524   2.931   3.311  12.382 -0.2043 -0.0227  0.3354
  438MPD2     C 6525   0.530   4.210  16.240 -0.0237 -0.3159 -0.4313
  438MPD2    C1 6526   0.595   4.194  16.363  0.1501 -0.0831 -0.5515
  438MPD2    C2 6527   0.528   4.193  16.483 -1.3942 -0.4199  0.0828
  438MPD2    C3 6528   0.392   4.227  16.475 -0.3346 -0.9177 -0.1116
  438MPD2    C4 6529   0.327   4.233  16.353 -0.2597  0.2091  0.9420
  438MPD2    C5 6530   0.393   4.220  16.237  0.5629  0.5048  0.2295
  438MPD2     H 6531   0.583   4.177  16.575 -0.5227 -2.0593 -0.7173
  438MPD2    H1 6532   0.224   4.266  16.353 -0.8982 -1.8429  0.9867
  438MPD2    H2 6533   0.587   4.210  16.147  0.9114 -1.4527  0.1523
  438MPD2    H3 6534   0.335   4.233  16.146  0.7386 -0.7065 -0.0544
  438MPD2     N 6535   0.327   4.278  16.587 -0.4956 -0.2537  0.7211
  438MPD2    H5 6536   0.226   4.282  16.584 -0.4250 -0.3244 -1.7300
  438MPD2    N1 6537   0.729   4.156  16.375 -0.4687 -0.2644 -0.4533
  438MPD2    H7 6538   0.764   4.124  16.465  0.2777  1.3604 -0.1579
  439TMC3    C1 6539   0.949   4.102  16.293 -0.2179  0.6904  0.5163
  439TMC3    C2 6540   1.014   4.089  16.173 -0.1143  0.3666  0.0565
  439TMC3    C3 6541   1.125   4.004  16.168  0.3235 -0.5913  0.1462
  439TMC3    C4 6542   0.977   4.020  16.401 -0.7538 -0.0401 -0.4303
  439TMC3    C5 6543   1.081   3.935  16.391  0.6867  0.4180 -0.0083
  439TMC3    C6 6544   1.160   3.931  16.282  0.3325  0.4419 -0.6071
  439TMC3     C 6545   0.818   4.175  16.273  0.7175  0.1766  0.1006
  439TMC3     O 6546   0.795   4.233  16.167 -0.4545 -0.2314 -0.3576
  439TMC3     H 6547   0.980   4.148  16.089 -0.3355 -0.7848 -0.6743
  439TMC3    H1 6548   0.931   4.039  16.497 -1.0201  0.0906 -0.5852
  439TMC3    H2 6549   1.254   3.878  16.284 -0.3888 -0.8013  0.2009
  439TMC3    C7 6550   1.127   3.876  16.517  0.1605  0.1550  0.1929
  439TMC3    C8 6551   1.183   3.964  16.044  0.0638  0.4484  0.0813
  439TMC3    O1 6552   1.241   3.839  16.531  0.3624 -0.2690 -0.7477
  439TMC3    O2 6553   1.303   3.943  16.038  0.4479  0.1030 -0.1305
  440MPD2     C 6554   4.464   0.345  14.618 -0.6150  0.4201 -0.1064
  440MPD2    C1 6555   4.415   0.351  14.750  0.4635  0.1546 -0.4046
  440MPD2    C2 6556   4.491   0.298  14.851  0.0306  0.7955  0.5226
  440MPD2    C3 6557   4.601   0.219  14.820 -0.6282  0.0924 -0.0988
  440MPD2    C4 6558   4.646   0.203  14.689  0.1049 -0.1024  0.7556
  440MPD2    C5 6559   4.577   0.271  14.591 -0.2505  0.1047  0.4800
  440MPD2     H 6560   4.464   0.317  14.954 -1.2422  0.9945  0.1607
  440MPD2    H1 6561   0.000   0.129  14.666  0.6737  0.1636  1.7549
  440MPD2    H2 6562   4.404   0.379  14.534 -1.2430  1.8917  0.9400
  440MPD2    H3 6563   4.616   0.260  14.490 -2.1874  3.0701 -0.5868
  440MPD2     N 6564   4.688   0.176  14.927  0.2604  0.0817  0.3526
  440MPD2    H5 6565   0.059   0.139  14.902  0.3206  0.1953  0.4025
  440MPD2    N1 6566   4.310   0.437  14.789  0.7039  0.9173  0.1446
  440MPD2    H7 6567   4.288   0.450  14.887  1.0893 -0.0270  0.3627
  441TMC3    C1 6568   0.033   0.120  15.142  0.2690 -0.5942 -0.0489
  441TMC3    C2 6569   0.099   0.232  15.192  0.0096 -0.2751 -0.2454
  441TMC3    C3 6570   0.106   0.254  15.326 -0.0241 -0.0293  0.0094
  441TMC3    C4 6571   4.710   0.025  15.229 -0.1559  0.2748  0.1956
  441TMC3    C5 6572   0.022   0.037  15.360  0.3183 -0.0422 -0.4568
  441TMC3    C6 6573   0.071   0.153  15.409  0.3100  0.1497  0.3764
  441TMC3     C 6574   4.648   0.159  15.055 -1.3261 -0.0706 -0.0814
  441TMC3     O 6575   4.528   0.149  15.091  0.2153 -0.7312 -0.3628
  441TMC3     H 6576   0.137   0.304  15.120  1.6021 -2.8229 -1.9340
  441TMC3    H1 6577   4.664   4.659  15.182  1.3627  0.1399 -1.0305
  441TMC3    H2 6578   0.064   0.166  15.516 -0.4649 -3.7048  0.7991
  441TMC3    C7 6579   4.686   4.673  15.462 -0.8039 -0.2359 -0.0466
  441TMC3    C8 6580   0.109   0.390  15.384 -0.0408 -0.6232  0.0485
  441TMC3    O1 6581   4.645   4.719  15.567  0.0842 -0.2059 -0.2029
  441TMC3    O2 6582   0.103   0.404  15.507 -0.5629 -0.2881  0.7100
  442MPD2     C 6583   2.566   4.624  16.797  0.0559 -0.1144 -0.4928
  442MPD2    C1 6584   2.431   4.613  16.773  0.1791 -0.0982  0.3205
  442MPD2    C2 6585   2.383   4.529  16.676 -0.2966 -0.2393 -0.6823
  442MPD2    C3 6586   2.471   4.469  16.581 -0.0760 -0.1219  0.3340
  442MPD2    C4 6587   2.610   4.486  16.605  0.6937  0.0839 -0.3303
  442MPD2    C5 6588   2.656   4.548  16.721 -0.3736  0.7442 -0.2875
  442MPD2     H 6589   2.275   4.522  16.664 -0.2890 -0.6493 -0.4933
  442MPD2    H1 6590   2.677   4.441  16.533 -0.7740 -0.3608 -1.4200
  442MPD2    H2 6591   2.615   4.685  16.872  2.3914 -2.2713 -0.2600
  442MPD2    H3 6592   2.764   4.546  16.734 -0.4565  1.6099  0.5909
  442MPD2     N 6593   2.428   4.397  16.468  0.3620  0.3319  0.6846
  442MPD2    H5 6594   2.496   4.350  16.409  0.1079 -0.2951  0.8872
  442MPD2    N1 6595   2.329   4.676  16.847  0.0423  0.2680 -0.4047
  442MPD2    H7 6596   2.233   4.655  16.824  0.4616  0.1420 -2.0421
  443TMC3    C1 6597   2.226   0.102  17.003  0.9494 -0.7519 -0.4388
  443TMC3    C2 6598   2.194   0.233  16.992 -0.3318 -0.3010 -0.3130
  443TMC3    C3 6599   2.061   0.262  17.012 -0.4160 -0.1748 -0.2127
  443TMC3    C4 6600   2.156   4.718  17.052  0.2840  0.4263 -0.0098
  443TMC3    C5 6601   2.030   0.034  17.082 -0.4778 -0.2492 -0.0431
  443TMC3    C6 6602   1.983   0.162  17.055 -0.8110  1.1384  0.5792
  443TMC3     C 6603   2.348   0.057  16.940  0.7861 -0.5600 -0.3772
  443TMC3     O 6604   2.458   0.109  16.965 -0.0200  0.3581 -0.3365
  443TMC3     H 6605   2.269   0.300  16.951  0.1333 -0.2779  0.5836
  443TMC3    H1 6606   2.198   4.619  17.071 -1.6246 -0.4901 -0.5291
  443TMC3    H2 6607   1.878   0.179  17.074 -1.1114 -0.0691  0.0382
  443TMC3    C7 6608   1.931   4.654  17.128  0.0332  1.2874 -0.4481
  443TMC3    C8 6609   1.994   0.300  16.886 -0.0923 -0.1767  0.4216
  443TMC3    O1 6610   1.950   4.536  17.106 -0.2999 -0.1085 -0.7355
  443TMC3    O2 6611   1.892   0.246  16.854  0.6308 -0.1855  0.5709
  444MPD2     C 6612   2.622   4.641  17.214 -0.3385  0.7443  0.2279
  444MPD2    C1 6613   2.547   4.523  17.211  0.0924 -0.1822  0.1305
  444MPD2    C2 6614   2.587   4.411  17.134 -1.0634  0.4811  0.2614
  444MPD2    C3 6615   2.697   4.423  17.053 -0.9275  0.6242  0.8541
  444MPD2    C4 6616   2.771   4.539  17.053  0.5788 -0.3136 -1.2804
  444MPD2    C5 6617   2.728   4.651  17.125  0.1404 -0.1952  0.0269
  444MPD2     H 6618   2.523   4.325  17.121  0.9862 -1.0060  0.0885
  444MPD2    H1 6619   2.855   4.549  16.985  1.0663 -1.6787 -0.8812
  444MPD2    H2 6620   2.600   0.001  17.283  1.8812  1.3419  0.2291
  444MPD2    H3 6621   2.781   0.025  17.132 -1.7269  0.6311  2.8797
  444MPD2     N 6622   2.725   4.314  16.976 -0.1273  0.1235 -0.6628
  444MPD2    H5 6623   2.669   4.232  17.000  0.1873 -0.6503 -2.4859
  444MPD2    N1 6624   2.426   4.512  17.294 -0.8655 -0.3057 -0.7150
  444MPD2    H7 6625   2.384   4.419  17.296 -1.0587 -0.1954  0.5581
  445TMC3    C1 6626   2.802   4.182  16.810 -0.0387  0.1589 -0.0293
  445TMC3    C2 6627   2.683   4.171  16.736 -0.2729  0.5055 -0.1159
  445TMC3    C3 6628   2.684   4.080  16.638  0.0048 -0.1372 -0.2304
  445TMC3    C4 6629   2.918   4.109  16.777  0.4905  0.3287  0.0213
  445TMC3    C5 6630   2.906   4.018  16.674 -0.3753 -0.2033  0.1451
  445TMC3    C6 6631   2.793   3.999  16.602  0.2079  0.6182 -0.6485
  445TMC3     C 6632   2.820   4.299  16.885  0.0342 -0.3131 -0.0791
  445TMC3     O 6633   2.934   4.343  16.885  0.4086  0.0462 -0.4929
  445TMC3     H 6634   2.602   4.241  16.750 -0.7379 -0.0817  0.1282
  445TMC3    H1 6635   3.013   4.125  16.827  0.6864 -1.2188  0.1620
  445TMC3    H2 6636   2.788   3.928  16.520  2.8736  0.0364 -0.2940
  445TMC3    C7 6637   3.027   3.964  16.609  0.3211 -0.4483  0.7074
  445TMC3    C8 6638   2.554   4.062  16.579  0.7980 -1.3764  0.4535
  445TMC3    O1 6639   3.136   4.011  16.639 -0.5622 -0.8447  0.4152
  445TMC3    O2 6640   2.554   4.043  16.460 -0.0591 -0.3230  0.3311
  446MPD2     C 6641   2.071   0.913  11.388  0.2435 -0.2728  0.5719
  446MPD2    C1 6642   2.020   0.914  11.255  0.1889  0.8106 -0.0951
  446MPD2    C2 6643   2.072   1.008  11.168  0.0608 -0.1385  0.5585
  446MPD2    C3 6644   2.167   1.094  11.208  0.6695 -0.3019 -0.4173
  446MPD2    C4 6645   2.221   1.088  11.337  0.9664 -0.5547  0.4065
  446MPD2    C5 6646   2.171   1.001  11.427 -0.5115 -0.6268  0.5894
  446MPD2     H 6647   2.040   1.006  11.065  0.7532  0.4941  0.3273
  446MPD2    H1 6648   2.304   1.151  11.369  0.1906  1.4558 -1.5339
  446MPD2    H2 6649   2.041   0.845  11.467  1.9088  0.9877  2.2981
  446MPD2    H3 6650   2.199   0.991  11.531  1.2709 -3.2145 -0.1445
  446MPD2     N 6651   2.205   1.187  11.104 -0.9657 -0.1095 -0.5993
  446MPD2    H5 6652   2.187   1.160  11.008  0.8083  0.2387 -1.0296
  446MPD2    N1 6653   1.903   0.841  11.219 -0.3811  0.0685 -0.3753
  446MPD2    H7 6654   1.876   0.850  11.122  0.9072  3.7706 -0.3886
  447TMC3    C1 6655   2.356   1.355  11.028  0.1297  0.3976  1.0559
  447TMC3    C2 6656   2.297   1.379  10.907 -0.0562 -0.4847 -0.0551
  447TMC3    C3 6657   2.358   1.458  10.815 -0.6298 -0.2192  0.1910
  447TMC3    C4 6658   2.483   1.401  11.055 -0.0491 -0.4147  0.2770
  447TMC3    C5 6659   2.550   1.470  10.958 -0.9128  0.4706 -0.3976
  447TMC3    C6 6660   2.483   1.502  10.845  0.6937 -0.8531  0.3331
  447TMC3     C 6661   2.275   1.304  11.138  0.5338 -0.4782 -0.0184
  447TMC3     O 6662   2.299   1.347  11.250  0.1438 -0.1899  0.0292
  447TMC3     H 6663   2.191   1.359  10.900 -0.6328  2.2715  0.7805
  447TMC3    H1 6664   2.525   1.371  11.150  0.4533  0.9714  0.4946
  447TMC3    H2 6665   2.546   1.529  10.761 -0.3386  0.9196  0.1293
  447TMC3    C7 6666   2.689   1.415  10.942  0.0934  0.1366 -0.9143
  447TMC3    C8 6667   2.314   1.451  10.675 -0.2427 -0.7376 -0.2917
  447TMC3    O1 6668   2.744   1.421  10.838 -0.0370 -0.2301  0.1606
  447TMC3    O2 6669   2.351   1.549  10.608 -0.1343  0.5535 -0.1857
  448TMC3    C1 6670   0.522   0.893  16.607  0.7935  0.0299 -0.4104
  448TMC3    C2 6671   0.418   0.807  16.580  0.3174  0.2385  0.7141
  448TMC3    C3 6672   0.400   0.712  16.677 -0.5091  0.1351  0.2072
  448TMC3    C4 6673   0.602   0.891  16.717  0.1889 -0.3652  0.6778
  448TMC3    C5 6674   0.576   0.798  16.812  0.2045  0.0491 -0.4885
  448TMC3    C6 6675   0.484   0.699  16.785  0.5406 -0.3429  0.0985
  448TMC3     C 6676   0.508   1.021  16.537 -0.8533  0.1266  0.5390
  448TMC3     O 6677   0.445   1.013  16.430 -0.2388  0.3341 -0.1199
  448TMC3     H 6678   0.359   0.808  16.489 -0.5123 -1.6998  1.2271
  448TMC3    H1 6679   0.668   0.975  16.741  0.2797 -0.1066 -0.5029
  448TMC3    H2 6680   0.468   0.619  16.856 -2.9085 -0.3120 -0.6236
  448TMC3    C7 6681   0.691   0.766  16.892 -1.0164  0.1229 -0.0515
  448TMC3    C8 6682   0.360   0.583  16.619 -0.4526 -0.6404 -0.1261
  448TMC3    O1 6683   0.797   0.797  16.841  0.7671  0.3868 -0.2516
  448TMC3    O2 6684   0.419   0.487  16.671 -0.4577  0.1513  0.5842
  449MPD2     C 6685   2.492   3.740  13.947 -0.3947  0.0506  0.8569
  449MPD2    C1 6686   2.369   3.775  13.895 -0.0610 -0.6831 -0.7087
  449MPD2    C2 6687   2.256   3.712  13.946  0.1291 -0.0745 -0.1594
  449MPD2    C3 6688   2.263   3.610  14.045 -0.2503  0.1105 -0.0950
  449MPD2    C4 6689   2.387   3.572  14.085 -0.4557  0.3987 -0.1379
  449MPD2    C5 6690   2.495   3.634  14.035 -0.0073  0.2191  0.0425
  449MPD2     H 6691   2.160   3.744  13.907  0.0679  2.0212  1.7452
  449MPD2    H1 6692   2.410   3.486  14.147 -0.6921  0.8018  0.5049
  449MPD2    H2 6693   2.583   3.775  13.900 -1.6845  0.1851 -1.5346
  449MPD2    H3 6694   2.593   3.604  14.068 -0.1103 -1.1606 -0.8630
  449MPD2     N 6695   2.141   3.559  14.082 -0.1730 -0.7482  0.6949
  449MPD2    H5 6696   2.058   3.591  14.033 -1.4600 -2.1933  1.9349
  449MPD2    N1 6697   2.338   3.876  13.789  0.0704 -0.5191 -0.1594
  449MPD2    H7 6698   2.244   3.872  13.753  0.1968 -0.2755 -0.5176
  450TMC3    C1 6699   2.342   4.054  13.653  0.8498  0.0884 -0.3473
  450TMC3    C2 6700   2.353   4.042  13.518 -0.0139  0.2804 -0.2274
  450TMC3    C3 6701   2.236   4.043  13.436  0.3626  0.4454  0.4128
  450TMC3    C4 6702   2.216   4.077  13.703  0.2616  0.2037 -0.0710
  450TMC3    C5 6703   2.107   4.075  13.620  0.1600  0.5191 -0.5417
  450TMC3    C6 6704   2.110   4.049  13.486  0.2781  0.5225 -0.1654
  450TMC3     C 6705   2.419   3.969  13.733  0.0328  0.0288 -0.2462
  450TMC3     O 6706   2.539   3.963  13.718  0.2882  0.4455 -0.0586
  450TMC3     H 6707   2.442   3.998  13.474  0.7326  0.4608  1.0921
  450TMC3    H1 6708   2.202   4.085  13.811  1.4465 -3.7523  0.3515
  450TMC3    H2 6709   2.026   4.019  13.426  0.6766  0.7628 -0.8433
  450TMC3    C7 6710   1.999   4.006  13.690 -0.6909  0.0538  0.5757
  450TMC3    C8 6711   2.251   3.947  13.320 -0.2857 -0.6851  0.4678
  450TMC3    O1 6712   2.036   3.961  13.796 -0.0801  0.4650  0.0634
  450TMC3    O2 6713   2.173   3.852  13.324  0.1970  0.4890  0.4841
  451MPD2     C 6714   2.723   2.517   1.666 -0.6836 -0.5860 -0.0593
  451MPD2    C1 6715   2.786   2.549   1.542  0.3449  0.5118  1.1136
  451MPD2    C2 6716   2.900   2.468   1.513 -0.1070  0.6249  0.3335
  451MPD2    C3 6717   2.937   2.363   1.597  0.0965  0.2124  0.3004
  451MPD2    C4 6718   2.870   2.337   1.714  0.5272  0.0853  0.7782
  451MPD2    C5 6719   2.770   2.422   1.747 -0.9714  0.7248  0.0346
  451MPD2     H 6720   2.944   2.473   1.415 -0.1471 -2.3621  0.1667
  451MPD2    H1 6721   2.894   2.261   1.786  1.3166  0.3124  0.7551
  451MPD2    H2 6722   2.643   2.576   1.709 -0.0925  0.6455 -0.6633
  451MPD2    H3 6723   2.713   2.405   1.838 -0.9189 -2.0141 -0.4373
  451MPD2     N 6724   3.049   2.276   1.563 -0.1124  0.0170 -0.1002
  451MPD2    H5 6725   3.069   2.205   1.633 -0.5751  0.4827  0.5105
  451MPD2    N1 6726   2.736   2.655   1.464  0.0454 -0.3562 -0.8349
  451MPD2    H7 6727   2.664   2.711   1.510  0.4046 -0.4792 -0.1158
  452TMC3    C1 6728   3.231   2.180   1.450  0.6529 -0.4686 -0.0115
  452TMC3    C2 6729   3.275   2.127   1.566  0.0187  0.0296  0.5165
  452TMC3    C3 6730   3.390   2.048   1.565  0.2768  0.1135  0.3475
  452TMC3    C4 6731   3.306   2.181   1.335  0.0301  0.1979  0.3907
  452TMC3    C5 6732   3.416   2.091   1.337 -0.0142  0.6690  0.1232
  452TMC3    C6 6733   3.458   2.026   1.448 -0.2097  0.6361  0.2697
  452TMC3     C 6734   3.122   2.277   1.449  0.1478  0.3289 -0.4135
  452TMC3     O 6735   3.106   2.347   1.351 -0.5799  0.1045 -0.2673
  452TMC3     H 6736   3.216   2.128   1.656 -0.5597  2.0646  0.1195
  452TMC3    H1 6737   3.273   2.228   1.243 -2.8505 -0.5488  1.0241
  452TMC3    H2 6738   3.543   1.959   1.449 -1.9250 -1.5610  0.4191
  452TMC3    C7 6739   3.474   2.041   1.214 -0.0294 -0.5973 -0.1121
  452TMC3    C8 6740   3.395   1.945   1.673  0.6411 -0.0793 -0.0893
  452TMC3    O1 6741   3.500   2.118   1.119  0.4790 -0.0340  0.2239
  452TMC3    O2 6742   3.296   1.933   1.744 -0.4279 -0.1025  0.4365
  453TMC3    C1 6743   4.142   4.417  11.972  0.4294  0.2921  0.4205
  453TMC3    C2 6744   4.038   4.343  12.020  0.2114  0.2636 -0.2404
  453TMC3    C3 6745   3.906   4.370  11.986 -0.3473  0.0130  0.1261
  453TMC3    C4 6746   4.103   4.524  11.902 -0.2671 -0.7385  0.3548
  453TMC3    C5 6747   3.976   4.563  11.883 -0.1268  0.3634  0.4999
  453TMC3    C6 6748   3.872   4.480  11.914  0.6283 -0.6953 -0.8585
  453TMC3     C 6749   4.251   4.441  12.065 -0.2535 -0.1188  0.1389
  453TMC3     O 6750   4.366   4.440  12.014 -0.2219 -0.2964 -0.0691
  453TMC3     H 6751   4.055   4.264  12.092  0.7648 -1.1343 -1.8951
  453TMC3    H1 6752   4.186   4.593  11.888 -2.4293  1.7813  0.0190
  453TMC3    H2 6753   3.768   4.491  11.884  0.1767  1.3668  1.4264
  453TMC3    C7 6754   3.955   4.686  11.811 -0.0629 -0.1383  0.3192
  453TMC3    C8 6755   3.797   4.285  12.010 -0.0321 -0.4584  0.4711
  453TMC3    O1 6756   4.045   0.004  11.735 -0.0679  0.4821 -0.5059
  453TMC3    O2 6757   3.680   4.329  12.016  0.0416  0.3097 -0.0355
  454MPD2     C 6758   3.333   4.232  16.417 -0.0793  0.4763  0.9428
  454MPD2    C1 6759   3.314   4.289  16.296  0.2442 -0.0667 -0.1853
  454MPD2    C2 6760   3.271   4.422  16.294  0.2723  0.1806  0.6832
  454MPD2    C3 6761   3.257   4.495  16.410 -0.4743 -0.1019 -0.1445
  454MPD2    C4 6762   3.288   4.435  16.530 -0.1720 -0.1605 -0.2842
  454MPD2    C5 6763   3.328   4.303  16.533 -0.6199 -0.5562 -0.1337
  454MPD2     H 6764   3.231   4.470  16.205 -0.8648 -1.3001  0.3927
  454MPD2    H1 6765   3.274   4.480  16.627 -0.0846  0.7549 -0.7042
  454MPD2    H2 6766   3.356   4.126  16.422  1.0028  0.6742 -0.0329
  454MPD2    H3 6767   3.354   4.267  16.632 -0.3829 -0.1816 -0.0586
  454MPD2     N 6768   3.191   4.618  16.412 -1.0038 -0.2082  0.1894
  454MPD2    H5 6769   3.153   4.650  16.501 -0.3795  2.2567 -0.4166
  454MPD2    N1 6770   3.304   4.217  16.174 -0.5620  0.0801 -0.7565
  454MPD2    H7 6771   3.281   4.268  16.089 -3.2509 -0.7362 -0.5119
  455TMC3    C1 6772   3.041   0.042  16.314 -0.2503  0.2214  0.3654
  455TMC3    C2 6773   3.019   0.103  16.433 -0.9862  0.4962 -0.1428
  455TMC3    C3 6774   2.893   0.084  16.488 -1.0369 -0.0834  0.2506
  455TMC3    C4 6775   2.940   4.698  16.249  0.0949 -0.2461 -0.0120
  455TMC3    C5 6776   2.816   4.687  16.306 -0.1895 -0.6814  0.1509
  455TMC3    C6 6777   2.793   0.019  16.427  0.5460 -0.2129 -0.2410
  455TMC3     C 6778   3.165   4.688  16.298 -0.5374 -0.3147  0.3643
  455TMC3     O 6779   3.201   4.672  16.184 -0.7200  0.0137  0.2044
  455TMC3     H 6780   3.100   0.155  16.482  0.7716 -4.0302  1.6562
  455TMC3    H1 6781   2.964   4.637  16.163 -3.3974  0.4380 -1.4780
  455TMC3    H2 6782   2.703   4.709  16.481 -1.0604  1.8712 -1.7564
  455TMC3    C7 6783   2.763   4.546  16.294 -0.1599  0.0835  0.2710
  455TMC3    C8 6784   2.878   0.152  16.614  0.4589 -0.1499 -0.1619
  455TMC3    O1 6785   2.642   4.519  16.288 -0.2481 -0.0025  0.3783
  455TMC3    O2 6786   2.961   0.134  16.699  0.1442 -0.2585 -0.1588
  456MPD2     C 6787   0.810   4.483  15.665  0.1509 -0.2544  0.2763
  456MPD2    C1 6788   0.874   4.418  15.767  0.4529 -0.4013 -0.1158
  456MPD2    C2 6789   0.819   4.411  15.893 -0.2561  0.2178 -0.5110
  456MPD2    C3 6790   0.703   4.473  15.917  0.2165  0.4055  0.1752
  456MPD2    C4 6791   0.632   4.523  15.814 -0.3910 -0.2090 -0.3044
  456MPD2    C5 6792   0.683   4.535  15.691  1.0301  0.1503 -0.1746
  456MPD2     H 6793   0.875   4.372  15.977  1.3284  1.0727 -1.1731
  456MPD2    H1 6794   0.534   4.570  15.821 -0.8273 -1.2273  0.3127
  456MPD2    H2 6795   0.835   4.488  15.559  1.2588 -0.3512  0.5264
  456MPD2    H3 6796   0.631   4.579  15.606  1.6952 -0.9527 -1.1475
  456MPD2     N 6797   0.671   4.491  16.052  0.2905  0.1060  0.2063
  456MPD2    H5 6798   0.723   4.443  16.125  0.7495  0.5546  0.1777
  456MPD2    N1 6799   1.006   4.370  15.739 -0.2736  0.4765  0.2319
  456MPD2    H7 6800   1.038   4.375  15.642  3.9307  1.5853  1.6881
  457TMC3    C1 6801   0.548   4.598  16.242 -0.7202 -0.0481  0.6186
  457TMC3    C2 6802   0.441   4.684  16.271  0.3666 -0.7221 -0.2168
  457TMC3    C3 6803   0.401   4.695  16.404  0.2757 -0.6133  0.4208
  457TMC3    C4 6804   0.629   4.544  16.343  0.1874  0.4051  0.0917
  457TMC3    C5 6805   0.594   4.571  16.471 -0.0239  0.7507  0.5484
  457TMC3    C6 6806   0.479   4.638  16.502 -0.4158  0.5884 -0.6494
  457TMC3     C 6807   0.560   4.569  16.099  0.0281 -0.2516 -0.6353
  457TMC3     O 6808   0.477   4.624  16.026 -0.1626  0.0406  0.0063
  457TMC3     H 6809   0.383   0.007  16.190 -1.0755 -0.8906  0.7214
  457TMC3    H1 6810   0.715   4.484  16.316 -0.2280 -0.3283  0.3946
  457TMC3    H2 6811   0.460   4.661  16.606 -0.7412 -2.3752 -0.0585
  457TMC3    C7 6812   0.693   4.549  16.580 -0.0626 -0.3045  0.7656
  457TMC3    C8 6813   0.340   0.095  16.448 -0.3331 -0.4864 -1.2686
  457TMC3    O1 6814   0.654   4.591  16.688 -0.3640  0.0693  0.1084
  457TMC3    O2 6815   0.382   0.141  16.554 -0.1872 -0.2631 -0.1467
  458MPD2     C 6816   3.221   4.035  12.214 -0.5025  0.9851 -0.2446
  458MPD2    C1 6817   3.217   3.939  12.312 -0.0012  0.1850  0.7469
  458MPD2    C2 6818   3.130   3.827  12.296  0.4014 -0.7427  0.0376
  458MPD2    C3 6819   3.060   3.808  12.180  0.3230 -0.4409 -0.1634
  458MPD2    C4 6820   3.076   3.902  12.075 -0.3927  0.0723 -0.1601
  458MPD2    C5 6821   3.157   4.012  12.094  0.3855  0.4360 -0.4355
  458MPD2     H 6822   3.111   3.755  12.374  2.3390  0.8725  1.9784
  458MPD2    H1 6823   3.022   3.884  11.983 -1.4627  0.6071  0.3566
  458MPD2    H2 6824   3.277   4.124  12.240 -0.3697  1.0891 -0.8968
  458MPD2    H3 6825   3.160   4.084  12.013  2.6237 -0.0558 -0.7995
  458MPD2     N 6826   2.987   3.686  12.167 -0.2539 -0.1956 -0.1452
  458MPD2    H5 6827   2.969   3.626  12.247 -2.2870  2.2138  1.2275
  458MPD2    N1 6828   3.304   3.953  12.423  0.2985 -0.2064 -0.2195
  458MPD2    H7 6829   3.363   4.035  12.428  0.8903 -0.6376 -0.0296
  459TMC3    C1 6830   3.416   3.912  12.617  0.1944 -0.0543  0.4851
  459TMC3    C2 6831   3.519   3.997  12.593  0.0246 -0.1333 -0.1301
  459TMC3    C3 6832   3.616   4.016  12.692  0.7481 -0.6780  0.4371
  459TMC3    C4 6833   3.405   3.851  12.741  0.2627 -0.2101  0.3651
  459TMC3    C5 6834   3.502   3.877  12.842  0.5088 -0.6736 -0.6810
  459TMC3    C6 6835   3.605   3.964  12.818  0.0036  0.5557  0.1622
  459TMC3     C 6836   3.313   3.868  12.526  0.0185 -0.7534 -0.5492
  459TMC3     O 6837   3.239   3.774  12.551 -0.5938 -0.1475  0.5365
  459TMC3     H 6838   3.538   4.033  12.492 -1.9991  1.1541 -0.0567
  459TMC3    H1 6839   3.331   3.774  12.754  1.0422 -0.7342  1.7007
  459TMC3    H2 6840   3.688   3.988  12.883 -0.5775  1.2464  0.6547
  459TMC3    C7 6841   3.509   3.788  12.961 -0.2345 -0.3634  0.6692
  459TMC3    C8 6842   3.748   4.016  12.646  0.1905  0.2828 -0.0079
  459TMC3    O1 6843   3.449   3.683  12.941  0.1377 -0.3880 -0.0318
  459TMC3    O2 6844   3.840   4.051  12.716  0.2102 -0.0730  0.2849
  460MPD2     C 6845   2.310   1.139  10.496  0.8368 -0.7520  0.0494
  460MPD2    C1 6846   2.312   1.279  10.507  0.2092 -0.1993 -0.4258
  460MPD2    C2 6847   2.301   1.360  10.402  0.3039 -0.2226  0.0811
  460MPD2    C3 6848   2.317   1.307  10.274 -0.6570  0.0670 -0.4723
  460MPD2    C4 6849   2.318   1.169  10.264  0.4480  0.3498  0.3038
  460MPD2    C5 6850   2.311   1.083  10.377  0.2075  0.7508  0.1369
  460MPD2     H 6851   2.280   1.466  10.411 -1.2200 -0.1637 -3.8390
  460MPD2    H1 6852   2.307   1.133  10.163  1.7429 -1.2606  0.7368
  460MPD2    H2 6853   2.319   1.079  10.586  1.4363  0.1997  0.6369
  460MPD2    H3 6854   2.298   0.976  10.361  2.6375  0.8853 -2.6446
  460MPD2     N 6855   2.320   1.400  10.171  0.0814  0.1947 -0.1679
  460MPD2    H5 6856   2.318   1.496  10.202 -0.5575  0.2563 -0.3984
  460MPD2    N1 6857   2.297   1.324  10.635  0.0870 -0.7901 -0.9857
  460MPD2    H7 6858   2.286   1.247  10.700 -1.2178  0.0016 -0.2897
  461TMC3    C1 6859   2.336   1.480   9.945  0.5786 -0.2642  0.0739
  461TMC3    C2 6860   2.401   1.462   9.823  0.2046 -0.7819  0.1428
  461TMC3    C3 6861   2.404   1.571   9.744  0.3038 -0.6165  0.1957
  461TMC3    C4 6862   2.272   1.593   9.978  0.2079 -0.2652  0.3063
  461TMC3    C5 6863   2.284   1.708   9.901 -0.2146 -0.4267 -0.5741
  461TMC3    C6 6864   2.348   1.695   9.778  1.0588 -0.0747 -0.3576
  461TMC3     C 6865   2.339   1.376  10.041  0.1763  0.3693 -0.1426
  461TMC3     O 6866   2.387   1.280   9.984 -0.3010 -0.6013  0.4702
  461TMC3     H 6867   2.440   1.368   9.783 -0.1957  0.2596 -2.6774
  461TMC3    H1 6868   2.204   1.600  10.062 -0.3237  0.9649 -0.2276
  461TMC3    H2 6869   2.375   1.785   9.724  2.9249 -1.4136 -1.6498
  461TMC3    C7 6870   2.201   1.823   9.915 -0.4050 -0.0715 -0.3996
  461TMC3    C8 6871   2.488   1.558   9.628  0.7155 -0.6438 -1.0662
  461TMC3    O1 6872   2.167   1.879   9.814  0.0867 -0.3110 -0.2819
  461TMC3    O2 6873   2.572   1.468   9.626  0.0388  0.5188  0.0562
  462TMC3    C1 6874   2.747   2.707   0.325  0.8436  0.3220 -0.0113
  462TMC3    C2 6875   2.828   2.603   0.286 -0.4102  0.5615  0.2209
  462TMC3    C3 6876   2.845   2.493   0.369  0.7805 -0.2383 -0.0865
  462TMC3    C4 6877   2.677   2.694   0.443  0.8297 -0.6561 -0.0073
  462TMC3    C5 6878   2.682   2.577   0.523 -0.1935  0.2390 -0.4194
  462TMC3    C6 6879   2.772   2.480   0.485  0.3945  0.3094  0.4395
  462TMC3     C 6880   2.770   2.830   0.254  0.1032 -0.3424  0.2530
  462TMC3     O 6881   2.845   2.831   0.160 -0.4301 -0.3506 -0.3365
  462TMC3     H 6882   2.871   2.603   0.186  1.7834  1.3426  1.1524
  462TMC3    H1 6883   2.624   2.778   0.487  1.7156 -0.1184  0.0289
  462TMC3    H2 6884   2.772   2.380   0.528 -3.5525 -0.5065 -1.4881
  462TMC3    C7 6885   2.557   2.507   0.537  0.1087  0.7165 -0.3936
  462TMC3    C8 6886   2.927   2.379   0.333  0.3708 -0.1243 -0.5561
  462TMC3    O1 6887   2.562   2.398   0.596  0.0560  0.3815 -0.5915
  462TMC3    O2 6888   2.954   2.373   0.216 -0.0570  0.7515  0.0982
  463MPD2     C 6889   3.245   1.094   1.994 -0.0925 -0.3540 -0.1028
  463MPD2    C1 6890   3.194   1.178   1.900  0.4945 -0.3782 -0.0577
  463MPD2    C2 6891   3.281   1.259   1.825 -0.4573 -0.4158  0.1549
  463MPD2    C3 6892   3.420   1.245   1.846 -0.4919 -0.3544  0.1046
  463MPD2    C4 6893   3.463   1.163   1.944 -0.1187  0.0866  0.4335
  463MPD2    C5 6894   3.380   1.082   2.017 -0.5144  0.0466  0.3489
  463MPD2     H 6895   3.235   1.323   1.749  0.1631  2.1760  1.9649
  463MPD2    H1 6896   3.569   1.148   1.955 -0.3783 -1.5827  0.7022
  463MPD2    H2 6897   3.189   1.039   2.069 -1.3144  0.0726 -0.7012
  463MPD2    H3 6898   3.418   1.005   2.083 -0.9989  2.1832  3.1251
  463MPD2     N 6899   3.514   1.312   1.767 -0.0812  0.4554  0.1383
  463MPD2    H5 6900   3.610   1.301   1.800 -0.1877 -0.8909  0.0018
  463MPD2    N1 6901   3.051   1.182   1.874 -0.0150 -0.5832  0.5493
  463MPD2    H7 6902   3.018   1.254   1.810  2.4886  0.3764  0.3457
  464TMC3    C1 6903   2.817   1.137   1.886 -0.3150  0.4877 -0.4315
  464TMC3    C2 6904   2.774   1.255   1.833  0.0430 -0.4586  0.0124
  464TMC3    C3 6905   2.638   1.282   1.825  0.4207  0.7249  0.3950
  464TMC3    C4 6906   2.733   1.043   1.940 -0.0140 -0.3877 -0.4051
  464TMC3    C5 6907   2.598   1.070   1.922  0.3837 -0.5378  0.4768
  464TMC3    C6 6908   2.548   1.193   1.886 -0.4350  0.0772 -0.2632
  464TMC3     C 6909   2.953   1.113   1.938 -0.0257 -0.0535 -0.0012
  464TMC3     O 6910   2.970   1.024   2.018  0.2026  0.0170 -0.0359
  464TMC3     H 6911   2.845   1.332   1.806 -1.9880  0.8153 -1.7093
  464TMC3    H1 6912   2.770   0.946   1.972 -1.1459 -0.6110  0.2299
  464TMC3    H2 6913   2.441   1.190   1.872 -0.7914 -0.3534  2.4467
  464TMC3    C7 6914   2.499   0.989   1.990 -0.1009 -0.9501  0.2766
  464TMC3    C8 6915   2.593   1.414   1.780  0.3816 -0.0135  0.1526
  464TMC3    O1 6916   2.422   1.035   2.075  0.0320  0.4164  0.1626
  464TMC3    O2 6917   2.681   1.484   1.733  0.3487  0.0769  0.4610
  465MPD2     C 6918   0.125   4.592  16.607 -0.5331 -0.0467  0.2141
  465MPD2    C1 6919   0.055   4.686  16.678 -0.0847 -0.1587 -0.1796
  465MPD2    C2 6920   4.659   0.026  16.624  0.5816 -0.1167  0.1425
  465MPD2    C3 6921   4.626   4.718  16.491 -0.5678  0.1199 -0.1752
  465MPD2    C4 6922   4.704   4.633  16.419 -0.8101  0.2641  0.6228
  465MPD2    C5 6923   0.083   4.566  16.477  0.5270  0.2952 -0.6713
  465MPD2     H 6924   4.585   0.083  16.678  1.9406  1.2878  0.5039
  465MPD2    H1 6925   4.683   4.617  16.314 -1.4681 -1.5504  1.0286
  465MPD2    H2 6926   0.209   4.547  16.659  0.1007  1.6170  0.6393
  465MPD2    H3 6927   0.144   4.493  16.426 -1.7182 -0.7120 -1.9497
  465MPD2     N 6928   4.501   0.049  16.443  0.1219 -0.7568  0.5756
  465MPD2    H5 6929   4.429   0.091  16.502 -1.0141 -0.7398 -0.8260
  465MPD2    N1 6930   0.090   0.006  16.818 -0.6335  0.0601  0.4642
  465MPD2    H7 6931   0.022   0.070  16.857  0.2906  1.9711 -1.0413
  466TMC3    C1 6932   4.118   0.135  16.290 -0.3428  0.0005 -0.3672
  466TMC3    C2 6933   4.115   0.263  16.236  0.3339 -0.1885  0.9152
  466TMC3    C3 6934   4.238   0.323  16.204  0.6657  0.0850  0.2396
  466TMC3    C4 6935   4.234   0.073  16.316 -0.5492  0.0314  0.2698
  466TMC3    C5 6936   4.349   0.130  16.271 -0.0820  0.0254 -0.0821
  466TMC3    C6 6937   4.357   0.260  16.218  0.0369 -0.0332 -0.3591
  466TMC3     C 6938   4.000   0.078  16.367  0.3845  0.2169  0.1447
  466TMC3     O 6939   4.019   4.702  16.439 -0.3768  0.0374  0.0269
  466TMC3     H 6940   4.020   0.305  16.208 -0.5455 -2.5224  0.3905
  466TMC3    H1 6941   4.236   4.701  16.373  0.3156  1.5008  2.6010
  466TMC3    H2 6942   4.453   0.306  16.200  1.1376 -2.6801 -1.3569
  466TMC3    C7 6943   4.476   0.076  16.311 -0.2910  0.1850  0.0105
  466TMC3    C8 6944   4.243   0.462  16.238 -0.1854  0.4383  0.4389
  466TMC3    O1 6945   4.548   0.064  16.216 -0.1200  0.3309  0.0464
  466TMC3    O2 6946   4.331   0.534  16.190 -0.2427 -0.6334 -0.5530
  467TMC3    C1 6947   0.824   2.855  13.980  0.8330 -0.3022 -0.0202
  467TMC3    C2 6948   0.797   2.800  13.862 -0.0449  0.0378 -0.5261
  467TMC3    C3 6949   0.678   2.732  13.845 -0.1272 -0.0310  0.4355
  467TMC3    C4 6950   0.739   2.846  14.086 -0.4874 -0.1498  0.0737
  467TMC3    C5 6951   0.630   2.764  14.073  0.0020 -0.1322  0.9559
  467TMC3    C6 6952   0.590   2.716  13.949 -0.1368 -0.0521  0.1172
  467TMC3     C 6953   0.937   2.950  13.983 -0.4525  0.3087 -0.5927
  467TMC3     O 6954   1.040   2.912  14.027  0.8041 -0.0003 -0.1603
  467TMC3     H 6955   0.877   2.791  13.789  1.3159 -1.8226  1.1965
  467TMC3    H1 6956   0.768   2.876  14.186  2.8538  1.1910 -1.3005
  467TMC3    H2 6957   0.501   2.657  13.928 -0.2175 -1.2402  3.7989
  467TMC3    C7 6958   0.558   2.734  14.193  0.0680 -0.1992  0.6163
  467TMC3    C8 6959   0.647   2.702  13.704  0.0624 -0.3658  0.3018
  467TMC3    O1 6960   0.615   2.730  14.299 -0.3877 -0.0908  0.4755
  467TMC3    O2 6961   0.729   2.726  13.618 -0.1265  0.1583 -0.3062
  468MPD2     C 6962   4.042   1.259  10.813  0.0942 -0.0389  0.1369
  468MPD2    C1 6963   4.174   1.216  10.828 -0.8374 -0.0821  0.1051
  468MPD2    C2 6964   4.198   1.085  10.812 -0.3557 -0.6173 -0.5951
  468MPD2    C3 6965   4.094   0.992  10.776  0.1471 -0.5794  0.8332
  468MPD2    C4 6966   3.970   1.045  10.748  0.0154  0.0102 -0.3198
  468MPD2    C5 6967   3.942   1.178  10.769  0.0657  0.1326  0.2410
  468MPD2     H 6968   4.299   1.046  10.824 -0.5860 -1.0508 -0.0539
  468MPD2    H1 6969   3.882   0.984  10.732  1.3701 -2.6061  2.2039
  468MPD2    H2 6970   4.007   1.361  10.828 -2.1387 -0.6680 -0.8564
  468MPD2    H3 6971   3.838   1.207  10.762 -0.1143 -0.5027  0.2866
  468MPD2     N 6972   4.109   0.847  10.773 -0.2080 -0.8146  0.6271
  468MPD2    H5 6973   4.026   0.798  10.741 -0.7524 -1.1091  2.4427
  468MPD2    N1 6974   4.278   1.297  10.849  0.1409  0.3348  0.7457
  468MPD2    H7 6975   4.369   1.254  10.838  0.0242  0.7859 -2.0530
  469TMC3    C1 6976   4.398   1.497  10.896  0.9488  0.3515  0.3962
  469TMC3    C2 6977   4.490   1.434  10.969  0.2011 -0.4274  0.0531
  469TMC3    C3 6978   4.611   1.492  10.986  0.3093  0.4033 -0.3142
  469TMC3    C4 6979   4.423   1.621  10.846  0.0477  0.5502  0.2198
  469TMC3    C5 6980   4.540   1.687  10.880  0.5511 -0.4708 -0.2883
  469TMC3    C6 6981   4.640   1.615  10.943  0.4693 -0.0199 -0.7593
  469TMC3     C 6982   4.271   1.435  10.871 -0.6977 -0.0114 -0.4961
  469TMC3     O 6983   4.174   1.511  10.864  0.3604  0.0290  0.6382
  469TMC3     H 6984   4.459   1.353  11.035 -0.7878  0.3438  0.5384
  469TMC3    H1 6985   4.346   1.667  10.786  0.0491  0.1661 -0.0780
  469TMC3    H2 6986   0.023   1.645  10.953  0.0842  1.9383 -2.6644
  469TMC3    C7 6987   4.498   1.811  10.948 -0.3756  0.0396  0.2937
  469TMC3    C8 6988   4.680   1.430  11.097  0.5246  0.5416  0.2066
  469TMC3    O1 6989   4.420   1.887  10.890  0.3066 -0.3181 -0.3649
  469TMC3    O2 6990   0.034   1.498  11.161  0.3973  0.3534  0.1876
  470TMC3    C1 6991   1.796   2.276   0.773 -0.1831  0.2225  0.2342
  470TMC3    C2 6992   1.746   2.372   0.692  0.1659 -1.0021 -0.1819
  470TMC3    C3 6993   1.813   2.495   0.686 -0.1512 -0.4937 -0.1322
  470TMC3    C4 6994   1.905   2.290   0.855  0.6884 -0.2880  0.4305
  470TMC3    C5 6995   1.971   2.402   0.837 -0.2930 -0.4172  0.0975
  470TMC3    C6 6996   1.933   2.503   0.754  0.6608  0.4208 -0.1214
  470TMC3     C 6997   1.753   2.144   0.734  0.4864  0.6961  0.1828
  470TMC3     O 6998   1.688   2.129   0.629 -0.3803 -0.6753 -1.0265
  470TMC3     H 6999   1.657   2.349   0.635  0.0077 -2.4068  0.6483
  470TMC3    H1 7000   1.941   2.215   0.925  2.1722 -0.0928 -0.1278
  470TMC3    H2 7001   1.996   2.592   0.750  3.9107 -1.8948 -0.8492
  470TMC3    C7 7002   2.073   2.428   0.933 -0.1569 -0.2178  0.6968
  470TMC3    C8 7003   1.756   2.614   0.641  0.0708  0.0694 -0.6689
  470TMC3    O1 7004   2.165   2.498   0.888  0.6693 -0.7130  0.2885
  470TMC3    O2 7005   1.830   2.713   0.636  0.2861 -0.7862  0.1910
  471MPD2     C 7006   2.461   3.525  16.566 -0.6709  0.4287 -0.2012
  471MPD2    C1 7007   2.525   3.403  16.570 -0.3661  0.2576 -0.3588
  471MPD2    C2 7008   2.579   3.361  16.686  0.5601 -0.1721  0.0726
  471MPD2    C3 7009   2.556   3.427  16.801  0.5346  0.4988 -0.3142
  471MPD2    C4 7010   2.480   3.544  16.799  0.1364 -0.0609 -0.0927
  471MPD2    C5 7011   2.441   3.598  16.677  0.2067 -0.5287 -0.2105
  471MPD2     H 7012   2.638   3.270  16.684 -1.0504 -1.2035 -0.2437
  471MPD2    H1 7013   2.441   3.589  16.889  1.7802  0.4436  0.3670
  471MPD2    H2 7014   2.415   3.550  16.471 -0.3589 -1.1620 -0.7663
  471MPD2    H3 7015   2.382   3.689  16.672 -0.1055 -0.6825  0.8594
  471MPD2     N 7016   2.612   3.383  16.932 -0.0100  0.3974 -0.3392
  471MPD2    H5 7017   2.589   3.429  17.019 -2.1542  0.4172 -0.9145
  471MPD2    N1 7018   2.528   3.317  16.458  0.1643  0.0666  0.0683
  471MPD2    H7 7019   2.582   3.231  16.469 -0.3327 -0.1925  0.5406
  472TMC3    C1 7020   2.484   3.211  16.253  0.0181  0.3333  0.3870
  472TMC3    C2 7021   2.474   3.219  16.120  0.3441  0.3487 -0.5313
  472TMC3    C3 7022   2.453   3.104  16.051  1.0475 -0.3925  0.0422
  472TMC3    C4 7023   2.503   3.094  16.320  0.4194 -0.1367 -0.8272
  472TMC3    C5 7024   2.478   2.979  16.251  0.3770 -0.0964  0.6284
  472TMC3    C6 7025   2.465   2.980  16.111 -0.2004 -0.3774  0.2070
  472TMC3     C 7026   2.486   3.336  16.329  0.2871 -0.4767  0.0317
  472TMC3     O 7027   2.439   3.433  16.270 -0.4744  0.2428 -0.5674
  472TMC3     H 7028   2.439   3.314  16.080 -0.3869  0.3769  0.1727
  472TMC3    H1 7029   2.505   3.084  16.428 -0.8328  1.9375 -0.6333
  472TMC3    H2 7030   2.466   2.897  16.042 -1.1402 -2.0276  2.1777
  472TMC3    C7 7031   2.424   2.871  16.326 -0.0125  0.8597 -0.4373
  472TMC3    C8 7032   2.343   3.110  15.951 -0.0624  0.0207 -0.9575
  472TMC3    O1 7033   2.382   2.887  16.441 -0.4895  0.1407 -0.4723
  472TMC3    O2 7034   2.349   3.192  15.863  0.2322 -0.0033  0.0925
  473MPD2     C 7035   2.458   0.462  14.158  0.0758 -0.2167  0.0287
  473MPD2    C1 7036   2.444   0.571  14.068 -0.7790  1.0198  1.0199
  473MPD2    C2 7037   2.540   0.673  14.066 -0.1130 -0.4071  0.2773
  473MPD2    C3 7038   2.629   0.675  14.176 -0.2419  0.1703 -0.3485
  473MPD2    C4 7039   2.653   0.561  14.248  0.0819 -0.2214  0.0458
  473MPD2    C5 7040   2.563   0.455  14.242 -0.1454 -0.1993 -0.0709
  473MPD2     H 7041   2.533   0.752  13.993 -1.1472 -2.0501 -1.3957
  473MPD2    H1 7042   2.729   0.567  14.324 -0.3136 -1.0862  0.5122
  473MPD2    H2 7043   2.378   0.389  14.168 -1.7861  1.7617 -0.3933
  473MPD2    H3 7044   2.565   0.373  14.313 -1.5891  0.1150  0.3410
  473MPD2     N 7045   2.704   0.790  14.207 -1.0822 -0.1095  0.1737
  473MPD2    H5 7046   2.755   0.782  14.294  2.3815  0.2341 -1.8553
  473MPD2    N1 7047   2.346   0.581  13.971 -0.5447  0.1174 -0.1328
  473MPD2    H7 7048   2.343   0.662  13.910 -0.4934 -0.9626 -1.5486
  474TMC3    C1 7049   2.755   1.022  14.224 -0.1612  0.3432 -0.4742
  474TMC3    C2 7050   2.672   1.131  14.245 -0.0156 -0.1585  0.2982
  474TMC3    C3 7051   2.706   1.220  14.340 -0.0783 -0.1804 -0.3750
  474TMC3    C4 7052   2.862   0.997  14.305 -0.5510  0.9038  0.3222
  474TMC3    C5 7053   2.875   1.078  14.411  0.3753  0.2931 -0.1115
  474TMC3    C6 7054   2.798   1.190  14.429  0.5073  0.2162 -0.6157
  474TMC3     C 7055   2.681   0.918  14.156 -0.2621  0.2100  0.5289
  474TMC3     O 7056   2.615   0.949  14.056  0.0249  0.0981 -0.4204
  474TMC3     H 7057   2.575   1.144  14.199 -0.3028  3.0110  1.7947
  474TMC3    H1 7058   2.932   0.917  14.284 -0.0238  1.3082  0.5359
  474TMC3    H2 7059   2.810   1.255  14.515 -0.7964 -0.7009  0.2455
  474TMC3    C7 7060   2.948   1.020  14.529  0.7084 -0.3623 -0.8143
  474TMC3    C8 7061   2.583   1.288  14.377  0.3176  0.0135 -0.5353
  474TMC3    O1 7062   3.035   0.940  14.499  0.2323  0.3253  0.2240
  474TMC3    O2 7063   2.492   1.236  14.443  0.0691 -0.2748 -0.8175
  475MPD2     C 7064   0.862   4.276  11.459 -1.0108  0.5599  0.2150
  475MPD2    C1 7065   0.726   4.271  11.450  0.1611  0.4138  0.2861
  475MPD2    C2 7066   0.662   4.353  11.357 -0.7102  1.1320 -0.0426
  475MPD2    C3 7067   0.732   4.437  11.272 -0.6359  0.1915  0.5129
  475MPD2    C4 7068   0.870   4.438  11.291  0.0926 -0.0147 -0.1134
  475MPD2    C5 7069   0.936   4.368  11.389 -0.0650  0.2966  0.1316
  475MPD2     H 7070   0.554   4.337  11.352 -0.6007  0.0848  1.0616
  475MPD2    H1 7071   0.932   4.500  11.227 -1.8125 -0.0710 -2.0038
  475MPD2    H2 7072   0.918   4.233  11.541  2.2512  1.7448 -1.3757
  475MPD2    H3 7073   1.043   4.378  11.402  0.1166  2.7340 -3.3068
  475MPD2     N 7074   0.658   4.504  11.173 -0.0788  0.0211  0.3662
  475MPD2    H5 7075   0.559   4.484  11.169  0.0666 -0.7874  0.8920
  475MPD2    N1 7076   0.663   4.174  11.528 -0.0414  0.6698 -0.1276
  475MPD2    H7 7077   0.722   4.116  11.586  1.2757  1.9462 -0.1942
  476TMC3    C1 7078   0.509   4.004  11.530 -0.7403 -0.2626 -0.7614
  476TMC3    C2 7079   0.378   3.968  11.514 -0.0231 -0.3669  0.0392
  476TMC3    C3 7080   0.336   3.873  11.426  0.3756 -0.1028  0.1562
  476TMC3    C4 7081   0.597   3.947  11.439  0.4216  0.2096  0.7546
  476TMC3    C5 7082   0.551   3.876  11.331 -0.0755 -0.9887  0.0247
  476TMC3    C6 7083   0.418   3.833  11.325  0.7501  0.3912  0.2159
  476TMC3     C 7084   0.526   4.151  11.545 -0.1310 -0.2338  0.3659
  476TMC3     O 7085   0.428   4.222  11.514 -0.5368  0.3025  0.8262
  476TMC3     H 7086   0.305   4.002  11.587  1.7015 -0.8791  1.9965
  476TMC3    H1 7087   0.705   3.949  11.444  0.5217  0.6620 -1.6120
  476TMC3    H2 7088   0.377   3.796  11.232  0.7609  1.1536 -0.0903
  476TMC3    C7 7089   0.644   3.857  11.220  0.1401 -0.1150 -0.1535
  476TMC3    C8 7090   0.197   3.835  11.424  0.2278  0.1704  0.5256
  476TMC3    O1 7091   0.637   3.762  11.148  0.2155  0.5841 -0.6436
  476TMC3    O2 7092   0.116   3.914  11.473  0.4249  0.5248  0.4730
  477MPD2     C 7093   2.304   0.367  11.606  0.4709  0.2377 -0.5620
  477MPD2    C1 7094   2.423   0.435  11.624  0.1465  0.1777  0.1176
  477MPD2    C2 7095   2.514   0.405  11.724  0.5098  0.5876  0.1502
  477MPD2    C3 7096   2.475   0.297  11.808  0.0698 -0.0496  0.0666
  477MPD2    C4 7097   2.348   0.235  11.795 -0.3952  0.2312  0.0913
  477MPD2    C5 7098   2.267   0.266  11.693  0.1018 -0.1339 -0.5425
  477MPD2     H 7099   2.606   0.462  11.735  0.5064  0.5929  0.1509
  477MPD2    H1 7100   2.310   0.156  11.859 -2.7146  1.7849  0.6259
  477MPD2    H2 7101   2.239   0.393  11.524 -0.1476  0.6503  0.0625
  477MPD2    H3 7102   2.175   0.211  11.673  0.4115 -0.6301 -0.5910
  477MPD2     N 7103   2.562   0.262  11.919 -0.3762  0.4525  0.0943
  477MPD2    H5 7104   2.651   0.309  11.931  0.1287 -0.4888  0.0517
  477MPD2    N1 7105   2.441   0.536  11.531 -0.1416 -0.3925 -0.4669
  477MPD2    H7 7106   2.368   0.547  11.461 -0.8396 -1.0159  0.1642
  478TMC3    C1 7107   2.539   0.721  11.423  0.0471  0.2871  0.9486
  478TMC3    C2 7108   2.581   0.848  11.445 -0.3599  0.0528  0.2839
  478TMC3    C3 7109   2.567   0.932  11.339 -0.3868 -0.1208  0.0109
  478TMC3    C4 7110   2.489   0.676  11.306  0.2289  0.2701  0.3637
  478TMC3    C5 7111   2.480   0.767  11.204 -0.3582  0.6841  0.2671
  478TMC3    C6 7112   2.517   0.897  11.211 -0.1826  0.1783  0.1695
  478TMC3     C 7113   2.542   0.629  11.539  0.3140 -0.3100 -0.3348
  478TMC3     O 7114   2.624   0.651  11.628 -0.3214 -0.2267 -0.0702
  478TMC3     H 7115   2.618   0.877  11.543  0.5381  1.6773 -0.5251
  478TMC3    H1 7116   2.479   0.571  11.284  0.1235  0.3878 -0.1562
  478TMC3    H2 7117   2.521   0.974  11.135  0.5027  1.8004  1.8375
  478TMC3    C7 7118   2.421   0.700  11.082  0.1585 -0.1685  0.4517
  478TMC3    C8 7119   2.601   1.075  11.360 -0.1384 -0.2170 -0.0326
  478TMC3    O1 7120   2.434   0.582  11.057 -0.1501 -0.4773  0.0829
  478TMC3    O2 7121   2.569   1.154  11.277 -0.8441 -0.1444  0.0237
  479MPD2     C 7122   1.858   1.906  15.444  0.1254  0.2673 -0.3994
  479MPD2    C1 7123   1.742   1.977  15.446 -0.1581  0.4116 -0.4326
  479MPD2    C2 7124   1.744   2.107  15.492  0.3771  0.4276 -1.0395
  479MPD2    C3 7125   1.856   2.153  15.557 -0.2001  0.1614 -0.5427
  479MPD2    C4 7126   1.980   2.079  15.559  0.3497 -0.5823 -0.0177
  479MPD2    C5 7127   1.981   1.956  15.489 -0.4646 -0.4649 -0.4348
  479MPD2     H 7128   1.658   2.172  15.498  0.0821 -0.0771  0.2305
  479MPD2    H1 7129   2.077   2.115  15.593  0.0304 -1.5398  1.9334
  479MPD2    H2 7130   1.853   1.805  15.406 -1.5654  0.6593 -1.2259
  479MPD2    H3 7131   2.071   1.895  15.489  1.3611  2.2383  0.2402
  479MPD2     N 7132   1.847   2.280  15.606  0.1606  0.1361  0.1875
  479MPD2    H5 7133   1.760   2.330  15.592  0.1595  0.2275  0.5093
  479MPD2    N1 7134   1.627   1.918  15.389 -0.0742 -0.0721  0.3668
  479MPD2    H7 7135   1.630   1.827  15.343 -2.3183 -0.4096  0.8632
  480TMC3    C1 7136   1.688   2.437  15.881 -0.1034  0.4862 -0.0915
  480TMC3    C2 7137   1.655   2.558  15.832  0.0408 -0.3172  0.1914
  480TMC3    C3 7138   1.728   2.608  15.735 -0.0885  0.0350  0.5820
  480TMC3    C4 7139   1.817   2.385  15.858 -0.0310  0.5289  0.3609
  480TMC3    C5 7140   1.893   2.444  15.763  0.4917 -0.5148  0.1978
  480TMC3    C6 7141   1.849   2.556  15.697  0.1886  0.9300  0.2699
  480TMC3     C 7142   1.594   2.334  15.922 -0.2348 -0.5136  0.1415
  480TMC3     O 7143   1.637   2.244  15.987  0.1606 -0.4069 -0.0978
  480TMC3     H 7144   1.561   2.603  15.862  0.9703  1.6913  0.0952
  480TMC3    H1 7145   1.850   2.288  15.896  0.9987  0.3326 -1.0301
  480TMC3    H2 7146   1.905   2.589  15.611 -1.2754  2.1722 -0.2119
  480TMC3    C7 7147   1.947   2.338  15.690  0.1251  0.6240 -0.6451
  480TMC3    C8 7148   1.677   2.727  15.667 -0.1242  0.5487 -0.1862
  480TMC3    O1 7149   2.057   2.300  15.724  0.0877  0.7875 -0.2647
  480TMC3    O2 7150   1.586   2.792  15.716 -0.0269  0.1015  0.4701
  481MPD2     C 7151   3.753   2.009  14.570 -0.5831 -0.4961 -0.0632
  481MPD2    C1 7152   3.615   2.002  14.560 -0.6646 -0.0071  0.4475
  481MPD2    C2 7153   3.545   2.008  14.682 -0.1965 -0.3420 -0.2965
  481MPD2    C3 7154   3.601   2.030  14.804  0.2307 -0.2680 -0.2698
  481MPD2    C4 7155   3.734   2.037  14.801 -0.4343 -0.1969  0.2578
  481MPD2    C5 7156   3.809   2.012  14.693  0.3733 -0.3648 -0.1679
  481MPD2     H 7157   3.438   1.992  14.675  0.4517 -4.4574 -1.0153
  481MPD2    H1 7158   3.785   2.057  14.895  1.3739  0.5101 -0.8901
  481MPD2    H2 7159   3.818   2.021  14.484  1.9999 -1.4351  1.7460
  481MPD2    H3 7160   3.916   2.011  14.710  0.4330 -0.6727 -0.5657
  481MPD2     N 7161   3.517   2.056  14.914  0.0822 -0.4371 -0.3219
  481MPD2    H5 7162   3.570   2.067  14.999  1.5965  1.0735 -1.4681
  481MPD2    N1 7163   3.554   1.992  14.430  0.1813  0.0882  0.0898
  481MPD2    H7 7164   3.611   2.001  14.347  1.2895 -0.0977  0.8401
  482TMC3    C1 7165   3.371   1.973  14.272 -0.0881  0.2010 -0.4787
  482TMC3    C2 7166   3.445   1.925  14.160 -0.2850  0.2759  0.1667
  482TMC3    C3 7167   3.376   1.896  14.044  0.6067 -0.2797 -0.1117
  482TMC3    C4 7168   3.235   1.984  14.265  0.4706  0.3047 -0.4190
  482TMC3    C5 7169   3.174   1.957  14.140 -0.0805 -0.0578  0.2212
  482TMC3    C6 7170   3.244   1.926  14.029 -0.8605 -0.2060 -0.0848
  482TMC3     C 7171   3.417   1.967  14.409  0.0287  0.3624  0.0301
  482TMC3     O 7172   3.330   1.932  14.489 -0.3501  0.2429 -0.1796
  482TMC3     H 7173   3.552   1.910  14.150 -0.7180 -2.2822 -0.4587
  482TMC3    H1 7174   3.162   2.007  14.342  0.8803  0.6202 -0.1325
  482TMC3    H2 7175   3.195   1.894  13.939  1.6492 -1.4777 -1.0101
  482TMC3    C7 7176   3.035   1.931  14.145  0.6852  0.4041  0.1568
  482TMC3    C8 7177   3.431   1.809  13.938 -0.1270 -0.2165 -0.6093
  482TMC3    O1 7178   2.979   1.878  14.241  0.4187 -0.1086  0.4420
  482TMC3    O2 7179   3.355   1.760  13.855  0.5983 -0.3084  0.1494
  483TMC3    C1 7180   1.864   1.647   1.529  0.5788 -0.5126 -0.6933
  483TMC3    C2 7181   1.915   1.702   1.413  0.1567 -0.1904  0.0866
  483TMC3    C3 7182   2.025   1.640   1.364 -0.2643  0.3660 -0.1260
  483TMC3    C4 7183   1.923   1.536   1.594 -0.7143  0.1205 -0.6333
  483TMC3    C5 7184   2.030   1.481   1.530 -0.1693  0.1169 -0.1290
  483TMC3    C6 7185   2.088   1.531   1.418  0.5560 -0.2142  0.2510
  483TMC3     C 7186   1.723   1.618   1.498 -0.2482  1.0321 -0.5391
  483TMC3     O 7187   1.641   1.701   1.468 -0.5182 -0.2807  0.4521
  483TMC3     H 7188   1.863   1.774   1.350 -1.2530  1.6457  3.3563
  483TMC3    H1 7189   1.884   1.486   1.682 -1.1300 -1.4492 -1.7159
  483TMC3    H2 7190   2.168   1.477   1.369 -0.6111  0.7766 -2.7639
  483TMC3    C7 7191   2.074   1.346   1.565  0.2108  0.2272 -0.4703
  483TMC3    C8 7192   2.091   1.710   1.248 -0.2121  0.2637  0.1415
  483TMC3    O1 7193   1.990   1.274   1.618 -0.1845 -0.3036 -0.6440
  483TMC3    O2 7194   2.042   1.818   1.214 -0.0639  0.2321 -0.9690
  484MPD2     C 7195   3.845   3.873  12.315  0.1682 -0.2501  0.4794
  484MPD2    C1 7196   3.862   3.907  12.451 -0.0031 -0.4030 -0.3937
  484MPD2    C2 7197   3.992   3.910  12.503  0.1564 -0.5480 -0.7521
  484MPD2    C3 7198   4.095   3.843  12.432  0.2179 -0.7465 -0.3576
  484MPD2    C4 7199   4.068   3.794  12.305  0.2444 -0.7796  0.1177
  484MPD2    C5 7200   3.945   3.812  12.250 -0.4635  0.4827  0.4268
  484MPD2     H 7201   4.016   3.944  12.603 -0.2461 -1.1013 -0.4667
  484MPD2    H1 7202   4.146   3.756  12.239  0.6700  1.5605 -0.7288
  484MPD2    H2 7203   3.744   3.876  12.276  0.5051  0.3309 -0.3617
  484MPD2    H3 7204   3.924   3.797  12.144  0.3001 -0.7325  0.4537
  484MPD2     N 7205   4.218   3.829  12.495  0.7062  0.0293  0.5051
  484MPD2    H5 7206   4.231   3.863  12.589  1.6725  0.4547  0.2130
  484MPD2    N1 7207   3.748   3.959  12.518  0.3973  0.3555  0.2028
  484MPD2    H7 7208   3.662   3.932  12.472 -0.9035  1.8981  1.7318
  485TMC3    C1 7209   4.439   3.758  12.522 -0.6013  0.2256  0.2858
  485TMC3    C2 7210   4.408   3.685  12.630  0.0566 -0.3669  0.7372
  485TMC3    C3 7211   4.493   3.594  12.678 -0.2647 -0.5488  0.1157
  485TMC3    C4 7212   4.559   3.748  12.464 -0.2232  0.3932  0.2845
  485TMC3    C5 7213   4.643   3.654  12.513 -0.7080 -0.4424  0.8040
  485TMC3    C6 7214   4.610   3.570  12.614 -0.0005 -0.4456 -0.0028
  485TMC3     C 7215   4.331   3.775  12.429  0.0731  0.1039 -0.3235
  485TMC3     O 7216   4.353   3.726  12.320  0.1275 -0.3558  0.4698
  485TMC3     H 7217   4.308   3.700  12.670 -0.5727  0.4138 -1.1247
  485TMC3    H1 7218   4.589   3.802  12.375 -1.2697  1.6086  0.6702
  485TMC3    H2 7219   4.665   3.483  12.648 -1.1432 -0.5254  1.7016
  485TMC3    C7 7220   4.696   3.578  12.397 -1.3824 -0.5744  0.0174
  485TMC3    C8 7221   4.417   3.470  12.701  0.5821  0.4065 -0.3012
  485TMC3    O1 7222   0.006   3.647  12.301  0.2612 -0.2350 -0.5544
  485TMC3    O2 7223   4.447   3.386  12.619  0.4623 -0.1280  0.5485
  486MPD2     C 7224   1.579   2.757  13.219 -0.1094  0.2368  0.7597
  486MPD2    C1 7225   1.560   2.802  13.094 -0.3284  0.1931 -0.0085
  486MPD2    C2 7226   1.558   2.937  13.067 -0.3596 -0.6735 -0.5953
  486MPD2    C3 7227   1.560   3.030  13.168 -0.8172  0.5701 -0.9386
  486MPD2    C4 7228   1.577   2.985  13.300  0.6111  0.3884 -0.5817
  486MPD2    C5 7229   1.594   2.850  13.321  0.3960  0.0241  0.4082
  486MPD2     H 7230   1.559   2.973  12.965 -0.5036  1.5257  0.1834
  486MPD2    H1 7231   1.590   3.055  13.382 -2.1902  0.0717  0.1159
  486MPD2    H2 7232   1.577   2.650  13.237  3.9512 -0.6138 -3.7659
  486MPD2    H3 7233   1.600   2.808  13.421  1.2194 -1.5903 -0.3149
  486MPD2     N 7234   1.570   3.167  13.130 -0.1505  0.0913  0.0856
  486MPD2    H5 7235   1.579   3.185  13.030  1.4473  0.6908  0.3417
  486MPD2    N1 7236   1.568   2.700  12.993  0.4711  0.6878  0.1046
  486MPD2    H7 7237   1.569   2.602  13.020  0.0347  0.8771  0.7918
  487TMC3    C1 7238   1.567   2.605  12.779  0.2984  0.6092 -0.5669
  487TMC3    C2 7239   1.456   2.575  12.708 -0.0608 -0.5040 -0.1770
  487TMC3    C3 7240   1.427   2.442  12.705  0.4632  0.6157 -0.3237
  487TMC3    C4 7241   1.641   2.514  12.847 -0.5535  0.0193 -0.3546
  487TMC3    C5 7242   1.598   2.388  12.857 -0.6188  0.4010 -0.1759
  487TMC3    C6 7243   1.503   2.343  12.766 -0.3867 -0.1276 -0.8390
  487TMC3     C 7244   1.561   2.728  12.856  1.5229 -0.0958  0.3762
  487TMC3     O 7245   1.536   2.837  12.810  0.2103 -0.5138 -0.4847
  487TMC3     H 7246   1.383   2.643  12.667  1.5152  1.0552 -0.3730
  487TMC3    H1 7247   1.726   2.548  12.904 -2.2934 -0.3291  2.4823
  487TMC3    H2 7248   1.477   2.237  12.770  0.1551 -0.2764 -1.2968
  487TMC3    C7 7249   1.567   2.365  13.000 -0.7314  0.2150  0.0165
  487TMC3    C8 7250   1.290   2.426  12.733  0.0200  0.2985  0.2847
  487TMC3    O1 7251   1.619   2.442  13.077  0.3801 -0.3520 -0.0592
  487TMC3    O2 7252   1.234   2.519  12.790  0.1808  0.2854 -0.5529
  488MPD2     C 7253   1.317   4.394  16.299  0.0049 -0.0340 -0.7569
  488MPD2    C1 7254   1.440   4.387  16.364 -0.1550  0.9517  0.3843
  488MPD2    C2 7255   1.443   4.331  16.487 -0.2976 -1.0113 -1.1194
  488MPD2    C3 7256   1.340   4.257  16.537  0.0436  0.7177  0.3939
  488MPD2    C4 7257   1.220   4.260  16.470 -0.3823 -0.6333 -0.5212
  488MPD2    C5 7258   1.208   4.325  16.351 -0.6738 -0.0772  0.0259
  488MPD2     H 7259   1.535   4.342  16.544 -0.8497 -0.8502 -0.2639
  488MPD2    H1 7260   1.130   4.212  16.506 -0.0299 -2.0298 -1.5086
  488MPD2    H2 7261   1.318   4.443  16.202  1.3900  0.9017 -0.2765
  488MPD2    H3 7262   1.113   4.333  16.299  0.6813  0.6152 -2.3510
  488MPD2     N 7263   1.357   4.213  16.670 -0.7137  0.4341 -0.4047
  488MPD2    H5 7264   1.450   4.228  16.709 -0.5844 -1.1467 -0.1034
  488MPD2    N1 7265   1.551   4.455  16.313 -0.0231 -0.3130  0.4095
  488MPD2    H7 7266   1.635   4.456  16.369 -0.3318  1.9464  0.8261
  489TMC3    C1 7267   1.306   4.128  16.886  0.3597 -0.7943  0.0435
  489TMC3    C2 7268   1.409   4.210  16.933  0.3259  0.6622  0.0468
  489TMC3    C3 7269   1.413   4.231  17.068 -0.0995  0.7920  0.6542
  489TMC3    C4 7270   1.228   4.063  16.967  0.3576  0.2166  0.5210
  489TMC3    C5 7271   1.251   4.071  17.105 -0.1856  0.3557  0.0073
  489TMC3    C6 7272   1.332   4.160  17.161  0.4727  0.5357 -0.7754
  489TMC3     C 7273   1.256   4.163  16.749 -0.0242 -0.1742  0.8288
  489TMC3     O 7274   1.143   4.129  16.724 -0.1145 -0.5370 -0.5234
  489TMC3     H 7275   1.472   4.270  16.869 -0.0593 -0.6701 -1.5707
  489TMC3    H1 7276   1.149   4.015  16.910  2.2150 -0.7367 -1.2671
  489TMC3    H2 7277   1.349   4.169  17.268 -0.4825  1.3569 -0.6892
  489TMC3    C7 7278   1.157   4.000  17.193  0.0011  0.1788 -1.1960
  489TMC3    C8 7279   1.517   4.319  17.116  0.7595  0.4775  0.0467
  489TMC3    O1 7280   1.194   3.992  17.310 -0.1604 -0.3761  0.0759
  489TMC3    O2 7281   1.599   4.347  17.032  0.6174  0.5324 -0.0491
  490MPD2     C 7282   2.657   3.527  17.568  0.1962 -1.1098 -0.0269
  490MPD2    C1 7283   2.548   3.613  17.564  0.6258 -0.0992 -0.0524
  490MPD2    C2 7284   2.541   3.734  17.625 -0.7577 -0.3286 -0.5736
  490MPD2    C3 7285   2.651   3.777   0.011 -0.2687  0.3496  0.1656
  490MPD2    C4 7286   2.761   3.705   0.013 -0.0733 -0.3725 -0.3781
  490MPD2    C5 7287   2.771   3.582  17.627  0.2521 -0.3772  0.1368
  490MPD2     H 7288   2.451   3.790  17.602 -1.3051 -0.5862  0.9117
  490MPD2    H1 7289   2.850   3.739   0.064 -1.3309 -0.1480  1.6572
  490MPD2    H2 7290   2.664   3.430  17.521 -2.7758 -0.3302 -2.0605
  490MPD2    H3 7291   2.856   3.516  17.630  0.7726  0.2357 -1.2441
  490MPD2     N 7292   2.663   3.909   0.070  0.2616 -0.3867  0.5965
  490MPD2    H5 7293   2.739   3.934   0.132 -0.0534  3.4262 -0.5848
  490MPD2    N1 7294   2.435   3.560  17.495 -0.2462  0.0226 -1.0794
  490MPD2    H7 7295   2.449   3.476  17.441 -1.0852 -1.9602  1.7881
  491TMC3    C1 7296   2.218   3.491  17.445  0.6039 -0.0178 -0.0982
  491TMC3    C2 7297   2.122   3.421  17.514  0.4133 -0.6468  0.9240
  491TMC3    C3 7298   2.048   3.335  17.435  0.5298  0.7974 -0.4141
  491TMC3    C4 7299   2.242   3.482  17.317  0.6932 -0.1991 -0.9269
  491TMC3    C5 7300   2.172   3.387  17.246 -0.1888  0.0530  0.4617
  491TMC3    C6 7301   2.075   3.309  17.305  0.6283 -0.3370 -0.2984
  491TMC3     C 7302   2.300   3.578  17.525  0.6564 -0.2431  0.2188
  491TMC3     O 7303   2.257   3.626  17.628  1.0509 -0.1796  0.3863
  491TMC3     H 7304   2.100   3.444  17.617  0.9041 -0.1961  0.9318
  491TMC3    H1 7305   2.310   3.550  17.266 -0.1739 -0.4291 -2.4012
  491TMC3    H2 7306   2.006   3.261  17.236  1.3748  1.2024 -2.1262
  491TMC3    C7 7307   2.179   3.377  17.107  0.3099  0.5550 -0.0459
  491TMC3    C8 7308   1.926   3.288  17.482  0.4588 -0.1518 -0.2294
  491TMC3    O1 7309   2.152   3.270  17.069  0.1552 -0.1449  0.0277
  491TMC3    O2 7310   1.885   3.350  17.583  0.6226  0.1687 -0.7385
  492MPD2     C 7311   2.786   4.131  11.381  0.1615  0.4679  0.2518
  492MPD2    C1 7312   2.721   4.029  11.322 -1.2739 -0.0125  0.1616
  492MPD2    C2 7313   2.650   3.933  11.396  1.3193  0.6469  0.5662
  492MPD2    C3 7314   2.646   3.940  11.537 -0.5386 -0.0615 -0.1208
  492MPD2    C4 7315   2.698   4.059  11.592  0.1416 -0.0572 -0.1588
  492MPD2    C5 7316   2.764   4.148  11.513  0.4253 -0.3864 -0.4177
  492MPD2     H 7317   2.617   3.844  11.343  0.3443  0.5170  1.3926
  492MPD2    H1 7318   2.682   4.086  11.696  1.7085 -0.3639  0.1744
  492MPD2    H2 7319   2.845   4.203  11.325 -0.8243  0.3425 -0.9424
  492MPD2    H3 7320   2.799   4.236  11.566 -1.1193 -1.9752  3.2285
  492MPD2     N 7321   2.575   3.852  11.627 -0.0656 -0.5181 -0.4514
  492MPD2    H5 7322   2.595   3.873  11.724  0.9818 -1.1984 -0.5304
  492MPD2    N1 7323   2.737   4.025  11.183  0.5202  0.7106 -0.0377
  492MPD2    H7 7324   2.783   4.105  11.141 -1.2051  0.2171 -2.9011
  493TMC3    C1 7325   2.727   3.959  10.952  0.0692  0.0960 -0.4207
  493TMC3    C2 7326   2.801   4.063  10.915 -0.0755 -0.7486  0.4875
  493TMC3    C3 7327   2.851   4.070  10.788 -0.0837 -0.5829  0.0991
  493TMC3    C4 7328   2.701   3.853  10.869 -0.0808  0.2349 -0.0994
  493TMC3    C5 7329   2.748   3.866  10.739 -0.3044 -0.2818 -0.2068
  493TMC3    C6 7330   2.827   3.972  10.702 -0.2194 -0.4362  0.3786
  493TMC3     C 7331   2.679   3.944  11.092 -0.0736  0.1399 -0.3591
  493TMC3     O 7332   2.592   3.855  11.107  0.5700  0.7032 -0.0737
  493TMC3     H 7333   2.825   4.147  10.979  0.0688 -0.7673  0.4588
  493TMC3    H1 7334   2.652   3.760  10.898  0.1574  0.5093  1.1963
  493TMC3    H2 7335   2.879   3.973  10.607  0.2079 -1.0372  0.6109
  493TMC3    C7 7336   2.652   3.808  10.643  0.0315  0.6001  0.2593
  493TMC3    C8 7337   2.946   4.179  10.767  0.2134  0.3482 -0.3579
  493TMC3    O1 7338   2.590   3.714  10.690  0.2457 -0.0323 -0.2392
  493TMC3    O2 7339   2.966   4.261  10.858 -0.4311 -0.0330  0.0593
  494TMC3    C1 7340   2.945   1.305   0.846 -0.3659  0.3002 -0.5429
  494TMC3    C2 7341   2.900   1.200   0.927 -0.0081 -0.5958 -0.3503
  494TMC3    C3 7342   2.950   1.078   0.891 -0.1825 -0.0052  0.0306
  494TMC3    C4 7343   3.022   1.293   0.726  0.0185 -0.6792  0.4474
  494TMC3    C5 7344   3.050   1.162   0.698 -0.8638  0.5825  0.1588
  494TMC3    C6 7345   3.030   1.049   0.781  0.5273 -0.0956 -0.5623
  494TMC3     C 7346   2.908   1.433   0.889 -0.8733 -0.3369  0.7061
  494TMC3     O 7347   2.806   1.436   0.960  0.5239 -0.2071 -0.5003
  494TMC3     H 7348   2.851   1.222   1.021  0.7393 -1.0954  0.1541
  494TMC3    H1 7349   3.031   1.368   0.648  0.7246 -0.7825  0.4308
  494TMC3    H2 7350   3.081   0.956   0.763  2.0327  0.5906  0.1245
  494TMC3    C7 7351   3.067   1.129   0.555  0.2027  0.0052  0.3221
  494TMC3    C8 7352   2.927   0.972   0.992  0.3451  0.1451 -0.6232
  494TMC3    O1 7353   3.136   1.200   0.483  0.1862 -0.0449 -0.6550
  494TMC3    O2 7354   2.993   0.871   0.987 -0.0839 -0.2511 -0.1508
  495TMC3    C1 7355   2.133   2.763  14.764  0.3264 -0.0238 -0.6470
  495TMC3    C2 7356   2.051   2.806  14.663  0.0669 -0.5568  0.4590
  495TMC3    C3 7357   1.931   2.861  14.703  0.2419  0.7021  0.1510
  495TMC3    C4 7358   2.100   2.782  14.888 -0.2028 -0.1290 -0.5390
  495TMC3    C5 7359   1.989   2.854  14.929 -0.1078  0.0092 -0.2822
  495TMC3    C6 7360   1.898   2.891  14.833  0.4783 -0.3970  0.0344
  495TMC3     C 7361   2.164   2.621  14.755 -0.4046  0.2378  0.5121
  495TMC3     O 7362   2.083   2.543  14.810  0.3565  0.2942  0.2750
  495TMC3     H 7363   2.081   2.784  14.561  0.4281  0.6435  0.3142
  495TMC3    H1 7364   2.156   2.730  14.965 -2.4933  0.4585  1.5577
  495TMC3    H2 7365   1.797   2.904  14.869  0.4271 -0.1976 -0.1820
  495TMC3    C7 7366   1.934   2.819  15.066 -0.1673  0.1970 -0.1833
  495TMC3    C8 7367   1.824   2.872  14.611  0.0816 -0.6309 -0.0535
  495TMC3    O1 7368   1.996   2.747  15.139 -0.2499  0.4346 -0.8990
  495TMC3    O2 7369   1.723   2.924  14.650  0.6679 -0.6452  0.3153
  496MPD2     C 7370   3.797   2.389  15.319  0.0834 -0.4585  0.7078
  496MPD2    C1 7371   3.906   2.404  15.400  0.9200  0.2294 -0.0852
  496MPD2    C2 7372   3.894   2.409  15.537  0.1571  0.6626  0.1588
  496MPD2    C3 7373   3.766   2.393  15.596  0.0877 -0.1200 -0.2009
  496MPD2    C4 7374   3.652   2.378  15.505 -0.6728  0.3532  1.0435
  496MPD2    C5 7375   3.676   2.361  15.371  0.4504 -0.4018  0.2784
  496MPD2     H 7376   3.976   2.408  15.609 -1.8797  0.4914  2.5026
  496MPD2    H1 7377   3.550   2.366  15.541  0.1186 -1.4672  2.7165
  496MPD2    H2 7378   3.806   2.366  15.214  0.1926  0.6446  0.4705
  496MPD2    H3 7379   3.600   2.324  15.302  2.1140 -1.3261 -1.0552
  496MPD2     N 7380   3.743   2.374  15.732  0.4978  0.1138  0.7353
  496MPD2    H5 7381   3.647   2.353  15.756  0.7714 -1.8406  0.1240
  496MPD2    N1 7382   4.028   2.417  15.331  0.3503 -0.0127 -0.1330
  496MPD2    H7 7383   4.024   2.383  15.235  0.1767 -1.4923  0.4061
  497TMC3    C1 7384   3.776   2.327  15.949 -0.6867 -0.3359 -0.1159
  497TMC3    C2 7385   3.666   2.249  15.933  0.1147  0.6755 -0.1236
  497TMC3    C3 7386   3.604   2.217  16.048  0.4386  0.5593 -0.3109
  497TMC3    C4 7387   3.822   2.367  16.068  0.3333 -0.5120  0.1990
  497TMC3    C5 7388   3.739   2.350  16.173 -0.0736  0.0899  0.0944
  497TMC3    C6 7389   3.630   2.267  16.168  0.0449  0.4965 -0.2068
  497TMC3     C 7390   3.831   2.392  15.832  0.4750 -0.2723  0.7000
  497TMC3     O 7391   3.940   2.452  15.842  0.3707 -0.0476  0.3239
  497TMC3     H 7392   3.648   2.193  15.842  0.1701  0.4243  0.0202
  497TMC3    H1 7393   3.903   2.439  16.060  1.4873 -1.6995  1.1533
  497TMC3    H2 7394   3.555   2.256  16.246 -2.2114  2.1482 -2.1438
  497TMC3    C7 7395   3.754   2.413  16.302  0.4415  0.4554  0.5960
  497TMC3    C8 7396   3.467   2.156  16.033  0.6242 -0.2507 -0.1870
  497TMC3    O1 7397   3.670   2.399  16.389 -0.3086  0.1964 -0.0589
  497TMC3    O2 7398   3.407   2.124  16.134 -0.0103 -0.1586  0.5223
  498MPD2     C 7399   0.411   4.180  11.117 -0.9301  0.2393 -0.6681
  498MPD2    C1 7400   0.393   4.126  10.991  0.2951 -0.6510  0.7534
  498MPD2    C2 7401   0.273   4.059  10.961  0.6671  0.0750 -0.4866
  498MPD2    C3 7402   0.179   4.053  11.062 -0.6046 -0.1953 -0.0111
  498MPD2    C4 7403   0.192   4.123  11.176  0.6300  0.2312 -0.0581
  498MPD2    C5 7404   0.310   4.179  11.210  0.9565 -0.9555 -0.1510
  498MPD2     H 7405   0.242   4.014  10.867  2.2578  0.8496 -1.3850
  498MPD2    H1 7406   0.110   4.130  11.247  0.4251 -0.2911 -0.2444
  498MPD2    H2 7407   0.507   4.224  11.143 -1.1788 -0.1564  0.8897
  498MPD2    H3 7408   0.329   4.220  11.308 -0.2741  0.0616 -0.3371
  498MPD2     N 7409   0.056   3.984  11.028  0.2176  0.8671  0.5636
  498MPD2    H5 7410   0.051   3.939  10.937 -1.5428 -0.6704  1.4235
  498MPD2    N1 7411   0.488   4.116  10.893 -0.1729  0.5693 -0.0271
  498MPD2    H7 7412   0.459   4.066  10.810 -0.2166 -1.8566  1.4657
  499TMC3    C1 7413   0.698   4.118  10.777 -0.0808  0.1293  0.4769
  499TMC3    C2 7414   0.832   4.148  10.786  1.6140 -0.4377 -0.1415
  499TMC3    C3 7415   0.912   4.090  10.690 -0.1337  0.3946 -0.0593
  499TMC3    C4 7416   0.645   4.047  10.677  0.5346 -0.1193 -0.2254
  499TMC3    C5 7417   0.728   3.994  10.581 -0.0588 -0.1629  0.0203
  499TMC3    C6 7418   0.864   4.008  10.585  0.1491 -0.3408  1.3266
  499TMC3     C 7419   0.622   4.165  10.891 -1.2326 -0.3780  0.3242
  499TMC3     O 7420   0.677   4.231  10.981  0.1916 -0.0256  0.0989
  499TMC3     H 7421   0.877   4.198  10.871  2.0868  0.3277 -0.8439
  499TMC3    H1 7422   0.538   4.050  10.658  0.4853  1.1635  0.2740
  499TMC3    H2 7423   0.925   3.985  10.498 -1.9252  4.3714 -1.3908
  499TMC3    C7 7424   0.672   3.938  10.460 -0.7486 -0.0285  0.1309
  499TMC3    C8 7425   1.056   4.103  10.704  0.2270  0.0992  0.0607
  499TMC3    O1 7426   0.748   3.858  10.406  0.0044  0.2432 -0.3171
  499TMC3    O2 7427   1.097   4.209  10.756 -0.4187  0.0085  0.3510
  500MPD2     C 7428   2.065   0.090   9.830 -0.2682  0.4388  0.1653
  500MPD2    C1 7429   1.974   0.162   9.903 -0.0989 -0.1042 -0.2676
  500MPD2    C2 7430   1.833   0.142   9.893  0.4242 -0.2572  0.6218
  500MPD2    C3 7431   1.789   0.045   9.809 -0.5070 -0.4688 -0.5215
  500MPD2    C4 7432   1.877   4.688   9.742 -0.0282  0.0973 -0.6241
  500MPD2    C5 7433   2.012   4.711   9.749 -0.1776  0.6872 -0.3014
  500MPD2     H 7434   1.772   0.209   9.953 -0.7215 -0.8201  0.0909
  500MPD2    H1 7435   1.833   4.604   9.688  1.1407 -1.5990  1.0901
  500MPD2    H2 7436   2.173   0.098   9.836 -0.0002 -1.9805 -1.3804
  500MPD2    H3 7437   2.088   4.656   9.694  0.1658 -0.2751  1.1349
  500MPD2     N 7438   1.657   0.008   9.786  0.1079  0.1445 -0.6794
  500MPD2    H5 7439   1.634   4.636   9.751  2.0069 -0.6433  0.1612
  500MPD2    N1 7440   2.011   0.263   9.989 -0.4425  0.6773 -0.1979
  500MPD2    H7 7441   1.937   0.322  10.026 -0.2347 -0.0255  1.3413
  501TMC3    C1 7442   2.149   0.386  10.134 -0.6578  0.6547  0.4720
  501TMC3    C2 7443   2.099   0.505  10.094 -0.6069 -0.0323 -0.1295
  501TMC3    C3 7444   2.147   0.612  10.162  0.3338  0.7669  0.1887
  501TMC3    C4 7445   2.233   0.371  10.237 -1.1101 -0.6614 -0.3288
  501TMC3    C5 7446   2.274   0.479  10.309 -0.2079 -0.0355 -0.0778
  501TMC3    C6 7447   2.231   0.598  10.270  0.5390  0.2057  0.5114
  501TMC3     C 7448   2.137   0.272  10.048  0.0906  0.0950  0.1709
  501TMC3     O 7449   2.232   0.191  10.048  0.3662 -0.3684 -0.7807
  501TMC3     H 7450   2.029   0.517  10.011 -2.0467  0.2410  1.1187
  501TMC3    H1 7451   2.270   0.275  10.269 -2.2150 -0.9262  0.1762
  501TMC3    H2 7452   2.260   0.692  10.316  0.3022 -0.1597  1.4098
  501TMC3    C7 7453   2.378   0.461  10.409  0.6309 -0.1136 -0.1674
  501TMC3    C8 7454   2.064   0.724  10.164 -0.6365 -0.1463 -0.7393
  501TMC3    O1 7455   2.385   0.347  10.454  0.3869  0.1936  0.3722
  501TMC3    O2 7456   2.007   0.738  10.273  0.3814  0.5154 -0.5507
  502TMC3    C1 7457   0.999   3.551  14.791 -0.1394 -1.1821  0.0682
  502TMC3    C2 7458   0.995   3.687  14.790  0.2852 -0.2774 -0.0942
  502TMC3    C3 7459   0.882   3.752  14.831  0.3363 -0.0253  0.1013
  502TMC3    C4 7460   0.896   3.468  14.836  0.3216  0.5899  0.0883
  502TMC3    C5 7461   0.785   3.536  14.889  0.4701 -0.3426  0.0793
  502TMC3    C6 7462   0.781   3.674  14.889 -0.0995  0.0319  0.0690
  502TMC3     C 7463   1.133   3.493  14.793 -0.6743 -0.0211  0.0167
  502TMC3     O 7464   1.138   3.372  14.765  0.8387  0.5503  0.1534
  502TMC3     H 7465   1.077   3.745  14.749  1.8088 -1.6849  0.9035
  502TMC3    H1 7466   0.921   3.363  14.844 -0.8438  0.0803 -2.8210
  502TMC3    H2 7467   0.693   3.734  14.914  0.1427  1.3875 -2.3571
  502TMC3    C7 7468   0.714   3.459  14.989  0.7174  0.4355  0.0984
  502TMC3    C8 7469   0.897   3.893  14.876 -0.2451  0.3785 -0.4344
  502TMC3    O1 7470   0.730   3.337  14.985  0.1216  0.2982  0.5439
  502TMC3    O2 7471   0.834   3.919  14.979 -0.1176  0.5054 -0.6595
  503MPD2     C 7472   3.279   4.495  16.979 -0.1512 -0.1888  0.5570
  503MPD2    C1 7473   3.326   4.538  17.097  0.0345 -0.4508 -0.1179
  503MPD2    C2 7474   3.416   4.457  17.163  0.2625 -0.3578 -0.1095
  503MPD2    C3 7475   3.469   4.335  17.114 -0.7842  0.5375 -0.3159
  503MPD2    C4 7476   3.407   4.291  16.999  0.6186 -0.2914  0.2958
  503MPD2    C5 7477   3.321   4.375  16.929  0.1664  0.5248  0.5301
  503MPD2     H 7478   3.443   4.490  17.262  0.8001  0.0023 -0.3812
  503MPD2    H1 7479   3.431   4.195  16.956  2.9999 -0.6908  2.4662
  503MPD2    H2 7480   3.210   4.551  16.918 -0.9558 -0.5816  1.1049
  503MPD2    H3 7481   3.272   4.329  16.844 -1.1435  0.8524  1.1015
  503MPD2     N 7482   3.567   4.268  17.193  0.0562  0.0842  0.1396
  503MPD2    H5 7483   3.599   4.318  17.275  1.1404 -1.9256  0.9667
  503MPD2    N1 7484   3.289   4.673  17.132  0.2351  0.5228  0.1876
  503MPD2    H7 7485   3.243   0.007  17.059  0.8905  1.3305  0.3820
  504TMC3    C1 7486   3.726   4.096  17.250 -0.6821 -0.5531 -0.5816
  504TMC3    C2 7487   3.771   4.166  17.363  0.0499 -0.3272  0.3736
  504TMC3    C3 7488   3.890   4.129  17.415 -0.7346  0.3767 -0.6471
  504TMC3    C4 7489   3.794   3.988  17.201  0.4776 -0.3745  0.0205
  504TMC3    C5 7490   3.903   3.951  17.263  0.1645  0.4399 -0.1308
  504TMC3    C6 7491   3.960   4.026  17.363  0.4261 -0.0149 -0.4092
  504TMC3     C 7492   3.624   4.147  17.162 -0.1611 -0.0592 -0.0740
  504TMC3     O 7493   3.594   4.073  17.071 -0.0310 -0.0283  0.8873
  504TMC3     H 7494   3.722   4.251  17.409  1.4496  0.2110  0.8500
  504TMC3    H1 7495   3.756   3.928  17.120  0.2623 -1.4345  0.9184
  504TMC3    H2 7496   4.051   3.998  17.415 -0.0542  0.1794  0.5412
  504TMC3    C7 7497   3.995   3.877  17.180  0.8114 -0.2455 -0.6816
  504TMC3    C8 7498   3.927   4.181  17.545  0.2909 -0.0999 -0.1897
  504TMC3    O1 7499   4.002   3.896  17.060 -0.0132  0.7295  0.2449
  504TMC3    O2 7500   3.837   4.225  17.617 -0.1112 -0.2865  0.3066
  505MPD2     C 7501   3.766   3.561  10.375  0.4036  0.1907  0.4540
  505MPD2    C1 7502   3.736   3.454  10.456  0.4310 -0.4086 -0.0927
  505MPD2    C2 7503   3.663   3.483  10.571 -0.4279 -0.3392 -0.1900
  505MPD2    C3 7504   3.645   3.610  10.615 -0.4302  0.6064  0.7843
  505MPD2    C4 7505   3.699   3.713  10.542 -0.3814 -0.1471  0.7551
  505MPD2    C5 7506   3.764   3.688  10.426  0.2447 -0.0564 -0.0970
  505MPD2     H 7507   3.639   3.402  10.639 -3.2811 -1.1674 -2.1745
  505MPD2    H1 7508   3.691   3.816  10.572  2.7583 -0.3070  2.0899
  505MPD2    H2 7509   3.820   3.552  10.281 -0.1556  1.9292 -0.0298
  505MPD2    H3 7510   3.819   3.768  10.378 -1.1880  1.0292  0.1019
  505MPD2     N 7511   3.575   3.623  10.737 -0.2296 -0.8916  0.3323
  505MPD2    H5 7512   3.547   3.536  10.781  2.3580 -1.5967  0.5597
  505MPD2    N1 7513   3.779   3.326  10.422 -0.3005  0.0034  0.1217
  505MPD2    H7 7514   3.851   3.318  10.351 -0.1004 -1.3614  0.4827
  506TMC3    C1 7515   3.833   3.101  10.440  0.4945  0.1522  0.1115
  506TMC3    C2 7516   3.967   3.137  10.428  0.0229 -0.3036  0.2396
  506TMC3    C3 7517   4.057   3.048  10.468 -0.3745 -0.3583 -0.8919
  506TMC3    C4 7518   3.796   2.988  10.514 -0.3754 -0.5940  0.4188
  506TMC3    C5 7519   3.899   2.913  10.566  0.3671  0.2346 -0.0805
  506TMC3    C6 7520   4.026   2.929  10.521 -0.4225 -0.2362  0.2879
  506TMC3     C 7521   3.741   3.206  10.474  0.2214  0.4280  0.9109
  506TMC3     O 7522   3.640   3.176  10.539  0.3126  0.0737 -0.8005
  506TMC3     H 7523   3.997   3.234  10.390  1.0788 -0.8848 -0.4084
  506TMC3    H1 7524   3.694   2.953  10.526 -0.5679 -0.0776  0.3125
  506TMC3    H2 7525   4.103   2.861  10.555 -0.0742 -0.7906 -1.5921
  506TMC3    C7 7526   3.890   2.893  10.711  0.5576 -0.0135  0.1161
  506TMC3    C8 7527   4.196   3.085  10.464  0.0637  0.0560  0.1512
  506TMC3    O1 7528   3.975   2.823  10.770 -0.0384  0.1712  0.6523
  506TMC3    O2 7529   4.273   3.031  10.383 -0.2188 -0.4280  0.2338
  507TMC3    C1 7530   0.036   3.857  14.894 -0.0069  0.6501  0.3554
  507TMC3    C2 7531   0.008   3.727  14.871 -0.3971 -0.6564 -0.2865
  507TMC3    C3 7532   0.048   3.678  14.751 -0.8369 -0.8428  0.1536
  507TMC3    C4 7533   0.094   3.944  14.812 -1.2104 -0.1301 -0.6108
  507TMC3    C5 7534   0.142   3.888  14.696 -0.8702 -0.2538 -0.3334
  507TMC3    C6 7535   0.125   3.754  14.669  0.7009 -0.3829  0.0641
  507TMC3     C 7536   4.687   3.919  15.008 -0.2485 -0.5707 -0.5559
  507TMC3     O 7537   0.013   4.027  15.042 -0.1357 -0.2357 -0.0772
  507TMC3     H 7538   4.656   3.674  14.930  0.8144  0.5883  2.3453
  507TMC3    H1 7539   0.112   4.047  14.839 -0.8698 -0.1046 -0.9325
  507TMC3    H2 7540   0.161   3.702  14.581  1.4510  0.4349 -0.1067
  507TMC3    C7 7541   0.100   3.962  14.577  0.3026 -0.0777 -0.3134
  507TMC3    C8 7542   4.642   3.628  14.684  1.5002 -0.3855  0.0137
  507TMC3    O1 7543   0.065   3.892  14.481  0.6878  0.1475  0.4684
  507TMC3    O2 7544   4.568   3.548  14.741  0.1399 -0.4727  0.0277
  508MPD2     C 7545   0.904   1.827  16.153 -0.2445  0.1951  0.7551
  508MPD2    C1 7546   0.935   1.896  16.268  0.0778 -0.4724  0.2555
  508MPD2    C2 7547   0.965   2.030  16.255 -0.4024 -0.1378  0.1485
  508MPD2    C3 7548   0.967   2.101  16.136  0.1271  0.7816  0.4545
  508MPD2    C4 7549   0.935   2.031  16.028 -0.0796 -0.5714 -0.1847
  508MPD2    C5 7550   0.907   1.895  16.032 -0.3315  0.0120  0.0134
  508MPD2     H 7551   0.996   2.082  16.345  1.0642 -0.4528 -0.1644
  508MPD2    H1 7552   0.914   2.081  15.934  2.9919 -0.0950 -0.6077
  508MPD2    H2 7553   0.894   1.719  16.149 -0.7137  0.3145 -1.5050
  508MPD2    H3 7554   0.886   1.845  15.938  3.8871 -0.2511 -0.7701
  508MPD2     N 7555   0.999   2.237  16.127 -0.1559  0.0630  0.4706
  508MPD2    H5 7556   0.993   2.283  16.037 -0.8027  0.0809  0.5165
  508MPD2    N1 7557   0.952   1.823  16.393 -0.4545 -0.0185  0.4807
  508MPD2    H7 7558   0.912   1.730  16.393 -1.0484  0.2410 -1.0104
  509TMC3    C1 7559   0.903   2.634  16.154 -0.2347  0.4914  0.4650
  509TMC3    C2 7560   0.983   2.678  16.057  0.6786  0.1010  0.3490
  509TMC3    C3 7561   1.101   2.607  16.029 -0.5260  0.0838  0.5570
  509TMC3    C4 7562   0.931   2.522  16.227  0.0160  0.5654 -0.0992
  509TMC3    C5 7563   1.038   2.447  16.187 -0.3608  0.0123  0.5973
  509TMC3    C6 7564   1.129   2.487  16.087 -0.0703  0.7228 -0.2602
  509TMC3     C 7565   0.761   2.648  16.127  0.0575  0.4315 -0.4887
  509TMC3     O 7566   0.689   2.628  16.228  0.5465  0.6784  0.2959
  509TMC3     H 7567   0.965   2.773  16.008  1.0038  0.0038  0.0324
  509TMC3    H1 7568   0.853   2.476  16.286 -0.8750 -0.2734 -1.9160
  509TMC3    H2 7569   1.195   2.417  16.037 -0.1332 -0.0417  0.7229
  509TMC3    C7 7570   1.035   2.313  16.235 -0.7746  0.2427 -0.0185
  509TMC3    C8 7571   1.167   2.624  15.894  1.1377 -0.6992  0.4233
  509TMC3    O1 7572   1.066   2.284  16.347 -0.6074  0.0521 -0.5034
  509TMC3    O2 7573   1.274   2.570  15.881  0.3678  0.2930 -0.1800
  510MPD2     C 7574   3.174   3.372  14.662 -0.7248 -0.8493  0.0152
  510MPD2    C1 7575   3.239   3.273  14.734  0.4742  0.5289  0.5043
  510MPD2    C2 7576   3.371   3.240  14.703  0.8996 -0.3588  0.3880
  510MPD2    C3 7577   3.434   3.304  14.595  0.1401  0.4214 -0.0621
  510MPD2    C4 7578   3.362   3.390  14.517 -0.3510 -0.1528 -0.5904
  510MPD2    C5 7579   3.230   3.423  14.545  0.8447 -0.2971  0.4101
  510MPD2     H 7580   3.427   3.160  14.750  3.4501  0.6675 -0.8962
  510MPD2    H1 7581   3.396   3.429  14.422 -0.9394  0.1719 -0.6653
  510MPD2    H2 7582   3.067   3.391  14.670 -1.0723 -2.1424 -1.6276
  510MPD2    H3 7583   3.178   3.476  14.466 -1.7027 -1.9781  0.9390
  510MPD2     N 7584   3.561   3.271  14.565  0.0417  0.0953 -0.0545
  510MPD2    H5 7585   3.600   3.196  14.622  1.3873  0.2886 -0.7218
  510MPD2    N1 7586   3.176   3.200  14.841 -0.0842 -0.1304 -0.0522
  510MPD2    H7 7587   3.230   3.126  14.885 -0.2615 -1.5183 -2.1827
  511TMC3    C1 7588   3.015   3.134  14.996 -0.0219 -0.3525  0.7831
  511TMC3    C2 7589   2.915   3.167  15.084  0.1809  0.1183  0.6603
  511TMC3    C3 7590   2.893   3.095  15.197 -0.3418 -0.3896  0.0689
  511TMC3    C4 7591   3.090   3.019  15.011 -0.0127  0.7231 -0.5596
  511TMC3    C5 7592   3.051   2.937  15.114 -0.6149  0.2660  1.0035
  511TMC3    C6 7593   2.961   2.979  15.215 -0.8578 -0.7785  0.5674
  511TMC3     C 7594   3.048   3.227  14.887  0.0799  0.8819  0.2885
  511TMC3     O 7595   2.974   3.322  14.871  0.3902  0.2196 -0.7106
  511TMC3     H 7596   2.846   3.250  15.071  0.0808  0.1464  1.3853
  511TMC3    H1 7597   3.163   2.983  14.939  0.5994 -0.9695  0.8964
  511TMC3    H2 7598   2.952   2.916  15.303 -1.7147  2.1317  2.5507
  511TMC3    C7 7599   3.116   2.816  15.124  0.2316  0.5187  0.2551
  511TMC3    C8 7600   2.848   3.160  15.314  0.2359 -0.8221  0.2439
  511TMC3    O1 7601   3.217   2.802  15.056 -0.1216  0.3310  0.6360
  511TMC3    O2 7602   2.815   3.275  15.300  0.2109 -0.5882 -0.4565
  512TMC3    C1 7603   1.838   2.492  13.563 -0.1816  0.2646 -0.6447
  512TMC3    C2 7604   1.929   2.488  13.664 -0.2538  0.7334 -0.1466
  512TMC3    C3 7605   2.034   2.405  13.658  0.7095 -0.0293  0.0714
  512TMC3    C4 7606   1.864   2.425  13.445  0.5301  0.4738  0.0186
  512TMC3    C5 7607   1.971   2.350  13.443 -0.0109 -0.2847 -0.5258
  512TMC3    C6 7608   2.067   2.339  13.545  0.0118 -0.3146 -0.0199
  512TMC3     C 7609   1.717   2.574  13.557  0.5051 -0.2907  0.0162
  512TMC3     O 7610   1.639   2.555  13.464 -0.0631 -0.3434  0.1902
  512TMC3     H 7611   1.904   2.537  13.757 -3.8648 -0.9290 -0.2282
  512TMC3    H1 7612   1.809   2.436  13.352  1.3828 -1.1192 -0.6764
  512TMC3    H2 7613   2.168   2.301  13.540 -0.0162 -0.3150 -0.5728
  512TMC3    C7 7614   2.012   2.291  13.322  0.0181 -0.3594  0.4246
  512TMC3    C8 7615   2.152   2.418  13.745  0.2587 -0.3062 -0.8809
  512TMC3    O1 7616   1.995   2.350  13.214 -0.0954  0.1059  0.0905
  512TMC3    O2 7617   2.218   2.314  13.764 -0.6198  0.0847 -0.2511
  513MPD2     C 7618   3.735   1.940  13.406  0.9093 -0.1185  0.3648
  513MPD2    C1 7619   3.828   2.030  13.356 -0.1887 -0.0551  0.8002
  513MPD2    C2 7620   3.888   2.125  13.435 -0.1287 -0.8193 -0.4019
  513MPD2    C3 7621   3.847   2.145  13.569 -0.2784 -0.6430 -0.0552
  513MPD2    C4 7622   3.757   2.052  13.619 -0.4094 -0.1153  0.2895
  513MPD2    C5 7623   3.706   1.951  13.535  0.3175 -0.1855 -0.5256
  513MPD2     H 7624   3.956   2.200  13.396  0.2287  0.5896  2.8595
  513MPD2    H1 7625   3.728   2.055  13.724  0.6341 -0.6063  0.5964
  513MPD2    H2 7626   3.697   1.860  13.343 -0.6250  0.1940  0.9032
  513MPD2    H3 7627   3.644   1.879  13.587  0.0706  2.1000  2.3563
  513MPD2     N 7628   3.902   2.265  13.626  0.1636 -0.3824  0.7234
  513MPD2    H5 7629   3.962   2.321  13.566 -1.8740  0.6464 -0.3551
  513MPD2    N1 7630   3.860   2.037  13.219  0.3634 -0.2177  0.4995
  513MPD2    H7 7631   3.915   2.119  13.196 -1.5046  0.2983 -2.1574
  514TMC3    C1 7632   3.879   2.010  12.999 -0.1193  0.0511  0.3112
  514TMC3    C2 7633   3.792   2.058  12.910  0.1746 -0.3507  0.0994
  514TMC3    C3 7634   3.836   2.146  12.822  0.0837 -0.4133 -0.5534
  514TMC3    C4 7635   4.010   2.053  13.010 -0.4237  0.4187  0.7537
  514TMC3    C5 7636   4.043   2.155  12.930  0.1110  0.0109 -0.0780
  514TMC3    C6 7637   3.963   2.200  12.829 -0.9258  0.1528 -0.1174
  514TMC3     C 7638   3.808   1.964  13.113 -0.0799  0.1418  0.0445
  514TMC3     O 7639   3.704   1.895  13.117  0.5286  0.2332 -0.1471
  514TMC3     H 7640   3.696   2.008  12.900 -0.1744  0.3689 -0.2021
  514TMC3    H1 7641   4.074   2.024  13.093 -0.3861  2.0569  1.2941
  514TMC3    H2 7642   4.004   2.275  12.762 -0.9989  1.0691  0.8804
  514TMC3    C7 7643   4.084   2.263  13.017 -0.3626  0.0146 -0.2257
  514TMC3    C8 7644   3.733   2.215  12.753  0.0928  0.8718 -0.2565
  514TMC3    O1 7645   4.009   2.259  13.116  0.0945  0.3657 -0.6859
  514TMC3    O2 7646   3.627   2.212  12.811  1.0709  0.0495 -0.0321
  515MPD2     C 7647   2.542   4.136  14.864  0.5838 -0.1817 -0.7408
  515MPD2    C1 7648   2.573   4.158  14.730 -0.1971  0.0959  0.1746
  515MPD2    C2 7649   2.619   4.285  14.697  0.0385 -0.4317  0.3793
  515MPD2    C3 7650   2.650   4.381  14.794  0.4609 -0.3249 -0.0400
  515MPD2    C4 7651   2.627   4.349  14.922  0.3167 -0.6895 -0.5174
  515MPD2    C5 7652   2.571   4.230  14.960  0.1610  0.1475  1.0533
  515MPD2     H 7653   2.632   4.310  14.592  3.0535  0.9604  1.0910
  515MPD2    H1 7654   2.648   4.418  15.003 -1.7143 -0.8605  0.1772
  515MPD2    H2 7655   2.502   4.042  14.900  2.4970 -0.2744  1.1680
  515MPD2    H3 7656   2.554   4.207  15.065 -0.2863  2.4987  1.4897
  515MPD2     N 7657   2.708   4.509  14.766  0.3824 -0.3482 -0.2768
  515MPD2    H5 7658   2.714   4.561  14.853  0.6006  2.0101 -1.7016
  515MPD2    N1 7659   2.548   4.057  14.635  0.2412 -0.3106  0.5133
  515MPD2    H7 7660   2.540   4.086  14.538  0.2575  2.1292  1.2596
  516TMC3    C1 7661   2.492   3.838  14.567  0.5344 -0.3111  0.2352
  516TMC3    C2 7662   2.459   3.872  14.437 -0.2993 -0.7791 -1.1429
  516TMC3    C3 7663   2.374   3.794  14.359  0.0815 -0.9962  0.0873
  516TMC3    C4 7664   2.436   3.726  14.612  0.3395  0.1479  0.3031
  516TMC3    C5 7665   2.349   3.647  14.537 -0.2015 -0.1799 -0.1043
  516TMC3    C6 7666   2.305   3.682  14.415 -0.0263 -0.5006  0.4741
  516TMC3     C 7667   2.560   3.924  14.663 -0.3880  0.4227  0.3648
  516TMC3     O 7668   2.587   3.875  14.772 -0.1828  0.3335 -0.3283
  516TMC3     H 7669   2.507   3.959  14.394  0.4804 -1.1805 -1.0930
  516TMC3    H1 7670   2.476   3.695  14.708 -0.0103  4.1371  1.7496
  516TMC3    H2 7671   2.234   3.624  14.358 -0.0189 -0.6694  0.6384
  516TMC3    C7 7672   2.285   3.550  14.618 -0.3314  0.0018  0.2981
  516TMC3    C8 7673   2.296   3.873  14.267 -0.0728  0.5025 -0.7535
  516TMC3    O1 7674   2.301   3.577  14.737  0.4706  0.6276  0.2083
  516TMC3    O2 7675   2.178   3.841  14.252 -0.0228  0.1183  0.2851
  517MPD2     C 7676   1.709   1.348   0.103 -0.9216  0.1042  0.0844
  517MPD2    C1 7677   1.852   1.357   0.118  0.1188 -0.3162 -0.3025
  517MPD2    C2 7678   1.899   1.484   0.152  0.6407  0.1000  0.4480
  517MPD2    C3 7679   1.812   1.598   0.161  0.3040  0.3230  0.8280
  517MPD2    C4 7680   1.671   1.580   0.147 -0.2978 -0.6722 -0.2229
  517MPD2    C5 7681   1.623   1.455   0.114  0.1548 -0.3276  0.0560
  517MPD2     H 7682   2.005   1.484   0.173  0.5962 -0.7000  0.6978
  517MPD2    H1 7683   1.606   1.666   0.148 -1.0575 -1.2753  1.4233
  517MPD2    H2 7684   1.651   1.257   0.094  1.2152 -1.2198 -0.3080
  517MPD2    H3 7685   1.515   1.452   0.110  0.2538  2.0895 -3.9937
  517MPD2     N 7686   1.861   1.724   0.211  0.5435  0.3652 -0.4641
  517MPD2    H5 7687   1.793   1.772   0.270 -0.6346  0.2998 -1.7705
  517MPD2    N1 7688   1.942   1.250   0.121  0.3415  0.1088 -0.1506
  517MPD2    H7 7689   2.041   1.261   0.142  0.3978 -2.4620  0.9704
  518TMC3    C1 7690   2.019   1.046   0.026  0.0909  0.3200 -0.2499
  518TMC3    C2 7691   1.991   0.909   0.019 -0.7442  0.3104  0.5300
  518TMC3    C3 7692   2.091   0.828  17.659 -0.4294 -0.2760  0.2710
  518TMC3    C4 7693   2.144   1.096   0.011  0.0782 -0.1268  0.6852
  518TMC3    C5 7694   2.235   1.003  17.654  0.0497 -0.0864 -0.0636
  518TMC3    C6 7695   2.214   0.871  17.631 -0.4998  0.6587 -0.1113
  518TMC3     C 7696   1.904   1.127   0.075  0.0138 -0.0664 -0.7600
  518TMC3     O 7697   1.795   1.073   0.070  0.1597 -0.2461 -0.6415
  518TMC3     H 7698   1.888   0.875   0.031 -1.8618  3.6228  0.0905
  518TMC3    H1 7699   2.171   1.201   0.020  2.5232 -0.5468 -1.7921
  518TMC3    H2 7700   2.279   0.804  17.575 -0.2675  0.2166  0.6772
  518TMC3    C7 7701   2.354   1.056  17.592 -0.1542 -0.1250  0.8441
  518TMC3    C8 7702   2.064   0.690  17.642  0.3977 -1.0295  0.5425
  518TMC3    O1 7703   2.340   1.166  17.544 -0.6872 -0.2317  0.1202
  518TMC3    O2 7704   2.115   0.634  17.545  0.1096 -0.1379  0.1446
  519MPD2     C 7705   3.599   4.352  14.178  0.3325  0.3743  0.0508
  519MPD2    C1 7706   3.484   4.279  14.169  0.6271  0.1856 -0.3347
  519MPD2    C2 7707   3.478   4.152  14.222  0.0971 -0.1289  0.0496
  519MPD2    C3 7708   3.577   4.098  14.307  0.0587  0.0957  0.1145
  519MPD2    C4 7709   3.694   4.164  14.309  0.1115 -0.1627  0.5425
  519MPD2    C5 7710   3.704   4.287  14.250  0.4138  0.1101 -0.0911
  519MPD2     H 7711   3.390   4.091  14.207  1.6594 -1.7115 -2.7395
  519MPD2    H1 7712   3.780   4.127  14.364  0.6249 -0.9779 -0.8259
  519MPD2    H2 7713   3.608   4.451  14.135 -0.3072  0.3825 -0.0570
  519MPD2    H3 7714   3.806   4.324  14.247  0.5381 -0.2292 -0.0722
  519MPD2     N 7715   3.577   3.965  14.360 -0.5660  0.2074  0.2938
  519MPD2    H5 7716   3.663   3.926  14.398 -1.1941 -1.4189  0.0524
  519MPD2    N1 7717   3.370   4.315  14.092 -0.5438 -0.3625 -0.5314
  519MPD2    H7 7718   3.288   4.258  14.108 -0.0373 -1.1406 -0.6874
  520TMC3    C1 7719   3.528   3.743  14.321 -0.3286  0.3935 -0.1449
  520TMC3    C2 7720   3.463   3.699  14.200  0.0773 -0.6884 -0.7494
  520TMC3    C3 7721   3.546   3.665  14.098  0.6464  0.0687 -0.5404
  520TMC3    C4 7722   3.660   3.722  14.338  0.0137  0.5263  0.0599
  520TMC3    C5 7723   3.732   3.663  14.237 -1.4181 -0.1860 -0.6572
  520TMC3    C6 7724   3.681   3.641  14.112  0.2191  0.0759 -0.5856
  520TMC3     C 7725   3.473   3.878  14.338  0.0868 -0.1602  0.5485
  520TMC3     O 7726   3.359   3.898  14.301  0.0386  0.3788  0.1021
  520TMC3     H 7727   3.359   3.727  14.187  0.2632  0.2243 -0.2950
  520TMC3    H1 7728   3.708   3.737  14.434 -0.4833 -1.0791  0.5546
  520TMC3    H2 7729   3.741   3.619  14.024 -0.3346  3.2432 -1.7368
  520TMC3    C7 7730   3.864   3.622  14.276  0.1874 -0.1420 -0.0799
  520TMC3    C8 7731   3.485   3.703  13.968  0.3570 -0.4578 -0.6702
  520TMC3    O1 7732   3.889   3.625  14.395  0.5046  0.3973  0.2726
  520TMC3    O2 7733   3.364   3.681  13.962  0.1344 -0.9727 -0.2377
  521MPD2     C 7734   4.197   1.471  17.529  0.0004  0.1376 -0.4555
  521MPD2    C1 7735   4.237   1.598  17.496 -0.4696 -0.1454  0.0378
  521MPD2    C2 7736   4.370   1.615  17.449  0.4824  0.0389  0.0305
  521MPD2    C3 7737   4.451   1.510  17.418  0.0500 -0.6299 -0.3082
  521MPD2    C4 7738   4.406   1.384  17.445 -0.2167  0.1545  0.3660
  521MPD2    C5 7739   4.276   1.366  17.498 -0.2149  0.0930 -0.4909
  521MPD2     H 7740   4.398   1.713  17.410 -2.3521  0.7888 -0.1301
  521MPD2    H1 7741   4.452   1.288  17.422 -1.4235  0.0594 -1.6607
  521MPD2    H2 7742   4.098   1.459  17.573  0.3496  1.4145  0.6710
  521MPD2    H3 7743   4.241   1.266  17.521  1.3600 -0.4403 -0.3936
  521MPD2     N 7744   4.569   1.534  17.358  0.1590 -0.4511  0.3417
  521MPD2    H5 7745   4.591   1.629  17.330 -1.2650 -0.2461 -0.0604
  521MPD2    N1 7746   4.144   1.704  17.515 -0.4126  0.8422 -0.5581
  521MPD2    H7 7747   4.048   1.680  17.537 -0.2244 -0.0774 -0.7363
  522TMC3    C1 7748   0.065   1.490  17.275 -0.1592  0.0372  0.1531
  522TMC3    C2 7749   0.187   1.443  17.326  0.6527 -0.6932 -0.2406
  522TMC3    C3 7750   0.297   1.514  17.293  0.7935  0.4953 -0.0481
  522TMC3    C4 7751   0.049   1.604  17.201  0.1727  0.0399  0.1552
  522TMC3    C5 7752   0.167   1.658  17.166  0.2485 -1.4670 -0.5786
  522TMC3    C6 7753   0.293   1.622  17.211  1.1086 -0.6880 -0.2500
  522TMC3     C 7754   4.666   1.431  17.328 -0.1122  0.0049 -0.0563
  522TMC3     O 7755   4.677   1.312  17.352  0.0071 -0.4812 -0.2664
  522TMC3     H 7756   0.186   1.344  17.372  0.6032 -1.6554 -2.3402
  522TMC3    H1 7757   4.684   1.630  17.139  0.1904 -0.1922  0.0343
  522TMC3    H2 7758   0.380   1.684  17.190  1.4278 -1.8323 -2.2902
  522TMC3    C7 7759   0.171   1.761  17.058  0.4419  0.2677  0.6088
  522TMC3    C8 7760   0.416   1.433  17.288 -0.2445  0.2495  0.3417
  522TMC3    O1 7761   0.276   1.763  16.994  0.0289  0.3698  0.4536
  522TMC3    O2 7762   0.410   1.335  17.358  0.1442  0.3291  0.0061
  523MPD2     C 7763   2.082   1.974  10.233  0.0583  0.7518 -0.1575
  523MPD2    C1 7764   2.087   1.952  10.095 -0.1202  0.3711  0.5168
  523MPD2    C2 7765   2.025   2.042  10.011  0.2541 -0.4947  0.2771
  523MPD2    C3 7766   1.938   2.138  10.062 -0.0210 -0.3446 -0.2065
  523MPD2    C4 7767   1.926   2.149  10.200 -0.3070 -0.1425  0.3782
  523MPD2    C5 7768   1.996   2.069  10.287 -0.2784  0.2701  0.5474
  523MPD2     H 7769   2.032   2.042   9.903  1.3335  2.8574  0.3497
  523MPD2    H1 7770   1.862   2.221  10.250 -0.6850  0.7240 -1.3714
  523MPD2    H2 7771   2.132   1.913  10.307 -0.3541  1.8424  1.0135
  523MPD2    H3 7772   1.994   2.084  10.394 -1.4456 -2.1374  0.8672
  523MPD2     N 7773   1.863   2.229   9.983 -0.0613  0.1990 -0.3199
  523MPD2    H5 7774   1.804   2.286  10.043  0.9032  0.1339  0.6829
  523MPD2    N1 7775   2.169   1.848  10.045  0.3406 -0.2382 -0.2663
  523MPD2    H7 7776   2.205   1.782  10.113  1.0003 -0.4595 -0.8389
  524TMC3    C1 7777   1.793   2.365   9.799 -0.1161  0.3392  0.4553
  524TMC3    C2 7778   1.744   2.357   9.673 -0.8362  0.0176 -0.2847
  524TMC3    C3 7779   1.637   2.435   9.639  0.5821  1.1139 -0.5245
  524TMC3    C4 7780   1.732   2.445   9.895  0.8947  0.4462  0.1226
  524TMC3    C5 7781   1.629   2.530   9.857 -0.1598  0.1461  0.2111
  524TMC3    C6 7782   1.575   2.518   9.735  0.4600 -0.8567 -0.3776
  524TMC3     C 7783   1.868   2.248   9.844 -0.5815 -0.0641 -0.3313
  524TMC3     O 7784   1.925   2.182   9.760  0.3419  0.2981 -0.1158
  524TMC3     H 7785   1.772   2.269   9.616  0.6825  0.4358 -0.1799
  524TMC3    H1 7786   1.777   2.468   9.991  0.8893  1.8009 -0.1928
  524TMC3    H2 7787   1.485   2.573   9.710  1.1390  0.3000 -0.2338
  524TMC3    C7 7788   1.549   2.589   9.968  0.0136 -0.6761 -0.1769
  524TMC3    C8 7789   1.560   2.412   9.525  0.9729 -0.6119  0.0196
  524TMC3    O1 7790   1.562   2.533  10.072  0.3706  0.2062 -0.2513
  524TMC3    O2 7791   1.447   2.459   9.525  0.6201 -0.3750  0.0266
  525MPD2     C 7792   0.095   3.306  14.613  0.0692  0.8408  0.2801
  525MPD2    C1 7793   0.221   3.305  14.672  0.2901  0.7311 -0.7286
  525MPD2    C2 7794   0.331   3.366  14.596 -0.2903  0.3268  0.4921
  525MPD2    C3 7795   0.307   3.434  14.477 -0.3811  0.3866  0.2698
  525MPD2    C4 7796   0.181   3.428  14.429 -0.0569 -0.0380 -0.0488
  525MPD2    C5 7797   0.071   3.376  14.502  0.5729 -1.1733 -0.8428
  525MPD2     H 7798   0.435   3.355  14.622 -0.6125  0.3631  1.8030
  525MPD2    H1 7799   0.164   3.475  14.333  3.7993  1.4210 -0.0204
  525MPD2    H2 7800   0.008   3.265  14.662  0.2933 -0.0611 -0.0918
  525MPD2    H3 7801   4.698   3.365  14.449 -1.8992  2.2470  2.8981
  525MPD2     N 7802   0.398   3.527  14.417 -0.0664 -0.3726 -0.6936
  525MPD2    H5 7803   0.352   3.604  14.369  0.2609 -0.7608 -1.6257
  525MPD2    N1 7804   0.255   3.251  14.802 -0.1016 -0.4383  0.3562
  525MPD2    H7 7805   0.350   3.246  14.835  0.5990  1.4363 -1.4200
  526TMC3    C1 7806   0.185   3.161  15.009 -0.5332  1.1769 -0.1872
  526TMC3    C2 7807   0.100   3.178  15.121 -0.3194  0.0448 -0.2938
  526TMC3    C3 7808   0.143   3.142  15.245  0.3858 -0.2796 -0.5685
  526TMC3    C4 7809   0.302   3.087  15.015 -0.4315 -1.3452 -0.3497
  526TMC3    C5 7810   0.342   3.054  15.144  0.6246  0.7422 -0.4463
  526TMC3    C6 7811   0.262   3.079  15.255  0.5783 -0.0338  0.5086
  526TMC3     C 7812   0.149   3.228  14.886 -0.0679 -0.1925  0.2329
  526TMC3     O 7813   0.033   3.265  14.882  0.3173 -0.2856 -0.2529
  526TMC3     H 7814   0.005   3.231  15.114 -1.6732 -2.4104 -0.6869
  526TMC3    H1 7815   0.348   3.068  14.918  0.2224 -2.2214  0.1285
  526TMC3    H2 7816   0.292   3.053  15.356  1.2423  2.0380  0.8452
  526TMC3    C7 7817   0.485   3.017  15.174  0.1986 -0.0354 -0.0787
  526TMC3    C8 7818   0.068   3.168  15.364  0.8505  0.4103  0.1490
  526TMC3    O1 7819   0.510   2.982  15.289  0.0187 -0.3068  0.1590
  526TMC3    O2 7820   0.126   3.197  15.470 -0.3404  0.0834 -0.7006
  527MPD2     C 7821   2.643   2.274   1.386 -0.1324  0.1970 -0.2274
  527MPD2    C1 7822   2.668   2.156   1.443 -0.8001 -0.3251  0.2579
  527MPD2    C2 7823   2.764   2.070   1.389 -0.6348 -0.2627  0.4006
  527MPD2    C3 7824   2.828   2.098   1.270  0.5891 -0.0800  0.0665
  527MPD2    C4 7825   2.783   2.211   1.206 -0.3950 -0.3878  0.2289
  527MPD2    C5 7826   2.692   2.298   1.258  0.0152 -0.9667  0.3243
  527MPD2     H 7827   2.787   1.971   1.427 -1.1054  0.4133  2.4611
  527MPD2    H1 7828   2.808   2.232   1.103 -1.0397 -0.6267  0.0258
  527MPD2    H2 7829   2.571   2.341   1.432 -0.0458 -0.4511  0.8401
  527MPD2    H3 7830   2.664   2.386   1.202  2.3353  0.2476  1.0423
  527MPD2     N 7831   2.926   2.003   1.222  0.0383  0.4726  0.5379
  527MPD2    H5 7832   2.959   1.932   1.287  0.6548 -1.0670 -1.4426
  527MPD2    N1 7833   2.596   2.109   1.558 -0.1497  0.1477 -0.2011
  527MPD2    H7 7834   2.636   2.023   1.594 -0.6449 -1.4959 -3.5527
  528TMC3    C1 7835   2.444   2.113   1.748 -0.2213 -0.5415  0.1421
  528TMC3    C2 7836   2.515   2.014   1.812  0.7749  0.3053  0.6253
  528TMC3    C3 7837   2.450   1.939   1.909  0.2970 -0.3091 -0.3389
  528TMC3    C4 7838   2.313   2.133   1.778 -0.1167 -0.1964  0.2533
  528TMC3    C5 7839   2.245   2.050   1.867  0.8435 -0.0395 -0.6554
  528TMC3    C6 7840   2.313   1.960   1.933 -0.0904  0.1480 -0.0100
  528TMC3     C 7841   2.485   2.164   1.619 -0.0585  0.6540  1.2998
  528TMC3     O 7842   2.420   2.268   1.589  0.2240  0.4996 -0.3422
  528TMC3     H 7843   2.615   1.992   1.777  0.5677  1.4025 -0.6763
  528TMC3    H1 7844   2.261   2.217   1.735 -2.3682 -2.6288 -1.7953
  528TMC3    H2 7845   2.263   1.903   2.010 -2.1784  3.1443  0.8706
  528TMC3    C7 7846   2.104   2.022   1.856  0.6071  0.1514 -0.3054
  528TMC3    C8 7847   2.534   1.832   1.969  0.0179 -0.0828  0.6373
  528TMC3    O1 7848   2.044   1.990   1.960  0.0244  0.4826 -0.2925
  528TMC3    O2 7849   2.650   1.826   1.927 -0.0026  0.5729 -0.3213
  529MPD2     C 7850   0.997   0.146   0.662  0.2127 -0.0370 -0.5098
  529MPD2    C1 7851   0.895   0.063   0.620  0.4867 -1.1024 -0.8188
  529MPD2    C2 7852   0.816   0.107   0.512 -0.1138  0.3745 -0.4573
  529MPD2    C3 7853   0.831   0.227   0.446 -0.3164  0.1177  0.0178
  529MPD2    C4 7854   0.936   0.306   0.479  0.1764  0.1969 -0.5202
  529MPD2    C5 7855   1.019   0.259   0.579 -0.0219  0.0761  0.1055
  529MPD2     H 7856   0.733   0.046   0.478  0.7544 -0.9296 -0.2492
  529MPD2    H1 7857   0.949   0.398   0.423 -1.6460  0.2168 -0.8906
  529MPD2    H2 7858   1.065   0.129   0.745  2.9729  0.2991 -2.7098
  529MPD2    H3 7859   1.106   0.314   0.611  1.4291 -2.3180  0.3055
  529MPD2     N 7860   0.748   0.279   0.341  0.1742 -0.0285 -0.1689
  529MPD2    H5 7861   0.775   0.369   0.302 -0.5356 -0.2685 -1.2075
  529MPD2    N1 7862   0.863   4.660   0.689  0.2107 -0.3879  0.3861
  529MPD2    H7 7863   0.777   4.618   0.656  0.5388  0.1269 -1.1641
  530TMC3    C1 7864   0.877   4.483   0.849 -0.3531 -0.3376 -0.0934
  530TMC3    C2 7865   0.953   4.416   0.943  0.2458  0.4031  0.0695
  530TMC3    C3 7866   0.888   4.320   1.012 -0.0003 -0.5548  0.6016
  530TMC3    C4 7867   0.742   4.463   0.836 -0.4858 -0.4288 -0.3649
  530TMC3    C5 7868   0.695   4.350   0.905  0.5401  0.3798 -0.5305
  530TMC3    C6 7869   0.763   4.277   0.988  0.0408 -0.0337  0.2912
  530TMC3     C 7870   0.945   4.599   0.783  0.6247  0.0337  0.3417
  530TMC3     O 7871   1.046   4.641   0.833  0.0200  0.5944 -0.0696
  530TMC3     H 7872   1.059   4.434   0.954  0.2277 -0.3660  1.4780
  530TMC3    H1 7873   0.677   4.518   0.769 -1.4849 -0.4794  0.5774
  530TMC3    H2 7874   0.714   4.192   1.033  1.0977 -0.9219 -0.2460
  530TMC3    C7 7875   0.563   4.294   0.870  0.5127 -0.0508 -0.0139
  530TMC3    C8 7876   0.954   4.259   1.125  0.3437 -0.2800 -0.3152
  530TMC3    O1 7877   0.512   4.221   0.954  0.5137 -0.5240  0.0166
  530TMC3    O2 7878   1.073   4.272   1.117 -1.1216 -0.1003  0.6411
  531MPD2     C 7879   4.431   2.538  13.248  0.1363  0.2956  0.2607
  531MPD2    C1 7880   4.318   2.474  13.296 -0.1445 -0.6271  0.0031
  531MPD2    C2 7881   4.242   2.406  13.205 -0.0159 -0.0915  0.1348
  531MPD2    C3 7882   4.268   2.404  13.070 -0.9192  0.0014 -0.2454
  531MPD2    C4 7883   4.389   2.454  13.023 -0.9084 -0.4891  0.1953
  531MPD2    C5 7884   4.462   2.524  13.117 -0.8154 -0.2564  0.7229
  531MPD2     H 7885   4.162   2.341  13.239  0.8476 -1.3483 -0.2513
  531MPD2    H1 7886   4.433   2.438  12.925 -0.3539 -0.3591  0.4260
  531MPD2    H2 7887   4.489   2.604  13.312  1.8229 -0.2340 -0.7025
  531MPD2    H3 7888   4.549   2.578  13.081 -0.3967 -1.4544 -0.0582
  531MPD2     N 7889   4.196   2.327  12.977  0.1754 -0.0164 -0.0981
  531MPD2    H5 7890   4.234   2.303  12.885 -1.0340 -0.9003 -0.3715
  531MPD2    N1 7891   4.292   2.481  13.441 -0.0742  0.2794  0.8391
  531MPD2    H7 7892   4.359   2.526  13.501  1.1543  0.6951 -0.8478
  532TMC3    C1 7893   4.155   2.463  13.633  0.0322  0.0016  0.9030
  532TMC3    C2 7894   4.023   2.471  13.669  0.1805  0.3140 -1.0041
  532TMC3    C3 7895   3.987   2.402  13.781 -0.0091  0.7277 -0.4396
  532TMC3    C4 7896   4.253   2.406  13.721  0.4042  0.6655 -0.7733
  532TMC3    C5 7897   4.215   2.348  13.846  0.6063  0.0969 -0.2466
  532TMC3    C6 7898   4.082   2.353  13.872  0.2099  0.2061 -0.4730
  532TMC3     C 7899   4.173   2.447  13.494  0.7441  0.2282 -0.6497
  532TMC3     O 7900   4.067   2.415  13.441  0.2205 -0.2119  0.3613
  532TMC3     H 7901   3.944   2.525  13.619 -0.5341  0.5890  0.4470
  532TMC3    H1 7902   4.356   2.387  13.692  0.0307 -1.3392 -0.7894
  532TMC3    H2 7903   4.039   2.293  13.950 -1.5005  1.1769 -0.6565
  532TMC3    C7 7904   4.294   2.317  13.960  1.0447  0.2008  0.0784
  532TMC3    C8 7905   3.887   2.301  13.753 -0.0525 -0.2201  0.0179
  532TMC3    O1 7906   4.235   2.276  14.059  0.4847 -0.6672  0.0180
  532TMC3    O2 7907   3.827   2.245  13.843  0.4030 -0.2441  0.9392
  533TMC3    C1 7908   0.579   3.670  14.409  0.2670 -0.3222  0.4732
  533TMC3    C2 7909   0.719   3.685  14.410  0.3900  0.5255  0.0277
  533TMC3    C3 7910   0.776   3.794  14.467 -0.3629  0.1543  0.4870
  533TMC3    C4 7911   0.513   3.772  14.477 -0.5576  0.1717 -0.5910
  533TMC3    C5 7912   0.575   3.874  14.539  0.2641  0.6877  0.2787
  533TMC3    C6 7913   0.710   3.896  14.527  0.4552 -0.1244  0.6804
  533TMC3     C 7914   0.528   3.545  14.455  0.6720 -0.9555  0.0711
  533TMC3     O 7915   0.593   3.493  14.549  0.5689  0.2054 -0.6965
  533TMC3     H 7916   0.783   3.608  14.367 -0.4190  0.5191 -1.1695
  533TMC3    H1 7917   0.405   3.771  14.487 -0.5838  0.5433 -0.8337
  533TMC3    H2 7918   0.758   3.957  14.602 -0.4229  1.7522 -0.2763
  533TMC3    C7 7919   0.508   3.905  14.659 -0.4303 -0.3350  0.1539
  533TMC3    C8 7920   0.924   3.796  14.483 -0.4835 -0.1261 -0.0426
  533TMC3    O1 7921   0.431   3.823  14.710 -0.5721 -0.4024 -0.0872
  533TMC3    O2 7922   0.962   3.904  14.512 -0.3252 -0.0315 -0.0793
  534MPD2     C 7923   2.282   0.785   2.050 -0.2081  0.3575 -0.2670
  534MPD2    C1 7924   2.403   0.757   1.989  0.4257  0.3258  0.2232
  534MPD2    C2 7925   2.429   0.631   1.949  0.1124 -0.1113 -0.2506
  534MPD2    C3 7926   2.342   0.526   1.977  0.0291 -0.4517  0.1429
  534MPD2    C4 7927   2.227   0.558   2.041 -0.6615  0.1930 -0.4415
  534MPD2    C5 7928   2.200   0.684   2.079 -0.4223  0.0072  0.1396
  534MPD2     H 7929   2.526   0.616   1.902 -0.3269 -1.6818 -0.6411
  534MPD2    H1 7930   2.149   0.483   2.050 -1.2819  0.9596  0.5779
  534MPD2    H2 7931   2.248   0.882   2.083  0.6932  0.2595  0.9470
  534MPD2    H3 7932   2.101   0.699   2.121 -0.3087 -0.2871  0.5112
  534MPD2     N 7933   2.357   0.397   1.917 -0.3304 -0.0846  0.1149
  534MPD2    H5 7934   2.280   0.335   1.941 -0.4765  0.4135  0.9371
  534MPD2    N1 7935   2.503   0.853   1.953  0.5909  0.0461  0.4312
  534MPD2    H7 7936   2.580   0.834   1.890  0.6610  1.2018  0.1662
  535TMC3    C1 7937   2.435   0.239   1.747 -0.3985  0.3242  0.1473
  535TMC3    C2 7938   2.359   0.135   1.795 -0.0470 -0.3038  0.0139
  535TMC3    C3 7939   2.323   0.032   1.716 -0.6516  0.1112 -0.3359
  535TMC3    C4 7940   2.492   0.232   1.626 -0.6677  0.8335  0.0582
  535TMC3    C5 7941   2.467   0.124   1.552 -0.9358 -0.0783  0.2803
  535TMC3    C6 7942   2.379   0.024   1.589 -0.3459  0.9918  0.2327
  535TMC3     C 7943   2.455   0.361   1.826  0.4853  0.0428  0.2065
  535TMC3     O 7944   2.546   0.428   1.779  0.3952  0.1395  0.2211
  535TMC3     H 7945   2.316   0.152   1.894  0.4481 -0.4533  0.2540
  535TMC3    H1 7946   2.555   0.315   1.596 -1.7150 -0.0091 -4.4780
  535TMC3    H2 7947   2.349   4.666   1.521  0.3538  0.4499  0.5523
  535TMC3    C7 7948   2.511   0.133   1.409 -0.0098 -0.4249 -0.8666
  535TMC3    C8 7949   2.205   4.672   1.745  0.6804 -0.5706  1.1675
  535TMC3    O1 7950   2.571   0.045   1.351 -0.9944  0.2080 -0.8469
  535TMC3    O2 7951   2.147   4.626   1.646 -0.7747  1.3005  0.3737
  536MPD2     C 7952   2.194   3.454  15.922  0.2418  0.0196  0.2242
  536MPD2    C1 7953   2.066   3.422  15.959 -0.5262 -0.5195  0.2506
  536MPD2    C2 7954   1.967   3.472  15.876  1.0505  0.5577 -0.3069
  536MPD2    C3 7955   1.988   3.546  15.759 -0.5955  0.3308 -0.2035
  536MPD2    C4 7956   2.120   3.579  15.729  0.0317  0.1085  0.6234
  536MPD2    C5 7957   2.222   3.531  15.806 -0.2705  0.4085  0.6534
  536MPD2     H 7958   1.864   3.448  15.901  1.4486 -1.1388 -0.2966
  536MPD2    H1 7959   2.139   3.643  15.643  0.3139 -0.9109 -0.0739
  536MPD2    H2 7960   2.278   3.416  15.979 -0.3626 -0.4810  0.7894
  536MPD2    H3 7961   2.322   3.566  15.785 -0.6607  0.8840 -0.4137
  536MPD2     N 7962   1.880   3.598  15.688  0.3670  0.0405 -0.1153
  536MPD2    H5 7963   1.795   3.617  15.739 -0.1444 -0.2485 -0.8678
  536MPD2    N1 7964   2.041   3.347  16.079  0.7074  0.6008  0.0622
  536MPD2    H7 7965   2.118   3.325  16.142  0.4582  2.2343  0.9437
  537TMC3    C1 7966   1.945   3.217  16.240 -0.6808 -0.5357 -0.8064
  537TMC3    C2 7967   2.050   3.244  16.324 -0.8667 -0.1672  0.4189
  537TMC3    C3 7968   2.056   3.183  16.446  0.3951  0.0998 -0.3294
  537TMC3    C4 7969   1.847   3.140  16.273  0.1821 -0.3039 -0.1022
  537TMC3    C5 7970   1.851   3.077  16.396  0.9066 -0.5533 -1.1493
  537TMC3    C6 7971   1.956   3.095  16.480  0.0064  0.0406  0.1465
  537TMC3     C 7972   1.922   3.302  16.129 -0.0288  0.0334  0.4877
  537TMC3     O 7973   1.809   3.317  16.085 -0.1259  0.0782 -0.0497
  537TMC3     H 7974   2.118   3.326  16.307  0.9418 -1.7422 -0.0205
  537TMC3    H1 7975   1.765   3.125  16.203 -0.6325  2.6791  0.2177
  537TMC3    H2 7976   1.954   3.062  16.584  0.6133 -1.5341 -0.3399
  537TMC3    C7 7977   1.744   2.986  16.434  0.6659  0.0476  0.9404
  537TMC3    C8 7978   2.114   3.249  16.558  0.0764  0.4987  0.0384
  537TMC3    O1 7979   1.703   2.929  16.332  0.7531 -0.3568  0.2570
  537TMC3    O2 7980   2.151   3.177  16.649 -0.3024 -0.4605 -0.7859
  538TMC3    C1 7981   2.713   1.875  10.844 -0.6916 -0.0190  0.5239
  538TMC3    C2 7982   2.783   1.849  10.727  0.0453  0.9198 -0.2808
  538TMC3    C3 7983   2.765   1.945  10.632 -0.2877 -0.1250  0.5521
  538TMC3    C4 7984   2.631   1.977  10.863 -0.9039  0.4734 -0.7036
  538TMC3    C5 7985   2.615   2.060  10.759  0.2678  0.4289 -0.1671
  538TMC3    C6 7986   2.680   2.055  10.641  0.1192  0.1843  1.0801
  538TMC3     C 7987   2.740   1.794  10.962  0.0556 -0.8378  0.4936
  538TMC3     O 7988   2.655   1.803  11.049 -0.5527 -1.0198 -0.3798
  538TMC3     H 7989   2.848   1.763  10.717 -0.4321  0.2052  2.5553
  538TMC3    H1 7990   2.568   1.991  10.950 -0.3681 -0.3280 -0.1774
  538TMC3    H2 7991   2.650   2.124  10.563  0.5443 -0.0468  0.7098
  538TMC3    C7 7992   2.522   2.172  10.783 -0.0833  0.4119  0.0318
  538TMC3    C8 7993   2.832   1.932  10.501  0.9002 -0.5467  0.6511
  538TMC3    O1 7994   2.460   2.207  10.686  0.3717 -0.1274 -0.5710
  538TMC3    O2 7995   2.845   2.037  10.443  0.4971 -0.5171 -0.4923
  539MPD2     C 7996   2.800   1.226  11.638 -0.4183 -0.2932  0.4583
  539MPD2    C1 7997   2.709   1.221  11.532 -0.4071 -0.4642  0.0473
  539MPD2    C2 7998   2.659   1.347  11.482 -0.1051 -0.0679 -0.2560
  539MPD2    C3 7999   2.684   1.467  11.545 -0.0197  0.2437 -0.1281
  539MPD2    C4 8000   2.770   1.470  11.646  0.0536  0.2692  0.4623
  539MPD2    C5 8001   2.828   1.351  11.685 -0.3083 -0.4144  0.5810
  539MPD2     H 8002   2.586   1.341  11.402  0.1690  0.9940 -0.5845
  539MPD2    H1 8003   2.798   1.566  11.688 -1.5457  1.5026 -1.3106
  539MPD2    H2 8004   2.857   1.148  11.687 -0.2657 -0.8088 -0.5597
  539MPD2    H3 8005   2.911   1.351  11.755 -1.1874  1.9038  1.6340
  539MPD2     N 8006   2.623   1.589  11.514  0.7167  0.0105 -0.2907
  539MPD2    H5 8007   2.644   1.673  11.567 -0.1169  1.4603 -2.2748
  539MPD2    N1 8008   2.665   1.096  11.481 -0.0617  0.4628 -0.5368
  539MPD2    H7 8009   2.702   1.017  11.533  2.4346  1.4992 -0.7633
  540TMC3    C1 8010   2.480   1.741  11.391  0.6052  0.2629  0.4571
  540TMC3    C2 8011   2.438   1.787  11.262  0.2409 -0.1567 -0.5383
  540TMC3    C3 8012   2.371   1.910  11.266 -0.4730 -0.5510 -0.4909
  540TMC3    C4 8013   2.457   1.814  11.503  0.3516 -0.2608  0.1618
  540TMC3    C5 8014   2.400   1.937  11.491 -0.6776 -0.2890 -0.4971
  540TMC3    C6 8015   2.358   1.988  11.377  0.0908  0.0955 -0.2112
  540TMC3     C 8016   2.548   1.610  11.395 -0.1815  0.3797  0.5840
  540TMC3     O 8017   2.546   1.538  11.299 -0.0347 -0.1455  0.3108
  540TMC3     H 8018   2.456   1.736  11.168  0.0630  0.6931 -1.0398
  540TMC3    H1 8019   2.482   1.771  11.599  1.7016 -1.2657 -0.6495
  540TMC3    H2 8020   2.297   2.075  11.361  1.3224  1.1478  0.8725
  540TMC3    C7 8021   2.356   1.995  11.616  0.1705  0.2956  0.1649
  540TMC3    C8 8022   2.309   1.960  11.142  0.1016 -0.5601  0.1433
  540TMC3    O1 8023   2.346   1.910  11.706 -0.4191  0.5655  0.3857
  540TMC3    O2 8024   2.290   2.080  11.135  0.6383 -0.4882 -0.5457
  541MPD2     C 8025   0.969   2.879  13.471  0.4916  0.4424 -0.2674
  541MPD2    C1 8026   0.936   2.823  13.353  0.4137  0.0573  0.3633
  541MPD2    C2 8027   1.000   2.875  13.240 -0.1517 -0.1206 -0.0867
  541MPD2    C3 8028   1.099   2.974  13.245  0.8219 -0.4309 -0.4906
  541MPD2    C4 8029   1.130   3.030  13.367 -0.4100  0.1142 -0.9040
  541MPD2    C5 8030   1.068   2.975  13.479 -0.0840  0.1089  0.1178
  541MPD2     H 8031   0.974   2.845  13.140  0.7840 -0.1348 -0.3212
  541MPD2    H1 8032   1.202   3.110  13.373 -1.6215  1.1686 -0.4286
  541MPD2    H2 8033   0.932   2.834  13.562 -1.6789 -0.3701 -1.5669
  541MPD2    H3 8034   1.095   3.009  13.579  0.1628  0.7583 -0.1691
  541MPD2     N 8035   1.165   3.022  13.130  0.5659  0.0404  0.0709
  541MPD2    H5 8036   1.236   3.088  13.159 -0.6111  0.9580  0.8115
  541MPD2    N1 8037   0.853   2.717  13.355 -0.1754 -0.1291 -0.5286
  541MPD2    H7 8038   0.814   2.693  13.446 -0.2009 -1.0677 -0.7826
  542TMC3    C1 8039   1.230   3.073  12.912  0.1093  0.2745  0.0432
  542TMC3    C2 8040   1.278   3.022  12.789 -0.2844 -0.1773  0.2072
  542TMC3    C3 8041   1.357   3.105  12.719 -0.0695 -0.0986  0.1053
  542TMC3    C4 8042   1.258   3.200  12.954  1.0774 -0.0437 -0.2477
  542TMC3    C5 8043   1.341   3.279  12.871 -1.0112  0.1301  0.0815
  542TMC3    C6 8044   1.390   3.230  12.756 -0.9200  0.1423 -0.3240
  542TMC3     C 8045   1.139   2.989  12.997  0.7851 -0.2137 -0.1995
  542TMC3     O 8046   1.080   2.894  12.944  0.3445 -0.1007  0.4385
  542TMC3     H 8047   1.263   2.920  12.755  0.3411 -0.6012  1.2034
  542TMC3    H1 8048   1.232   3.234  13.053  1.0996  1.0884 -0.6264
  542TMC3    H2 8049   1.455   3.294  12.697 -0.7711  0.2881 -0.0015
  542TMC3    C7 8050   1.341   3.419  12.894  0.3512  0.2420 -0.0361
  542TMC3    C8 8051   1.392   3.054  12.592 -0.6984  1.0063  0.7004
  542TMC3    O1 8052   1.422   3.486  12.833  0.0195 -0.9726  0.5647
  542TMC3    O2 8053   1.313   2.982  12.542  0.3105 -0.3228 -0.2297
  543TMC3    C1 8054   0.292   4.318  16.828  0.0279 -0.2023 -0.2297
  543TMC3    C2 8055   0.156   4.318  16.807 -0.3822  0.4841 -1.0741
  543TMC3    C3 8056   0.077   4.316  16.918 -0.5769  0.2077 -0.1964
  543TMC3    C4 8057   0.350   4.343  16.951 -0.1875 -0.1435 -0.2990
  543TMC3    C5 8058   0.267   4.355  17.059  1.0633 -0.8984 -0.0734
  543TMC3    C6 8059   0.127   4.349  17.042 -0.5328 -0.5787 -0.2076
  543TMC3     C 8060   0.383   4.294  16.711  0.4981  0.3636 -0.0627
  543TMC3     O 8061   0.504   4.297  16.739  0.5494  0.1864 -0.3503
  543TMC3     H 8062   0.111   4.310  16.709 -2.1063  1.1243 -0.3323
  543TMC3    H1 8063   0.456   4.337  16.971 -0.2348 -0.3501 -0.1094
  543TMC3    H2 8064   0.062   4.364  17.127 -0.3701 -2.1267  0.1865
  543TMC3    C7 8065   0.320   4.383  17.188  0.3432 -0.8042  0.5581
  543TMC3    C8 8066   4.705   4.208  16.917  0.0010 -0.3257 -0.2654
  543TMC3    O1 8067   0.234   4.368  17.273 -0.3042  0.0828 -0.4935
  543TMC3    O2 8068   4.693   4.160  16.804 -0.5618 -0.1867  0.5972
  544MPD2     C 8069   4.546   3.794  17.155  0.3387  0.8440 -0.4377
  544MPD2    C1 8070   4.645   3.815  17.054  0.4304 -0.0024  0.5014
  544MPD2    C2 8071   4.663   3.940  17.008 -0.2447  0.0601 -0.1304
  544MPD2    C3 8072   4.601   4.049  17.066 -0.0254 -0.0362  0.3694
  544MPD2    C4 8073   4.512   4.023  17.168  0.4627 -0.2545  0.3556
  544MPD2    C5 8074   4.476   3.898  17.202  0.5006 -0.3159  0.2000
  544MPD2     H 8075   0.016   3.964  16.933 -0.5025  1.4279  0.0564
  544MPD2    H1 8076   4.487   4.104  17.235  1.0258  0.6361 -0.5132
  544MPD2    H2 8077   4.526   3.695  17.195  1.9198  0.5638 -0.3384
  544MPD2    H3 8078   4.411   3.889  17.288 -0.8159 -0.9385 -0.8718
  544MPD2     N 8079   4.644   4.174  17.040  0.0049 -0.3178 -0.2145
  544MPD2    H5 8080   4.620   4.243  17.111 -1.3684 -1.8305  0.7844
  544MPD2    N1 8081   0.010   3.707  17.019  0.6088 -0.5981  0.3500
  544MPD2    H7 8082   4.697   3.611  17.031 -1.8422 -0.0231 -1.8715
  545TMC3    C1 8083   0.194   3.610  16.903 -0.2476  0.6963 -0.1512
  545TMC3    C2 8084   0.297   3.618  16.813  0.2944  0.4762  0.5961
  545TMC3    C3 8085   0.374   3.504  16.781  0.2393 -0.0442  0.2561
  545TMC3    C4 8086   0.157   3.495  16.959 -0.0937  0.6167  0.3178
  545TMC3    C5 8087   0.235   3.383  16.933 -0.5862 -0.6021  0.2040
  545TMC3    C6 8088   0.339   3.383  16.836 -0.4925 -0.0888  0.1594
  545TMC3     C 8089   0.120   3.734  16.929 -0.3465 -0.3419 -0.2278
  545TMC3     O 8090   0.178   3.838  16.900 -0.1792  0.4293 -0.4664
  545TMC3     H 8091   0.321   3.716  16.772 -0.6313  0.1851 -0.6197
  545TMC3    H1 8092   0.088   3.478  17.040  1.1653  1.8175  1.6402
  545TMC3    H2 8093   0.384   3.296  16.791  1.3993  1.0979 -0.2136
  545TMC3    C7 8094   0.174   3.251  16.969 -0.3452 -0.5751  0.2778
  545TMC3    C8 8095   0.494   3.504  16.699 -0.1079 -0.0313  0.1883
  545TMC3    O1 8096   0.059   3.251  17.014 -0.2724 -0.6574 -0.4560
  545TMC3    O2 8097   0.556   3.402  16.693 -0.0808 -0.1201 -0.1963
  546MPD2     C 8098   1.767   3.920  17.623 -0.5621 -0.2160  0.1500
  546MPD2    C1 8099   1.721   3.981  17.507 -0.3236  0.4919  0.7980
  546MPD2    C2 8100   1.785   4.098  17.458  0.2984  0.0983 -0.0596
  546MPD2    C3 8101   1.879   4.164  17.540 -1.1049 -0.0979 -0.5504
  546MPD2    C4 8102   1.903   4.111  17.667 -0.2976 -0.4762  0.0400
  546MPD2    C5 8103   1.858   3.985   0.012  0.0531  0.2025 -0.6699
  546MPD2     H 8104   1.765   4.138  17.360  1.0367  0.7898  0.0786
  546MPD2    H1 8105   1.978   4.161   0.040 -2.0461  2.7367 -0.5004
  546MPD2    H2 8106   1.722   3.827  17.654 -1.1621 -0.2815 -0.9085
  546MPD2    H3 8107   1.887   3.938   0.105 -2.1485  0.1773  0.0097
  546MPD2     N 8108   1.937   4.290  17.520  0.6529 -0.7199  0.3767
  546MPD2    H5 8109   1.964   4.348  17.599 -0.4533  0.1315  0.1371
  546MPD2    N1 8110   1.630   3.901  17.438  0.2401  0.2426 -0.0009
  546MPD2    H7 8111   1.601   3.812  17.477 -1.2218  1.4528  1.6677
  547TMC3    C1 8112   1.489   3.833  17.264  0.7569 -0.3078 -0.4811
  547TMC3    C2 8113   1.477   3.799  17.136 -0.0878 -0.6570  0.4017
  547TMC3    C3 8114   1.407   3.692  17.097  0.0011  0.4449 -0.2536
  547TMC3    C4 8115   1.421   3.768  17.363  0.7516 -0.4387 -0.1215
  547TMC3    C5 8116   1.350   3.663  17.328  0.5052  0.1438 -0.3214
  547TMC3    C6 8117   1.337   3.620  17.199 -0.4382 -0.5549 -0.0921
  547TMC3     C 8118   1.595   3.923  17.306 -0.3218 -0.2351  0.3258
  547TMC3     O 8119   1.626   4.014  17.229  0.2557  0.3871 -0.0512
  547TMC3     H 8120   1.545   3.845  17.065  0.8887 -1.5498  0.7632
  547TMC3    H1 8121   1.420   3.803  17.466  2.9175 -1.2908  0.1828
  547TMC3    H2 8122   1.299   3.521  17.179 -1.4571 -0.3668  0.9470
  547TMC3    C7 8123   1.270   3.602  17.434  0.0918  0.1504 -1.0482
  547TMC3    C8 8124   1.332   3.717  16.980 -0.5492 -0.4841 -0.2263
  547TMC3    O1 8125   1.255   3.669  17.539  0.4329 -0.6212 -0.3984
  547TMC3    O2 8126   1.379   3.805  16.909  0.5405  0.3325 -1.0898
  548MPD2     C 8127   1.606   4.694  12.478  0.3801  0.9391 -0.1291
  548MPD2    C1 8128   1.619   4.600  12.579  0.7292 -0.3212 -0.0686
  548MPD2    C2 8129   1.733   4.515  12.575  0.2205  0.0114 -0.3716
  548MPD2    C3 8130   1.825   4.523  12.474 -0.0642 -0.3075 -0.3277
  548MPD2    C4 8131   1.801   4.618  12.379 -0.3606 -0.3645 -0.2399
  548MPD2    C5 8132   1.696   4.705  12.376  0.0220  0.2271  0.5459
  548MPD2     H 8133   1.757   4.435  12.644  1.2399 -0.5742 -1.4281
  548MPD2    H1 8134   1.877   4.636  12.304  0.3951  0.9094  0.8302
  548MPD2    H2 8135   1.520   0.039  12.479  0.3357  0.8781  0.5578
  548MPD2    H3 8136   1.685   0.069  12.309 -1.3725 -1.5225 -1.4576
  548MPD2     N 8137   1.936   4.433  12.468  0.4744 -0.0263 -0.3147
  548MPD2    H5 8138   1.937   4.369  12.547 -2.1990 -1.6159 -1.5646
  548MPD2    N1 8139   1.521   4.601  12.682  0.4106  0.1980 -0.5365
  548MPD2    H7 8140   1.440   4.658  12.660  1.4646  1.0036 -2.3700
  549TMC3    C1 8141   1.386   4.510  12.855 -0.4561  0.2294  0.1602
  549TMC3    C2 8142   1.267   4.557  12.790 -0.1286  0.0787 -0.5452
  549TMC3    C3 8143   1.153   4.509  12.841  0.7332  0.3232  0.0442
  549TMC3    C4 8144   1.378   4.429  12.968 -0.0612 -0.8968 -1.0928
  549TMC3    C5 8145   1.258   4.384  13.018 -0.0228 -0.2035 -0.3288
  549TMC3    C6 8146   1.145   4.426  12.949  0.6332 -0.1121 -0.0043
  549TMC3     C 8147   1.525   4.531  12.801  0.0751 -0.4380  0.0311
  549TMC3     O 8148   1.615   4.462  12.852  0.5399 -0.1436 -0.0876
  549TMC3     H 8149   1.254   4.625  12.706  0.3255  0.1870 -0.5251
  549TMC3    H1 8150   1.471   4.398  13.014 -0.5034 -0.8817 -0.1884
  549TMC3    H2 8151   1.045   4.392  12.970  0.6664 -2.1012 -3.1066
  549TMC3    C7 8152   1.250   4.293  13.131  0.5829 -0.2480  0.1119
  549TMC3    C8 8153   1.021   4.560  12.790 -0.1115 -0.6179 -0.5452
  549TMC3    O1 8154   1.147   4.304  13.197 -0.5394  0.3448  0.3035
  549TMC3    O2 8155   0.929   4.476  12.787 -0.6217  0.0704 -0.7319
  550TMC3    C1 8156   0.005   2.489  12.156 -0.1319 -0.3907  0.3316
  550TMC3    C2 8157   4.675   2.483  12.284 -0.4376  0.2141  0.5614
  550TMC3    C3 8158   4.579   2.579  12.311  0.4999  0.4535  0.6659
  550TMC3    C4 8159   4.693   2.584  12.064  0.3092 -0.6291 -0.0963
  550TMC3    C5 8160   4.600   2.674  12.099  0.2550  0.2653 -0.1424
  550TMC3    C6 8161   4.537   2.674  12.220 -0.3427  0.3659  0.9385
  550TMC3     C 8162   0.092   2.375  12.121 -0.8891 -0.0080 -0.5950
  550TMC3     O 8163   0.156   2.320  12.205 -0.3771  0.0768 -0.3885
  550TMC3     H 8164   4.701   2.406  12.355 -0.8178 -0.7579 -0.3496
  550TMC3    H1 8165   0.010   2.586  11.963 -1.3628 -1.8805 -0.7549
  550TMC3    H2 8166   4.461   2.745  12.250 -1.8378 -1.2806  1.0596
  550TMC3    C7 8167   4.527   2.762  12.000 -0.4307 -0.4637 -0.0968
  550TMC3    C8 8168   4.495   2.570  12.428  0.8711  0.1665  0.5004
  550TMC3    O1 8169   4.436   2.829  12.052  0.0064 -0.6014  0.1150
  550TMC3    O2 8170   4.378   2.569  12.393  0.2654  0.2080  0.0747
  551TMC3    C1 8171   2.623   0.235  13.613  0.1372  0.3257 -0.1585
  551TMC3    C2 8172   2.688   0.336  13.542  0.1544  0.1093 -0.1138
  551TMC3    C3 8173   2.759   0.431  13.616  0.1280  1.0449 -0.3517
  551TMC3    C4 8174   2.658   0.218  13.749 -0.5482 -0.6368 -0.3303
  551TMC3    C5 8175   2.744   0.305  13.815  0.9055 -0.0193  0.6437
  551TMC3    C6 8176   2.782   0.420  13.752 -0.0948 -0.0361 -0.2734
  551TMC3     C 8177   2.531   0.144  13.548 -0.4641  0.0878  0.3667
  551TMC3     O 8178   2.506   0.160  13.432 -0.4564  0.3622  0.0317
  551TMC3     H 8179   2.671   0.348  13.436  3.8108  1.5000 -0.5402
  551TMC3    H1 8180   2.612   0.134  13.799 -2.6552  0.1675 -0.9493
  551TMC3    H2 8181   2.841   0.494  13.804 -1.6319  2.2981 -1.8522
  551TMC3    C7 8182   2.783   0.290  13.955 -0.0074  0.1803 -0.4918
  551TMC3    C8 8183   2.873   0.491  13.556 -0.2503  0.4142  0.2157
  551TMC3    O1 8184   2.885   0.347  13.985 -0.3303 -0.4444 -0.1024
  551TMC3    O2 8185   2.978   0.442  13.595  1.4058 -0.0107  0.0472
  552MPD2     C 8186   4.212   1.954  14.444  0.8833 -0.1188 -0.2700
  552MPD2    C1 8187   4.314   1.939  14.347  0.2828  0.6455 -0.3684
  552MPD2    C2 8188   4.444   1.965  14.382  0.1689  0.5198 -0.5295
  552MPD2    C3 8189   4.476   2.019  14.504 -0.0010 -0.7321  0.0997
  552MPD2    C4 8190   4.384   2.026  14.603  0.0158 -0.4843  0.4333
  552MPD2    C5 8191   4.249   2.000  14.573  0.0868  0.1090  0.9264
  552MPD2     H 8192   4.518   1.950  14.304  0.8119  1.5423 -0.0993
  552MPD2    H1 8193   4.402   2.055  14.706 -1.4212  0.6531  0.3673
  552MPD2    H2 8194   4.107   1.934  14.424  0.3840  1.7225  0.5459
  552MPD2    H3 8195   4.176   2.016  14.652  0.2913 -1.2370  1.3901
  552MPD2     N 8196   4.615   2.029  14.540  0.1063  0.7433  0.4055
  552MPD2    H5 8197   4.637   2.067  14.631  0.0619 -0.3022  0.8543
  552MPD2    N1 8198   4.292   1.908  14.206 -0.8588 -0.5091 -0.2150
  552MPD2    H7 8199   4.371   1.876  14.151 -0.9941  0.9271 -1.2346
  553TMC3    C1 8200   4.187   1.871  14.001  0.1994  0.9350  0.8317
  553TMC3    C2 8201   4.104   1.923  13.900 -0.7256  0.2708  0.0944
  553TMC3    C3 8202   4.131   1.885  13.770  0.3934  0.2881  0.0938
  553TMC3    C4 8203   4.279   1.776  13.979  0.5906 -0.0463  0.4125
  553TMC3    C5 8204   4.293   1.741  13.847 -0.2317 -0.3255  0.0831
  553TMC3    C6 8205   4.221   1.785  13.744  0.1148 -1.0350 -0.0511
  553TMC3     C 8206   4.174   1.921  14.142 -0.5315 -0.5153 -0.5113
  553TMC3     O 8207   4.066   1.976  14.173  0.9869  0.4920  0.8513
  553TMC3     H 8208   4.041   2.007  13.923  1.0367  1.8236 -0.7621
  553TMC3    H1 8209   4.329   1.727  14.062 -0.5952  1.4741  2.0254
  553TMC3    H2 8210   4.245   1.755  13.642  0.6099  0.5564 -0.3921
  553TMC3    C7 8211   4.397   1.647  13.815  0.2701  0.4777  0.2440
  553TMC3    C8 8212   4.158   2.001  13.687 -0.0468 -0.4489  0.1349
  553TMC3    O1 8213   4.372   1.555  13.735  0.4305  0.2113 -0.5590
  553TMC3    O2 8214   4.212   2.088  13.750  0.0341 -0.1678 -0.3766
  554TMC3    C1 8215   1.911   1.185  11.570 -0.3757  0.9147  0.1449
  554TMC3    C2 8216   1.822   1.136  11.474  0.5242  0.4521 -0.1639
  554TMC3    C3 8217   1.832   1.197  11.357  0.2470  0.2299 -0.9749
  554TMC3    C4 8218   1.983   1.300  11.557 -0.5801 -0.8265 -0.2639
  554TMC3    C5 8219   1.985   1.351  11.428  0.2284  0.8560 -0.0439
  554TMC3    C6 8220   1.917   1.300  11.327 -0.3008  0.4624 -0.2937
  554TMC3     C 8221   1.946   1.095  11.681  0.6068  0.1903  0.5747
  554TMC3     O 8222   1.916   0.977  11.667  0.0976 -0.6252 -0.2310
  554TMC3     H 8223   1.772   1.040  11.489  3.0788 -0.8226  0.1921
  554TMC3    H1 8224   2.054   1.332  11.632 -1.1186  2.1171 -1.0059
  554TMC3    H2 8225   1.912   1.350  11.231  3.8107  0.7731 -0.3316
  554TMC3    C7 8226   2.016   1.484  11.398  0.5135  0.6531 -0.6974
  554TMC3    C8 8227   1.746   1.164  11.249  0.3641  0.5644  0.8029
  554TMC3    O1 8228   2.000   1.528  11.284  0.2041 -0.0102 -0.3445
  554TMC3    O2 8229   1.786   1.180  11.133  0.3998  0.5067  0.0209
  555TMC3    C1 8230   0.744   0.630  14.838 -0.2213 -0.2481 -0.0108
  555TMC3    C2 8231   0.755   0.739  14.919 -0.2133  0.0439  0.5383
  555TMC3    C3 8232   0.763   0.717  15.052 -0.3290  0.5233 -0.2124
  555TMC3    C4 8233   0.726   0.503  14.890 -0.5755  0.0915 -0.5457
  555TMC3    C5 8234   0.728   0.491  15.028 -0.2668 -0.3023 -0.5420
  555TMC3    C6 8235   0.747   0.597  15.107 -0.4483  0.2027 -0.1695
  555TMC3     C 8236   0.780   0.643  14.694 -0.8949  0.0868 -0.0497
  555TMC3     O 8237   0.797   0.539  14.638  0.4837 -0.8302  0.2568
  555TMC3     H 8238   0.774   0.838  14.878  3.3512 -0.7798  0.1896
  555TMC3    H1 8239   0.727   0.417  14.823  1.9089  0.9681 -1.6458
  555TMC3    H2 8240   0.738   0.585  15.214 -0.3037 -0.8506 -0.2719
  555TMC3    C7 8241   0.667   0.373  15.090  0.8001 -0.1039 -0.6424
  555TMC3    C8 8242   0.752   0.838  15.135  0.7520 -0.2817 -0.4321
  555TMC3    O1 8243   0.641   0.380  15.212 -0.3614  0.4109  0.4458
  555TMC3    O2 8244   0.711   0.943  15.079  0.0056 -0.0393 -0.6114
  556MPD2     C 8245   3.155   2.773  10.220 -0.3916 -0.4865  0.2114
  556MPD2    C1 8246   3.235   2.673  10.279  0.3612  0.2008  0.6747
  556MPD2    C2 8247   3.256   2.560  10.211  0.6211 -0.5659  0.4641
  556MPD2    C3 8248   3.206   2.543  10.085  0.0561 -0.0529 -0.0875
  556MPD2    C4 8249   3.116   2.635  10.035  1.0664 -0.0421 -0.3505
  556MPD2    C5 8250   3.093   2.753  10.102  0.3457 -0.3015 -0.0091
  556MPD2     H 8251   3.327   2.487  10.248  1.9814  0.4453 -0.1634
  556MPD2    H1 8252   3.061   2.617   9.943  0.1890 -2.4743  0.6406
  556MPD2    H2 8253   3.131   2.866  10.271  0.2199 -0.7749  1.0232
  556MPD2    H3 8254   3.026   2.827  10.061 -0.9282 -1.9478 -0.9123
  556MPD2     N 8255   3.219   2.416  10.027 -0.4095 -0.9859  0.2363
  556MPD2    H5 8256   3.275   2.345  10.074 -0.1202 -1.3209 -0.6188
  556MPD2    N1 8257   3.298   2.688  10.401  0.2454  0.0411  0.0932
  556MPD2    H7 8258   3.332   2.603  10.447  1.1048  2.6820  4.3932
  557TMC3    C1 8259   3.168   2.235   9.879  0.3138 -0.3137 -0.3400
  557TMC3    C2 8260   3.161   2.205   9.750 -0.1533 -0.1261  0.2348
  557TMC3    C3 8261   3.210   2.088   9.697  0.2144 -0.1652 -0.1763
  557TMC3    C4 8262   3.216   2.133   9.961  0.0457  0.6640 -0.5179
  557TMC3    C5 8263   3.262   2.014   9.915  0.8408  0.9168  0.4113
  557TMC3    C6 8264   3.275   1.998   9.779  0.2590 -0.8295 -0.6000
  557TMC3     C 8265   3.155   2.372   9.909 -0.4102 -0.1867 -0.2617
  557TMC3     O 8266   3.077   2.437   9.835 -0.2391 -0.0801  0.5826
  557TMC3     H 8267   3.121   2.278   9.681  0.2539  1.8523  2.0874
  557TMC3    H1 8268   3.228   2.156  10.066  0.7841  1.4590 -0.7767
  557TMC3    H2 8269   3.287   1.896   9.744 -1.2092 -1.0378 -0.5156
  557TMC3    C7 8270   3.240   1.889   9.997  0.0637 -0.3446  0.3556
  557TMC3    C8 8271   3.157   2.045   9.573  0.4121  0.4019 -0.5178
  557TMC3    O1 8272   3.297   1.786   9.962 -0.2802 -0.3200 -0.1615
  557TMC3    O2 8273   3.041   2.077   9.552 -0.0391 -0.2036 -0.2023
  558TMC3    C1 8274   1.425   0.031   9.800 -0.9090  1.2689 -0.0381
  558TMC3    C2 8275   1.332   0.028   9.899  0.1377 -0.5116  0.1867
  558TMC3    C3 8276   1.212   4.692   9.877 -0.9335 -0.7886  0.1062
  558TMC3    C4 8277   1.409   4.671   9.690 -0.9238 -0.2167 -0.1611
  558TMC3    C5 8278   1.298   4.591   9.683 -0.1861 -0.3644 -1.0346
  558TMC3    C6 8279   1.196   4.604   9.776  0.1561 -0.1482 -0.0731
  558TMC3     C 8280   1.553   0.087   9.832 -0.0799  0.1253 -0.0413
  558TMC3     O 8281   1.547   0.183   9.903  0.4151 -0.2270 -0.2089
  558TMC3     H 8282   1.344   0.101   9.979  2.0956  0.4567 -1.0021
  558TMC3    H1 8283   1.484   4.677   9.612 -2.4570  1.2633 -1.4947
  558TMC3    H2 8284   1.103   4.549   9.770  1.0825 -1.4758 -2.2032
  558TMC3    C7 8285   1.286   4.500   9.567 -0.4731  0.0379 -0.1188
  558TMC3    C8 8286   1.097   4.704   9.962  0.5058  0.6247  0.0150
  558TMC3    O1 8287   1.377   4.502   9.486  0.2897 -0.1574 -0.6393
  558TMC3    O2 8288   0.988   4.675   9.917  0.1410  0.0590  0.4772
  559MPD2     C 8289   1.101   0.939  10.668 -0.3565  0.5957 -0.7927
  559MPD2    C1 8290   1.056   0.852  10.766  0.0247  0.4296  0.2140
  559MPD2    C2 8291   1.140   0.808  10.871  0.4730 -0.2645 -0.0877
  559MPD2    C3 8292   1.279   0.837  10.858  0.0107  0.3956 -0.1041
  559MPD2    C4 8293   1.326   0.912  10.750  0.3535  0.3510 -0.3378
  559MPD2    C5 8294   1.238   0.958  10.661  0.7969 -0.2129 -0.6381
  559MPD2     H 8295   1.111   0.747  10.955  0.5268 -0.9485 -0.5691
  559MPD2    H1 8296   1.432   0.929  10.737  1.0937 -4.1606 -0.1532
  559MPD2    H2 8297   1.034   0.996  10.604 -2.0197 -1.8121 -1.1941
  559MPD2    H3 8298   1.277   1.010  10.574  1.3093 -0.1697 -0.3855
  559MPD2     N 8299   1.358   0.778  10.959 -0.1736 -0.8083  0.3207
  559MPD2    H5 8300   1.315   0.736  11.040  0.7708 -0.7895  0.8297
  559MPD2    N1 8301   0.916   0.825  10.776 -0.2153 -0.6177  0.3714
  559MPD2    H7 8302   0.855   0.891  10.731 -1.3105  0.0046  2.7685
  560TMC3    C1 8303   1.556   0.709  11.081 -0.2246 -0.1964  0.5622
  560TMC3    C2 8304   1.520   0.573  11.097  0.2341  0.0009 -0.1153
  560TMC3    C3 8305   1.599   0.505  11.186 -0.7696  0.2023 -0.7325
  560TMC3    C4 8306   1.662   0.773  11.146 -0.6753 -0.1228  0.6953
  560TMC3    C5 8307   1.727   0.689  11.237  0.1442  1.0818  0.1576
  560TMC3    C6 8308   1.698   0.555  11.257 -0.2923 -0.0793 -0.3190
  560TMC3     C 8309   1.505   0.788  10.968  0.6414  0.3473 -0.1291
  560TMC3     O 8310   1.588   0.839  10.894 -0.3818 -0.0899 -0.4615
  560TMC3     H 8311   1.435   0.537  11.039 -0.8372 -0.2424  1.6189
  560TMC3    H1 8312   1.679   0.880  11.137 -1.4856  0.0036  0.6860
  560TMC3    H2 8313   1.743   0.499  11.337 -2.6917  0.0432  1.0829
  560TMC3    C7 8314   1.850   0.741  11.297 -0.0166  0.4245  0.1652
  560TMC3    C8 8315   1.582   0.364  11.181  0.1212 -0.3411 -0.0115
  560TMC3    O1 8316   1.882   0.687  11.402 -0.0782  0.3036  0.3907
  560TMC3    O2 8317   1.470   0.331  11.143  0.0128 -0.1718 -0.0561
  561TMC3    C1 8318   3.779   4.543  11.473  0.3715 -0.6829  0.3537
  561TMC3    C2 8319   3.699   4.529  11.579 -0.4522 -0.0188 -0.2751
  561TMC3    C3 8320   3.579   4.593  11.599  0.3780 -0.2433  0.7870
  561TMC3    C4 8321   3.736   4.634  11.382 -0.0122  0.4368  0.2164
  561TMC3    C5 8322   3.612   4.692  11.390 -0.3022 -0.4305  0.2598
  561TMC3    C6 8323   3.527   4.674  11.498  0.2085 -0.2075 -0.3438
  561TMC3     C 8324   3.916   4.497  11.468  0.3227  0.4935  0.2924
  561TMC3     O 8325   3.978   4.535  11.369  0.1231 -0.6062 -0.3606
  561TMC3     H 8326   3.727   4.458  11.656  1.9810  0.1310 -1.0208
  561TMC3    H1 8327   3.806   4.676  11.310  0.5059 -0.1433  0.3815
  561TMC3    H2 8328   3.427   4.715  11.503 -0.1980 -1.6034  3.0883
  561TMC3    C7 8329   3.567   0.066  11.286  0.0064 -0.4219  0.6461
  561TMC3    C8 8330   3.506   4.577  11.724  0.6956 -0.5493 -0.1055
  561TMC3    O1 8331   3.448   0.088  11.289  0.1258 -0.1913 -0.3199
  561TMC3    O2 8332   3.556   4.499  11.801 -0.3634  0.3568 -0.2072
  562TMC3    C1 8333   0.948   1.190  16.476  0.5608  0.0083  0.8088
  562TMC3    C2 8334   0.939   1.323  16.427 -0.0802 -0.0157  0.2998
  562TMC3    C3 8335   0.856   1.348  16.320  0.5641  0.0539 -0.2956
  562TMC3    C4 8336   0.884   1.090  16.408  0.1125 -0.5059 -0.2459
  562TMC3    C5 8337   0.799   1.124  16.306 -0.2708 -0.2207  0.0160
  562TMC3    C6 8338   0.783   1.250  16.263  0.5505  0.3149 -0.2201
  562TMC3     C 8339   1.011   1.185  16.606 -0.8094  0.4749  0.1590
  562TMC3     O 8340   1.022   1.290  16.670 -0.0363  0.1434 -0.1843
  562TMC3     H 8341   0.994   1.399  16.481  0.6325 -0.9257  0.8530
  562TMC3    H1 8342   0.918   0.992  16.438 -1.2801 -0.5371  1.2144
  562TMC3    H2 8343   0.705   1.277  16.193  0.4220  0.6441  0.0500
  562TMC3    C7 8344   0.710   1.023  16.248  0.3550  0.7510  0.6336
  562TMC3    C8 8345   0.818   1.483  16.295  0.6130  0.2548 -0.6846
  562TMC3    O1 8346   0.623   1.071  16.173  0.2999 -0.3949 -0.1896
  562TMC3    O2 8347   0.870   1.571  16.358  0.0342  0.2234  0.2695
  563MPD2     C 8348   2.701   1.878  16.177 -0.4168 -0.4318  0.4189
  563MPD2    C1 8349   2.733   2.007  16.157 -0.2691 -0.0572  0.5786
  563MPD2    C2 8350   2.844   2.064  16.218  0.0390  0.4022  0.9361
  563MPD2    C3 8351   2.928   1.979  16.289 -0.1336 -0.2625 -0.9120
  563MPD2    C4 8352   2.901   1.848  16.292 -0.2107 -0.1208  0.3327
  563MPD2    C5 8353   2.787   1.798  16.241 -1.2401 -0.0353  0.9511
  563MPD2     H 8354   2.872   2.168  16.208  1.4877 -0.1636 -0.8425
  563MPD2    H1 8355   2.961   1.777  16.347 -4.4865 -2.2761  2.2105
  563MPD2    H2 8356   2.602   1.839  16.158 -0.9707  2.0731 -1.8081
  563MPD2    H3 8357   2.762   1.693  16.248 -0.1348 -0.3345  0.3989
  563MPD2     N 8358   3.035   2.045  16.357  0.1830 -0.1419  0.5312
  563MPD2    H5 8359   3.052   2.143  16.338 -0.5475  0.2732  2.0751
  563MPD2    N1 8360   2.637   2.088  16.099 -0.3017 -0.0058  0.2167
  563MPD2    H7 8361   2.559   2.032  16.065 -0.1381 -1.5971  2.4754
  564TMC3    C1 8362   2.547   2.284  16.139  0.5739  0.0701  0.6693
  564TMC3    C2 8363   2.426   2.224  16.123  0.6795 -0.1698  0.8545
  564TMC3    C3 8364   2.344   2.192  16.231 -0.0051  0.2700 -0.0850
  564TMC3    C4 8365   2.593   2.314  16.269  1.5902  0.2753 -0.3887
  564TMC3    C5 8366   2.515   2.267  16.370  0.2236  0.5388  0.1513
  564TMC3    C6 8367   2.386   2.219  16.362  0.4041 -0.3254  0.0660
  564TMC3     C 8368   2.659   2.222  16.071  0.5361 -0.0991  0.1163
  564TMC3     O 8369   2.762   2.280  16.057  0.3807  0.5562 -0.1111
  564TMC3     H 8370   2.415   2.176  16.026  0.2303  3.7054 -1.0049
  564TMC3    H1 8371   2.696   2.344  16.281  1.4972  0.7229 -0.7315
  564TMC3    H2 8372   2.328   2.180  16.445 -0.0321  1.2810  0.5054
  564TMC3    C7 8373   2.600   2.212  16.471  0.0324 -0.6401  0.1820
  564TMC3    C8 8374   2.233   2.093  16.221 -0.6798  0.3827  0.1892
  564TMC3    O1 8375   2.717   2.246  16.491 -0.0245 -0.2205  0.1452
  564TMC3    O2 8376   2.193   2.047  16.330 -0.4487  0.0755 -0.9918
  565TMC3    C1 8377   1.880   4.298   9.527 -0.1760 -0.7722  0.5388
  565TMC3    C2 8378   1.908   4.165   9.540  0.4594 -0.1410  0.1847
  565TMC3    C3 8379   1.819   4.091   9.617 -0.2856 -0.5333 -0.2850
  565TMC3    C4 8380   1.760   4.348   9.576 -0.3777 -0.5716 -0.0452
  565TMC3    C5 8381   1.679   4.271   9.648  0.5332  0.7132 -0.3580
  565TMC3    C6 8382   1.698   4.139   9.669  0.0874 -0.1967  0.6576
  565TMC3     C 8383   1.978   4.392   9.476  0.3183 -0.2571  0.0920
  565TMC3     O 8384   2.083   4.341   9.447  0.1524 -0.3923  0.0639
  565TMC3     H 8385   2.007   4.130   9.511 -0.3924 -1.3583 -1.2493
  565TMC3    H1 8386   1.723   4.448   9.560 -0.7463 -0.3365  2.2904
  565TMC3    H2 8387   1.636   4.090   9.743  0.0364 -1.4136 -0.1738
  565TMC3    C7 8388   1.594   4.346   9.734 -0.5247  0.6090 -0.0521
  565TMC3    C8 8389   1.829   3.945   9.620 -0.3625  0.1858 -1.0896
  565TMC3    O1 8390   1.628   4.462   9.764  0.0215 -0.5531  0.1816
  565TMC3    O2 8391   1.764   3.881   9.703  0.0458  0.1905  0.1528
  566MPD2     C 8392   0.172   4.600  14.398 -0.2361  0.3163 -0.1727
  566MPD2    C1 8393   0.178   0.005  14.350  1.2085  0.1588  0.0878
  566MPD2    C2 8394   0.112   0.025  14.226 -0.1362 -0.6018 -0.1643
  566MPD2    C3 8395   0.056   4.640  14.153 -0.9642 -0.1326 -0.3781
  566MPD2    C4 8396   0.048   4.515  14.211  0.7446 -0.6788  0.1511
  566MPD2    C5 8397   0.113   4.496  14.331  0.4273 -0.1726  0.1084
  566MPD2     H 8398   0.104   0.122  14.177  0.9447  0.8947  2.6431
  566MPD2    H1 8399   4.718   4.429  14.168 -0.9927  0.0367  0.7877
  566MPD2    H2 8400   0.218   4.573  14.492  0.3451 -0.9882 -0.8361
  566MPD2    H3 8401   0.135   4.401  14.378 -1.1214  0.1655  1.5147
  566MPD2     N 8402   0.013   4.653  14.018  0.0004  0.7137 -0.2563
  566MPD2    H5 8403   4.710   4.568  13.968  1.1896  0.5355 -0.5126
  566MPD2    N1 8404   0.233   0.110  14.425  0.1534  0.2643  0.4471
  566MPD2    H7 8405   0.270   0.073  14.512  2.0977 -0.8158 -0.8320
  567TMC3    C1 8406   0.342   0.318  14.455 -0.2109  0.1351 -0.0839
  567TMC3    C2 8407   0.436   0.394  14.389 -0.3266  0.0256 -0.4343
  567TMC3    C3 8408   0.470   0.520  14.436 -0.1135 -0.1697  0.3523
  567TMC3    C4 8409   0.287   0.357  14.573  0.0999  0.2335 -0.4727
  567TMC3    C5 8410   0.318   0.482  14.618 -0.6395  0.2384 -0.2889
  567TMC3    C6 8411   0.413   0.561  14.559  0.3645  0.6066  0.3813
  567TMC3     C 8412   0.259   0.234  14.371  0.4547 -0.7108 -0.3460
  567TMC3     O 8413   0.239   0.277  14.261 -0.4183  0.3053 -0.1766
  567TMC3     H 8414   0.470   0.363  14.290 -0.0824 -1.5539  0.1419
  567TMC3    H1 8415   0.203   0.299  14.610 -0.1567 -0.9588 -2.9024
  567TMC3    H2 8416   0.443   0.656  14.603  0.1749  0.5325  0.6628
  567TMC3    C7 8417   0.316   0.486  14.768 -0.4315 -0.2087  0.2636
  567TMC3    C8 8418   0.500   0.621  14.336  0.4618  0.1407 -0.8182
  567TMC3    O1 8419   0.324   0.377  14.819 -0.3703  0.1600 -0.0717
  567TMC3    O2 8420   0.417   0.706  14.319  0.0739  0.8040  0.1364
  568MPD2     C 8421   2.497   0.981  16.430 -0.2417  0.6460 -1.1464
  568MPD2    C1 8422   2.464   1.064  16.540 -0.3604 -0.3815 -0.2415
  568MPD2    C2 8423   2.358   1.148  16.530  0.2086  0.6361 -0.7421
  568MPD2    C3 8424   2.280   1.149  16.415  0.7153  0.3080 -0.1312
  568MPD2    C4 8425   2.315   1.066  16.310 -0.5233  0.5092  0.2807
  568MPD2    C5 8426   2.419   0.981  16.317 -0.4546 -0.1450 -0.3667
  568MPD2     H 8427   2.334   1.209  16.616  1.0150  0.5146 -0.4248
  568MPD2    H1 8428   2.274   1.074  16.210  2.1168 -0.1712 -0.8545
  568MPD2    H2 8429   2.581   0.913  16.436  1.4630  2.7318 -1.4364
  568MPD2    H3 8430   2.450   0.917  16.236  3.7919  0.9155  0.3582
  568MPD2     N 8431   2.163   1.232  16.423 -0.3358 -0.1786  0.2547
  568MPD2    H5 8432   2.164   1.297  16.501 -0.4315 -0.3628  0.4101
  568MPD2    N1 8433   2.517   1.013  16.659  1.1055  0.0062  0.1881
  568MPD2    H7 8434   2.565   0.924  16.663  1.4772  0.2065  0.2339
  569TMC3    C1 8435   1.935   1.317  16.383 -0.2107 -0.2714  0.3206
  569TMC3    C2 8436   1.956   1.388  16.499  0.1578  0.3674  0.1999
  569TMC3    C3 8437   1.904   1.515  16.493 -0.5031 -0.1832  0.1550
  569TMC3    C4 8438   1.882   1.370  16.268 -0.1163 -0.1009  0.8320
  569TMC3    C5 8439   1.832   1.498  16.273 -0.5216  0.5746 -0.1856
  569TMC3    C6 8440   1.849   1.571  16.386 -0.8110 -0.9711 -0.2253
  569TMC3     C 8441   2.047   1.225  16.348  0.4799  0.2050  0.2033
  569TMC3     O 8442   2.031   1.144  16.262 -0.2591  0.2599 -0.6447
  569TMC3     H 8443   2.023   1.351  16.576 -0.8376 -1.3537  0.2316
  569TMC3    H1 8444   1.883   1.319  16.173 -0.8822  2.1264 -0.3742
  569TMC3    H2 8445   1.807   1.671  16.398  0.9104 -0.2550 -0.0686
  569TMC3    C7 8446   1.851   1.572  16.148 -0.8902 -0.4434 -0.2200
  569TMC3    C8 8447   1.972   1.606  16.583  0.0266 -0.5256  0.6473
  569TMC3    O1 8448   1.841   1.513  16.043 -0.1637  0.4043 -0.2649
  569TMC3    O2 8449   2.011   1.713  16.539 -0.4752 -0.0871 -0.3620
  570TMC3    C1 8450   1.699   4.590  16.193  0.3829  0.1467 -0.3630
  570TMC3    C2 8451   1.770   4.586  16.075  0.2688  0.2104  0.3490
  570TMC3    C3 8452   1.887   4.657  16.078  0.9160  0.0975  0.2814
  570TMC3    C4 8453   1.721   4.679  16.300 -0.3448 -0.2474 -0.2212
  570TMC3    C5 8454   1.841   0.029  16.285 -0.0626 -0.1373  0.0898
  570TMC3    C6 8455   1.928   0.016  16.175 -0.0543 -0.7233  0.4661
  570TMC3     C 8456   1.571   4.516  16.192 -0.2726  0.1552  0.4026
  570TMC3     O 8457   1.504   4.525  16.090  0.1327  0.3069  0.8895
  570TMC3     H 8458   1.738   4.517  15.998  2.3691 -0.7205  0.3012
  570TMC3    H1 8459   1.657   4.690  16.387  2.0054 -0.2743  1.4881
  570TMC3    H2 8460   2.024   0.067  16.184 -1.1100  1.3544  0.1455
  570TMC3    C7 8461   1.865   0.118  16.400  0.4027 -0.0825 -0.5308
  570TMC3    C8 8462   1.989   4.636  15.974 -0.7938  0.3296  0.5169
  570TMC3    O1 8463   1.798   0.107  16.506 -0.8721 -0.0170  0.1617
  570TMC3    O2 8464   2.092   4.700  15.984 -0.7343  0.2745 -0.1160
  571MPD2     C 8465   0.577   2.086  16.956 -0.3751  0.3236  0.0777
  571MPD2    C1 8466   0.597   2.018  17.072  0.6232 -0.5738  0.4513
  571MPD2    C2 8467   0.524   2.048  17.187  0.2695 -0.0474  0.4377
  571MPD2    C3 8468   0.420   2.142  17.184 -0.3214 -0.2150  0.1003
  571MPD2    C4 8469   0.391   2.201  17.064 -0.6967 -0.5043 -0.3077
  571MPD2    C5 8470   0.472   2.173  16.958 -0.6099  0.3887  0.7534
  571MPD2     H 8471   0.537   1.982  17.272  0.5008  0.4124  0.7625
  571MPD2    H1 8472   0.311   2.274  17.055 -0.9047 -0.6406  0.4177
  571MPD2    H2 8473   0.639   2.076  16.868 -1.1667 -4.0870  0.0106
  571MPD2    H3 8474   0.441   2.222  16.866 -2.7010 -1.4216  0.4984
  571MPD2     N 8475   0.351   2.192  17.293  0.3180 -0.3097  0.5579
  571MPD2    H5 8476   0.272   2.254  17.278 -0.2404 -1.2068 -0.2062
  571MPD2    N1 8477   0.701   1.925  17.073 -0.0438  0.0210 -0.6891
  571MPD2    H7 8478   0.758   1.935  16.990  2.2978  1.3273  1.0969
  572TMC3    C1 8479   0.250   2.208  17.502 -0.1914 -0.2639  0.3844
  572TMC3    C2 8480   0.213   2.138  17.609  0.6509 -0.4453 -0.3015
  572TMC3    C3 8481   0.104   2.185  17.674 -0.4972 -0.0723 -0.3261
  572TMC3    C4 8482   0.198   2.331  17.459  0.4031  0.9736 -0.7327
  572TMC3    C5 8483   0.090   2.375  17.536  0.1414 -0.0157  0.2476
  572TMC3    C6 8484   0.046   2.303  17.642  0.2546 -0.5827 -0.1787
  572TMC3     C 8485   0.351   2.142  17.421  0.5119 -0.0249 -0.2888
  572TMC3     O 8486   0.405   2.042  17.472  0.5756 -0.0249 -0.1099
  572TMC3     H 8487   0.234   2.032  17.617  1.6248 -0.1259  1.5279
  572TMC3    H1 8488   0.229   2.390  17.374  1.1107 -1.3720 -2.0747
  572TMC3    H2 8489   4.681   2.333   0.016  0.9543 -0.0787  0.5670
  572TMC3    C7 8490   4.714   2.475  17.493  0.3115  0.8278  0.5462
  572TMC3    C8 8491   0.097   2.147   0.128 -0.5047  0.1960  0.2948
  572TMC3    O1 8492   4.607   2.468  17.549 -0.3857  0.4484 -0.2559
  572TMC3    O2 8493   4.707   2.147   0.178  0.1021 -0.1241  0.4762
  573MPD2     C 8494   0.886   1.912   0.019  0.2328  0.1331  0.5656
  573MPD2    C1 8495   0.812   2.021   0.060  0.1590  0.1254  0.6168
  573MPD2    C2 8496   0.774   2.123  17.653  0.1680 -0.0881  0.1793
  573MPD2    C3 8497   0.795   2.098  17.518 -0.8115  0.1865 -0.3443
  573MPD2    C4 8498   0.853   1.978  17.479 -0.1558  0.6534  0.8535
  573MPD2    C5 8499   0.908   1.893  17.572 -0.2966  0.2297 -0.3569
  573MPD2     H 8500   0.751   2.224  17.684 -1.1975 -0.4363  0.2995
  573MPD2    H1 8501   0.890   1.951  17.381 -2.8801 -0.4846  0.1266
  573MPD2    H2 8502   0.923   1.839   0.089 -1.2428 -0.6774  0.4903
  573MPD2    H3 8503   0.967   1.812  17.530 -0.6768 -0.5807  0.6627
  573MPD2     N 8504   0.764   2.200  17.417  0.2819  0.8441 -0.6865
  573MPD2    H5 8505   0.786   2.164  17.324  0.2578 -2.3579  0.5357
  573MPD2    N1 8506   0.804   2.051   0.201  0.2827 -0.0997 -0.2686
  573MPD2    H7 8507   0.864   1.994   0.260 -0.6108 -0.5329  0.2239
  574TMC3    C1 8508   0.654   2.376  17.315 -0.3075 -0.1836 -0.4171
  574TMC3    C2 8509   0.546   2.462  17.312 -0.2869 -0.7665 -0.1150
  574TMC3    C3 8510   0.525   2.534  17.202 -0.2174  0.9441  0.1392
  574TMC3    C4 8511   0.745   2.381  17.206 -0.0551  0.2612 -0.1986
  574TMC3    C5 8512   0.730   2.469  17.106 -0.3045  0.0170  0.2095
  574TMC3    C6 8513   0.615   2.545  17.102  0.5020 -0.1053  0.5406
  574TMC3     C 8514   0.693   2.314  17.437 -0.2998  0.7403 -0.0458
  574TMC3     O 8515   0.632   2.350  17.533  0.4183  0.0936  0.0207
  574TMC3     H 8516   0.463   2.456  17.382 -0.0925  0.1638  0.1992
  574TMC3    H1 8517   0.836   2.322  17.206 -1.1748 -1.4725 -1.7257
  574TMC3    H2 8518   0.595   2.608  17.016  0.6698  2.7111  2.5714
  574TMC3    C7 8519   0.805   2.461  16.985 -0.5764  0.2105 -0.5031
  574TMC3    C8 8520   0.393   2.586  17.172  0.0085 -0.0051  0.0868
  574TMC3    O1 8521   0.869   2.356  16.979 -0.0483 -0.0754 -0.1138
  574TMC3    O2 8522   0.294   2.549  17.233 -0.0752 -0.2820 -0.0720
  575TMC3    C1 8523   1.837   3.064   9.848  0.5722  0.3539 -0.5637
  575TMC3    C2 8524   1.720   3.066   9.922  0.4164  0.3690  0.2736
  575TMC3    C3 8525   1.672   3.186   9.972  0.1481 -0.0650 -0.2559
  575TMC3    C4 8526   1.895   3.186   9.815  0.5617 -0.0328  0.8645
  575TMC3    C5 8527   1.834   3.303   9.860  0.7430  0.2835 -0.1428
  575TMC3    C6 8528   1.728   3.307   9.945 -0.3783 -0.0071  0.8904
  575TMC3     C 8529   1.912   2.942   9.843 -0.2578 -0.5596 -0.0608
  575TMC3     O 8530   1.995   2.926   9.754  0.3839 -0.1563  0.0802
  575TMC3     H 8531   1.667   2.975   9.947  1.9461 -0.6034  0.0476
  575TMC3    H1 8532   1.976   3.196   9.744  0.1691 -0.6443  0.3327
  575TMC3    H2 8533   1.693   3.398   9.990 -0.2516  1.7446 -2.5131
  575TMC3    C7 8534   1.854   3.425   9.785 -0.5458  0.1423 -0.1313
  575TMC3    C8 8535   1.553   3.177  10.052 -0.1204 -0.0054 -0.0329
  575TMC3    O1 8536   1.753   3.485   9.758  0.5485  0.0861 -0.1777
  575TMC3    O2 8537   1.532   3.065  10.087 -0.2332 -0.2392  0.2121
  576MPD2     C 8538   2.596   0.139  12.770  0.1400 -0.5433  0.1177
  576MPD2    C1 8539   2.572   0.210  12.656 -0.9297 -0.2130 -0.5799
  576MPD2    C2 8540   2.544   0.340  12.673 -0.9620  0.1305  0.3524
  576MPD2    C3 8541   2.529   0.401  12.800 -0.3255 -0.4666  0.1003
  576MPD2    C4 8542   2.518   0.316  12.903  0.2985 -0.3057 -0.0225
  576MPD2    C5 8543   2.560   0.180  12.892 -0.4002  0.1003  0.6672
  576MPD2     H 8544   2.541   0.402  12.584  0.4912  0.5288  0.5805
  576MPD2    H1 8545   2.499   0.341  13.006  1.6290  1.7597 -0.2731
  576MPD2    H2 8546   2.618   0.033  12.768 -1.9350 -0.9733  0.1659
  576MPD2    H3 8547   2.561   0.107  12.973 -0.3301 -1.0549 -0.3823
  576MPD2     N 8548   2.511   0.539  12.805 -0.1376 -0.0106 -0.0126
  576MPD2    H5 8549   2.513   0.592  12.718  0.6468  1.1751  0.7275
  576MPD2    N1 8550   2.592   0.174  12.516  0.2500 -0.1982 -0.3270
  576MPD2    H7 8551   2.573   0.241  12.442 -0.1047 -1.6272 -1.5173
  577TMC3    C1 8552   2.716   0.112  12.334 -0.0885 -1.1697 -1.2333
  577TMC3    C2 8553   2.846   0.136  12.306 -0.2639  0.0966 -0.1218
  577TMC3    C3 8554   2.878   0.171  12.180  0.6268  0.0348  0.4093
  577TMC3    C4 8555   2.617   0.131  12.244 -0.2213 -0.1868 -0.2201
  577TMC3    C5 8556   2.646   0.162  12.115 -0.7988  0.0563 -0.3844
  577TMC3    C6 8557   2.786   0.173  12.078 -0.2347 -0.7192  1.2256
  577TMC3     C 8558   2.678   0.079  12.469  0.4037 -0.4829  0.2302
  577TMC3     O 8559   2.764   0.012  12.527  0.6760 -0.3679 -0.1456
  577TMC3     H 8560   2.924   0.120  12.379  1.1505 -1.1025 -1.8911
  577TMC3    H1 8561   2.517   0.108  12.278 -0.3217 -0.0782 -0.4480
  577TMC3    H2 8562   2.818   0.198  11.978  2.6982 -1.6614  1.9091
  577TMC3    C7 8563   2.541   0.168  12.017 -0.4174 -0.3118 -0.8829
  577TMC3    C8 8564   3.017   0.185  12.151  0.7285 -0.1153 -0.1724
  577TMC3    O1 8565   2.437   0.108  12.041 -0.3669 -0.4267  0.2387
  577TMC3    O2 8566   3.078   0.236  12.246 -0.0123 -0.0660 -0.7050
  578MPD2     C 8567   1.121   0.311   1.435  0.0351 -0.1742 -0.3877
  578MPD2    C1 8568   1.235   0.327   1.516  0.5544 -0.5879  0.0820
  578MPD2    C2 8569   1.274   0.219   1.598 -0.6456  0.1353  0.5183
  578MPD2    C3 8570   1.199   0.097   1.601 -0.2851 -0.5863 -0.2310
  578MPD2    C4 8571   1.090   0.089   1.521 -0.4115  0.7229 -0.4332
  578MPD2    C5 8572   1.049   0.195   1.438 -0.2282 -0.7310 -0.1467
  578MPD2     H 8573   1.366   0.221   1.655 -1.3250  0.0747  1.6174
  578MPD2    H1 8574   1.025   0.002   1.517  0.0863  0.1542  3.1147
  578MPD2    H2 8575   1.109   0.380   1.352 -2.4314  1.7235  1.5816
  578MPD2    H3 8576   0.969   0.185   1.365  0.7729 -1.1291 -1.1883
  578MPD2     N 8577   1.252   4.701   1.669 -0.4302 -0.6807  0.7217
  578MPD2    H5 8578   1.340   4.708   1.719  0.9991  3.6208 -2.3395
  578MPD2    N1 8579   1.313   0.439   1.491 -0.4349 -0.6348 -0.1591
  578MPD2    H7 8580   1.282   0.515   1.431 -0.0589 -0.8832 -0.6552
  579TMC3    C1 8581   1.287   4.485   1.721 -0.0777 -0.5358 -0.7688
  579TMC3    C2 8582   1.389   4.539   1.794  0.4332  0.0420 -0.7628
  579TMC3    C3 8583   1.504   4.463   1.797  0.0304 -0.7632  0.2404
  579TMC3    C4 8584   1.294   4.368   1.653 -0.0320 -0.2996 -1.0561
  579TMC3    C5 8585   1.413   4.307   1.653  0.8534  0.6056 -0.1271
  579TMC3    C6 8586   1.517   4.355   1.721  0.2192  0.4535  0.3447
  579TMC3     C 8587   1.193   4.578   1.670  0.1435 -0.4391  0.1234
  579TMC3     O 8588   1.090   4.532   1.622  0.2828 -0.3492 -0.2433
  579TMC3     H 8589   1.376   4.618   1.867 -1.4755  1.4578 -2.6312
  579TMC3    H1 8590   1.221   4.328   1.584 -0.9526 -1.6012  0.6543
  579TMC3    H2 8591   1.605   4.294   1.738  0.4262  0.2974 -1.3152
  579TMC3    C7 8592   1.452   4.247   1.521 -0.0691  0.7545 -0.3535
  579TMC3    C8 8593   1.591   4.496   1.904  0.2286 -0.6175 -0.4396
  579TMC3    O1 8594   1.364   4.242   1.440 -0.1681 -0.0521  0.0762
  579TMC3    O2 8595   1.531   4.521   2.008 -0.0930 -0.1344  0.2486
  580TMC3    C1 8596   1.046   3.860  12.235  0.1445 -0.6670  0.1934
  580TMC3    C2 8597   1.112   3.898  12.122 -0.5800  0.4870  0.2451
  580TMC3    C3 8598   1.246   3.889  12.109 -0.6167  0.0504  0.0757
  580TMC3    C4 8599   1.119   3.771  12.314 -0.2308  0.7406 -0.1836
  580TMC3    C5 8600   1.245   3.733  12.289 -0.0933  0.2912  0.0216
  580TMC3    C6 8601   1.312   3.796  12.186  0.1756  0.5101 -0.6518
  580TMC3     C 8602   1.001   3.979  12.302  0.2946  0.4645 -0.8770
  580TMC3     O 8603   0.936   4.060  12.235  0.1196  0.5243  0.0318
  580TMC3     H 8604   1.068   3.981  12.068 -0.8198 -1.7505 -2.9544
  580TMC3    H1 8605   1.070   3.726  12.399  1.1383 -2.0343 -0.8652
  580TMC3    H2 8606   1.420   3.784  12.186  0.0842 -0.2598  1.1963
  580TMC3    C7 8607   1.322   3.657  12.387  0.2201  0.5903 -0.2809
  580TMC3    C8 8608   1.308   4.006  12.059 -0.3711 -0.4576 -0.3850
  580TMC3    O1 8609   1.277   3.659  12.505  0.5038  0.2117  0.4304
  580TMC3    O2 8610   1.255   4.068  11.968 -0.0622 -0.1942 -0.0379
  581MPD2     C 8611   3.699   3.330  14.900  0.0591 -0.0501 -0.2059
  581MPD2    C1 8612   3.586   3.366  14.973 -0.1641  0.5821 -0.1856
  581MPD2    C2 8613   3.514   3.483  14.944 -0.2819 -0.1469  0.9083
  581MPD2    C3 8614   3.568   3.572  14.851 -0.0642  0.4396 -0.4228
  581MPD2    C4 8615   3.685   3.536  14.793 -0.8263  0.7140 -0.4940
  581MPD2    C5 8616   3.746   3.416  14.814 -0.6379  0.4129  0.0791
  581MPD2     H 8617   3.422   3.509  14.995 -1.2875  0.2833 -1.1315
  581MPD2    H1 8618   3.718   3.598  14.710 -1.7586  2.0700  0.1579
  581MPD2    H2 8619   3.742   3.230  14.909  1.5584  0.6220  0.1839
  581MPD2    H3 8620   3.839   3.400  14.761  0.0936 -2.1593  2.1104
  581MPD2     N 8621   3.481   3.678  14.814 -0.6794  0.4063  0.2115
  581MPD2    H5 8622   3.388   3.686  14.852 -1.5619 -0.7832 -1.6739
  581MPD2    N1 8623   3.543   3.274  15.072 -0.0303 -0.0581  0.1537
  581MPD2    H7 8624   3.607   3.198  15.093 -0.8472 -0.2605  1.8998
  582TMC3    C1 8625   3.441   3.188  15.272 -0.6769  0.1016  0.4071
  582TMC3    C2 8626   3.548   3.195  15.356 -0.3008  0.2464 -0.3522
  582TMC3    C3 8627   3.528   3.159  15.483  0.2254 -0.0409  0.2963
  582TMC3    C4 8628   3.314   3.151  15.320 -0.3657 -0.2531  0.2096
  582TMC3    C5 8629   3.299   3.112  15.451  0.5584  1.5413 -0.5787
  582TMC3    C6 8630   3.408   3.111  15.532  0.5375  0.2711  0.2505
  582TMC3     C 8631   3.440   3.289  15.167 -0.1028  0.5266 -0.2658
  582TMC3     O 8632   3.337   3.355  15.150  0.3134 -0.7322 -0.4053
  582TMC3     H 8633   3.637   3.249  15.325 -0.4018  1.3615  1.3231
  582TMC3    H1 8634   3.234   3.134  15.248  0.9919  0.6490 -1.5257
  582TMC3    H2 8635   3.397   3.084  15.637 -1.0412 -0.7686 -0.1805
  582TMC3    C7 8636   3.186   3.188  15.513  0.3117 -0.7639 -0.7031
  582TMC3    C8 8637   3.608   3.220  15.581 -0.2600 -0.5746  0.1282
  582TMC3    O1 8638   3.148   3.152  15.624 -0.8742 -0.1406  0.1361
  582TMC3    O2 8639   3.546   3.252  15.683  0.3293 -0.1817 -0.2197
  583MPD2     C 8640   3.624   0.666  16.897  0.0071 -0.7446  0.5235
  583MPD2    C1 8641   3.619   0.801  16.888 -0.7627 -0.5138 -0.2619
  583MPD2    C2 8642   3.560   0.877  16.989 -0.2181 -0.5634 -0.6731
  583MPD2    C3 8643   3.505   0.817  17.098  0.8617  0.1636  0.1435
  583MPD2    C4 8644   3.514   0.678  17.105 -0.6376  0.3772  0.1274
  583MPD2    C5 8645   3.577   0.599  17.003  0.3055  0.3678 -0.5888
  583MPD2     H 8646   3.558   0.984  16.975  1.3372 -0.1896  1.9942
  583MPD2    H1 8647   3.491   0.626  17.197 -0.0993  0.7826  0.4877
  583MPD2    H2 8648   3.659   0.612  16.810 -1.6990  0.3390 -0.8410
  583MPD2    H3 8649   3.569   0.491  16.995 -1.4466  0.3469  1.3342
  583MPD2     N 8650   3.446   0.899  17.196 -0.8270  0.0076 -0.1162
  583MPD2    H5 8651   3.453   0.999  17.177  0.4323 -0.5524 -2.6160
  583MPD2    N1 8652   3.662   0.872  16.767 -0.0805  0.2621 -0.0972
  583MPD2    H7 8653   3.644   0.972  16.763 -2.5628 -0.1318  1.6109
  584TMC3    C1 8654   3.364   0.983  17.400  0.4700  0.2352  0.5581
  584TMC3    C2 8655   3.380   1.110  17.353  0.9065 -0.8577  0.3190
  584TMC3    C3 8656   3.360   1.221  17.429 -0.0914 -0.2912 -0.3098
  584TMC3    C4 8657   3.316   0.968  17.521  0.6939  0.9949 -0.1367
  584TMC3    C5 8658   3.295   1.077  17.596 -0.1413 -0.0184  0.3022
  584TMC3    C6 8659   3.312   1.208  17.554  0.0732 -0.5315  0.3951
  584TMC3     C 8660   3.398   0.858  17.321 -0.7819 -0.8020 -0.1042
  584TMC3     O 8661   3.388   0.747  17.375  0.4297 -0.0372 -0.2635
  584TMC3     H 8662   3.416   1.130  17.252  0.9364 -3.7425 -0.2433
  584TMC3    H1 8663   3.307   0.866  17.559  0.1816  0.3399 -2.0075
  584TMC3    H2 8664   3.284   1.291  17.618  3.3518 -0.4851  1.8002
  584TMC3    C7 8665   3.234   1.065   0.040  0.0500 -0.0070  0.2283
  584TMC3    C8 8666   3.359   1.350  17.370 -1.0304 -0.4442 -0.1627
  584TMC3    O1 8667   3.243   1.158   0.117 -0.1591 -0.3829 -0.9109
  584TMC3    O2 8668   3.345   1.351  17.249  0.1159 -0.2242  0.4109
  585MPD2     C 8669   2.788   4.404   0.827 -0.0698 -0.2337  0.4380
  585MPD2    C1 8670   2.834   4.477   0.715 -0.2506 -1.0256 -0.6443
  585MPD2    C2 8671   2.833   4.412   0.591 -0.2987  0.7140  0.0146
  585MPD2    C3 8672   2.800   4.277   0.578 -0.0983  0.4827 -0.3046
  585MPD2    C4 8673   2.749   4.211   0.685 -0.0302 -0.0683  0.3300
  585MPD2    C5 8674   2.748   4.274   0.810  0.0208 -0.5243  0.2974
  585MPD2     H 8675   2.861   4.475   0.508  1.2442 -0.0025 -0.0125
  585MPD2    H1 8676   2.709   4.112   0.670  0.4897 -0.3516  0.8195
  585MPD2    H2 8677   2.780   4.452   0.924  0.9697  0.0047  0.4093
  585MPD2    H3 8678   2.714   4.217   0.896  0.2942  1.3133  1.6151
  585MPD2     N 8679   2.786   4.211   0.454 -0.0734  0.1649 -0.3136
  585MPD2    H5 8680   2.744   4.119   0.463  0.4316  0.0390  0.8170
  585MPD2    N1 8681   2.866   4.616   0.725 -0.0896 -0.5337  0.6307
  585MPD2    H7 8682   2.843   4.663   0.812 -3.0054  0.4814 -0.7134
  586TMC3    C1 8683   2.813   4.178   0.223 -0.1990 -0.7505 -0.5791
  586TMC3    C2 8684   2.883   4.221   0.109  0.2988 -0.1574  0.4888
  586TMC3    C3 8685   2.830   4.221  17.670  0.5673  0.2459  0.8673
  586TMC3    C4 8686   2.686   4.134   0.206 -1.0140 -0.3738  0.3131
  586TMC3    C5 8687   2.621   4.135   0.088  0.6699  0.0592 -0.4285
  586TMC3    C6 8688   2.696   4.187  17.667  0.3474  0.5749 -0.1681
  586TMC3     C 8689   2.848   4.253   0.338  0.9871  0.6073 -1.2771
  586TMC3     O 8690   2.916   4.354   0.317 -0.2475  0.3745 -0.4735
  586TMC3     H 8691   2.986   4.243   0.131 -0.0013  1.3884  0.3560
  586TMC3    H1 8692   2.634   4.091   0.291  1.2895 -1.1816  1.3181
  586TMC3    H2 8693   2.644   4.182  17.573 -2.0261 -1.6953  1.2532
  586TMC3    C7 8694   2.565   4.009   0.054  0.0787 -0.4436  0.4518
  586TMC3    C8 8695   2.901   4.129  17.577 -0.6789  0.5445 -0.1314
  586TMC3    O1 8696   2.468   4.019  17.661 -0.3334 -0.7272 -0.1396
  586TMC3    O2 8697   2.931   4.024  17.629 -0.3791  0.0623 -0.3841
  587TMC3    C1 8698   0.673   3.192  16.166  0.5123  0.2841 -1.1869
  587TMC3    C2 8699   0.596   3.303  16.164  0.4448 -0.8207 -0.0144
  587TMC3    C3 8700   0.644   3.406  16.094  0.1074  0.1496  0.4967
  587TMC3    C4 8701   0.790   3.188  16.101 -0.9890 -0.3306 -0.0607
  587TMC3    C5 8702   0.824   3.286  16.011 -0.3105 -0.1224 -0.3459
  587TMC3    C6 8703   0.752   3.400  16.006  0.2104 -0.2297  0.9100
  587TMC3     C 8704   0.616   3.059  16.195 -0.3882 -1.2863 -0.0409
  587TMC3     O 8705   0.675   2.969  16.137  0.1564 -0.0075  0.0431
  587TMC3     H 8706   0.500   3.298  16.214  0.3013 -1.9959 -0.3963
  587TMC3    H1 8707   0.865   3.117  16.132 -0.6604  1.0499  2.2965
  587TMC3    H2 8708   0.786   3.489  15.955  2.4443  0.4782  3.6259
  587TMC3    C7 8709   0.945   3.286  15.936  0.5129 -0.4150  0.3683
  587TMC3    C8 8710   0.598   3.540  16.118 -0.3076  0.0542 -0.1340
  587TMC3    O1 8711   0.967   3.377  15.856  0.7897 -0.6422 -0.4242
  587TMC3    O2 8712   0.637   3.625  16.041  0.0106  0.4957  0.1426
  588TMC3    C1 8713   3.181   0.830   9.953  0.0367 -0.0124 -0.7648
  588TMC3    C2 8714   3.121   0.712   9.987  0.0540 -0.1034 -0.7591
  588TMC3    C3 8715   3.118   0.617   9.889 -0.1072  0.2401  0.3520
  588TMC3    C4 8716   3.232   0.850   9.825 -0.0657 -0.6952  0.0294
  588TMC3    C5 8717   3.213   0.758   9.724  0.2086  0.1607 -0.4822
  588TMC3    C6 8718   3.155   0.639   9.754  0.8122  0.7392 -0.0584
  588TMC3     C 8719   3.135   0.950  10.028 -1.0491  0.5077  0.7963
  588TMC3     O 8720   3.062   0.928  10.122  0.0716 -0.7156  0.0792
  588TMC3     H 8721   3.081   0.692  10.085 -0.4220  2.2001 -0.4939
  588TMC3    H1 8722   3.293   0.934   9.796 -1.6063  0.2732 -0.4154
  588TMC3    H2 8723   3.127   0.576   9.670 -1.0326  0.3325  0.8429
  588TMC3    C7 8724   3.216   0.804   9.591  0.5150  0.4554  0.4677
  588TMC3    C8 8725   3.030   0.508   9.931 -0.8382 -0.6854  0.2676
  588TMC3    O1 8726   3.268   0.733   9.502  1.1474  0.2707 -0.2318
  588TMC3    O2 8727   2.935   0.533  10.006  0.2615  0.2859 -0.1466
  589TMC3    C1 8728   1.495   3.385   0.939 -0.1829 -0.3632  0.6306
  589TMC3    C2 8729   1.598   3.416   1.020  0.1568  0.1301 -0.3338
  589TMC3    C3 8730   1.714   3.346   1.009  0.6479  0.5404 -0.1347
  589TMC3    C4 8731   1.501   3.309   0.823 -0.0457 -0.0279  0.8569
  589TMC3    C5 8732   1.616   3.233   0.825 -0.4996  0.1508  0.7477
  589TMC3    C6 8733   1.717   3.246   0.918  0.3886 -0.2258  0.3848
  589TMC3     C 8734   1.370   3.468   0.955 -0.5390  0.0692  0.5616
  589TMC3     O 8735   1.305   3.492   0.855 -0.0453 -0.2661  0.6875
  589TMC3     H 8736   1.593   3.480   1.107 -1.3576 -0.6550  0.1469
  589TMC3    H1 8737   1.416   3.300   0.757  1.7421 -3.1387 -1.0400
  589TMC3    H2 8738   1.805   3.186   0.900  1.8346  0.7231  4.4571
  589TMC3    C7 8739   1.623   3.110   0.746  0.7407  0.4534  0.5952
  589TMC3    C8 8740   1.800   3.342   1.128  0.2002 -0.2641 -0.1543
  589TMC3    O1 8741   1.731   3.052   0.746  0.3143  0.1627  0.3103
  589TMC3    O2 8742   1.767   3.393   1.233  0.1090 -0.5712  0.4496
  590MPD2     C 8743   1.365   1.182  16.539 -0.6767  0.0010 -0.2939
  590MPD2    C1 8744   1.363   1.323  16.535  0.1500  0.2704  0.0318
  590MPD2    C2 8745   1.408   1.381  16.412  0.8500 -0.0704  0.0529
  590MPD2    C3 8746   1.451   1.306  16.303  0.5959 -0.1655  0.3422
  590MPD2    C4 8747   1.440   1.166  16.318  0.2016  0.3697  0.5449
  590MPD2    C5 8748   1.399   1.106  16.436 -0.1905 -0.1720 -0.1974
  590MPD2     H 8749   1.415   1.489  16.399  1.9748 -0.2656 -1.0644
  590MPD2    H1 8750   1.481   1.098  16.245  0.4438  2.5756 -1.3527
  590MPD2    H2 8751   1.348   1.122  16.628 -1.6099 -1.7500 -1.6624
  590MPD2    H3 8752   1.402   0.998  16.437 -0.5356 -0.1724  0.9796
  590MPD2     N 8753   1.488   1.379  16.186  0.1413 -0.3080  0.0586
  590MPD2    H5 8754   1.496   1.479  16.202  1.7884 -0.5842  0.9200
  590MPD2    N1 8755   1.315   1.401  16.638  0.1775 -0.9255 -0.1538
  590MPD2    H7 8756   1.243   1.372  16.703 -2.2573  1.4972 -1.7223
  591TMC3    C1 8757   1.514   1.437  15.966  0.1342  1.2956  0.0224
  591TMC3    C2 8758   1.597   1.418  15.855  0.0612  0.7752  0.5627
  591TMC3    C3 8759   1.600   1.520  15.760  0.4294  0.2349  0.0392
  591TMC3    C4 8760   1.416   1.529  15.969  0.0220  0.0156  0.5963
  591TMC3    C5 8761   1.421   1.627  15.869  0.1738  0.2137 -0.2201
  591TMC3    C6 8762   1.509   1.621  15.766  0.1909 -0.0873 -0.1654
  591TMC3     C 8763   1.495   1.328  16.056  0.1105 -0.1912  0.0345
  591TMC3     O 8764   1.493   1.211  16.021  0.2360  0.2061 -0.7648
  591TMC3     H 8765   1.677   1.344  15.854  0.8216  1.6105 -1.7725
  591TMC3    H1 8766   1.346   1.546  16.050 -0.3362 -2.3002  0.7680
  591TMC3    H2 8767   1.508   1.695  15.687  2.0842  3.2881  2.9096
  591TMC3    C7 8768   1.336   1.737  15.874  0.4281  0.7109  0.1543
  591TMC3    C8 8769   1.719   1.548  15.686 -0.0230  0.1346 -0.1990
  591TMC3    O1 8770   1.218   1.719  15.909 -0.1051  0.5831  0.3849
  591TMC3    O2 8771   1.730   1.661  15.628 -0.3420 -0.3462  0.1303
  592MPD2     C 8772   1.904   3.971  11.392  0.2456  0.4557  0.1330
  592MPD2    C1 8773   1.992   3.921  11.479 -0.1712 -0.2002 -0.3194
  592MPD2    C2 8774   1.964   3.798  11.540 -0.7985 -0.5376  0.4493
  592MPD2    C3 8775   1.843   3.741  11.518  0.3580  0.2606 -0.0989
  592MPD2    C4 8776   1.752   3.792  11.426 -0.6897 -0.0658 -0.3761
  592MPD2    C5 8777   1.788   3.915  11.372  0.1748 -0.5420  0.7083
  592MPD2     H 8778   2.033   3.750  11.608 -0.2511  3.2676  2.5821
  592MPD2    H1 8779   1.657   3.747  11.399  0.0996 -1.4234 -0.8949
  592MPD2    H2 8780   1.941   4.058  11.338  0.4055  1.1263  1.3236
  592MPD2    H3 8781   1.716   3.960  11.305  1.7866  0.8763 -0.0637
  592MPD2     N 8782   1.818   3.621  11.598  0.6572  0.3084 -0.3976
  592MPD2    H5 8783   1.899   3.594  11.652  0.0822  0.4978  0.5691
  592MPD2    N1 8784   2.106   3.996  11.502  0.1075 -0.3964  0.0286
  592MPD2    H7 8785   2.107   4.087  11.458 -0.5450  0.2056  1.2321
  593TMC3    C1 8786   2.294   4.075  11.621 -0.3066  0.4776 -0.3670
  593TMC3    C2 8787   2.336   4.117  11.749 -0.0039  0.4840  0.3080
  593TMC3    C3 8788   2.424   4.217  11.762  0.1134  0.0426 -0.1238
  593TMC3    C4 8789   2.345   4.132  11.506 -0.0029 -0.4282  0.0264
  593TMC3    C5 8790   2.428   4.237  11.522 -0.8502  0.3147  0.0136
  593TMC3    C6 8791   2.464   4.288  11.647 -0.3854  0.1145 -0.7935
  593TMC3     C 8792   2.194   3.965  11.612  0.7385  0.5917 -0.5447
  593TMC3     O 8793   2.189   3.899  11.714 -0.5880  0.7581 -0.1249
  593TMC3     H 8794   2.287   4.077  11.837  3.6409 -1.6735  1.4015
  593TMC3    H1 8795   2.319   4.096  11.407  1.2522 -1.0889 -0.0608
  593TMC3    H2 8796   2.519   4.382  11.655 -0.3679 -0.0772  1.2537
  593TMC3    C7 8797   2.492   4.298  11.403 -0.2508  0.0674 -0.4817
  593TMC3    C8 8798   2.438   4.282  11.890  0.3981 -0.3158 -0.1993
  593TMC3    O1 8799   2.565   4.392  11.425  0.2042  0.9284 -0.4883
  593TMC3    O2 8800   2.357   4.247  11.972 -0.3989 -0.4447 -0.0609
  594MPD2     C 8801   0.486   2.318  14.122  0.6467  0.8373 -0.0655
  594MPD2    C1 8802   0.515   2.298  14.259 -0.0030 -0.0015 -0.7042
  594MPD2    C2 8803   0.634   2.350  14.316 -0.4197 -1.1525  0.3859
  594MPD2    C3 8804   0.719   2.423  14.235 -0.5726  0.1497  0.1154
  594MPD2    C4 8805   0.698   2.432  14.095 -0.7339  0.3481 -0.0944
  594MPD2    C5 8806   0.582   2.381  14.047  0.6344  0.0967 -0.2043
  594MPD2     H 8807   0.654   2.366  14.422  0.4386  2.5140 -0.3352
  594MPD2    H1 8808   0.765   2.488  14.031 -0.1179  0.7108  0.8668
  594MPD2    H2 8809   0.397   2.270  14.083 -0.0241  0.8092  1.4947
  594MPD2    H3 8810   0.553   2.394  13.943 -1.1823 -2.5162 -0.0416
  594MPD2     N 8811   0.817   2.498  14.299 -0.1011  0.4223  0.2195
  594MPD2    H5 8812   0.805   2.495  14.400  1.4972  1.6067  0.4535
  594MPD2    N1 8813   0.435   2.216  14.343 -0.4017 -0.2782  0.0473
  594MPD2    H7 8814   0.363   2.167  14.291 -0.9824  0.7713 -0.1442
  595TMC3    C1 8815   1.159   2.755  14.448  0.1063  1.1034  0.4136
  595TMC3    C2 8816   1.099   2.683  14.344 -0.1159  0.1299 -0.4894
  595TMC3    C3 8817   0.962   2.667  14.354 -0.1291  0.1824 -0.6563
  595TMC3    C4 8818   1.082   2.813  14.546 -0.7707  0.6666  0.3801
  595TMC3    C5 8819   0.945   2.793  14.555 -1.0471  0.1480 -0.4429
  595TMC3    C6 8820   0.885   2.711  14.463 -0.0728 -0.1216  0.6592
  595TMC3     C 8821   1.304   2.770  14.461  0.0708 -0.2751  1.0070
  595TMC3     O 8822   1.342   2.814  14.571 -0.1904  0.2726  0.1902
  595TMC3     H 8823   1.149   2.643  14.256 -0.2752 -0.6386 -0.2368
  595TMC3    H1 8824   1.129   2.861  14.631  0.4537 -1.5058  0.9257
  595TMC3    H2 8825   0.777   2.694  14.465  0.1377 -1.5550 -0.6214
  595TMC3    C7 8826   0.864   2.841  14.669  0.0067 -0.0840  0.4271
  595TMC3    C8 8827   0.901   2.595  14.250  0.2044  0.4257 -0.0618
  595TMC3    O1 8828   0.743   2.827  14.654  0.1557  0.1658 -0.7186
  595TMC3    O2 8829   0.958   2.600  14.141  0.0246 -0.2540  0.1556
  596MPD2     C 8830   4.414   0.589  16.733 -0.3895  0.2306 -0.2332
  596MPD2    C1 8831   4.422   0.727  16.716  0.2374  0.2080 -0.0781
  596MPD2    C2 8832   4.454   0.768  16.593 -0.7520  0.7543 -0.2387
  596MPD2    C3 8833   4.470   0.681  16.484  0.4259 -0.5379  0.2923
  596MPD2    C4 8834   4.462   0.545  16.507 -0.3360  0.5232  0.6303
  596MPD2    C5 8835   4.421   0.502  16.632  0.2589 -0.0835  0.4286
  596MPD2     H 8836   4.467   0.875  16.580 -0.8819  0.7131 -0.6975
  596MPD2    H1 8837   4.481   0.468  16.434 -1.4069 -0.6574  1.6023
  596MPD2    H2 8838   4.387   0.547  16.829  0.4564  0.2450  0.0101
  596MPD2    H3 8839   4.425   0.397  16.658  0.5126 -0.2723 -0.3547
  596MPD2     N 8840   4.485   0.721  16.346  0.1732  0.1293  0.2055
  596MPD2    H5 8841   4.465   0.650  16.275  0.2627  0.2502  0.0590
  596MPD2    N1 8842   4.418   0.821  16.818  0.6130 -0.1616  0.1028
  596MPD2    H7 8843   4.432   0.915  16.783  1.3252 -0.8505 -1.4447
  597TMC3    C1 8844   4.403   0.917  17.034 -0.2442  0.0670  0.6605
  597TMC3    C2 8845   4.501   1.013  17.009  0.0147  0.6173  0.0935
  597TMC3    C3 8846   4.469   1.142  17.050  0.0744  0.6360 -0.7316
  597TMC3    C4 8847   4.287   0.935  17.104  0.0010 -0.3825 -0.0206
  597TMC3    C5 8848   4.270   1.060  17.156 -0.4490 -0.0839 -0.3269
  597TMC3    C6 8849   4.359   1.161  17.131 -0.4912 -0.3698 -0.2812
  597TMC3     C 8850   4.397   0.797  16.950  0.0469 -0.3596 -0.2487
  597TMC3     O 8851   4.365   0.690  16.997 -0.3681 -0.2260  0.5404
  597TMC3     H 8852   4.591   0.994  16.951  0.2338  1.7462  0.0675
  597TMC3    H1 8853   4.224   0.851  17.129 -2.6861  1.6246 -0.1211
  597TMC3    H2 8854   4.345   1.263  17.166 -0.1082 -0.1900 -0.6575
  597TMC3    C7 8855   4.158   1.083  17.248 -0.2158  0.6840  0.5006
  597TMC3    C8 8856   4.550   1.261  17.019 -0.6168 -0.3900 -0.7587
  597TMC3    O1 8857   4.125   0.988  17.314 -0.5076 -0.2140  0.0296
  597TMC3    O2 8858   4.510   1.374  17.005 -0.3927 -0.3153  0.8197
  598TMC3    C1 8859   2.698   1.921  15.384  0.2880 -0.7479 -0.2684
  598TMC3    C2 8860   2.609   1.840  15.323  0.1426  0.8630  0.4753
  598TMC3    C3 8861   2.585   1.858  15.190  0.2590 -0.7337 -0.0170
  598TMC3    C4 8862   2.757   2.022  15.309 -0.9194  0.3460  0.2673
  598TMC3    C5 8863   2.719   2.052  15.181 -0.1614 -0.6107  0.4279
  598TMC3    C6 8864   2.647   1.956  15.120  0.1504  0.5262  0.3681
  598TMC3     C 8865   2.733   1.897  15.525  0.5649  0.1235  0.1688
  598TMC3     O 8866   2.816   1.972  15.575  0.4649 -0.2491  0.3673
  598TMC3     H 8867   2.562   1.753  15.369 -2.2116  2.0903  0.3713
  598TMC3    H1 8868   2.830   2.085  15.358 -0.5493 -0.3032  0.5556
  598TMC3    H2 8869   2.612   1.982  15.020 -2.0101  4.2435  2.0998
  598TMC3    C7 8870   2.806   2.139  15.100  1.0431 -0.6243 -0.1503
  598TMC3    C8 8871   2.507   1.760  15.118 -0.1186  0.3759 -0.2000
  598TMC3    O1 8872   2.832   2.109  14.986 -0.0016 -0.1817 -0.3020
  598TMC3    O2 8873   2.403   1.725  15.166 -0.5030  0.2530 -0.1985
  599MPD2     C 8874   2.917   4.507  15.870 -0.1043  0.4593 -0.0226
  599MPD2    C1 8875   2.880   4.375  15.868  0.5318 -0.9210  0.0358
  599MPD2    C2 8876   2.745   4.343  15.887 -0.0419 -0.3332  0.7036
  599MPD2    C3 8877   2.650   4.433  15.928 -0.9864 -0.5449  0.1805
  599MPD2    C4 8878   2.692   4.562  15.946 -0.5753  0.4149  0.1900
  599MPD2    C5 8879   2.818   4.601  15.899 -0.5077 -0.0500 -0.8629
  599MPD2     H 8880   2.721   4.238  15.872 -2.0627  0.5039 -1.7921
  599MPD2    H1 8881   2.625   4.639  15.983 -0.6239 -0.2273  1.4322
  599MPD2    H2 8882   3.015   4.546  15.848  1.0176 -2.3577 -0.0069
  599MPD2    H3 8883   2.838   4.708  15.901 -1.5146  0.1560 -1.7672
  599MPD2     N 8884   2.518   4.403  15.973  0.0115 -0.6504 -0.5035
  599MPD2    H5 8885   2.468   4.483  16.010 -1.0441 -1.8682  0.6738
  599MPD2    N1 8886   2.980   4.283  15.855 -0.0510 -0.6421  0.1686
  599MPD2    H7 8887   3.075   4.319  15.864 -0.7282  1.2998 -0.5361
  600TMC3    C1 8888   2.352   4.288  16.077 -0.0388 -0.2414  0.1020
  600TMC3    C2 8889   2.238   4.227  16.047  0.7632 -0.3296 -0.3776
  600TMC3    C3 8890   2.151   4.202  16.151 -0.0606 -0.7348  0.4178
  600TMC3    C4 8891   2.385   4.327  16.203  0.1857 -0.3186  1.1190
  600TMC3    C5 8892   2.291   4.315  16.307 -0.0745 -0.7635  0.0595
  600TMC3    C6 8893   2.175   4.260  16.276  0.4434  0.1831  0.3774
  600TMC3     C 8894   2.451   4.287  15.973 -0.0705  0.7932 -0.3018
  600TMC3     O 8895   2.489   4.176  15.934  0.0982  0.5122  0.0618
  600TMC3     H 8896   2.221   4.202  15.943 -0.5229 -2.1011  0.2597
  600TMC3    H1 8897   2.482   4.371  16.225  0.8942 -1.5801  0.5494
  600TMC3    H2 8898   2.105   4.240  16.356  1.2409 -1.3420  0.6871
  600TMC3    C7 8899   2.306   4.363  16.438 -0.8249  0.5543 -0.1579
  600TMC3    C8 8900   2.021   4.153  16.106  0.5605  0.0841  0.0037
  600TMC3    O1 8901   2.199   4.385  16.495 -0.8365  0.5746  0.1558
  600TMC3    O2 8902   2.005   4.152  15.983 -0.1485  0.3776  0.0147
  601MPD2     C 8903   4.589   2.957  17.359 -0.5272  0.4339  0.7411
  601MPD2    C1 8904   4.509   2.857  17.404 -0.2129  0.3318  0.0260
  601MPD2    C2 8905   4.563   2.734  17.427  0.9530  0.9850 -0.4096
  601MPD2    C3 8906   4.693   2.698  17.385  0.4090  0.4307 -0.1690
  601MPD2    C4 8907   0.046   2.802  17.338 -0.9049  0.0686  0.6362
  601MPD2    C5 8908   4.718   2.931  17.320 -0.2370 -0.1287 -0.7918
  601MPD2     H 8909   4.491   2.662  17.466  0.8339 -0.0762 -2.5857
  601MPD2    H1 8910   0.146   2.783  17.299  0.2915  1.9798  2.7923
  601MPD2    H2 8911   4.555   3.059  17.345  0.2166  0.4761 -0.8158
  601MPD2    H3 8912   0.058   3.010  17.279 -0.9448 -0.0340 -1.6704
  601MPD2     N 8913   0.040   2.571  17.407  0.1294 -0.3038 -0.4156
  601MPD2    H5 8914   0.133   2.560  17.368 -0.8919  1.2948 -3.2668
  601MPD2    N1 8915   4.362   2.876  17.426 -0.4577 -0.5566  0.4467
  601MPD2    H7 8916   4.309   2.791  17.438  0.4999 -1.0348  1.2660
  602TMC3    C1 8917   4.149   2.981  17.415  0.7852  1.1404  0.6129
  602TMC3    C2 8918   4.073   3.072  17.480  0.3778 -0.3772 -0.1075
  602TMC3    C3 8919   3.954   3.114  17.429  0.2979 -0.1493  0.5168
  602TMC3    C4 8920   4.112   2.934  17.293 -0.4135  0.0915 -0.3298
  602TMC3    C5 8921   3.997   2.990  17.236 -0.2901 -0.1742  0.2657
  602TMC3    C6 8922   3.916   3.074  17.306 -0.1826 -0.6349  0.7864
  602TMC3     C 8923   4.293   2.994  17.413 -0.1278 -0.0167  0.3778
  602TMC3     O 8924   4.336   3.107  17.409  0.5193 -0.5968 -0.0617
  602TMC3     H 8925   4.117   3.119  17.567 -1.4532  0.0897  0.5704
  602TMC3    H1 8926   4.168   2.861  17.235  0.1314 -0.0070  0.3222
  602TMC3    H2 8927   3.816   3.100  17.272 -0.0794 -1.2745 -0.0229
  602TMC3    C7 8928   3.966   2.969  17.098  0.1954 -0.5413 -0.5140
  602TMC3    C8 8929   3.890   3.237  17.476  0.1027  0.0570  0.3445
  602TMC3    O1 8930   4.006   2.860  17.060  0.4119  0.1804  0.2074
  602TMC3    O2 8931   3.829   3.233  17.580 -0.0136  0.3502 -0.5101
  603TMC3    C1 8932   2.915   2.928  10.574  0.1899  0.2701 -0.1881
  603TMC3    C2 8933   2.913   2.923  10.708 -0.6645  0.1932 -0.0858
  603TMC3    C3 8934   2.921   3.037  10.781  0.1783  1.0628 -0.4191
  603TMC3    C4 8935   2.925   3.041  10.511 -0.2322 -0.3160 -0.4295
  603TMC3    C5 8936   2.937   3.156  10.589  0.9297  0.1104  0.5130
  603TMC3    C6 8937   2.958   3.150  10.722  0.5198  0.5002 -1.0667
  603TMC3     C 8938   2.897   2.807  10.496  0.3016 -0.5511 -0.1681
  603TMC3     O 8939   2.827   2.817  10.396 -0.2292 -0.3343  0.2855
  603TMC3     H 8940   2.882   2.832  10.758  0.5399 -0.2052 -0.0682
  603TMC3    H1 8941   2.916   3.047  10.403 -0.6908  0.4126 -0.3521
  603TMC3    H2 8942   2.964   3.245  10.774 -0.2575  0.7969 -1.5189
  603TMC3    C7 8943   2.953   3.291  10.542 -0.4326  0.7310  0.1141
  603TMC3    C8 8944   2.942   3.009  10.924  0.8344 -0.3757 -0.5366
  603TMC3    O1 8945   3.056   3.351  10.569 -0.1205 -0.1924 -0.7227
  603TMC3    O2 8946   2.987   2.900  10.957  0.5316 -0.3803  0.4103
  604MPD2     C 8947   3.312   1.399  16.684  0.1651 -0.3873  0.8850
  604MPD2    C1 8948   3.349   1.533  16.665  0.4299  0.0925 -0.2687
  604MPD2    C2 8949   3.400   1.570  16.545  0.4286  0.4370  0.4892
  604MPD2    C3 8950   3.414   1.484  16.439  0.3602  0.2153 -0.0777
  604MPD2    C4 8951   3.401   1.346  16.460  1.1000 -0.0203  0.4504
  604MPD2    C5 8952   3.356   1.306  16.586 -0.3808  0.2690  0.0237
  604MPD2     H 8953   3.414   1.676  16.531 -2.0846  1.0122  2.2797
  604MPD2    H1 8954   3.435   1.273  16.388 -1.0140 -1.0275  0.4543
  604MPD2    H2 8955   3.265   1.368  16.777  1.1986  2.6501  2.3927
  604MPD2    H3 8956   3.362   1.199  16.603  3.8872  0.5244  0.1522
  604MPD2     N 8957   3.447   1.531  16.310  0.7557  0.4782  0.4060
  604MPD2    H5 8958   3.448   1.633  16.303 -0.9271  0.3392 -2.0678
  604MPD2    N1 8959   3.319   1.613  16.774 -0.0523  0.2525  0.3167
  604MPD2    H7 8960   3.276   1.576  16.858  1.6170 -0.1386  1.0081
  605TMC3    C1 8961   3.309   1.821  16.872 -0.0152  0.2979 -0.4600
  605TMC3    C2 8962   3.387   1.922  16.923 -0.1157  0.2927 -0.5668
  605TMC3    C3 8963   3.343   2.056  16.900 -0.0219  0.0054  0.1419
  605TMC3    C4 8964   3.183   1.848  16.823 -0.2802  0.2290  0.3366
  605TMC3    C5 8965   3.143   1.980  16.818 -0.3855  0.1405 -0.0274
  605TMC3    C6 8966   3.223   2.090  16.847 -0.0463  0.2359 -0.9267
  605TMC3     C 8967   3.391   1.726  16.806  0.3349 -1.0738 -0.2508
  605TMC3     O 8968   3.504   1.757  16.779  0.2953  0.5418  0.0381
  605TMC3     H 8969   3.485   1.916  16.967 -0.7009 -2.6002  0.3646
  605TMC3    H1 8970   3.132   1.773  16.763  0.1897 -0.2929  0.5836
  605TMC3    H2 8971   3.188   2.190  16.822  0.2149  1.0479  1.9049
  605TMC3    C7 8972   3.009   2.013  16.778 -0.2022 -0.1027  0.4655
  605TMC3    C8 8973   3.447   2.158  16.928  0.1437  0.3313 -0.0923
  605TMC3    O1 8974   2.987   2.128  16.744 -0.5358 -0.0568 -0.0207
  605TMC3    O2 8975   3.549   2.122  16.987  0.0686  0.3311 -0.1065
  606TMC3    C1 8976   4.593   0.499  17.099 -0.2224 -0.3155  0.3928
  606TMC3    C2 8977   4.543   0.506  17.232 -0.9321  0.0916  0.1825
  606TMC3    C3 8978   4.505   0.387  17.290  0.1027 -0.3305 -0.6392
  606TMC3    C4 8979   4.598   0.380  17.027 -0.7321  0.3068 -0.6222
  606TMC3    C5 8980   4.552   0.269  17.090  0.4312  0.0321  0.0289
  606TMC3    C6 8981   4.509   0.264  17.222  0.8072  0.7829  0.5444
  606TMC3     C 8982   4.668   0.619  17.058 -0.1980  0.0323 -0.0262
  606TMC3     O 8983   4.706   0.695  17.149  0.2382 -0.2694 -0.0261
  606TMC3     H 8984   4.551   0.599  17.287 -2.3463 -0.4495  1.3301
  606TMC3    H1 8985   4.654   0.373  16.935 -0.3896 -1.7059 -0.2449
  606TMC3    H2 8986   4.506   0.166  17.269  1.5435  1.2101  1.4805
  606TMC3    C7 8987   4.530   0.156  17.009  0.1725  0.5215  0.0199
  606TMC3    C8 8988   4.529   0.386  17.437  0.6017  0.3757  0.1406
  606TMC3    O1 8989   4.593   0.146  16.907 -0.2902 -0.2303 -0.3730
  606TMC3    O2 8990   4.577   0.482  17.500 -0.1803  0.5343 -0.1702
  607MPD2     C 8991   2.025   3.158  11.754  0.7936 -0.2361  0.1742
  607MPD2    C1 8992   2.120   3.197  11.846 -0.2828  0.7652 -0.2172
  607MPD2    C2 8993   2.131   3.124  11.960 -1.0686 -0.2406  0.1402
  607MPD2    C3 8994   2.053   3.014  11.985  0.3031  0.0421  0.5847
  607MPD2    C4 8995   1.958   2.973  11.894  0.1201  0.2760  0.5117
  607MPD2    C5 8996   1.950   3.047  11.777  0.0690 -0.7104  0.6180
  607MPD2     H 8997   2.206   3.157  12.031  0.0417 -0.6339 -0.8423
  607MPD2    H1 8998   1.896   2.884  11.902 -0.5486  0.7125  0.2373
  607MPD2    H2 8999   1.995   3.192  11.656  0.6553  0.5278  0.4841
  607MPD2    H3 9000   1.885   3.025  11.693 -0.9126  0.6324  1.0234
  607MPD2     N 9001   2.086   2.936  12.099  0.5775  0.3680 -0.1652
  607MPD2    H5 9002   2.172   2.974  12.137  0.4459  1.3293 -0.8227
  607MPD2    N1 9003   2.199   3.309  11.833 -0.4799 -0.7990  0.4547
  607MPD2    H7 9004   2.292   3.307  11.874  0.9556  2.1149 -2.6312
  608TMC3    C1 9005   2.276   3.511  11.773  0.0560 -0.8125  0.5883
  608TMC3    C2 9006   2.314   3.532  11.904 -0.5392 -0.3400 -0.1485
  608TMC3    C3 9007   2.415   3.615  11.925  0.3814  0.6570 -0.4245
  608TMC3    C4 9008   2.333   3.583  11.668 -0.3313 -0.2297  0.6605
  608TMC3    C5 9009   2.435   3.666  11.700 -0.2460  0.5614 -0.0636
  608TMC3    C6 9010   2.477   3.689  11.827  0.1828  0.0960 -0.0307
  608TMC3     C 9011   2.182   3.410  11.748  0.1440  0.1246 -0.3355
  608TMC3     O 9012   2.091   3.438  11.668  0.5344 -0.3654  0.3000
  608TMC3     H 9013   2.261   3.483  11.985 -2.1263  1.6819  0.0395
  608TMC3    H1 9014   2.301   3.561  11.567  0.0641 -1.4570  0.7939
  608TMC3    H2 9015   2.574   3.734  11.848  0.0206  0.1578  0.5927
  608TMC3    C7 9016   2.490   3.756  11.591  0.9555 -0.1632  0.0328
  608TMC3    C8 9017   2.481   3.619  12.060  0.7191  0.5214 -1.1466
  608TMC3    O1 9018   2.455   3.719  11.479  0.4382 -0.1639 -0.6235
  608TMC3    O2 9019   2.593   3.673  12.072  0.5064 -0.5013 -0.0171
  609TMC3    C1 9020   0.379   2.399   9.494  0.2377  0.4507 -0.0311
  609TMC3    C2 9021   0.310   2.334   9.394 -0.3730 -0.4396 -0.4323
  609TMC3    C3 9022   0.376   2.296   9.283  0.0782  0.2222 -0.8152
  609TMC3    C4 9023   0.515   2.428   9.474  0.1755  0.0738 -0.3328
  609TMC3    C5 9024   0.574   2.384   9.358  0.5561 -0.1095  0.6539
  609TMC3    C6 9025   0.509   2.325   9.255  0.5934  0.0006  0.1463
  609TMC3     C 9026   0.320   2.387   9.626 -1.0147  0.5874 -0.4456
  609TMC3     O 9027   0.222   2.314   9.635  0.0296  0.1559 -0.4747
  609TMC3     H 9028   0.203   2.317   9.405 -0.5582  1.1735  0.1821
  609TMC3    H1 9029   0.568   2.439   9.568  0.3188  0.5733 -0.4718
  609TMC3    H2 9030   0.558   2.315   9.159 -1.5581 -1.0056 -0.8357
  609TMC3    C7 9031   0.720   2.368   9.374 -0.4567  0.5194  0.2486
  609TMC3    C8 9032   0.300   2.222   9.187  0.3764  0.2569 -0.0590
  609TMC3    O1 9033   0.766   2.427   9.468  0.1864  0.2604 -0.3812
  609TMC3    O2 9034   0.372   2.154   9.112  0.2523 -0.2370  0.2685
  610TMC3    C1 9035   2.167   3.070  12.810 -0.2802 -0.0021  0.6849
  610TMC3    C2 9036   2.232   3.193  12.785  0.8558 -0.3708 -0.5532
  610TMC3    C3 9037   2.339   3.216  12.862  0.2885 -0.2837  0.3590
  610TMC3    C4 9038   2.180   3.005  12.927 -0.2882  0.2439  0.1436
  610TMC3    C5 9039   2.291   3.037  13.000  0.7351  0.0024 -0.0916
  610TMC3    C6 9040   2.368   3.141  12.971  0.0507 -0.8073  0.2678
  610TMC3     C 9041   2.062   3.026  12.718  0.4511  0.1636  0.0938
  610TMC3     O 9042   2.002   3.109  12.648  0.0032  0.5593  0.2291
  610TMC3     H 9043   2.212   3.233  12.686  0.6116  0.1690 -0.2840
  610TMC3    H1 9044   2.112   2.926  12.956 -2.3842  1.4955 -1.3681
  610TMC3    H2 9045   2.448   3.172  13.037 -0.6081  1.9422 -0.2184
  610TMC3    C7 9046   2.333   2.949  13.109  0.3096  0.3338  0.2386
  610TMC3    C8 9047   2.438   3.315  12.828  0.4183  0.0859  0.7999
  610TMC3    O1 9048   2.246   2.878  13.155  0.5638  0.3888  0.4837
  610TMC3    O2 9049   2.547   3.300  12.880 -0.0675 -0.0642  0.6172
  611MPD2     C 9050   1.997   3.053  10.178 -0.2644 -0.6612 -0.2740
  611MPD2    C1 9051   1.931   3.167  10.233 -0.1093 -0.6457  0.0603
  611MPD2    C2 9052   1.980   3.286  10.185  0.0697  0.1553 -0.2631
  611MPD2    C3 9053   2.097   3.290  10.114  0.4270 -0.3047 -0.3975
  611MPD2    C4 9054   2.167   3.182  10.074  0.1891  0.8564 -0.2171
  611MPD2    C5 9055   2.110   3.060  10.097 -0.3528 -0.7182 -0.5452
  611MPD2     H 9056   1.935   3.374  10.229 -0.1553 -1.2677  2.3762
  611MPD2    H1 9057   2.258   3.185  10.015  1.0056  0.2113  1.0326
  611MPD2    H2 9058   1.951   2.957  10.198 -1.8046 -0.1097 -1.1240
  611MPD2    H3 9059   2.147   2.970  10.048  0.2257 -1.4449  1.2390
  611MPD2     N 9060   2.166   3.407  10.079  0.5316 -0.6766 -0.0675
  611MPD2    H5 9061   2.258   3.410  10.038  0.9216  3.6105  1.1329
  611MPD2    N1 9062   1.820   3.148  10.318  0.7110 -0.0577 -0.0167
  611MPD2    H7 9063   1.789   3.056  10.351  0.6701  0.5654  1.6890
  612TMC3    C1 9064   2.209   3.633  10.058  0.0087  0.8657  0.5099
  612TMC3    C2 9065   2.340   3.610  10.084  0.4987  0.6927 -0.5301
  612TMC3    C3 9066   2.431   3.673  10.010 -0.4296 -0.2758  0.9691
  612TMC3    C4 9067   2.168   3.737   9.975 -0.6550  0.3210 -0.2439
  612TMC3    C5 9068   2.264   3.814   9.912 -0.2066 -1.1033  0.9186
  612TMC3    C6 9069   2.397   3.774   9.929 -0.1669  0.0115 -0.5743
  612TMC3     C 9070   2.112   3.535  10.100 -0.1523 -0.3501  0.7694
  612TMC3     O 9071   1.997   3.575  10.130  0.3077  0.3417  0.2890
  612TMC3     H 9072   2.373   3.531  10.150 -1.4411 -0.5823 -1.0959
  612TMC3    H1 9073   2.064   3.754   9.950 -0.6829  0.6940  0.1269
  612TMC3    H2 9074   2.470   3.830   9.871  0.0727  0.1477 -0.1401
  612TMC3    C7 9075   2.235   3.958   9.872 -0.3345 -0.1811  0.0019
  612TMC3    C8 9076   2.571   3.679  10.060 -0.3588  0.0215  0.3298
  612TMC3    O1 9077   2.323   4.015   9.812 -0.3106  0.0557  0.2122
  612TMC3    O2 9078   2.638   3.769  10.022  0.2860  0.0788 -0.1924
  613MPD2     C 9079   1.366   0.655  16.477 -0.1835 -0.2595 -0.0796
  613MPD2    C1 9080   1.239   0.680  16.438 -0.3327 -0.2046 -0.0021
  613MPD2    C2 9081   1.132   0.617  16.501  0.3081  0.5061 -0.6251
  613MPD2    C3 9082   1.160   0.532  16.604  0.2171 -0.3183 -0.2048
  613MPD2    C4 9083   1.288   0.511  16.654 -0.4239  0.3700 -0.6505
  613MPD2    C5 9084   1.388   0.576  16.588 -0.6860  0.2582 -0.0496
  613MPD2     H 9085   1.034   0.626  16.455  1.0731  2.2294 -1.9212
  613MPD2    H1 9086   1.310   0.436  16.729  2.6871  1.2057 -0.7385
  613MPD2    H2 9087   1.443   0.714  16.430 -0.7697  0.0005 -0.7080
  613MPD2    H3 9088   1.489   0.547  16.616  0.0424  3.1036  0.3659
  613MPD2     N 9089   1.062   0.459  16.672  0.8537 -0.2673  0.1311
  613MPD2    H5 9090   1.100   0.394  16.740  1.7576  0.0444 -0.0736
  613MPD2    N1 9091   1.219   0.763  16.326 -0.0214 -0.0675  0.4728
  613MPD2    H7 9092   1.297   0.783  16.265  0.4903 -0.3097  1.0514
  614TMC3    C1 9093   1.114   0.814  16.124  0.2899  0.6283  0.1084
  614TMC3    C2 9094   1.169   0.695  16.076  0.6598  0.1173 -0.2070
  614TMC3    C3 9095   1.133   0.646  15.956 -0.9065  0.1190  0.0665
  614TMC3    C4 9096   1.012   0.876  16.064 -0.0195 -0.8861  0.4107
  614TMC3    C5 9097   0.977   0.823  15.938 -0.0665 -0.2400  0.3145
  614TMC3    C6 9098   1.032   0.709  15.883 -0.5244  0.5412  0.3988
  614TMC3     C 9099   1.096   0.797  16.270  0.0194  0.5024  0.1301
  614TMC3     O 9100   0.986   0.783  16.316 -0.0937 -0.8481  0.5852
  614TMC3     H 9101   1.257   0.651  16.122  0.0192 -0.9965 -0.0351
  614TMC3    H1 9102   0.960   0.961  16.107  0.5596 -0.8221  0.9736
  614TMC3    H2 9103   0.997   0.663  15.792 -1.0463  0.5398  0.6036
  614TMC3    C7 9104   0.884   0.900  15.854  0.6796 -0.2820  0.2829
  614TMC3    C8 9105   1.114   0.503  15.949  0.6177 -0.2760 -0.2505
  614TMC3    O1 9106   0.831   0.997  15.904  0.5156 -0.1762  0.0253
  614TMC3    O2 9107   1.000   0.464  15.950 -0.2216 -0.5415 -0.1651
  615MPD2     C 9108   0.638   2.274  16.558  0.8561  0.6252 -0.4176
  615MPD2    C1 9109   0.658   2.364  16.454  0.1957 -0.0590  0.0431
  615MPD2    C2 9110   0.652   2.330  16.317 -0.1994 -0.1364 -0.5441
  615MPD2    C3 9111   0.625   2.203  16.282 -0.0040 -0.3507  0.0508
  615MPD2    C4 9112   0.611   2.113  16.382 -0.0219 -0.0091 -0.2409
  615MPD2    C5 9113   0.624   2.147  16.516 -0.1395  0.8995 -0.0890
  615MPD2     H 9114   0.648   2.408  16.241  1.6864  1.1057  0.6416
  615MPD2    H1 9115   0.592   2.008  16.364  3.0472 -0.8926  1.6674
  615MPD2    H2 9116   0.646   2.293  16.664  0.3431 -1.5778  0.0143
  615MPD2    H3 9117   0.609   2.071  16.592 -1.2023 -0.1317 -1.3331
  615MPD2     N 9118   0.592   2.164  16.151 -0.0222  0.3469  0.3988
  615MPD2    H5 9119   0.562   2.068  16.147 -0.9836  0.6726 -0.1753
  615MPD2    N1 9120   0.663   2.500  16.483  0.5626  0.3101  0.1228
  615MPD2    H7 9121   0.668   2.559  16.401  0.6364 -0.6432 -0.5651
  616TMC3    C1 9122   0.616   2.709  16.597 -0.1332 -0.5289 -0.2459
  616TMC3    C2 9123   0.722   2.772  16.540  0.6421  0.2106 -0.5874
  616TMC3    C3 9124   0.720   2.908  16.537 -0.1388  0.6063  0.0206
  616TMC3    C4 9125   0.504   2.777  16.632 -0.0627 -0.0865 -0.0921
  616TMC3    C5 9126   0.507   2.916  16.646 -0.2885  0.2608 -0.3696
  616TMC3    C6 9127   0.616   2.981  16.591  0.2128 -0.0795  0.3085
  616TMC3     C 9128   0.611   2.561  16.594  0.6684 -0.3960  0.4312
  616TMC3     O 9129   0.534   2.509  16.678 -0.6640  0.4344 -0.8165
  616TMC3     H 9130   0.806   2.710  16.513  0.9065  0.6726 -0.8340
  616TMC3    H1 9131   0.422   2.721  16.676 -0.1315 -0.3182 -0.5116
  616TMC3    H2 9132   0.616   3.089  16.587 -0.6110 -0.1406 -1.2748
  616TMC3    C7 9133   0.385   2.987  16.648 -0.6552  0.2832 -0.6761
  616TMC3    C8 9134   0.828   2.983  16.474 -0.2391  0.2737 -0.1022
  616TMC3    O1 9135   0.393   3.107  16.626 -0.1457 -0.1109  0.0881
  616TMC3    O2 9136   0.828   3.103  16.500 -0.0018  0.4854 -0.5770
  617MPD2     C 9137   3.655   0.519  13.950 -0.0989  0.6022  0.5184
  617MPD2    C1 9138   3.648   0.384  13.913 -0.2577  0.1470 -0.1361
  617MPD2    C2 9139   3.526   0.319  13.902 -0.3219 -0.2069  0.2996
  617MPD2    C3 9140   3.420   0.384  13.951 -0.0462  0.0751  0.0064
  617MPD2    C4 9141   3.428   0.510  14.005 -0.4827 -0.2972 -0.1813
  617MPD2    C5 9142   3.546   0.579  13.994  0.6242 -0.7892 -0.3899
  617MPD2     H 9143   3.523   0.217  13.865  0.0101 -0.6780  1.5744
  617MPD2    H1 9144   3.335   0.555  14.040  0.3611  2.1758 -1.0940
  617MPD2    H2 9145   3.754   0.563  13.948  0.1059  0.2683  3.1443
  617MPD2    H3 9146   3.551   0.682  14.025 -0.0302 -0.2092 -2.1995
  617MPD2     N 9147   3.295   0.319  13.942  0.2038 -0.0297 -0.0057
  617MPD2    H5 9148   3.219   0.353  14.001 -0.3984  1.2273 -1.4893
  617MPD2    N1 9149   3.772   0.323  13.896  0.1824 -0.9250 -0.0133
  617MPD2    H7 9150   3.859   0.374  13.907  0.2013 -1.0394  0.3563
  618TMC3    C1 9151   3.930   0.160  13.842  1.0007 -0.7575 -0.1140
  618TMC3    C2 9152   3.972   0.032  13.846  0.8236 -0.1463 -0.4489
  618TMC3    C3 9153   4.099   0.002  13.812  0.7143 -0.4004  0.4253
  618TMC3    C4 9154   4.016   0.263  13.809 -0.0140 -0.0455  0.3376
  618TMC3    C5 9155   4.137   0.222  13.756  0.3231 -0.0770 -0.3158
  618TMC3    C6 9156   4.186   0.097  13.767 -0.4442  0.2179 -0.1385
  618TMC3     C 9157   3.790   0.182  13.874 -0.5844  0.0754  0.2597
  618TMC3     O 9158   3.705   0.091  13.873 -1.1488  0.0078  0.1244
  618TMC3     H 9159   3.906   4.670  13.870 -0.1135  0.5494 -0.6513
  618TMC3    H1 9160   3.987   0.364  13.784 -0.0369  0.2155  1.4284
  618TMC3    H2 9161   4.274   0.063  13.713 -0.0679 -0.5817  0.9772
  618TMC3    C7 9162   4.175   0.288  13.638 -0.2038 -0.2654 -0.1824
  618TMC3    C8 9163   4.138   4.591  13.776 -0.1918  0.5161  0.0239
  618TMC3    O1 9164   4.290   0.329  13.632  0.4638 -0.3563  0.9269
  618TMC3    O2 9165   4.049   4.507  13.770  0.1605 -0.6678 -0.2411
  619MPD2     C 9166   0.212   1.696  13.661 -0.0316 -0.0151  0.4439
  619MPD2    C1 9167   0.117   1.783  13.604 -0.2156  0.2543  0.5674
  619MPD2    C2 9168   0.009   1.727  13.535  0.3784 -0.9915 -0.0320
  619MPD2    C3 9169   4.708   1.592  13.511  0.1888 -0.3537  1.3439
  619MPD2    C4 9170   0.083   1.509  13.571  0.5562 -0.7056  0.3627
  619MPD2    C5 9171   0.178   1.562  13.646 -0.2867 -0.6378 -0.3274
  619MPD2     H 9172   4.648   1.792  13.506  2.0371  1.6115  1.0641
  619MPD2    H1 9173   0.074   1.401  13.560  1.7238 -0.8626  0.9982
  619MPD2    H2 9174   0.298   1.735  13.714  0.6460  1.1340 -1.5070
  619MPD2    H3 9175   0.245   1.492  13.695  1.3062  1.0327 -0.1186
  619MPD2     N 9176   4.601   1.541  13.438 -1.0325 -0.2721 -0.2351
  619MPD2    H5 9177   4.599   1.440  13.425 -0.8963 -0.3226  0.1291
  619MPD2    N1 9178   0.126   1.927  13.603 -0.0078 -0.2876  0.1428
  619MPD2    H7 9179   0.057   1.977  13.548  0.2295  0.1404  0.2328
  620TMC3    C1 9180   0.182   2.143  13.657  1.0594 -0.7203  0.0115
  620TMC3    C2 9181   0.100   2.188  13.555  0.3355  0.7931 -0.3736
  620TMC3    C3 9182   0.036   2.309  13.564  0.4176  0.2314 -0.1778
  620TMC3    C4 9183   0.216   2.225  13.760  0.9906 -0.1989  0.0794
  620TMC3    C5 9184   0.146   2.342  13.771  0.7627 -0.1991 -0.0524
  620TMC3    C6 9185   0.056   2.387  13.676 -0.5491 -0.6397  0.3290
  620TMC3     C 9186   0.219   2.004  13.661  0.1264  0.5358  0.4887
  620TMC3     O 9187   0.325   1.980  13.710  0.0922 -0.0806  0.2749
  620TMC3     H 9188   0.079   2.120  13.473  2.9228  1.4887 -1.6352
  620TMC3    H1 9189   0.252   2.186  13.854 -0.3383  0.6302  0.9417
  620TMC3    H2 9190   0.006   2.482  13.683 -2.5359 -1.7488  1.0811
  620TMC3    C7 9191   0.219   2.429  13.868  0.0063 -0.1660 -0.0758
  620TMC3    C8 9192   4.613   2.286  13.551 -0.0667 -0.4221  0.4300
  620TMC3    O1 9193   0.322   2.476  13.828 -0.5161  0.6314  0.0013
  620TMC3    O2 9194   4.553   2.291  13.662 -0.4053 -0.7088 -0.0037
  621MPD2     C 9195   0.206   1.082  10.634  0.6192  0.0777 -0.3120
  621MPD2    C1 9196   0.220   1.085  10.496  0.7223  0.1770  0.5282
  621MPD2    C2 9197   0.233   1.211  10.431  0.5783  0.4866  0.3874
  621MPD2    C3 9198   0.238   1.329  10.503  0.1546  0.1213  0.0774
  621MPD2    C4 9199   0.225   1.319  10.638  0.4116 -0.0872  0.1502
  621MPD2    C5 9200   0.202   1.199  10.706  0.4773 -0.4472 -0.5782
  621MPD2     H 9201   0.234   1.209  10.323  1.1651 -2.0774  0.4280
  621MPD2    H1 9202   0.226   1.406  10.703  0.4348 -0.2671  0.3923
  621MPD2    H2 9203   0.183   0.990  10.687  0.4995  2.1771  3.3443
  621MPD2    H3 9204   0.184   1.196  10.813  0.0569  1.3634 -0.6091
  621MPD2     N 9205   0.263   1.455  10.442  0.0258  0.0548  0.1145
  621MPD2    H5 9206   0.291   1.456  10.345 -2.1571 -2.9700 -0.5445
  621MPD2    N1 9207   0.230   0.971  10.413 -0.0703 -0.1643  0.5029
  621MPD2    H7 9208   0.243   0.993  10.315  0.9573 -0.8696  0.4857
  622TMC3    C1 9209   0.201   0.742  10.361 -0.8063 -0.2071 -0.2328
  622TMC3    C2 9210   0.117   0.643  10.401  0.5715 -0.2290  0.1044
  622TMC3    C3 9211   0.085   0.544  10.313  0.0578 -0.0283 -0.1738
  622TMC3    C4 9212   0.252   0.751  10.233 -0.0988 -0.4449 -0.3653
  622TMC3    C5 9213   0.228   0.638  10.157 -0.1813  0.3863  0.2125
  622TMC3    C6 9214   0.146   0.533  10.193  0.1630  0.6919 -0.0109
  622TMC3     C 9215   0.232   0.839  10.467  0.1190  0.0375 -0.2256
  622TMC3     O 9216   0.230   0.793  10.583 -0.1450 -0.0230 -0.2100
  622TMC3     H 9217   0.072   0.637  10.499 -1.1977  1.8985 -0.5780
  622TMC3    H1 9218   0.332   0.823  10.215 -0.6726  0.4965  0.8774
  622TMC3    H2 9219   0.133   0.446  10.130  1.6583 -0.8270  1.7848
  622TMC3    C7 9220   0.277   0.639  10.020 -0.7063  0.4140  0.7651
  622TMC3    C8 9221   4.672   0.497  10.308 -0.2356  0.1060  0.5551
  622TMC3    O1 9222   0.266   0.534   9.957 -0.1972 -0.5133  0.2797
  622TMC3    O2 9223   4.643   0.381  10.267 -0.2903  0.1292 -0.4143
  623MPD2     C 9224   3.822   1.991  16.298  0.2485 -0.0832  0.1732
  623MPD2    C1 9225   3.778   2.031  16.419  0.0769  0.3020  1.1261
  623MPD2    C2 9226   3.856   2.117  16.496  0.2096 -0.2018  0.5903
  623MPD2    C3 9227   3.971   2.166  16.447  0.3629 -0.3361  0.1835
  623MPD2    C4 9228   4.008   2.143  16.316 -0.0841 -0.0772  0.7057
  623MPD2    C5 9229   3.932   2.048  16.251 -0.3067  0.7083 -0.2678
  623MPD2     H 9230   3.834   2.146  16.598 -1.1381 -2.4719  0.9323
  623MPD2    H1 9231   4.107   2.151  16.272 -0.7317  1.3845 -0.4699
  623MPD2    H2 9232   3.767   1.927  16.230  1.0135  1.0886 -1.5527
  623MPD2    H3 9233   3.963   2.002  16.157 -0.0314 -0.1039  0.2189
  623MPD2     N 9234   4.039   2.247  16.537  0.1441  0.1440 -0.6332
  623MPD2    H5 9235   3.986   2.268  16.622  0.5889  1.5952 -0.7232
  623MPD2    N1 9236   3.647   1.992  16.451 -0.0371 -0.2811  0.2260
  623MPD2    H7 9237   3.590   1.952  16.377  0.7482  0.3766 -0.7346
  624TMC3    C1 9238   4.267   2.214  16.826 -0.9223  0.7814  0.2018
  624TMC3    C2 9239   4.159   2.256  16.898 -0.4718  0.1959  0.6213
  624TMC3    C3 9240   4.077   2.348  16.844  0.8807  0.6475  0.1416
  624TMC3    C4 9241   4.287   2.260  16.698  0.6054  0.2027 -0.3187
  624TMC3    C5 9242   4.203   2.356  16.645 -0.1697 -0.1711 -0.1661
  624TMC3    C6 9243   4.100   2.404  16.719 -0.4395 -0.5125 -0.0671
  624TMC3     C 9244   4.378   2.144  16.890 -0.5477  0.2742  0.5039
  624TMC3     O 9245   4.358   2.103  17.002  0.0007  0.1558  0.3270
  624TMC3     H 9246   4.131   2.211  16.993 -1.2897 -0.5282  0.0392
  624TMC3    H1 9247   4.352   2.202  16.634  0.5601 -2.2934  1.9137
  624TMC3    H2 9248   4.025   2.462  16.665  0.0697 -1.1244 -1.4106
  624TMC3    C7 9249   4.153   2.318  16.514 -0.1544  0.7460 -0.0668
  624TMC3    C8 9250   3.938   2.349  16.897  0.3737  0.4061  0.4544
  624TMC3    O1 9251   4.224   2.321  16.412  0.5926  0.3279 -0.3023
  624TMC3    O2 9252   3.899   2.249  16.958 -0.4344  0.2681 -0.2083
  625MPD2     C 9253   4.260   3.950   0.960  0.3081 -0.3651 -0.1872
  625MPD2    C1 9254   4.322   4.015   0.856  0.5744  0.0024  0.0981
  625MPD2    C2 9255   4.432   3.956   0.795  0.1253 -0.2100  0.1780
  625MPD2    C3 9256   4.483   3.829   0.829 -0.4364 -0.1879  0.7474
  625MPD2    C4 9257   4.421   3.770   0.936  0.4007 -0.5683  0.0754
  625MPD2    C5 9258   4.307   3.826   1.000 -0.6944 -1.2035  0.0656
  625MPD2     H 9259   4.472   3.998   0.703  2.1707 -0.4801  0.9299
  625MPD2    H1 9260   4.453   3.677   0.981 -0.4093 -0.0955  1.6382
  625MPD2    H2 9261   4.172   4.000   0.999  1.3529  1.0591  0.3743
  625MPD2    H3 9262   4.250   3.780   1.080 -0.1187 -1.0172  0.5790
  625MPD2     N 9263   4.611   3.787   0.784 -0.4641 -0.1457 -0.1768
  625MPD2    H5 9264   4.647   3.845   0.709 -2.0366  0.6269 -0.3405
  625MPD2    N1 9265   4.265   4.128   0.794  0.2007  0.2653  0.0693
  625MPD2    H7 9266   4.309   4.158   0.707 -0.6986 -1.3557 -0.9470
  626TMC3    C1 9267   4.101   4.302   0.754 -0.8085  0.1498  0.3328
  626TMC3    C2 9268   4.095   4.271   0.614 -0.4279  0.1375  0.7386
  626TMC3    C3 9269   4.014   4.345   0.540 -0.2568 -0.6914  0.2982
  626TMC3    C4 9270   4.034   4.412   0.802  0.0641  0.1127  0.5425
  626TMC3    C5 9271   3.958   4.487   0.710  0.7331  0.2812  0.0223
  626TMC3    C6 9272   3.941   4.449   0.577 -0.4362  0.5324 -0.0386
  626TMC3     C 9273   4.161   4.207   0.849 -0.3560  0.4930  0.1623
  626TMC3     O 9274   4.135   4.220   0.968  0.4240  0.7105  0.1131
  626TMC3     H 9275   4.150   4.182   0.585 -1.8324  0.4147 -2.7099
  626TMC3    H1 9276   4.016   4.421   0.909 -0.1095  1.3090  0.4020
  626TMC3    H2 9277   3.862   4.495   0.519 -0.6272  0.2059 -0.0412
  626TMC3    C7 9278   3.844   4.557   0.779  0.0698 -0.1825  0.2439
  626TMC3    C8 9279   4.011   4.313   0.396 -0.8250  0.7182  0.1462
  626TMC3    O1 9280   3.867   4.605   0.890 -0.1066  0.1730 -0.2952
  626TMC3    O2 9281   3.911   4.323   0.328  0.0492  0.1171  0.0192
  627MPD2     C 9282   2.937   3.700  14.330  1.1314  0.3602  0.2944
  627MPD2    C1 9283   2.950   3.690  14.465 -0.6581  0.1941 -0.0458
  627MPD2    C2 9284   2.872   3.599  14.535  0.0161  0.5359 -0.4069
  627MPD2    C3 9285   2.763   3.543  14.474  0.3010  0.2226  0.2323
  627MPD2    C4 9286   2.745   3.565  14.337 -0.3128 -0.3609  0.4563
  627MPD2    C5 9287   2.834   3.636  14.260  0.0612  0.1974 -0.2778
  627MPD2     H 9288   2.895   3.584  14.640  0.3372  4.4169  0.0578
  627MPD2    H1 9289   2.654   3.522  14.296  0.9088 -2.2499 -0.2520
  627MPD2    H2 9290   3.005   3.763  14.273  1.3377  2.3332  2.7035
  627MPD2    H3 9291   2.824   3.642  14.152 -0.4735 -0.9702 -0.2856
  627MPD2     N 9292   2.678   3.462  14.547  0.2617  0.0290  0.3317
  627MPD2    H5 9293   2.699   3.453  14.646  1.7864 -0.9977 -0.0816
  627MPD2    N1 9294   3.058   3.744  14.534  0.1712  0.1365 -0.1130
  627MPD2    H7 9295   3.065   3.709  14.629  0.2337 -0.3214 -0.2888
  628TMC3    C1 9296   3.228   3.900  14.573  0.3714  0.5817  0.1903
  628TMC3    C2 9297   3.296   3.812  14.656  0.5118 -0.5472 -0.3990
  628TMC3    C3 9298   3.404   3.869  14.724  0.5922  0.2498 -0.3969
  628TMC3    C4 9299   3.262   4.032  14.559 -0.4639  0.8285 -0.0510
  628TMC3    C5 9300   3.369   4.081  14.629 -0.2827  0.2216 -0.1184
  628TMC3    C6 9301   3.439   4.000  14.719  0.7624  0.0923 -0.2580
  628TMC3     C 9302   3.123   3.855  14.489  0.0714 -0.1095 -0.2098
  628TMC3     O 9303   3.087   3.935  14.401 -0.3611 -0.0612  0.2566
  628TMC3     H 9304   3.276   3.706  14.660 -3.1503  0.1959  1.8128
  628TMC3    H1 9305   3.214   4.103  14.493 -2.1002 -0.4343 -0.2123
  628TMC3    H2 9306   3.540   4.024  14.750  1.1205  0.5973 -1.8140
  628TMC3    C7 9307   3.417   4.210  14.605 -0.9851 -0.5491 -0.8245
  628TMC3    C8 9308   3.514   3.776  14.731 -0.0661  0.0512  0.0514
  628TMC3    O1 9309   3.514   4.237  14.672 -0.8397  0.2990 -0.0679
  628TMC3    O2 9310   3.622   3.820  14.706 -0.2444 -0.7013  0.3437
  629MPD2     C 9311   1.286   3.029  16.238  0.2266 -0.4336  0.0516
  629MPD2    C1 9312   1.257   2.895  16.254 -0.2537 -0.3229  0.2074
  629MPD2    C2 9313   1.139   2.857  16.312 -0.0884 -0.1720 -0.1111
  629MPD2    C3 9314   1.045   2.946  16.356  0.6452  0.5707  0.2881
  629MPD2    C4 9315   1.066   3.078  16.329 -0.2338 -0.0686  0.7450
  629MPD2    C5 9316   1.187   3.118  16.271 -0.1601 -0.4707  0.0120
  629MPD2     H 9317   1.129   2.752  16.334  0.3454  0.0020  0.9265
  629MPD2    H1 9318   0.995   3.155  16.356 -1.7504 -1.4618  0.6945
  629MPD2    H2 9319   1.376   3.066  16.191  1.5333 -1.9678  1.3658
  629MPD2    H3 9320   1.206   3.223  16.253  1.3117 -0.7964 -0.3040
  629MPD2     N 9321   0.926   2.906  16.415 -0.3075  0.7852  0.2665
  629MPD2    H5 9322   0.913   2.806  16.429  1.5701  0.6810  1.2717
  629MPD2    N1 9323   1.364   2.808  16.223 -0.2319  0.5582 -0.2220
  629MPD2    H7 9324   1.450   2.859  16.208 -0.1567  0.6363  0.4979
  630TMC3    C1 9325   1.509   2.623  16.236  0.5390  0.1364 -0.3433
  630TMC3    C2 9326   1.588   2.682  16.143  0.3385  0.1945  0.1678
  630TMC3    C3 9327   1.724   2.652  16.155 -1.1061  0.2248 -0.2273
  630TMC3    C4 9328   1.550   2.518  16.319 -0.0048 -0.0575 -0.6971
  630TMC3    C5 9329   1.681   2.504  16.334 -0.0668  0.4478  0.0629
  630TMC3    C6 9330   1.770   2.556  16.244  0.3838 -0.3023 -0.0402
  630TMC3     C 9331   1.371   2.675  16.249 -0.6876  0.6054 -0.3781
  630TMC3     O 9332   1.286   2.603  16.302  0.3791  0.4401  0.0523
  630TMC3     H 9333   1.551   2.756  16.073  1.0807  0.2025 -0.2200
  630TMC3    H1 9334   1.493   2.506  16.410  1.2571 -2.6240 -0.2585
  630TMC3    H2 9335   1.870   2.516  16.238  0.1184 -0.8956 -0.5841
  630TMC3    C7 9336   1.721   2.516  16.474 -0.7385 -0.3705 -0.2563
  630TMC3    C8 9337   1.825   2.761  16.135  1.1024 -0.7872  0.3436
  630TMC3    O1 9338   1.675   2.450  16.565 -0.2365 -0.1919  0.0149
  630TMC3    O2 9339   1.930   2.739  16.195  0.0858 -0.1863  0.4517
  631MPD2     C 9340   4.502   2.073  15.656 -0.0538 -0.1526 -0.0491
  631MPD2    C1 9341   4.572   2.124  15.551 -0.5182  0.3516  0.1152
  631MPD2    C2 9342   4.709   2.102  15.556  0.5273  0.0364 -0.3319
  631MPD2    C3 9343   0.050   2.049  15.668 -0.1046  0.0011 -0.1335
  631MPD2    C4 9344   4.702   2.016  15.782 -0.5161 -0.5606  0.3978
  631MPD2    C5 9345   4.563   2.034  15.773 -0.2307 -0.1601  0.0273
  631MPD2     H 9346   0.050   2.134  15.473 -0.0632  0.9893 -0.3989
  631MPD2    H1 9347   0.024   1.971  15.871  0.8473  1.4470  0.7327
  631MPD2    H2 9348   4.394   2.080  15.663 -0.0191  0.7930 -0.4691
  631MPD2    H3 9349   4.499   1.999  15.853  0.5126  0.0361  0.7135
  631MPD2     N 9350   0.190   2.038  15.667 -0.6564  0.4310 -0.8191
  631MPD2    H5 9351   0.245   2.076  15.592  1.3180 -2.5156 -0.8431
  631MPD2    N1 9352   4.498   2.195  15.448  0.0863  0.0200 -0.4283
  631MPD2    H7 9353   4.401   2.211  15.473  0.6791  0.0300  1.8295
  632TMC3    C1 9354   4.473   2.349  15.278  0.5551 -0.2492 -0.1612
  632TMC3    C2 9355   4.375   2.414  15.353 -0.3312  0.1941  0.5786
  632TMC3    C3 9356   4.262   2.445  15.291 -0.6499 -0.8266 -0.1305
  632TMC3    C4 9357   4.458   2.327  15.144 -0.3358 -0.3324  0.2522
  632TMC3    C5 9358   4.343   2.368  15.086 -0.3764  0.5286  0.6701
  632TMC3    C6 9359   4.243   2.433  15.155 -0.4171 -0.2919 -0.6926
  632TMC3     C 9360   4.563   2.256  15.343  0.3356 -0.5422 -0.6377
  632TMC3     O 9361   4.666   2.224  15.286 -0.3583 -0.4569 -0.7787
  632TMC3     H 9362   4.385   2.432  15.459  0.8610 -2.2660  0.8717
  632TMC3    H1 9363   4.531   2.263  15.096 -1.3822 -0.6642 -0.9059
  632TMC3    H2 9364   4.155   2.474  15.108 -1.5780 -0.1467  1.5813
  632TMC3    C7 9365   4.338   2.358  14.935 -0.1862 -0.1405 -0.6113
  632TMC3    C8 9366   4.148   2.460  15.381  0.1237  1.2219  0.0846
  632TMC3    O1 9367   4.440   2.372  14.870  0.7495 -0.5457 -0.9290
  632TMC3    O2 9368   4.170   2.497  15.496 -0.0251  0.9521 -0.2745
  633MPD2     C 9369   3.707   0.444  17.395  0.0461  0.0920  0.8240
  633MPD2    C1 9370   3.745   0.434  17.266 -0.5922  0.0546 -0.6796
  633MPD2    C2 9371   3.738   0.308  17.207 -0.7413 -0.1355 -0.2489
  633MPD2    C3 9372   3.695   0.195  17.279 -0.3717  0.2836 -0.6038
  633MPD2    C4 9373   3.645   0.215  17.404 -0.2095 -0.7883 -0.2818
  633MPD2    C5 9374   3.654   0.340  17.465 -0.1115 -0.5308 -0.7586
  633MPD2     H 9375   3.763   0.298  17.102  0.1780  0.0171 -0.0413
  633MPD2    H1 9376   3.599   0.128  17.451 -3.4247  0.7173 -0.6371
  633MPD2    H2 9377   3.714   0.544  17.437  0.6584 -0.0852  1.1400
  633MPD2    H3 9378   3.620   0.357  17.567  0.7888 -0.4732 -0.4742
  633MPD2     N 9379   3.690   0.059  17.230  0.3621 -0.4081 -0.2556
  633MPD2    H5 9380   3.647   0.001  17.300  1.3650 -1.1460 -0.2424
  633MPD2    N1 9381   3.808   0.542  17.203  0.5834  0.2426  0.3208
  633MPD2    H7 9382   3.862   0.512  17.122 -0.8970 -1.0731 -0.1711
  634TMC3    C1 9383   3.883   0.746  17.128  0.0429 -0.0322  0.2642
  634TMC3    C2 9384   3.940   0.683  17.019 -0.3671 -0.1448  0.7027
  634TMC3    C3 9385   4.013   0.756  16.925 -0.1283 -0.4537 -0.4179
  634TMC3    C4 9386   3.881   0.888  17.126  1.2246  0.4953 -0.2650
  634TMC3    C5 9387   3.948   0.957  17.026  0.5479 -0.3484 -0.2189
  634TMC3    C6 9388   4.024   0.892  16.935  0.3733  0.7390  0.1057
  634TMC3     C 9389   3.812   0.677  17.233 -0.1606  0.6538 -0.4157
  634TMC3     O 9390   3.759   0.737  17.327 -0.1746  0.1998 -0.4630
  634TMC3     H 9391   3.938   0.576  17.000  0.1415 -0.1460  0.6444
  634TMC3    H1 9392   3.839   0.940  17.211  0.4925  0.6952 -0.7487
  634TMC3    H2 9393   4.089   0.958  16.878  1.0092 -0.5238 -0.6336
  634TMC3    C7 9394   3.893   1.073  16.975 -0.0978 -1.2094  0.2563
  634TMC3    C8 9395   4.056   0.690  16.809 -1.1449 -0.6464  0.0251
  634TMC3    O1 9396   3.923   1.108  16.866 -0.3017  0.6286 -0.0512
  634TMC3    O2 9397   4.036   0.571  16.802  0.0813  0.0197  0.6230
  635TMC3    C1 9398   0.850   1.752  17.152 -0.6692  0.7400 -0.2399
  635TMC3    C2 9399   0.870   1.648  17.239 -0.2330 -0.0021  0.1315
  635TMC3    C3 9400   0.990   1.587  17.244  0.0061 -0.2493 -0.8181
  635TMC3    C4 9401   0.953   1.804  17.072 -0.4799 -0.4485  0.8448
  635TMC3    C5 9402   1.079   1.745  17.090  0.0789  0.6558  0.0346
  635TMC3    C6 9403   1.098   1.640  17.177 -0.3791 -0.4902  0.1838
  635TMC3     C 9404   0.718   1.816  17.160  1.4169 -0.4089  0.5750
  635TMC3     O 9405   0.639   1.768  17.243 -0.1174 -0.3793 -0.2235
  635TMC3     H 9406   0.787   1.615  17.300 -0.5735 -1.1328 -0.9611
  635TMC3    H1 9407   0.936   1.886  17.004 -0.5039  0.1198  1.5303
  635TMC3    H2 9408   1.197   1.597  17.177 -2.1066 -4.4815 -2.4378
  635TMC3    C7 9409   1.199   1.791  17.012 -0.1668  0.2414  0.3082
  635TMC3    C8 9410   1.019   1.472  17.330 -0.7871  0.4739 -0.0504
  635TMC3    O1 9411   1.293   1.718  17.002 -0.2743  0.0282 -0.3866
  635TMC3    O2 9412   1.137   1.454  17.347 -0.1505  0.0512  0.5060
  636MPD2     C 9413   0.535   0.782  16.186 -0.3891  0.2185  0.2492
  636MPD2    C1 9414   0.638   0.791  16.275 -0.5514  0.5979  0.1501
  636MPD2    C2 9415   0.665   0.687  16.360  0.3814  0.2364 -0.4333
  636MPD2    C3 9416   0.585   0.572  16.356 -0.4601  0.0692 -0.0761
  636MPD2    C4 9417   0.485   0.560  16.260  0.2894  0.5890  0.0594
  636MPD2    C5 9418   0.468   0.664  16.178 -0.1523 -0.6254  0.1314
  636MPD2     H 9419   0.750   0.689  16.427 -1.6456  0.7487  2.1620
  636MPD2    H1 9420   0.425   0.471  16.241  2.2775 -1.0942  1.6834
  636MPD2    H2 9421   0.511   0.860  16.116 -2.8745 -2.3687 -1.7882
  636MPD2    H3 9422   0.390   0.662  16.103  1.1711  0.3288 -1.2829
  636MPD2     N 9423   0.626   0.467  16.436  0.6399 -0.5109  0.3108
  636MPD2    H5 9424   0.707   0.481  16.496 -0.5379  3.4833  0.9867
  636MPD2    N1 9425   0.725   0.896  16.295  0.4609  0.1801 -0.0116
  636MPD2    H7 9426   0.798   0.887  16.365  0.6468  0.1747 -0.2085
  637TMC3    C1 9427   0.692   0.269  16.517  0.7340 -0.5844  0.4666
  637TMC3    C2 9428   0.736   0.344  16.622  0.9304 -0.0783  0.1613
  637TMC3    C3 9429   0.861   0.341  16.682  0.7415  0.2820  0.1528
  637TMC3    C4 9430   0.776   0.176  16.465 -0.7596  0.4631 -0.2788
  637TMC3    C5 9431   0.895   0.160  16.533  0.3033 -0.0499  0.8022
  637TMC3    C6 9432   0.930   0.227  16.645 -0.6594  0.6008 -0.4492
  637TMC3     C 9433   0.605   0.330  16.422  0.8738 -0.8902  0.0698
  637TMC3     O 9434   0.563   0.266  16.327 -0.3999  0.1156  0.1191
  637TMC3     H 9435   0.670   0.419  16.664  0.5613  0.3737 -1.2207
  637TMC3    H1 9436   0.759   0.129  16.369 -1.2779  1.8025 -0.8375
  637TMC3    H2 9437   1.024   0.201  16.693  0.1334  0.8805 -1.8476
  637TMC3    C7 9438   1.018   0.132  16.460  0.0491 -1.2843 -1.1041
  637TMC3    C8 9439   0.927   0.469  16.657  0.1846  0.1110  0.0761
  637TMC3    O1 9440   1.120   0.105  16.525  0.0883 -0.1102  0.2436
  637TMC3    O2 9441   0.864   0.542  16.579  0.0502  0.9986  0.4110
  638MPD2     C 9442   0.551   4.209  14.893  0.1473 -0.4193  0.1412
  638MPD2    C1 9443   0.519   4.074  14.852  0.0113  0.0511 -0.9756
  638MPD2    C2 9444   0.440   3.994  14.942 -0.2610  0.1610 -0.8366
  638MPD2    C3 9445   0.400   4.046  15.063 -0.3454 -0.2348 -0.3491
  638MPD2    C4 9446   0.425   4.182  15.087  0.5237  0.1167  0.0396
  638MPD2    C5 9447   0.507   4.260  15.011  0.4103  0.4667 -0.7136
  638MPD2     H 9448   0.422   3.887  14.938  0.4383  0.0498 -1.0113
  638MPD2    H1 9449   0.398   4.218  15.185 -0.1203  1.5162 -0.6622
  638MPD2    H2 9450   0.608   4.269  14.823  0.9423 -2.2338 -0.7969
  638MPD2    H3 9451   0.546   4.360  15.032  0.5671 -0.0247  1.3563
  638MPD2     N 9452   0.337   3.966  15.164 -0.4610  0.9748  0.6581
  638MPD2    H5 9453   0.314   3.872  15.133  0.3838  1.8850 -2.6610
  638MPD2    N1 9454   0.553   4.027  14.717  0.0102  0.0947 -0.6405
  638MPD2    H7 9455   0.601   4.084  14.648 -0.3415  0.5190 -0.5385
  639TMC3    C1 9456   0.239   3.887  15.363  0.3868 -0.4480  0.2071
  639TMC3    C2 9457   0.160   3.806  15.289 -0.0755  0.0735 -0.5093
  639TMC3    C3 9458   0.117   3.698  15.355  0.4530  1.2726  0.4957
  639TMC3    C4 9459   0.270   3.869  15.494 -0.1155 -0.2675 -0.2843
  639TMC3    C5 9460   0.232   3.751  15.556 -0.1276  0.5888  0.3151
  639TMC3    C6 9461   0.145   3.673  15.488  0.2945 -0.4843 -0.2652
  639TMC3     C 9462   0.301   4.000  15.292  0.0497  0.4000  0.7574
  639TMC3     O 9463   0.340   4.095  15.357  0.1336 -0.1489  0.6386
  639TMC3     H 9464   0.133   3.837  15.188 -1.4066 -0.5191 -0.3440
  639TMC3    H1 9465   0.340   3.938  15.539 -0.2846 -0.5041  0.3333
  639TMC3    H2 9466   0.119   3.581  15.539  1.3855 -1.5119 -1.5585
  639TMC3    C7 9467   0.345   3.671  15.585 -0.5239  0.9136  0.6464
  639TMC3    C8 9468   0.052   3.599  15.277 -0.1578  0.3426 -0.3580
  639TMC3    O1 9469   0.323   3.579  15.662  0.5191  0.0704 -0.5276
  639TMC3    O2 9470   0.084   3.591  15.161 -0.4398 -0.3151 -0.2095
  640MPD2     C 9471   0.643   3.208  10.636  1.1161  0.0357 -1.2956
  640MPD2    C1 9472   0.555   3.125  10.576  0.6445  0.8060  0.1117
  640MPD2    C2 9473   0.429   3.123  10.631  0.3621  0.3188 -0.1815
  640MPD2    C3 9474   0.394   3.189  10.751  1.0685  0.3377 -0.1907
  640MPD2    C4 9475   0.483   3.274  10.808 -0.2635 -0.1510  0.4081
  640MPD2    C5 9476   0.608   3.274  10.752 -0.3916 -0.4389  0.1435
  640MPD2     H 9477   0.355   3.071  10.571  0.2208  0.1219  0.1575
  640MPD2    H1 9478   0.448   3.332  10.892 -2.0186  0.2373 -0.5750
  640MPD2    H2 9479   0.742   3.223  10.595  2.2527  0.4630  1.5807
  640MPD2    H3 9480   0.695   3.320  10.797 -0.0875  1.5251 -2.4379
  640MPD2     N 9481   0.260   3.193  10.799 -0.5073 -0.4046 -0.3110
  640MPD2    H5 9482   0.236   3.250  10.879  1.2440 -0.7025  0.4187
  640MPD2    N1 9483   0.592   3.067  10.451 -0.1908  0.3933 -0.3850
  640MPD2    H7 9484   0.692   3.072  10.436 -0.4980 -0.1631 -2.5302
  641TMC3    C1 9485   0.561   2.977  10.232  0.2474 -0.5392  0.2045
  641TMC3    C2 9486   0.684   2.915  10.229 -0.1832 -0.2632 -1.2769
  641TMC3    C3 9487   0.717   2.856  10.105  0.3409  0.9066  1.1269
  641TMC3    C4 9488   0.482   2.997  10.124  0.5728 -0.4366 -0.1307
  641TMC3    C5 9489   0.527   2.949  10.003  0.2640 -0.3497 -0.3038
  641TMC3    C6 9490   0.640   2.874   9.993 -0.0400  0.4951  0.3553
  641TMC3     C 9491   0.503   3.015  10.357  0.1079 -0.1616  0.1946
  641TMC3     O 9492   0.380   3.021  10.354 -0.6413  0.9420 -0.0329
  641TMC3     H 9493   0.747   2.915  10.317 -0.6542  1.7043 -0.9368
  641TMC3    H1 9494   0.391   3.055  10.130  0.1988 -0.9302 -1.1150
  641TMC3    H2 9495   0.672   2.841   9.895 -0.2771  1.1510  0.0594
  641TMC3    C7 9496   0.462   2.974   9.879  0.1229 -0.0618  0.1838
  641TMC3    C8 9497   0.821   2.756  10.104 -0.1159  0.3670 -0.0030
  641TMC3    O1 9498   0.496   2.914   9.777  0.2942  0.3752  0.1400
  641TMC3    O2 9499   0.848   2.708   9.994 -0.5143  0.6474 -0.5724
  642TMC3    C1 9500   2.094   4.295  12.365 -0.6606 -0.4430  0.1934
  642TMC3    C2 9501   2.204   4.301  12.448 -0.1241  0.1232 -0.1588
  642TMC3    C3 9502   2.301   4.210  12.423  1.2758 -0.8809 -0.3412
  642TMC3    C4 9503   2.070   4.194  12.276  0.1496 -0.5858 -0.8920
  642TMC3    C5 9504   2.165   4.093  12.268  0.2595 -0.2157 -0.0981
  642TMC3    C6 9505   2.285   4.108  12.332 -0.0668 -0.6405  0.0318
  642TMC3     C 9506   2.007   4.414  12.351 -0.2841  0.0743  0.0602
  642TMC3     O 9507   1.981   4.446  12.239  0.3602  0.3700  0.0278
  642TMC3     H 9508   2.212   4.381  12.521 -1.0542 -0.2364  0.3315
  642TMC3    H1 9509   1.976   4.195  12.223 -0.3763  1.0736  0.0666
  642TMC3    H2 9510   2.362   4.033  12.319  0.8635  0.6786 -2.0507
  642TMC3    C7 9511   2.135   3.964  12.212  0.6823 -0.3981  0.0778
  642TMC3    C8 9512   2.427   4.237  12.496 -0.2851  0.1402 -0.4922
  642TMC3    O1 9513   2.051   3.958  12.124 -0.0586  0.1086 -0.5782
  642TMC3    O2 9514   2.430   4.279  12.613  0.5199 -0.1415 -0.6819
  643TMC3    C1 9515   0.829   3.723   0.416  0.0031  0.2843  0.2820
  643TMC3    C2 9516   0.701   3.724   0.376  0.1266 -0.5489 -0.4767
  643TMC3    C3 9517   0.655   3.618   0.307 -0.3172  0.2498 -0.2068
  643TMC3    C4 9518   0.911   3.619   0.391  0.3943  0.4399 -0.5667
  643TMC3    C5 9519   0.873   3.518   0.302  0.8109 -0.2566  0.3035
  643TMC3    C6 9520   0.741   3.516   0.266  0.1482  0.0935  0.1269
  643TMC3     C 9521   0.887   3.841   0.358 -0.4485 -0.1067 -0.3637
  643TMC3     O 9522   0.809   3.897   0.283 -0.2827 -0.1325  0.3271
  643TMC3     H 9523   0.636   3.811   0.379  1.7916  0.6479  0.9648
  643TMC3    H1 9524   1.017   3.617   0.415 -0.6142  0.9607  4.0854
  643TMC3    H2 9525   0.708   3.450   0.187  0.1687 -0.0225  0.2162
  643TMC3    C7 9526   0.975   3.490   0.194 -0.1923  0.2297 -0.1994
  643TMC3    C8 9527   0.573   3.662   0.195  0.2646 -1.1073  0.1386
  643TMC3    O1 9528   1.073   3.563   0.184  0.1057  0.3449  0.5303
  643TMC3    O2 9529   0.472   3.595   0.166  0.0171 -0.4424  0.2897
  644MPD2     C 9530   0.400   3.583   9.802  0.4219  0.1060 -0.2264
  644MPD2    C1 9531   0.447   3.512   9.906 -0.3517  0.3587 -0.2990
  644MPD2    C2 9532   0.409   3.535  10.040  0.1874  1.6767  0.5226
  644MPD2    C3 9533   0.323   3.643  10.064  0.1250 -0.0395  0.0091
  644MPD2    C4 9534   0.269   3.711   9.962 -0.3852  0.1911  0.0887
  644MPD2    C5 9535   0.311   3.685   9.832  0.6872 -0.1866  0.4331
  644MPD2     H 9536   0.457   3.491  10.126  0.8259 -0.1606 -0.7716
  644MPD2    H1 9537   0.215   3.803   9.979  0.5783  0.5390  1.3126
  644MPD2    H2 9538   0.432   3.571   9.699  1.0579 -0.6520  0.0533
  644MPD2    H3 9539   0.273   3.741   9.746 -0.0196 -1.3770 -0.0354
  644MPD2     N 9540   0.293   3.677  10.198 -0.1928 -0.7934 -0.1607
  644MPD2    H5 9541   0.350   3.634  10.270  0.5635 -0.1699 -0.3921
  644MPD2    N1 9542   0.548   3.425   9.876  0.6332  0.1407  0.5040
  644MPD2    H7 9543   0.565   3.415   9.776 -1.1251 -1.3573  0.3494
  645TMC3    C1 9544   0.187   3.773  10.379 -0.4643  0.9344 -0.0979
  645TMC3    C2 9545   0.073   3.827  10.433  0.9412 -0.2746  0.1324
  645TMC3    C3 9546   0.075   3.846  10.570  0.1037  0.9228  0.0902
  645TMC3    C4 9547   0.296   3.725  10.450 -0.7293 -1.0721 -0.0748
  645TMC3    C5 9548   0.301   3.759  10.581  0.0518  0.0012 -0.0640
  645TMC3    C6 9549   0.191   3.828  10.639  0.6320  0.0413  0.3346
  645TMC3     C 9550   0.190   3.755  10.235 -0.6618  0.6586 -0.1200
  645TMC3     O 9551   0.103   3.805  10.167 -0.3084  0.3675  0.1194
  645TMC3     H 9552   4.714   3.865  10.370  0.2433 -1.6523  0.1939
  645TMC3    H1 9553   0.387   3.681  10.410 -0.0338  1.1938 -0.9725
  645TMC3    H2 9554   0.192   3.844  10.746  3.6220 -1.5061  0.5684
  645TMC3    C7 9555   0.419   3.753  10.663  0.5135  0.1926  0.0093
  645TMC3    C8 9556   4.690   3.893  10.648  0.4573 -0.1124  0.7521
  645TMC3    O1 9557   0.421   3.829  10.758  0.0663  0.1784 -0.0741
  645TMC3    O2 9558   0.003   3.959  10.748 -0.3698  0.8968 -0.3809
  646MPD2     C 9559   0.399   2.819  14.735  0.9241 -0.1974 -0.3986
  646MPD2    C1 9560   0.329   2.788  14.848 -0.5698  0.4533  0.3242
  646MPD2    C2 9561   0.201   2.826  14.854 -0.1317  0.2385  0.1256
  646MPD2    C3 9562   0.149   2.888  14.745  0.0736  0.4731  0.3112
  646MPD2    C4 9563   0.223   2.924  14.638 -0.7535  0.4450 -0.6398
  646MPD2    C5 9564   0.350   2.887  14.630 -0.0133  0.2600  0.8793
  646MPD2     H 9565   0.135   2.798  14.935 -0.4945  0.2917 -0.1528
  646MPD2    H1 9566   0.190   2.998  14.566 -1.5668  1.0786  0.3869
  646MPD2    H2 9567   0.504   2.790  14.726  1.6823  2.2987  0.3393
  646MPD2    H3 9568   0.419   2.900  14.547  0.2777  0.9840  1.2339
  646MPD2     N 9569   0.010   2.932  14.754  0.5660 -0.4323 -0.2855
  646MPD2    H5 9570   4.693   2.938  14.848 -0.9329 -1.9237 -0.7901
  646MPD2    N1 9571   0.410   2.723  14.946 -0.2411 -0.0432 -0.3009
  646MPD2    H7 9572   0.509   2.714  14.927  0.1464  2.1596  0.6184
  647TMC3    C1 9573   0.481   2.639  15.157 -0.2454 -0.7926  0.2189
  647TMC3    C2 9574   0.485   2.671  15.289  0.0986 -0.6047 -0.1617
  647TMC3    C3 9575   0.606   2.658  15.356 -0.1688  0.1431 -0.2081
  647TMC3    C4 9576   0.589   2.585  15.098  0.6908 -0.3018  0.0151
  647TMC3    C5 9577   0.702   2.568  15.168 -0.4638 -0.1941 -0.1647
  647TMC3    C6 9578   0.712   2.605  15.299  0.2099 -0.8044  0.1720
  647TMC3     C 9579   0.366   2.687  15.071  0.5022  0.4272  0.3894
  647TMC3     O 9580   0.255   2.689  15.128 -0.5936  0.6398  0.3343
  647TMC3     H 9581   0.399   2.711  15.341  1.4889 -1.0342  2.4450
  647TMC3    H1 9582   0.583   2.545  14.997  1.5914 -0.7273  0.1287
  647TMC3    H2 9583   0.800   2.579  15.357  0.8098  1.7226  0.4256
  647TMC3    C7 9584   0.797   2.467  15.124 -0.2954  0.0499 -0.5956
  647TMC3    C8 9585   0.616   2.704  15.493 -0.7477 -0.0383 -0.4475
  647TMC3    O1 9586   0.919   2.464  15.144  0.1948 -0.0874 -0.2239
  647TMC3    O2 9587   0.725   2.742  15.536 -0.0726 -0.0467 -0.6726
  648TMC3    C1 9588   4.509   0.856  16.155  0.3015 -0.5447 -0.7416
  648TMC3    C2 9589   4.528   0.738  16.087  0.2944  0.9842 -0.1319
  648TMC3    C3 9590   4.441   0.720  15.978 -0.0485 -0.1969  0.1242
  648TMC3    C4 9591   4.442   0.966  16.112 -0.7584 -0.4043 -1.0356
  648TMC3    C5 9592   4.375   0.947  15.993  0.3820 -0.3134  0.4703
  648TMC3    C6 9593   4.360   0.823  15.942  0.0813  0.2809 -0.4250
  648TMC3     C 9594   4.501   0.848  16.303  1.1082  0.3436  0.3031
  648TMC3     O 9595   4.534   0.947  16.364  0.0253 -0.2876  0.2473
  648TMC3     H 9596   4.586   0.652  16.118  2.6157  2.2557 -0.9730
  648TMC3    H1 9597   4.445   1.061  16.163 -0.7215 -2.1870  2.2384
  648TMC3    H2 9598   4.321   0.822  15.841  0.4798  2.1188 -0.5958
  648TMC3    C7 9599   4.296   1.055  15.927 -0.7215  0.2534  0.0805
  648TMC3    C8 9600   4.428   0.588  15.911 -0.1238  0.6107  0.1591
  648TMC3    O1 9601   4.286   1.045  15.804 -0.5502  0.5268  0.3417
  648TMC3    O2 9602   4.321   0.572  15.855 -0.5070 -0.0446 -0.0998
  649TMC3    C1 9603   4.022   1.543  12.528 -0.6088 -0.0951  0.8132
  649TMC3    C2 9604   4.144   1.591  12.575 -0.1584  0.0911 -0.3827
  649TMC3    C3 9605   4.173   1.550  12.705 -0.0659 -0.2206 -0.4783
  649TMC3    C4 9606   3.928   1.473  12.595  0.5479 -0.4093  0.2986
  649TMC3    C5 9607   3.965   1.426  12.717 -0.6637 -0.2852  0.3071
  649TMC3    C6 9608   4.088   1.468  12.770 -0.5155 -0.4822 -0.7878
  649TMC3     C 9609   3.985   1.575  12.393  0.5829 -0.3232 -0.2191
  649TMC3     O 9610   3.864   1.596  12.377 -0.3679  0.3012  0.1337
  649TMC3     H 9611   4.208   1.654  12.514  0.4260 -1.4969 -1.3978
  649TMC3    H1 9612   3.829   1.449  12.559 -0.4139 -1.0471  3.3842
  649TMC3    H2 9613   4.115   1.434  12.869 -1.0102 -0.3549 -0.6121
  649TMC3    C7 9614   3.898   1.321  12.792 -0.3511 -0.7772 -0.4072
  649TMC3    C8 9615   4.272   1.617  12.787 -0.0549 -0.0918  0.6377
  649TMC3    O1 9616   3.918   1.318  12.917 -0.7543 -0.1072  0.2389
  649TMC3    O2 9617   4.338   1.557  12.871 -0.0017 -0.0800  0.2405
  650TMC3    C1 9618   1.640   3.384  13.134 -0.4815 -0.5898  0.9320
  650TMC3    C2 9619   1.603   3.504  13.178  0.3128  0.0781 -0.0543
  650TMC3    C3 9620   1.620   3.609  13.095  1.0093  0.2579 -0.4963
  650TMC3    C4 9621   1.710   3.365  13.018 -0.0194  0.1990 -1.2733
  650TMC3    C5 9622   1.742   3.478  12.946 -0.3043 -0.4053  0.0408
  650TMC3    C6 9623   1.683   3.596  12.971 -0.2716 -0.0947 -0.3260
  650TMC3     C 9624   1.606   3.267  13.211  0.3303 -0.1465 -0.1321
  650TMC3     O 9625   1.582   3.279  13.330 -0.4207  0.9120 -0.4668
  650TMC3     H 9626   1.558   3.502  13.277  0.2646 -0.6499 -0.0903
  650TMC3    H1 9627   1.763   3.273  12.997  1.0749  0.0460  2.1382
  650TMC3    H2 9628   1.699   3.680  12.904 -1.6252 -0.3212 -0.9310
  650TMC3    C7 9629   1.779   3.458  12.807 -0.7779 -1.2546  0.7439
  650TMC3    C8 9630   1.571   3.743  13.123 -0.5794 -0.5143  0.3918
  650TMC3    O1 9631   1.867   3.376  12.777 -0.0844 -0.1214  0.0882
  650TMC3    O2 9632   1.636   3.830  13.068 -0.0149 -0.4422  0.3233
  651MPD2     C 9633   0.006   0.271  10.648 -0.4676 -0.5172 -0.9606
  651MPD2    C1 9634   4.695   0.398  10.690  0.3453 -0.0072  0.2482
  651MPD2    C2 9635   0.079   0.487  10.716 -0.3559  0.3300 -0.1046
  651MPD2    C3 9636   0.213   0.452  10.707 -0.4356  0.0228 -1.0277
  651MPD2    C4 9637   0.240   0.325  10.670 -0.1904 -0.4815 -0.0612
  651MPD2    C5 9638   0.134   0.241  10.637  0.3896 -0.2951 -0.1677
  651MPD2     H 9639   0.050   0.588  10.742 -0.1931  0.0695  1.0667
  651MPD2    H1 9640   0.334   0.272  10.675 -0.1083 -0.5537 -2.3719
  651MPD2    H2 9641   4.651   0.198  10.623 -1.0770  0.1860 -1.1784
  651MPD2    H3 9642   0.160   0.144  10.595  0.0487 -0.8515  0.9153
  651MPD2     N 9643   0.302   0.556  10.743  0.3046  0.0154  0.0360
  651MPD2    H5 9644   0.267   0.646  10.772 -1.0648 -1.0235  1.5916
  651MPD2    N1 9645   4.558   0.442  10.701  0.5890  0.6095  0.3153
  651MPD2    H7 9646   4.542   0.533  10.742  1.8466  0.8669  0.2387
  652TMC3    C1 9647   0.711   0.741  10.873  0.1376 -0.2134 -0.3796
  652TMC3    C2 9648   0.642   0.624  10.845  0.0755  0.0219  0.2268
  652TMC3    C3 9649   0.511   0.639  10.815 -0.8804 -1.2080 -0.3420
  652TMC3    C4 9650   0.653   0.865  10.861 -0.4524 -0.0663 -0.1405
  652TMC3    C5 9651   0.524   0.872  10.838 -0.4675  0.3853 -0.1043
  652TMC3    C6 9652   0.447   0.756  10.827  0.6016 -0.1123 -0.1652
  652TMC3     C 9653   0.858   0.729  10.859 -0.1915 -0.2434  0.0171
  652TMC3     O 9654   0.908   0.625  10.896 -0.1065  0.3242  0.2986
  652TMC3     H 9655   0.701   0.536  10.821  0.3539  0.1223  0.5328
  652TMC3    H1 9656   0.721   0.949  10.867 -1.7917  0.9638  0.5404
  652TMC3    H2 9657   0.343   0.783  10.813  0.3024 -1.7979 -1.1132
  652TMC3    C7 9658   0.455   0.980  10.902  0.5446  0.2449  0.1911
  652TMC3    C8 9659   0.438   0.529  10.763 -0.3010  0.2786  0.1885
  652TMC3    O1 9660   0.348   0.953  10.955 -0.3442  0.0123  0.0704
  652TMC3    O2 9661   0.497   0.422  10.741 -0.0443  0.3819 -0.2993
  653MPD2     C 9662   3.383   0.669   0.261  0.2794 -0.1707  0.1251
  653MPD2    C1 9663   3.423   0.740   0.148 -0.4068  0.3087  0.5045
  653MPD2    C2 9664   3.415   0.673   0.022  0.0626 -0.6518 -0.1537
  653MPD2    C3 9665   3.347   0.555   0.014  0.3716  0.2151  0.2302
  653MPD2    C4 9666   3.283   0.501   0.125 -0.9027  0.7395  0.2797
  653MPD2    C5 9667   3.311   0.554   0.246 -0.5023  0.1529  0.9680
  653MPD2     H 9668   3.461   0.709  17.616 -1.9101  1.5213 -0.2633
  653MPD2    H1 9669   3.217   0.416   0.114 -1.8439  1.0433  3.5534
  653MPD2    H2 9670   3.383   0.716   0.359  0.3171 -1.3659  0.6895
  653MPD2    H3 9671   3.258   0.506   0.327 -3.0782  1.3382 -0.0057
  653MPD2     N 9672   3.337   0.496  17.575  0.2236 -1.0318 -1.1053
  653MPD2    H5 9673   3.375   0.554  17.501  0.7154  1.2296  0.9111
  653MPD2    N1 9674   3.475   0.868   0.152 -0.3326  0.4380  0.0134
  653MPD2    H7 9675   3.516   0.908   0.067 -0.4123 -2.1110 -1.2267
  654TMC3    C1 9676   3.306   0.333  17.405 -0.1533 -1.2262 -0.3105
  654TMC3    C2 9677   3.305   0.428  17.304 -0.7165  0.0237  0.9830
  654TMC3    C3 9678   3.297   0.377  17.177 -0.0758  0.3634 -0.1289
  654TMC3    C4 9679   3.291   0.199  17.383  0.4590  0.3408  0.5867
  654TMC3    C5 9680   3.283   0.146  17.252 -0.0038  0.2367  0.2846
  654TMC3    C6 9681   3.295   0.237  17.151 -0.6562 -1.4600 -0.1245
  654TMC3     C 9682   3.279   0.370  17.543 -1.1659  0.1356  0.1703
  654TMC3     O 9683   3.236   0.287  17.623  0.0301  0.0897 -0.1778
  654TMC3     H 9684   3.293   0.534  17.324 -1.6095  0.0881  0.0874
  654TMC3    H1 9685   3.301   0.134  17.469 -1.1548 -0.9822 -0.2352
  654TMC3    H2 9686   3.305   0.200  17.050  0.5523 -1.7440  0.1038
  654TMC3    C7 9687   3.343   0.016  17.240 -0.2661 -0.4289 -0.7274
  654TMC3    C8 9688   3.213   0.463  17.097 -0.6296 -0.1347 -0.0049
  654TMC3    O1 9689   3.394   4.695  17.341  0.2750 -0.2315  0.0477
  654TMC3    O2 9690   3.153   0.549  17.164 -0.5441 -0.0273  0.0305
  655MPD2     C 9691   0.050   1.149  15.966 -0.4908  0.2634 -0.2591
  655MPD2    C1 9692   0.013   1.262  15.894 -0.1783  0.0367  0.0625
  655MPD2    C2 9693   0.057   1.279  15.759 -0.2167  0.0350  0.2453
  655MPD2    C3 9694   0.136   1.178  15.705  0.6387  0.2022  0.3202
  655MPD2    C4 9695   0.173   1.069  15.778 -0.3831 -0.3054 -0.4390
  655MPD2    C5 9696   0.131   1.054  15.905 -0.0367  0.4099 -0.1897
  655MPD2     H 9697   0.030   1.372  15.712 -0.8710  0.2598  1.0513
  655MPD2    H1 9698   0.240   0.995  15.736 -0.8030 -0.2637 -1.1843
  655MPD2    H2 9699   0.016   1.125  16.066  0.2476  2.4621  0.5306
  655MPD2    H3 9700   0.160   0.965  15.960 -2.0186 -0.8425 -1.1862
  655MPD2     N 9701   0.192   1.184  15.574  0.5495 -0.2451 -0.4243
  655MPD2    H5 9702   0.258   1.114  15.541  2.9944  1.6554  0.4241
  655MPD2    N1 9703   4.661   1.366  15.954  0.5126 -0.2157 -0.8852
  655MPD2    H7 9704   4.652   1.451  15.900 -1.2968 -0.2231 -0.5716
  656TMC3    C1 9705   4.560   1.498  16.123  0.4079  0.7751 -0.3372
  656TMC3    C2 9706   4.538   1.514  16.261  0.3707 -0.1274 -0.2845
  656TMC3    C3 9707   4.453   1.607  16.304 -0.1628  0.4414 -0.1121
  656TMC3    C4 9708   4.487   1.574  16.033 -0.4384  0.4622  0.2946
  656TMC3    C5 9709   4.413   1.681  16.079 -0.1321  0.7877  0.2169
  656TMC3    C6 9710   4.396   1.694  16.212  0.9518 -0.1768 -0.7013
  656TMC3     C 9711   4.620   1.370  16.083 -0.2627 -0.5864  0.0152
  656TMC3     O 9712   4.625   1.280  16.168 -0.5718  0.0018  0.3171
  656TMC3     H 9713   4.575   1.442  16.333 -1.7673  0.6336  1.5708
  656TMC3    H1 9714   4.512   1.558  15.928 -0.2696  1.0712  0.2409
  656TMC3    H2 9715   4.343   1.784  16.241  0.1156 -1.2369  1.0064
  656TMC3    C7 9716   4.334   1.761  15.987  0.6324 -0.7918 -0.5074
  656TMC3    C8 9717   4.350   1.549  16.382 -0.1997  0.1238  0.0410
  656TMC3    O1 9718   4.390   1.780  15.878  0.0290  0.2245  0.1645
  656TMC3    O2 9719   4.244   1.554  16.320 -0.2571 -0.0468  0.1893
  657TMC3    C1 9720   4.143   0.598  14.751 -0.6871 -0.8725 -0.3462
  657TMC3    C2 9721   4.184   0.675  14.861 -0.1520  0.7379  0.3390
  657TMC3    C3 9722   4.109   0.787  14.891 -0.1531  0.5564  0.1242
  657TMC3    C4 9723   4.029   0.621  14.674 -0.1884  0.1679  0.2586
  657TMC3    C5 9724   3.961   0.733  14.712  0.8997 -0.7366 -0.3131
  657TMC3    C6 9725   3.997   0.822  14.812  0.0090 -0.1252 -0.2713
  657TMC3     C 9726   4.224   0.498  14.698  0.6316 -0.3076 -0.0070
  657TMC3     O 9727   4.208   0.478  14.575  0.2030 -0.1168  0.3986
  657TMC3     H 9728   4.275   0.653  14.916 -0.8974  2.0650  2.1117
  657TMC3    H1 9729   4.011   0.566  14.583 -0.1842  0.8719 -0.1653
  657TMC3    H2 9730   3.936   0.908  14.838  3.7389  1.8800  1.8390
  657TMC3    C7 9731   3.842   0.772  14.633  0.1034 -0.3362  0.7147
  657TMC3    C8 9732   4.096   0.826  15.034 -0.7271  0.0703  0.0013
  657TMC3    O1 9733   3.814   0.894  14.623  0.3891 -0.4583 -0.0641
  657TMC3    O2 9734   4.058   0.940  15.055 -0.1244 -0.2508 -0.0378
  658MPD2     C 9735   0.379   0.684  15.235  0.0921  0.7457  0.7274
  658MPD2    C1 9736   0.364   0.791  15.149 -0.1573 -0.4263  0.8716
  658MPD2    C2 9737   0.337   0.767  15.016 -0.6614  0.2543 -0.0271
  658MPD2    C3 9738   0.336   0.638  14.966  0.2069 -0.6310  0.7637
  658MPD2    C4 9739   0.365   0.535  15.052  0.0454 -0.1688  0.3309
  658MPD2    C5 9740   0.382   0.558  15.185  0.7775  0.8321  0.5734
  658MPD2     H 9741   0.316   0.847  14.946 -0.1821  1.7214  1.5213
  658MPD2    H1 9742   0.379   0.430  15.026  0.3126 -0.1281  0.3063
  658MPD2    H2 9743   0.399   0.678  15.341  1.9119 -1.3970  0.2565
  658MPD2    H3 9744   0.385   0.478  15.258 -0.1758 -1.7657 -2.2063
  658MPD2     N 9745   0.313   0.613  14.830 -0.0733 -0.3048  0.8383
  658MPD2    H5 9746   0.292   0.696  14.775  1.8993  0.5622  1.4248
  658MPD2    N1 9747   0.373   0.923  15.202 -0.1308 -0.4976 -0.1436
  658MPD2    H7 9748   0.390   0.931  15.301 -0.0794  0.4257 -0.2265
  659TMC3    C1 9749   0.382   1.153  15.216 -0.8982  0.0446 -0.3160
  659TMC3    C2 9750   0.310   1.158  15.332  0.1377 -0.5173  0.6900
  659TMC3    C3 9751   0.249   1.279  15.367 -0.5063  0.7954 -0.3660
  659TMC3    C4 9752   0.384   1.264  15.139 -0.6546 -0.2514 -0.0467
  659TMC3    C5 9753   0.316   1.375  15.162  0.1794  0.0499 -0.2129
  659TMC3    C6 9754   0.258   1.395  15.285 -0.0594 -0.3519  0.6548
  659TMC3     C 9755   0.363   1.043  15.128  0.6924  0.7992  0.5803
  659TMC3     O 9756   0.337   1.063  15.010 -0.0494 -0.3797 -0.6976
  659TMC3     H 9757   0.285   1.068  15.386  0.4912 -0.8867  0.2381
  659TMC3    H1 9758   0.430   1.270  15.041 -0.8739 -1.4390 -0.2194
  659TMC3    H2 9759   0.189   1.479  15.293 -0.4378 -0.5594 -0.4551
  659TMC3    C7 9760   0.252   1.434  15.048  0.0996  0.6394  0.6070
  659TMC3    C8 9761   0.170   1.289  15.489 -0.4954  0.3904 -0.1329
  659TMC3    O1 9762   0.217   1.552  15.062 -0.7185  0.3166  0.7264
  659TMC3    O2 9763   0.094   1.384  15.496 -0.1076 -0.3640  0.3332
  660MPD2     C 9764   3.553   4.504  12.704 -0.1729  0.2487  0.1998
  660MPD2    C1 9765   3.469   4.417  12.632  0.3977 -0.1777 -0.1367
  660MPD2    C2 9766   3.401   4.318  12.697  0.0513 -0.7032  0.3595
  660MPD2    C3 9767   3.423   4.300  12.830 -0.2067 -0.3195  0.4391
  660MPD2    C4 9768   3.513   4.376  12.901  0.2311  0.7760  0.4121
  660MPD2    C5 9769   3.579   4.479  12.838 -0.0281 -0.1570 -0.7189
  660MPD2     H 9770   3.356   4.237  12.640  0.7544  0.1279 -1.3760
  660MPD2    H1 9771   3.528   4.351  13.006  1.1108 -1.1036 -0.1485
  660MPD2    H2 9772   3.601   4.591  12.661 -0.5988 -0.0828 -0.9354
  660MPD2    H3 9773   3.647   4.545  12.891 -0.9744 -0.3121  0.7049
  660MPD2     N 9774   3.335   4.210  12.898 -0.5323 -1.0889  0.2237
  660MPD2    H5 9775   3.359   4.186  12.994 -1.6076 -0.9589  0.5277
  660MPD2    N1 9776   3.452   4.444  12.493  0.7294  0.0357  0.1294
  660MPD2    H7 9777   3.452   4.539  12.458 -1.0463  0.4542  1.2655
  661TMC3    C1 9778   3.348   4.425  12.291 -0.0384 -0.1229  0.2216
  661TMC3    C2 9779   3.372   4.375  12.164  0.1700  0.9088 -0.0113
  661TMC3    C3 9780   3.283   4.421  12.071  0.4009  0.1863  0.0180
  661TMC3    C4 9781   3.239   4.499  12.320  0.1327  0.8589 -0.1251
  661TMC3    C5 9782   3.152   4.533  12.225 -0.3672  0.4197 -0.3072
  661TMC3    C6 9783   3.179   4.500  12.098 -0.9500 -0.8217 -0.0544
  661TMC3     C 9784   3.405   4.356  12.403  0.1137  0.2888 -0.5240
  661TMC3     O 9785   3.417   4.232  12.398 -0.0600  0.6806 -0.7100
  661TMC3     H 9786   3.431   4.285  12.148 -0.1535  0.6845  0.0637
  661TMC3    H1 9787   3.217   4.506  12.426  2.8679  0.8014  0.4442
  661TMC3    H2 9788   3.124   4.541  12.015 -2.5405 -3.4468 -0.2973
  661TMC3    C7 9789   3.009   4.532  12.267 -0.5735  0.4855  0.4320
  661TMC3    C8 9790   3.247   4.328  11.962  0.3078  0.3091  0.7879
  661TMC3    O1 9791   2.972   4.564  12.382  0.2345 -0.6672 -0.2770
  661TMC3    O2 9792   3.130   4.292  11.960  0.0342 -0.5557  0.6448
  662MPD2     C 9793   3.086   4.040  17.111 -0.4785  0.2903 -0.5551
  662MPD2    C1 9794   3.059   3.951  17.211  0.3251 -0.1684  0.0838
  662MPD2    C2 9795   3.011   3.998  17.335 -0.4036  0.0175 -0.3132
  662MPD2    C3 9796   2.999   4.133  17.356  0.0666  0.3109  0.8957
  662MPD2    C4 9797   3.038   4.215  17.261  0.4865 -0.3340  0.1408
  662MPD2    C5 9798   3.083   4.180  17.139  0.1093  0.4763  0.0751
  662MPD2     H 9799   2.978   3.918  17.401 -0.5904 -1.9877 -2.8328
  662MPD2    H1 9800   3.029   4.323  17.270  1.3946 -0.3110  0.7875
  662MPD2    H2 9801   3.117   4.016  17.010  0.5472 -1.1011  0.1008
  662MPD2    H3 9802   3.116   4.253  17.066  0.8464 -1.8367 -1.9188
  662MPD2     N 9803   2.938   4.193  17.467 -0.0835  0.2088 -0.3272
  662MPD2    H5 9804   2.909   4.290  17.459  0.3375  0.1117 -2.9308
  662MPD2    N1 9805   3.092   3.814  17.198  0.2925  0.1366  0.1327
  662MPD2    H7 9806   3.081   3.774  17.291 -0.5804 -0.8317 -0.3768
  663TMC3    C1 9807   3.154   3.613  17.119  0.0782 -0.7094  0.4264
  663TMC3    C2 9808   3.235   3.580  17.223 -0.6481 -0.1849 -0.3467
  663TMC3    C3 9809   3.301   3.461  17.220  0.2486  0.0053 -0.1871
  663TMC3    C4 9810   3.131   3.528  17.014  1.0297 -0.2297  1.1264
  663TMC3    C5 9811   3.186   3.403  17.025  0.3595 -0.3575 -0.1815
  663TMC3    C6 9812   3.266   3.362  17.133  0.4086  0.3861 -0.0458
  663TMC3     C 9813   3.133   3.752  17.085 -0.8306  0.0701  0.3514
  663TMC3     O 9814   3.137   3.785  16.968 -0.1681  0.0894  0.1584
  663TMC3     H 9815   3.292   3.656  17.276 -0.8525  0.4232 -0.9985
  663TMC3    H1 9816   3.084   3.562  16.923  0.7084 -0.0920  1.3460
  663TMC3    H2 9817   3.318   3.267  17.133 -1.2356 -0.5217  3.1097
  663TMC3    C7 9818   3.145   3.305  16.923  0.1996  0.2194  0.7259
  663TMC3    C8 9819   3.328   3.406  17.347 -0.6846  0.6729  0.5822
  663TMC3    O1 9820   3.118   3.336  16.807  0.0998  0.7047  0.1762
  663TMC3    O2 9821   3.377   3.295  17.344  0.8815  0.7308 -0.1863
  664MPD2     C 9822   1.443   2.071  17.204  0.0489 -0.2298  0.0202
  664MPD2    C1 9823   1.452   2.183  17.279 -0.0083 -0.0619 -0.3817
  664MPD2    C2 9824   1.382   2.180  17.400  0.1433 -0.7169 -0.2622
  664MPD2    C3 9825   1.317   2.072  17.455 -0.4289  0.3377 -0.5706
  664MPD2    C4 9826   1.324   1.955  17.385 -0.7868  0.5015 -0.2330
  664MPD2    C5 9827   1.385   1.957  17.262  0.5176  0.6626  0.0789
  664MPD2     H 9828   1.396   2.266  17.465 -0.0524 -0.5049 -0.4986
  664MPD2    H1 9829   1.274   1.867  17.425  2.3088  0.1273  2.8288
  664MPD2    H2 9830   1.479   2.073  17.102  2.5280  1.6205  0.9339
  664MPD2    H3 9831   1.394   1.867  17.203  2.0804  1.1210 -0.3683
  664MPD2     N 9832   1.254   2.089  17.582 -0.2686  1.3728  0.1510
  664MPD2    H5 9833   1.260   2.182  17.621  1.5955  0.5805  1.7584
  664MPD2    N1 9834   1.520   2.290  17.230  0.4403 -0.3643 -0.5422
  664MPD2    H7 9835   1.559   2.266  17.139 -0.2670 -2.1245 -0.3840
  665TMC3    C1 9836   1.195   2.032   0.118 -0.1080 -0.2896 -0.9153
  665TMC3    C2 9837   1.250   1.957   0.217  0.6274 -0.6318 -0.1852
  665TMC3    C3 9838   1.261   2.000   0.344  0.4899 -0.1446 -0.3275
  665TMC3    C4 9839   1.143   2.156   0.137  0.5557 -0.0370 -0.0565
  665TMC3    C5 9840   1.150   2.194   0.270  0.6262 -0.1518 -0.1459
  665TMC3    C6 9841   1.212   2.125   0.373 -0.0340 -0.0276  0.1905
  665TMC3     C 9842   1.228   1.988  17.672  0.0909 -0.0359 -0.6250
  665TMC3     O 9843   1.242   1.867  17.653 -0.8597 -0.9792  0.0377
  665TMC3     H 9844   1.292   1.863   0.182 -0.0839 -1.3405  0.8648
  665TMC3    H1 9845   1.090   2.215   0.062  1.5638  1.1028  0.1266
  665TMC3    H2 9846   1.204   2.154   0.477  0.5626  2.4256 -0.4464
  665TMC3    C7 9847   1.069   2.309   0.307  0.1184 -0.3961  0.2720
  665TMC3    C8 9848   1.305   1.903   0.447  0.0279  0.4169  1.0612
  665TMC3    O1 9849   0.976   2.335   0.232 -0.1551 -0.0093  0.3232
  665TMC3    O2 9850   1.364   1.806   0.406  0.5299 -0.1395  0.6719
  666TMC3    C1 9851   0.306   1.693  10.416 -0.5483 -0.1814 -0.0949
  666TMC3    C2 9852   0.407   1.669  10.329  0.6063  0.8757  0.0338
  666TMC3    C3 9853   0.476   1.769  10.274 -0.2891 -0.3766 -0.5675
  666TMC3    C4 9854   0.275   1.822  10.450  0.1073 -0.4443  0.7412
  666TMC3    C5 9855   0.341   1.926  10.386  0.7730  0.6122  0.5471
  666TMC3    C6 9856   0.443   1.900  10.304  0.1385 -0.3081  0.2516
  666TMC3     C 9857   0.241   1.584  10.493 -0.2083 -0.3162  0.2540
  666TMC3     O 9858   0.194   1.614  10.601  0.2431  0.2289 -0.0348
  666TMC3     H 9859   0.434   1.571  10.292 -2.2802 -0.2271  0.8161
  666TMC3    H1 9860   0.193   1.851  10.514 -0.4957 -0.3269 -0.0767
  666TMC3    H2 9861   0.508   1.980  10.271  0.4287 -0.2890  0.8713
  666TMC3    C7 9862   0.330   2.061  10.444 -0.1564 -0.3161 -0.2000
  666TMC3    C8 9863   0.616   1.749  10.303  0.1157  0.1478  0.4032
  666TMC3    O1 9864   0.264   2.070  10.548 -0.5579  0.5665  0.1970
  666TMC3    O2 9865   0.634   1.681  10.404  0.2727  0.1361  0.6604
  667MPD2     C 9866   2.374   1.917  14.679 -0.7271  0.0969 -0.7149
  667MPD2    C1 9867   2.289   1.985  14.764  0.3354  0.5101  0.7742
  667MPD2    C2 9868   2.162   1.939  14.782 -1.0044 -0.1923 -0.0419
  667MPD2    C3 9869   2.113   1.828  14.718 -1.1908 -0.4459 -0.2673
  667MPD2    C4 9870   2.199   1.753  14.645  0.3190  0.1524  0.3970
  667MPD2    C5 9871   2.327   1.803  14.620  0.2385 -0.1394  0.5925
  667MPD2     H 9872   2.092   1.995  14.841 -1.5486  0.6480 -1.4780
  667MPD2    H1 9873   2.172   1.659  14.599 -0.6096  1.1083 -1.0182
  667MPD2    H2 9874   2.476   1.950  14.665 -0.6099 -0.0885 -0.3004
  667MPD2    H3 9875   2.393   1.744  14.558 -0.4338 -2.3052  1.9409
  667MPD2     N 9876   1.981   1.770  14.730 -0.2658  0.1054  0.6526
  667MPD2    H5 9877   1.965   1.682  14.682  3.3738 -1.1325  1.6807
  667MPD2    N1 9878   2.330   2.097  14.839 -0.2309 -0.9455 -0.3041
  667MPD2    H7 9879   2.264   2.149  14.895  1.7562  1.8536 -0.5629
  668TMC3    C1 9880   2.471   2.256  14.936 -0.8380 -0.1181 -0.5737
  668TMC3    C2 9881   2.555   2.358  14.913 -0.3549  0.0493  0.1015
  668TMC3    C3 9882   2.568   2.443  15.024 -0.6863 -0.3525 -0.2729
  668TMC3    C4 9883   2.426   2.217  15.064 -0.2950  0.4164  0.3590
  668TMC3    C5 9884   2.439   2.302  15.172  0.4438  0.6628 -0.0821
  668TMC3    C6 9885   2.508   2.418  15.143  0.7046  0.2751 -0.5204
  668TMC3     C 9886   2.454   2.160  14.831 -0.0666 -0.6236  0.5837
  668TMC3     O 9887   2.544   2.149  14.749 -0.0926 -0.3996 -0.3969
  668TMC3     H 9888   2.580   2.372  14.808  2.8423  2.6688  1.2051
  668TMC3    H1 9889   2.357   2.134  15.070 -0.0628  0.1475 -0.6954
  668TMC3    H2 9890   2.528   2.489  15.223 -2.4684  1.8628 -1.1776
  668TMC3    C7 9891   2.400   2.272  15.310 -0.4701 -0.1051 -0.5304
  668TMC3    C8 9892   2.615   2.577  14.998  0.8932  0.2620 -1.2470
  668TMC3    O1 9893   2.431   2.357  15.392  0.0320  0.5730 -0.6578
  668TMC3    O2 9894   2.598   2.653  15.093 -0.0688 -0.2332  0.3640
  669TMC3    C1 9895   0.271   1.960  14.699 -0.2343 -0.5223 -0.1692
  669TMC3    C2 9896   0.144   1.960  14.644  0.5120  0.3808  0.2906
  669TMC3    C3 9897   0.124   2.028  14.524  0.3091 -0.3968 -0.2011
  669TMC3    C4 9898   0.382   2.020  14.640 -0.0422  0.0840 -0.1790
  669TMC3    C5 9899   0.357   2.087  14.520  0.0769  0.2724  0.2147
  669TMC3    C6 9900   0.238   2.078  14.458 -0.1806 -0.2557 -0.2470
  669TMC3     C 9901   0.299   1.877  14.817 -0.5900 -0.5574 -0.2592
  669TMC3     O 9902   0.211   1.865  14.900  0.3012  0.5384 -0.3181
  669TMC3     H 9903   0.064   1.908  14.695  1.0732  0.5850  1.3859
  669TMC3    H1 9904   0.476   2.014  14.694 -0.8244 -0.7528  1.0978
  669TMC3    H2 9905   0.213   2.120  14.362 -0.8522 -0.0676  0.0135
  669TMC3    C7 9906   0.468   2.172  14.470  1.1571 -0.2549 -0.1811
  669TMC3    C8 9907   4.720   2.009  14.453 -0.0774  0.2288 -0.3601
  669TMC3    O1 9908   0.565   2.200  14.538 -0.1762  0.3085  0.3923
  669TMC3    O2 9909   0.010   1.990  14.332  0.0248  0.1834 -0.5188
  670MPD2     C 9910   3.159   4.499  13.053  0.0328 -0.1441  0.1347
  670MPD2    C1 9911   3.259   4.550  13.135  0.0479  0.0422  0.3283
  670MPD2    C2 9912   3.261   4.513  13.268  0.2705  1.0332 -0.2092
  670MPD2    C3 9913   3.158   4.447  13.323 -0.2375 -0.4156  0.6416
  670MPD2    C4 9914   3.067   4.385  13.240 -0.0094  0.0967  0.1094
  670MPD2    C5 9915   3.070   4.411  13.104  0.1213  0.1470 -0.2656
  670MPD2     H 9916   3.342   4.562  13.322  0.9683  0.0682 -0.3752
  670MPD2    H1 9917   2.979   4.339  13.286 -0.3569 -0.9595 -1.6020
  670MPD2    H2 9918   3.135   4.535  12.953 -0.3988  0.6196  0.5111
  670MPD2    H3 9919   2.994   4.358  13.048  0.0974 -2.2491  2.0268
  670MPD2     N 9920   3.143   4.417  13.461 -0.1990  0.3301  0.0439
  670MPD2    H5 9921   3.071   4.350  13.486 -0.9749  1.7045  1.5109
  670MPD2    N1 9922   3.364   4.633  13.084 -0.3989 -0.2139  0.2581
  670MPD2    H7 9923   3.441   4.649  13.148  0.2107  1.0975 -0.7859
  671TMC3    C1 9924   3.187   4.424  13.687  0.4103 -0.2136  0.4031
  671TMC3    C2 9925   3.266   4.469  13.785  0.3210 -0.1499 -0.0219
  671TMC3    C3 9926   3.247   4.417  13.912 -0.1714 -1.0877  0.2225
  671TMC3    C4 9927   3.112   4.313  13.696 -0.3867 -0.3082 -0.1204
  671TMC3    C5 9928   3.101   4.259  13.817  0.2355  0.1988 -0.2570
  671TMC3    C6 9929   3.162   4.314  13.930 -0.0991 -0.3380 -0.2268
  671TMC3     C 9930   3.217   4.472  13.560 -0.1860 -0.1945  0.1066
  671TMC3     O 9931   3.297   4.562  13.554  0.1535 -0.1485  0.2060
  671TMC3     H 9932   3.329   4.556  13.777  0.0637 -0.0750 -1.2979
  671TMC3    H1 9933   3.075   4.260  13.608 -0.5500 -1.6906  0.7765
  671TMC3    H2 9934   3.130   4.286  14.029 -0.2638 -1.3851 -0.5784
  671TMC3    C7 9935   3.020   4.144  13.815  0.5915  0.0623  1.0519
  671TMC3    C8 9936   3.371   4.417  13.996 -0.1708 -0.2807 -0.7195
  671TMC3    O1 9937   2.937   4.138  13.725  0.1316  0.1221  0.5877
  671TMC3    O2 9938   3.459   4.502  13.969  0.1029  0.4498  0.5239
  672MPD2     C 9939   3.222   0.354   1.927 -0.3000  0.3862  0.1435
  672MPD2    C1 9940   3.168   0.434   1.823 -0.4340  0.2798  0.6108
  672MPD2    C2 9941   3.224   0.557   1.799  0.0741 -0.0465  0.4903
  672MPD2    C3 9942   3.338   0.604   1.863 -0.1469  0.1713 -1.4022
  672MPD2    C4 9943   3.395   0.521   1.957 -0.3258  0.1689 -0.0238
  672MPD2    C5 9944   3.332   0.401   1.993  1.0636  0.4617  0.4579
  672MPD2     H 9945   3.177   0.626   1.730  1.1588  0.0656 -0.1309
  672MPD2    H1 9946   3.490   0.544   2.005  0.2530  0.6520 -1.3966
  672MPD2    H2 9947   3.174   0.264   1.964  1.1829 -0.2459  0.5055
  672MPD2    H3 9948   3.383   0.339   2.066 -0.2615 -1.2154 -0.0583
  672MPD2     N 9949   3.398   0.727   1.820 -0.1564  0.1534  0.6998
  672MPD2    H5 9950   3.493   0.741   1.852  0.1352 -0.7380  0.2177
  672MPD2    N1 9951   3.045   0.398   1.752  0.2377  0.0566  0.3412
  672MPD2    H7 9952   3.019   0.469   1.684 -1.2634 -0.1332  0.7411
  673TMC3    C1 9953   2.865   0.275   1.673  0.0609 -0.2880  0.5194
  673TMC3    C2 9954   2.884   0.189   1.571  0.1711 -0.2384  0.2148
  673TMC3    C3 9955   2.874   0.230   1.442  0.2417 -0.2139 -1.0091
  673TMC3    C4 9956   2.835   0.400   1.631 -0.0116  0.2333 -0.0402
  673TMC3    C5 9957   2.812   0.435   1.495 -0.3030 -0.5528  0.5741
  673TMC3    C6 9958   2.836   0.347   1.391 -0.4516 -0.2797 -0.0842
  673TMC3     C 9959   2.980   0.278   1.759 -0.1671  0.5754  0.1254
  673TMC3     O 9960   3.019   0.170   1.797  0.3282  0.2036 -0.0285
  673TMC3     H 9961   2.896   0.084   1.596  1.9315 -0.1281 -0.1558
  673TMC3    H1 9962   2.806   0.468   1.711  2.1441  0.3080  0.6660
  673TMC3    H2 9963   2.830   0.370   1.285 -1.5917  1.3565  0.3354
  673TMC3    C7 9964   2.747   0.560   1.480 -0.1681 -0.6778  0.1797
  673TMC3    C8 9965   2.919   0.131   1.346 -0.6308  0.5851  0.6052
  673TMC3    O1 9966   2.681   0.605   1.574 -0.0355 -0.1571 -0.7668
  673TMC3    O2 9967   2.901   0.010   1.360 -0.2573 -0.6676  0.3155
  674MPD2     C 9968   3.678   0.381   0.325  0.4040 -0.1607 -0.0245
  674MPD2    C1 9969   3.597   0.275   0.283  0.2358 -0.3658 -0.2404
  674MPD2    C2 9970   3.478   0.240   0.349  0.5817 -0.1862 -0.1920
  674MPD2    C3 9971   3.431   0.320   0.446 -0.5596  0.1784 -0.0310
  674MPD2    C4 9972   3.505   0.429   0.484 -0.4432  0.4790 -0.1238
  674MPD2    C5 9973   3.629   0.458   0.427 -0.6104 -0.2257 -0.4189
  674MPD2     H 9974   3.423   0.149   0.326  1.6283 -0.2851 -2.3781
  674MPD2    H1 9975   3.480   0.501   0.560  0.8860 -0.4691  1.2131
  674MPD2    H2 9976   3.779   0.410   0.297  0.5435 -0.6292 -0.0124
  674MPD2    H3 9977   3.678   0.546   0.466 -1.2122  0.4390 -1.1660
  674MPD2     N 9978   3.302   0.294   0.505  0.2939 -0.3618  0.0255
  674MPD2    H5 9979   3.249   0.228   0.450 -0.9373  0.1796  0.5576
  674MPD2    N1 9980   3.632   0.189   0.176 -0.5723 -0.1277  0.0825
  674MPD2    H7 9981   3.559   0.121   0.158 -0.8067  0.1541 -0.0295
  675TMC3    C1 9982   3.781   0.101   0.006 -0.3206  1.2054 -0.0642
  675TMC3    C2 9983   3.710   4.709  17.677  0.6529  0.0092  0.3189
  675TMC3    C3 9984   3.748   4.611  17.586 -0.8505  0.1674  0.4521
  675TMC3    C4 9985   3.893   0.125  17.613  0.0217  0.0154 -0.3107
  675TMC3    C5 9986   3.918   0.034  17.513 -0.4265  0.2683 -0.3690
  675TMC3    C6 9987   3.851   4.641  17.505 -0.5157 -0.7010 -0.6951
  675TMC3     C 9988   3.747   0.205   0.095 -0.8547 -0.4483 -0.9708
  675TMC3     O 9989   3.817   0.304   0.088 -0.2229  0.4044  0.1579
  675TMC3     H 9990   3.620   4.694   0.050  0.0427  0.9871 -0.3750
  675TMC3    H1 9991   3.951   0.217  17.619  1.0021 -0.6154 -0.1407
  675TMC3    H2 9992   3.878   4.576  17.423 -0.9512 -0.2802 -1.1705
  675TMC3    C7 9993   4.012   0.067  17.406 -0.9924 -0.3440  0.3107
  675TMC3    C8 9994   3.662   4.506  17.533  0.0185 -0.6353  0.0739
  675TMC3    O1 9995   4.041   4.697  17.329 -0.3644 -0.2938 -0.6240
  675TMC3    O2 9996   3.676   4.461  17.423 -0.4442 -0.8118  0.2312
  676MPD2     C 9997   1.259   3.257  11.275 -1.1860 -0.2767  0.2781
  676MPD2    C1 9998   1.223   3.197  11.396  0.0749 -0.0635 -0.1374
  676MPD2    C2 9999   1.170   3.066  11.400  0.2138  0.0270  0.8156
  676MPD2    C310000   1.174   2.994  11.279 -0.2965  0.1077  0.6852
  676MPD2    C410001   1.227   3.048  11.168  0.1034 -0.0711  0.1070
  676MPD2    C510002   1.264   3.176  11.162 -0.2093 -0.0533  0.6354
  676MPD2     H10003   1.141   3.023  11.495  0.2523 -3.0071 -0.5630
  676MPD2    H110004   1.226   2.984  11.080 -1.4979  0.0169  0.0507
  676MPD2    H210005   1.306   3.355  11.266  0.5022 -1.1981 -0.8933
  676MPD2    H310006   1.307   3.214  11.070 -0.3389  0.5684  0.8322
  676MPD2     N10007   1.144   2.854  11.268  0.3619  0.1455  0.0608
  676MPD2    H510008   1.165   2.816  11.176  0.1443  1.7953 -0.6727
  676MPD2    N110009   1.209   3.270  11.517 -0.2897  0.0232  0.4806
  676MPD2    H710010   1.163   3.225  11.596  0.1996 -0.3349  0.5629
  677TMC3    C110011   1.200   3.449  11.661  0.3754  0.6251 -0.6765
  677TMC3    C210012   1.092   3.400  11.733  0.9710 -0.1633 -0.2035
  677TMC3    C310013   1.096   3.423  11.865  0.1409 -0.1353 -0.5665
  677TMC3    C410014   1.293   3.531  11.721  0.3203  0.1658  0.2608
  677TMC3    C510015   1.288   3.552  11.853 -0.1259  0.3293  0.1309
  677TMC3    C610016   1.186   3.503  11.925  0.2649 -0.1849 -0.1875
  677TMC3     C10017   1.245   3.400  11.533 -0.1030 -0.3559  0.1839
  677TMC3     O10018   1.334   3.458  11.482  0.2060 -0.5370 -0.4661
  677TMC3     H10019   1.027   3.330  11.682  0.8119 -0.8186  0.8960
  677TMC3    H110020   1.372   3.573  11.659  0.5605  0.2182  0.6052
  677TMC3    H210021   1.179   3.521  12.032  1.7741 -0.9031  0.0244
  677TMC3    C710022   1.400   3.620  11.925  0.5148  0.2643 -0.4970
  677TMC3    C810023   0.983   3.355  11.935  0.3739 -0.3337  0.1441
  677TMC3    O110024   1.422   3.586  12.040 -0.4036  0.7168 -0.1154
  677TMC3    O210025   0.875   3.361  11.877 -0.6210 -0.5816 -0.6230
  678MPD2     C10026   2.180   3.133   1.398  0.1641 -0.3014  0.2286
  678MPD2    C110027   2.213   3.119   1.263 -0.1639  0.9396  0.5922
  678MPD2    C210028   2.123   3.168   1.171  0.8867  0.0467  0.6865
  678MPD2    C310029   2.001   3.222   1.211 -0.0277 -0.7314 -0.3426
  678MPD2    C410030   1.965   3.221   1.345 -0.0309  0.0956  0.6322
  678MPD2    C510031   2.061   3.188   1.438 -0.1643  0.1437 -0.5083
  678MPD2     H10032   2.154   3.146   1.070 -0.5519  1.1847 -0.0101
  678MPD2    H110033   1.864   3.245   1.378  0.4178  0.7325  1.5571
  678MPD2    H210034   2.252   3.108   1.475  0.3033  1.9301  0.8139
  678MPD2    H310035   2.033   3.202   1.542  1.7961  0.0258  0.0208
  678MPD2     N10036   1.906   3.261   1.111  0.5932  0.5062 -0.0174
  678MPD2    H510037   1.935   3.237   1.017  0.9616 -0.6152  0.3849
  678MPD2    N110038   2.321   3.041   1.219 -0.6014  0.5390  0.8285
  678MPD2    H710039   2.345   3.040   1.121 -0.8736 -1.7735  0.7872
  679TMC3    C110040   2.716   2.812   1.294  0.3082  0.1403 -0.0526
  679TMC3    C210041   2.582   2.826   1.324  1.1049  0.1737  0.1097
  679TMC3    C310042   2.521   2.932   1.256  0.4510 -0.2413 -0.5284
  679TMC3    C410043   2.795   2.888   1.208  0.6779 -0.1878 -0.6697
  679TMC3    C510044   2.725   2.989   1.147  0.3357 -0.2043 -0.1964
  679TMC3    C610045   2.591   3.012   1.167  0.1739  0.7117 -0.2043
  679TMC3     C10046   2.784   2.694   1.345  0.0919  0.0850 -0.0176
  679TMC3     O10047   2.886   2.653   1.285 -0.0722  0.3053 -0.1324
  679TMC3     H10048   2.530   2.758   1.391  0.7197 -1.1785 -1.5463
  679TMC3    H110049   2.901   2.868   1.194  0.6862 -1.1648  0.7956
  679TMC3    H210050   2.548   3.103   1.127  1.7201  0.3885 -2.6156
  679TMC3    C710051   2.797   3.076   1.052 -0.1027  0.0951  0.2412
  679TMC3    C810052   2.391   2.965   1.306 -0.1866  0.0786  0.6275
  679TMC3    O110053   2.751   3.191   1.029  0.1415 -0.1467  0.0444
  679TMC3    O210054   2.366   2.929   1.419  0.6745 -0.0651 -0.2137
  680MPD2     C10055   3.796   1.553  13.692 -0.3784 -0.2024 -0.0544
  680MPD2    C110056   3.655   1.536  13.704  0.7315  0.1700  0.0208
  680MPD2    C210057   3.591   1.617  13.789  0.7443 -0.2863 -0.2213
  680MPD2    C310058   3.649   1.724  13.853  0.5644 -0.0806 -0.1191
  680MPD2    C410059   3.784   1.749  13.838  0.5674 -0.5635 -0.3100
  680MPD2    C510060   3.857   1.666  13.754  0.0403 -0.1046  0.3390
  680MPD2     H10061   3.486   1.601  13.810  0.6488  0.7146  0.0497
  680MPD2    H110062   3.837   1.834  13.880  0.4476 -0.7230  0.1582
  680MPD2    H210063   3.864   1.496  13.630  1.6568  0.0734  1.9289
  680MPD2    H310064   3.964   1.673  13.738 -0.3161  0.5135 -1.7223
  680MPD2     N10065   3.576   1.807  13.937 -0.4316 -0.2560  0.4249
  680MPD2    H510066   3.617   1.891  13.975 -0.3381 -1.5379  3.1683
  680MPD2    N110067   3.583   1.443  13.635  0.1480 -0.3310 -0.1334
  680MPD2    H710068   3.484   1.446  13.659  0.0571  1.5502 -0.7713
  681TMC3    C110069   3.539   1.254  13.492 -0.9430  0.6294  0.2618
  681TMC3    C210070   3.415   1.254  13.546  0.2936 -0.3797 -0.1899
  681TMC3    C310071   3.318   1.174  13.498  0.1628  0.6133 -0.5783
  681TMC3    C410072   3.565   1.176  13.381 -0.1072 -0.4779 -0.3595
  681TMC3    C510073   3.462   1.101  13.327  0.0555  0.6276  0.2187
  681TMC3    C610074   3.339   1.095  13.386 -0.2013 -0.4693  0.1339
  681TMC3     C10075   3.637   1.348  13.547 -0.2623 -1.0418  0.3077
  681TMC3     O10076   3.752   1.343  13.500  0.5306 -0.1189 -0.4685
  681TMC3     H10077   3.411   1.310  13.639  0.1411 -1.4716  0.4588
  681TMC3    H110078   3.665   1.179  13.340  0.1841  3.0968  0.6224
  681TMC3    H210079   3.261   1.032  13.344 -1.3341  0.3283  1.0613
  681TMC3    C710080   3.469   1.041  13.192 -0.2144  0.8981 -0.0175
  681TMC3    C810081   3.193   1.166  13.580  0.1909 -0.0286 -0.1556
  681TMC3    O110082   3.404   0.938  13.173  0.0378  0.5783 -0.6407
  681TMC3    O210083   3.111   1.079  13.551  0.2768 -0.3219  0.0956
  682MPD2     C10084   0.186   3.109  11.289 -0.8852 -0.1611 -0.5654
  682MPD2    C110085   0.114   3.021  11.205  0.4000 -0.5626 -0.1839
  682MPD2    C210086   4.698   2.998  11.229  0.4929 -0.8664 -0.7675
  682MPD2    C310087   4.626   3.077  11.326  0.0377  0.4648  0.0090
  682MPD2    C410088   4.700   3.170  11.394 -0.5034 -0.7125  0.0417
  682MPD2    C510089   0.114   3.187  11.377 -0.0361 -0.2899  0.3816
  682MPD2     H10090   4.652   2.917  11.174  0.2887 -1.7081  0.6378
  682MPD2    H110091   4.651   3.229  11.471  0.8798 -0.3267  0.6314
  682MPD2    H210092   0.292   3.129  11.282 -0.4456 -1.0169  3.9100
  682MPD2    H310093   0.174   3.257  11.435 -0.0753 -1.4261  1.7956
  682MPD2     N10094   4.490   3.080  11.338  0.7639  0.0030  0.5099
  682MPD2    H510095   4.442   3.145  11.399  1.7665  0.4328  0.8339
  682MPD2    N110096   0.173   2.942  11.105  0.2733  0.1878  0.0585
  682MPD2    H710097   0.114   2.874  11.058  0.0565  0.0055  0.5831
  683TMC3    C110098   4.093   2.959  11.460  0.1527 -0.4104  0.4751
  683TMC3    C210099   4.023   2.904  11.361 -0.0467 -0.7279 -0.0263
  683TMC3    C310100   4.080   2.901  11.236 -0.4509  0.1922 -0.8000
  683TMC3    C410101   4.213   3.015  11.432  0.2087 -0.0009 -0.3120
  683TMC3    C510102   4.262   3.021  11.307 -0.5560  0.6805 -0.6450
  683TMC3    C610103   4.197   2.972  11.202 -0.0202  0.0313 -0.3618
  683TMC3     C10104   4.052   2.959  11.600  0.2938 -0.2788 -0.2138
  683TMC3     O10105   4.116   3.031  11.670  0.1216 -0.5538 -0.4843
  683TMC3     H10106   3.926   2.859  11.379  0.2038 -1.1126  0.3698
  683TMC3    H110107   4.267   3.056  11.517  0.9631 -1.2979 -0.1644
  683TMC3    H210108   4.230   2.996  11.101  0.5315 -1.1285 -0.4533
  683TMC3    C710109   4.403   2.991  11.283  0.0234  0.2587 -0.0822
  683TMC3    C810110   4.069   2.773  11.173  0.5706  0.4557  0.2184
  683TMC3    O110111   4.427   2.897  11.208 -0.3459 -0.4950  0.3946
  683TMC3    O210112   3.968   2.711  11.206  0.4052  0.3748  0.9272
  684MPD2     C10113   3.349   2.710  16.602 -0.3203  0.4344 -0.2331
  684MPD2    C110114   3.434   2.642  16.516  0.0670 -0.4723  0.6653
  684MPD2    C210115   3.520   2.718  16.441 -0.9192 -0.1416  0.0836
  684MPD2    C310116   3.519   2.855  16.434 -0.0954  0.0997 -0.3146
  684MPD2    C410117   3.433   2.925  16.517  0.1854  1.1753 -0.3528
  684MPD2    C510118   3.360   2.848  16.603  1.2620 -0.1317 -0.1284
  684MPD2     H10119   3.586   2.654  16.383 -1.6342  0.3174 -1.2157
  684MPD2    H110120   3.449   3.031  16.534  1.3667  0.6531  1.8614
  684MPD2    H210121   3.284   2.652  16.667  1.5095 -0.0104  1.2132
  684MPD2    H310122   3.306   2.905  16.678 -1.2554  0.7888 -2.6199
  684MPD2     N10123   3.602   2.925  16.345  0.8606 -0.7286 -0.5244
  684MPD2    H510124   3.603   3.027  16.350 -2.2128 -0.6771 -0.4564
  684MPD2    N110125   3.442   2.501  16.504 -0.8198 -0.2692 -1.0128
  684MPD2    H710126   3.518   2.457  16.454 -0.3639 -3.2886  2.3929
  685TMC3    C110127   3.333   2.280  16.502 -0.1249 -0.0908 -0.2809
  685TMC3    C210128   3.225   2.207  16.468 -0.1117 -0.3971  0.6910
  685TMC3    C310129   3.234   2.071  16.471 -0.1624 -0.3168 -0.0559
  685TMC3    C410130   3.455   2.220  16.546 -0.0376 -0.4227 -0.1058
  685TMC3    C510131   3.455   2.081  16.550  0.2607 -0.9802  0.0652
  685TMC3    C610132   3.344   2.008  16.511 -0.2919  0.2570  0.9077
  685TMC3     C10133   3.323   2.426  16.527  0.5338  0.1091  0.2023
  685TMC3     O10134   3.209   2.463  16.536 -0.3178 -0.1099 -0.6849
  685TMC3     H10135   3.135   2.258  16.437  0.4632  0.3394  0.2444
  685TMC3    H110136   3.541   2.275  16.582 -0.2709 -0.8827  1.1588
  685TMC3    H210137   3.356   1.900  16.517  2.3076  0.5327  0.6230
  685TMC3    C710138   3.583   2.021  16.576 -0.8437 -0.0804 -0.4326
  685TMC3    C810139   3.120   1.989  16.450  0.4306 -0.2441  0.3844
  685TMC3    O110140   3.629   2.064  16.683 -0.3586 -0.0840 -0.8692
  685TMC3    O210141   3.121   1.880  16.506  0.0611 -0.3948 -0.2303
  686MPD2     C10142   0.073   2.448  15.501 -0.0961 -0.3660  0.4817
  686MPD2    C110143   0.148   2.423  15.615 -0.3412  0.4630 -0.5028
  686MPD2    C210144   0.281   2.389  15.607 -0.9577 -0.4559 -0.6589
  686MPD2    C310145   0.345   2.378  15.483 -0.1367  0.3626  0.1821
  686MPD2    C410146   0.274   2.416  15.375 -0.1020 -0.8564  0.5676
  686MPD2    C510147   0.138   2.441  15.381  0.0169 -0.0131 -0.3147
  686MPD2     H10148   0.330   2.361  15.699 -2.0969 -2.7289 -0.7453
  686MPD2    H110149   0.324   2.430  15.279 -0.5298  1.2726  0.6521
  686MPD2    H210150   4.688   2.473  15.497  0.3973  0.9274 -4.7490
  686MPD2    H310151   0.094   2.475  15.288  0.6372 -1.8445 -1.2885
  686MPD2     N10152   0.478   2.328  15.465 -0.0398 -0.3381  0.5361
  686MPD2    H510153   0.501   2.334  15.367  1.5792  0.6954  0.9824
  686MPD2    N110154   0.066   2.404  15.730  0.1236 -0.1889 -0.2888
  686MPD2    H710155   4.690   2.434  15.726  0.6410  1.4338 -0.8321
  687TMC3    C110156   0.541   2.214  15.677 -0.3614  0.2215 -0.5762
  687TMC3    C210157   0.445   2.119  15.662 -0.2751  0.2459  0.0547
  687TMC3    C310158   0.409   2.058  15.780  0.3412 -0.3422  0.7301
  687TMC3    C410159   0.611   2.237  15.792  0.4353  0.1584 -0.8629
  687TMC3    C510160   0.568   2.175  15.908 -0.3700 -0.1644  0.5748
  687TMC3    C610161   0.470   2.083  15.905  0.3698  0.4947  0.1248
  687TMC3     C10162   0.573   2.289  15.556 -0.0614 -0.2471 -0.4446
  687TMC3     O10163   0.692   2.302  15.533 -0.1877 -0.0977  0.3096
  687TMC3     H10164   0.412   2.085  15.564 -0.4540  0.4275  0.0522
  687TMC3    H110165   0.681   2.320  15.794  1.6951 -0.9365  0.6107
  687TMC3    H210166   0.415   2.052  15.993 -1.2200 -0.2482 -1.1216
  687TMC3    C710167   0.617   2.238  16.037 -0.6772  0.6307  0.1988
  687TMC3    C810168   0.269   1.998  15.773  0.3783 -0.1025  0.0346
  687TMC3    O110169   0.664   2.351  16.026 -0.2441  0.5211  0.5937
  687TMC3    O210170   0.239   1.932  15.866 -0.3620 -0.2107  0.4498
  688MPD2     C10171   3.822   1.414  17.447  0.2993  0.2348  0.4066
  688MPD2    C110172   3.844   1.282  17.483 -0.1874  0.2362  0.2238
  688MPD2    C210173   3.944   1.213  17.417  0.3248  0.0088  0.2386
  688MPD2    C310174   4.006   1.274  17.311  0.0309  0.1747 -0.1343
  688MPD2    C410175   3.976   1.405  17.273  0.3795 -0.0572 -0.5345
  688MPD2    C510176   3.891   1.474  17.342  0.0489 -0.1645  0.0257
  688MPD2     H10177   3.964   1.108  17.431  0.1123 -0.1007 -0.2798
  688MPD2    H110178   4.021   1.445  17.184  3.1200 -1.7858  0.0802
  688MPD2    H210179   3.763   1.474  17.515 -0.4250  0.4938 -0.4420
  688MPD2    H310180   3.879   1.577  17.309  4.1587 -0.0902 -1.2308
  688MPD2     N10181   4.105   1.208  17.239 -0.8057 -0.2283 -0.2563
  688MPD2    H510182   4.139   1.265  17.162 -0.5322  0.8496  0.6436
  688MPD2    N110183   3.789   1.224  17.601  0.5183 -0.0268  0.1755
  688MPD2    H710184   3.842   1.147  17.639  1.9273 -0.5419 -2.8461
  689TMC3    C110185   3.676   1.233   0.119 -0.0475  0.2055  0.5636
  689TMC3    C210186   3.660   1.323   0.224 -0.1754  0.0879  0.2671
  689TMC3    C310187   3.586   1.297   0.340 -0.2674  0.6285  0.3819
  689TMC3    C410188   3.620   1.109   0.136 -0.1235 -0.4111 -0.1650
  689TMC3    C510189   3.558   1.073   0.255 -0.1413  0.3739 -0.3234
  689TMC3    C610190   3.547   1.169   0.363  0.3880  0.1169  0.3429
  689TMC3     C10191   3.678   1.277  17.668 -0.5061 -0.5896 -0.3945
  689TMC3     O10192   3.593   1.351  17.625 -0.1517 -0.3333 -0.0169
  689TMC3     H10193   3.669   1.426   0.189 -1.1480  0.1061  0.0439
  689TMC3    H110194   3.636   1.028   0.066 -0.0376  0.3694 -1.0357
  689TMC3    H210195   3.489   1.145   0.451 -2.0208  0.4869 -1.1384
  689TMC3    C710196   3.487   0.943   0.269  0.6379  0.6605  0.3667
  689TMC3    C810197   3.567   1.395   0.444 -0.4294 -0.5918 -0.7791
  689TMC3    O110198   3.473   0.902   0.387 -0.7440 -0.2134 -1.0448
  689TMC3    O210199   3.501   1.364   0.543  0.6706 -0.2491  0.0362
  690MPD2     C10200   1.249   3.531  15.628 -0.1998  0.2477 -0.5149
  690MPD2    C110201   1.230   3.464  15.508 -0.6273 -0.0216 -1.0241
  690MPD2    C210202   1.338   3.423  15.430  0.6573 -0.2279 -0.0409
  690MPD2    C310203   1.464   3.437  15.477 -0.3410 -0.1235  0.3385
  690MPD2    C410204   1.483   3.507  15.596 -0.2364 -0.4328  0.7591
  690MPD2    C510205   1.378   3.558  15.665 -0.6460  0.2287  0.2690
  690MPD2     H10206   1.328   3.366  15.338 -3.1402 -0.8683  0.7966
  690MPD2    H110207   1.583   3.531  15.631 -0.0677 -3.3792  2.3029
  690MPD2    H210208   1.164   3.552  15.691  1.1239 -0.7721  1.6053
  690MPD2    H310209   1.402   3.607  15.758  0.0943 -1.9915  1.2448
  690MPD2     N10210   1.566   3.371  15.406  0.2107  0.4978 -0.4412
  690MPD2    H510211   1.535   3.321  15.323 -2.3381  0.6883  0.3993
  690MPD2    N110212   1.099   3.427  15.472  0.3677 -0.2964  0.3616
  690MPD2    H710213   1.090   3.349  15.409 -1.3911 -0.1455  0.4061
  691TMC3    C110214   0.871   3.406  15.456  0.0421  0.6598  0.1022
  691TMC3    C210215   0.783   3.376  15.556  0.2784  0.3540 -0.4554
  691TMC3    C310216   0.743   3.246  15.571  0.4681  0.1283 -0.1261
  691TMC3    C410217   0.916   3.311  15.361 -0.1428  0.5972  0.1921
  691TMC3    C510218   0.884   3.184  15.383  0.4814  0.6614 -0.0552
  691TMC3    C610219   0.781   3.151  15.474  0.2385 -0.1912  0.2430
  691TMC3     C10220   0.979   3.490  15.503 -0.5413 -0.2826  0.4098
  691TMC3     O10221   0.951   3.591  15.574 -0.4717 -0.5487  0.1381
  691TMC3     H10222   0.757   3.443  15.638 -0.5945 -2.2713  1.4184
  691TMC3    H110223   0.986   3.343  15.285 -0.5468  1.4545  0.1786
  691TMC3    H210224   0.752   3.047  15.485 -0.3530  0.0077  0.6033
  691TMC3    C710225   1.000   3.098  15.389 -0.1835  0.2160 -0.3554
  691TMC3    C810226   0.698   3.198  15.692 -0.2106 -0.8324 -0.5189
  691TMC3    O110227   1.102   3.128  15.330  0.6159 -0.5769 -0.4573
  691TMC3    O210228   0.735   3.087  15.725 -0.4187  0.4060 -0.2165
  692TMC3    C110229   3.069   4.062  15.905  0.2052  0.7687  0.8157
  692TMC3    C210230   3.180   4.116  15.969  0.1295 -0.7130 -0.4249
  692TMC3    C310231   3.279   4.036  16.023  0.9625  0.0185 -0.1031
  692TMC3    C410232   3.046   3.929  15.917 -0.2890 -0.2265 -0.4518
  692TMC3    C510233   3.138   3.862  15.991  0.1307  0.8961  0.3310
  692TMC3    C610234   3.261   3.904  16.021 -0.2583  0.7236 -0.2974
  692TMC3     C10235   2.969   4.144  15.844  0.0820 -0.9149  0.5435
  692TMC3     O10236   2.876   4.084  15.789 -0.2056  0.1746  0.1946
  692TMC3     H10237   3.206   4.220  15.955  0.6423 -0.6045  1.3350
  692TMC3    H110238   2.966   3.879  15.863  0.4658 -2.2608  0.2825
  692TMC3    H210239   3.333   3.836  16.066 -0.3630  1.0995  0.4463
  692TMC3    C710240   3.106   3.719  16.011  0.5447  0.3111 -0.1954
  692TMC3    C810241   3.331   4.085  16.154  0.5133 -0.2236  0.7061
  692TMC3    O110242   2.988   3.695  16.031  0.2733  0.1706 -0.6331
  692TMC3    O210243   3.381   3.998  16.227  0.2002  0.5084 -0.4141
  693MPD2     C10244   2.303   2.540  11.063 -0.4306  0.0827  0.2403
  693MPD2    C110245   2.243   2.460  10.966  0.1213 -0.4252 -0.3915
  693MPD2    C210246   2.324   2.361  10.905 -0.5140 -0.2999  0.5514
  693MPD2    C310247   2.446   2.329  10.951  0.0258  0.3129  0.8908
  693MPD2    C410248   2.496   2.398  11.061  0.4709  1.1441  0.0346
  693MPD2    C510249   2.429   2.508  11.112  0.2052  0.5887  0.2065
  693MPD2     H10250   2.282   2.290  10.834 -1.3960  0.7006  0.0641
  693MPD2    H110251   2.586   2.364  11.111 -0.4999 -0.4658  0.6997
  693MPD2    H210252   2.240   2.612  11.114  0.3266  0.3267  0.8389
  693MPD2    H310253   2.470   2.559  11.199  0.6647 -0.8462  0.8282
  693MPD2     N10254   2.530   2.223  10.908  0.6202  0.0069 -0.2631
  693MPD2    H510255   2.606   2.184  10.962  1.4996  0.6811 -1.0138
  693MPD2    N110256   2.101   2.465  10.962  0.0243  0.3592 -0.5125
  693MPD2    H710257   2.056   2.512  11.039 -0.0911  1.0943 -1.0255
  694TMC3    C110258   1.931   2.306  10.961  0.2503 -0.4604  0.0018
  694TMC3    C210259   1.859   2.226  10.882  0.2769  0.8165  1.0530
  694TMC3    C310260   1.823   2.108  10.934  0.3855  0.4350  0.0805
  694TMC3    C410261   1.969   2.273  11.089  0.4649  0.0961  0.1560
  694TMC3    C510262   1.923   2.154  11.138 -0.0671 -0.4928 -0.1733
  694TMC3    C610263   1.847   2.070  11.064 -0.8538  0.0245  0.3173
  694TMC3     C10264   2.033   2.380  10.884  0.1077  0.0518  0.2245
  694TMC3     O10265   2.058   2.351  10.768 -0.4211  0.4680 -0.4279
  694TMC3     H10266   1.827   2.263  10.786 -2.6397  3.7687  3.1614
  694TMC3    H110267   2.027   2.339  11.153  1.5712 -0.2618 -0.4932
  694TMC3    H210268   1.818   1.976  11.110  2.6617 -0.2315  2.0502
  694TMC3    C710269   1.958   2.113  11.271 -0.1161 -0.1226 -0.1282
  694TMC3    C810270   1.766   2.011  10.846  0.0632 -0.1815  0.6619
  694TMC3    O110271   1.964   2.200  11.359 -0.2496 -0.0071 -0.0415
  694TMC3    O210272   1.711   1.917  10.904 -0.0896 -0.7656  0.2059
  695MPD2     C10273   3.566   4.004  13.769 -1.0890 -0.1718  0.0358
  695MPD2    C110274   3.498   3.890  13.797  0.2247 -0.6003 -0.0354
  695MPD2    C210275   3.374   3.867  13.731  0.1656  0.4244  0.3269
  695MPD2    C310276   3.317   3.949  13.635 -0.1649 -0.3141 -0.0523
  695MPD2    C410277   3.393   4.061  13.607 -0.2747 -0.2713  0.0496
  695MPD2    C510278   3.505   4.092  13.680 -0.4983 -0.1033 -0.3803
  695MPD2     H10279   3.325   3.771  13.744 -1.3184  1.1323 -0.0616
  695MPD2    H110280   3.362   4.137  13.536 -0.5572 -0.8214 -0.4106
  695MPD2    H210281   3.657   4.043  13.814 -1.0351 -1.0361  0.6792
  695MPD2    H310282   3.558   4.185  13.661 -1.4792  0.0040 -2.5699
  695MPD2     N10283   3.189   3.919  13.581 -0.4736 -0.1413 -0.0575
  695MPD2    H510284   3.146   3.829  13.599  0.0408  0.0056  1.8723
  695MPD2    N110285   3.556   3.807  13.891 -0.3170  0.2264 -0.3196
  695MPD2    H710286   3.649   3.832  13.920 -0.4924  2.7922 -2.0316
  696TMC3    C110287   2.990   3.951  13.456 -0.1186  0.1599  0.5687
  696TMC3    C210288   2.946   3.837  13.524  0.1278  0.4789 -1.0526
  696TMC3    C310289   2.808   3.823  13.538  0.4238 -0.9448  0.1816
  696TMC3    C410290   2.898   4.040  13.398  0.4232 -0.7402  0.9427
  696TMC3    C510291   2.764   4.003  13.398 -0.0037 -0.8040  0.3786
  696TMC3    C610292   2.717   3.893  13.467  0.3474  0.3103  0.6272
  696TMC3     C10293   3.120   3.999  13.488  0.0632 -0.2211 -0.4077
  696TMC3     O10294   3.142   4.115  13.453 -0.2017  0.0319  0.3498
  696TMC3     H10295   3.014   3.766  13.571  1.4625  1.3065 -1.7152
  696TMC3    H110296   2.928   4.128  13.342 -2.0520 -0.3047  0.2696
  696TMC3    H210297   2.612   3.867  13.470  0.0786  1.3175 -0.2043
  696TMC3    C710298   2.690   4.127  13.405 -0.0041 -0.1383 -0.3006
  696TMC3    C810299   2.750   3.707  13.604  0.0061 -0.0717 -0.3243
  696TMC3    O110300   2.595   4.133  13.330  0.1704  0.3225 -0.3114
  696TMC3    O210301   2.664   3.646  13.541  0.8708  0.4332 -0.1417
  697MPD2     C10302   2.487   0.523  15.862  0.3881  0.4001 -0.3963
  697MPD2    C110303   2.536   0.506  15.732 -0.1211 -0.2512  0.0673
  697MPD2    C210304   2.557   0.613  15.656  0.5257  0.6123  0.4348
  697MPD2    C310305   2.552   0.740  15.708  0.0320  0.0073  0.5513
  697MPD2    C410306   2.512   0.762  15.836  0.0341 -0.1492  0.3679
  697MPD2    C510307   2.480   0.650  15.912  0.2520 -0.5187 -0.4297
  697MPD2     H10308   2.591   0.622  15.554 -1.6594 -0.4760 -0.3662
  697MPD2    H110309   2.503   0.860  15.881 -0.0229 -0.1842  0.4323
  697MPD2    H210310   2.466   0.441  15.930  0.3734  1.7498  1.2068
  697MPD2    H310311   2.455   0.655  16.017  0.0814  0.7011 -0.5247
  697MPD2     N10312   2.600   0.845  15.623  0.0892 -0.1727 -0.4662
  697MPD2    H510313   2.645   0.831  15.534  0.3450  0.3797 -0.4275
  697MPD2    N110314   2.548   0.374  15.686 -0.3465  0.7056 -0.1344
  697MPD2    H710315   2.506   0.305  15.748 -1.1382  0.0103 -1.4262
  698TMC3    C110316   2.658   1.070  15.553 -0.0360 -0.4263 -0.5866
  698TMC3    C210317   2.679   1.198  15.588 -0.5218 -0.2807  0.5925
  698TMC3    C310318   2.763   1.271  15.508 -0.0813  0.6092 -1.0780
  698TMC3    C410319   2.701   1.017  15.432  0.2817 -0.3774 -0.4695
  698TMC3    C510320   2.754   1.102  15.339 -0.6837 -0.3633 -0.4807
  698TMC3    C610321   2.799   1.230  15.380 -0.1992  0.1881 -0.5459
  698TMC3     C10322   2.590   0.979  15.648 -0.2357 -0.1386 -0.4769
  698TMC3     O10323   2.548   1.035  15.749 -0.0961  0.1217  0.3621
  698TMC3     H10324   2.658   1.237  15.686  3.1947  1.3887  0.7406
  698TMC3    H110325   2.695   0.909  15.420  1.8913 -0.4887 -0.2359
  698TMC3    H210326   2.855   1.294  15.313 -2.3379  2.2876 -0.3584
  698TMC3    C710327   2.836   1.034  15.243  0.2368 -0.4651 -1.3082
  698TMC3    C810328   2.827   1.381  15.576 -1.0621  0.5805 -0.2460
  698TMC3    O110329   2.888   0.930  15.278 -0.6456  0.4701  0.5049
  698TMC3    O210330   2.842   1.366  15.696 -0.0397  0.3022  0.4741
  699TMC3    C110331   3.138   4.081  12.923  0.4964 -0.2474  0.2256
  699TMC3    C210332   3.200   3.985  12.997  0.1378  0.1848  0.3647
  699TMC3    C310333   3.142   3.865  13.026  0.7482  0.4164 -0.6102
  699TMC3    C410334   3.004   4.065  12.901  0.6153  0.6462 -0.3258
  699TMC3    C510335   2.947   3.946  12.937  0.2520 -0.8083  0.3215
  699TMC3    C610336   3.018   3.839  12.987  0.4195 -0.5987 -0.3207
  699TMC3     C10337   3.210   4.181  12.849 -0.1003 -0.0135  0.1926
  699TMC3     O10338   3.148   4.243  12.765  0.2205 -0.0235  0.3544
  699TMC3     H10339   3.305   3.995  13.021  0.8241 -1.7291 -1.7681
  699TMC3    H110340   2.946   4.129  12.835 -0.6667  0.1045  0.2729
  699TMC3    H210341   2.964   3.746  13.004 -1.7053  0.5613 -0.7459
  699TMC3    C710342   2.806   3.953  12.976  0.3418  0.2539 -1.1236
  699TMC3    C810343   3.195   3.804  13.151 -1.2946  1.2298  0.6725
  699TMC3    O110344   2.766   4.068  13.002 -0.7663  0.1477 -0.3307
  699TMC3    O210345   3.271   3.872  13.221 -0.0125  0.1521 -0.2524
  700TMC3    C110346   1.680   1.533  17.322  0.2009 -0.9086  0.5961
  700TMC3    C210347   1.748   1.419  17.341 -0.1321  0.1217 -0.1685
  700TMC3    C310348   1.848   1.415  17.429 -0.5082 -0.5666  0.0675
  700TMC3    C410349   1.708   1.648  17.387  0.5393 -0.2895  0.9243
  700TMC3    C510350   1.825   1.648  17.464 -0.8462  0.2016  0.7019
  700TMC3    C610351   1.892   1.529  17.491 -0.6085 -0.9738  0.3193
  700TMC3     C10352   1.640   1.547  17.186  0.8040 -0.1835  0.3634
  700TMC3     O10353   1.580   1.455  17.131 -0.3144 -0.6988  0.1727
  700TMC3     H10354   1.723   1.332  17.281  1.7831 -0.3935 -0.2383
  700TMC3    H110355   1.639   1.731  17.373  0.5133 -0.1622  1.8315
  700TMC3    H210356   1.981   1.531  17.554  1.0219 -1.6366 -1.9634
  700TMC3    C710357   1.877   1.764  17.529  0.4453  0.9023  0.5908
  700TMC3    C810358   1.936   1.309  17.414 -0.4710  0.3379  0.1627
  700TMC3    O110359   1.996   1.779  17.537  0.2735  0.0687 -0.1002
  700TMC3    O210360   2.055   1.332  17.425  0.3942 -0.2517  0.5709
  701TMC3    C110361   1.821   4.562  15.462  0.0548 -0.0155  0.1177
  701TMC3    C210362   1.853   4.515  15.340  0.2792  0.1528  0.1333
  701TMC3    C310363   1.980   4.549  15.294  0.0765  1.1236 -0.1616
  701TMC3    C410364   1.902   4.661  15.519 -0.4521 -0.5172 -0.9783
  701TMC3    C510365   2.029   4.693  15.469  0.0071  0.2108 -0.2423
  701TMC3    C610366   2.070   4.632  15.358 -0.1986  0.3940 -0.6477
  701TMC3     C10367   1.679   4.542  15.512  0.7392  0.1341 -0.6468
  701TMC3     O10368   1.659   4.563  15.631  0.4711  0.4760  0.1643
  701TMC3     H10369   1.795   4.431  15.304 -0.0102 -0.2610  1.5918
  701TMC3    H110370   1.860   4.700  15.611  0.6880  0.9462 -1.0826
  701TMC3    H210371   2.165   4.654  15.312  0.3235 -0.4927 -0.0034
  701TMC3    C710372   2.085   0.100  15.510 -0.3730  0.7123 -0.0821
  701TMC3    C810373   2.048   4.470  15.194 -0.2140  0.6869 -0.2954
  701TMC3    O110374   2.159   0.149  15.424  0.1844  0.4599  0.0053
  701TMC3    O210375   2.172   4.483  15.190  0.0928 -0.4761  0.5495
  702MPD2     C10376   1.258   2.486  10.744  0.2403  0.1077 -0.4212
  702MPD2    C110377   1.252   2.588  10.833 -0.2560 -0.1828  0.2594
  702MPD2    C210378   1.299   2.717  10.796  0.5101  0.0603 -0.3149
  702MPD2    C310379   1.361   2.731  10.673  0.3990 -0.3233  0.4497
  702MPD2    C410380   1.363   2.623  10.587 -0.5431  0.2308 -0.2912
  702MPD2    C510381   1.318   2.501  10.627  0.4198 -0.6133 -0.1992
  702MPD2     H10382   1.275   2.802  10.858 -0.6938 -0.9881  0.6698
  702MPD2    H110383   1.411   2.633  10.491 -0.4141 -0.2238 -0.2723
  702MPD2    H210384   1.236   2.384  10.776 -0.0232  0.7936  1.5991
  702MPD2    H310385   1.322   2.413  10.564 -3.3230  0.8000 -2.4412
  702MPD2     N10386   1.399   2.855  10.631 -0.6362 -0.1667  0.0528
  702MPD2    H510387   1.386   2.933  10.694  0.0771 -0.3257  0.3927
  702MPD2    N110388   1.210   2.572  10.969 -0.1032 -0.5401 -0.0410
  702MPD2    H710389   1.232   2.648  11.033 -1.5768 -0.4973  0.4173
  703TMC3    C110390   1.495   3.035  10.515 -0.4852 -0.0097 -0.4442
  703TMC3    C210391   1.406   3.124  10.569  0.4276  0.2973  0.5181
  703TMC3    C310392   1.431   3.259  10.563  0.2858  0.3041 -0.2950
  703TMC3    C410393   1.612   3.076  10.455 -0.5182  0.4429  0.6216
  703TMC3    C510394   1.633   3.210  10.445 -0.4360 -0.8370 -0.3801
  703TMC3    C610395   1.548   3.305  10.504 -0.1709 -0.5866  0.0187
  703TMC3     C10396   1.468   2.893  10.518 -0.2686 -0.1983 -0.7788
  703TMC3     O10397   1.518   2.823  10.434 -0.2626  0.0998 -0.5594
  703TMC3     H10398   1.317   3.078  10.610  0.1947  0.0064 -0.3109
  703TMC3    H110399   1.675   3.000  10.409 -0.3340  0.5936  0.6273
  703TMC3    H210400   1.563   3.412  10.490  2.8031 -0.7295  2.0038
  703TMC3    C710401   1.740   3.249  10.356 -0.0382  0.2737 -0.8412
  703TMC3    C810402   1.369   3.337  10.667 -0.5930 -0.3154  1.1673
  703TMC3    O110403   1.728   3.372  10.336 -0.1439 -0.0234 -0.3444
  703TMC3    O210404   1.448   3.422  10.707  0.0200 -0.1008  0.3351
  704TMC3    C110405   3.985   0.833  12.584 -0.2303 -0.1486  0.1172
  704TMC3    C210406   4.094   0.864  12.510 -0.4240  1.2040  1.1608
  704TMC3    C310407   4.217   0.814  12.550  0.5253 -0.2542 -0.5746
  704TMC3    C410408   3.999   0.761  12.701 -0.1880 -0.2341  0.6751
  704TMC3    C510409   4.115   0.697  12.721 -0.9493  0.2188 -0.0226
  704TMC3    C610410   4.227   0.725  12.653 -0.0841 -0.2420  0.0427
  704TMC3     C10411   3.851   0.828  12.530  0.3793  0.6363 -1.1499
  704TMC3     O10412   3.760   0.786  12.600  0.2799 -0.3521 -0.3834
  704TMC3     H10413   4.087   0.937  12.430  0.5675  2.4153  2.1955
  704TMC3    H110414   3.917   0.741  12.769 -0.7023 -0.1214  0.0873
  704TMC3    H210415   4.322   0.677  12.668  1.7942  2.8827 -1.8552
  704TMC3    C710416   4.092   0.550  12.734  0.3427  0.6069 -0.6925
  704TMC3    C810417   4.309   0.823  12.436 -0.0587  0.5933 -0.1086
  704TMC3    O110418   3.989   0.504  12.685 -0.1064 -0.3173 -0.0585
  704TMC3    O210419   4.249   0.821  12.330 -0.3458  0.0293 -0.2881
  705MPD2     C10420   3.278   3.570  16.397  0.0072  0.7591 -0.4808
  705MPD2    C110421   3.315   3.702  16.399 -0.1273  0.1718  0.2718
  705MPD2    C210422   3.221   3.792  16.445  0.2663  0.7033  0.3012
  705MPD2    C310423   3.101   3.753  16.496 -0.1619 -0.3453  0.3257
  705MPD2    C410424   3.075   3.620  16.502 -0.0146 -0.0307 -0.0387
  705MPD2    C510425   3.155   3.524  16.444 -0.1672  0.1706  0.5528
  705MPD2     H10426   3.252   3.895  16.436  3.5101 -0.1622  1.5128
  705MPD2    H110427   2.985   3.584  16.549 -0.5019 -0.1444 -1.0552
  705MPD2    H210428   3.337   3.490  16.354  3.2891  1.5507  2.5493
  705MPD2    H310429   3.128   3.419  16.444  3.3605 -0.7445  0.8219
  705MPD2     N10430   3.003   3.840  16.550  0.2668 -0.1883  0.6670
  705MPD2    H510431   2.915   3.793  16.566  0.7817 -0.4560  2.7099
  705MPD2    N110432   3.437   3.749  16.344  0.5170  0.2850 -0.2919
  705MPD2    H710433   3.447   3.849  16.332 -1.1732  1.1103  5.3411
  706TMC3    C110434   3.802   3.728  16.058 -0.2385 -0.3445 -0.3907
  706TMC3    C210435   3.827   3.857  16.069 -0.7134 -0.4403  0.1200
  706TMC3    C310436   3.750   3.934  16.151  0.0584 -0.0467 -0.8927
  706TMC3    C410437   3.706   3.667  16.125 -0.2698 -0.0553  0.2856
  706TMC3    C510438   3.637   3.741  16.215 -0.0429 -0.3954 -0.6926
  706TMC3    C610439   3.662   3.875  16.237 -0.5049  0.0684  0.6981
  706TMC3     C10440   3.892   3.663  15.962 -0.4711  0.4107  0.7668
  706TMC3     O10441   3.989   3.735  15.935  0.0148 -0.3878  0.7906
  706TMC3     H10442   3.905   3.917  16.023  0.0980 -0.2751  1.7286
  706TMC3    H110443   3.694   3.559  16.118 -0.9695  0.1136 -1.0665
  706TMC3    H210444   3.599   3.930  16.306 -0.7095  0.7564 -0.0388
  706TMC3    C710445   3.531   3.669  16.286 -0.2772 -0.0750 -0.6507
  706TMC3    C810446   3.733   4.078  16.124 -0.8483  0.2252 -0.0286
  706TMC3    O110447   3.539   3.547  16.288  0.0885  0.7986 -0.1683
  706TMC3    O210448   3.764   4.123  16.013 -0.3288  0.5037  0.1049
  707TMC3    C110449   0.093   2.366   1.192 -0.2183 -0.5031 -0.0870
  707TMC3    C210450   0.157   2.308   1.300 -0.4270 -0.0518  0.2628
  707TMC3    C310451   0.118   2.340   1.426  1.2551  0.4156  0.4922
  707TMC3    C410452   4.698   2.433   1.210  0.4813 -0.0587 -0.0590
  707TMC3    C510453   4.672   2.469   1.339  0.3331 -0.6655 -0.1006
  707TMC3    C610454   0.013   2.424   1.448 -0.3211  0.9698 -0.6839
  707TMC3     C10455   0.152   2.351   1.063  0.2145 -1.5472  0.1470
  707TMC3     O10456   0.265   2.303   1.049 -0.6816 -0.1604 -0.1409
  707TMC3     H10457   0.252   2.258   1.282 -0.6066 -0.3759  0.2024
  707TMC3    H110458   4.656   2.496   1.132 -0.3247  0.9873  1.2101
  707TMC3    H210459   4.704   2.451   1.549  1.4742 -1.3054  0.4710
  707TMC3    C710460   4.566   2.558   1.369 -0.2889 -0.7964  0.4376
  707TMC3    C810461   0.201   2.291   1.544 -0.5778  0.2605 -0.0279
  707TMC3    O110462   4.567   2.619   1.477  0.4797 -0.0174  0.1385
  707TMC3    O210463   0.176   2.340   1.654  1.0326  0.1625  0.0781
  708MPD2     C10464   2.008   2.095  13.934  0.1239  0.1147  0.4921
  708MPD2    C110465   1.885   2.071  13.991  0.0795  0.7874 -0.1589
  708MPD2    C210466   1.874   1.964  14.079 -0.2910 -0.2785 -1.2229
  708MPD2    C310467   1.987   1.880  14.107 -0.2676  0.9260 -0.3721
  708MPD2    C410468   2.106   1.909  14.041 -0.4575  0.1432  0.1660
  708MPD2    C510469   2.115   2.012  13.964  0.7083 -0.2127 -0.0534
  708MPD2     H10470   1.776   1.931  14.114 -1.5666  1.2530 -3.3856
  708MPD2    H110471   2.193   1.851  14.069 -0.9623 -0.7321 -0.1014
  708MPD2    H210472   2.021   2.187  13.877  0.9558 -0.8182 -0.8422
  708MPD2    H310473   2.216   2.029  13.930  1.7420 -1.6478  2.2870
  708MPD2     N10474   1.980   1.763  14.192 -0.3476 -0.0300 -0.3040
  708MPD2    H510475   2.037   1.680  14.177 -1.2266 -0.7020  0.0275
  708MPD2    N110476   1.766   2.145  13.968 -0.7131  0.7673 -0.7058
  708MPD2    H710477   1.679   2.109  14.006 -0.9074 -0.1093 -1.9908
  709TMC3    C110478   1.623   2.296  13.854 -0.3774  0.1067  0.0723
  709TMC3    C210479   1.559   2.324  13.736  0.7157 -0.3161 -0.0289
  709TMC3    C310480   1.448   2.399  13.740  0.4631 -0.0945  0.1613
  709TMC3    C410481   1.579   2.342  13.970  0.4217 -0.0235  0.2053
  709TMC3    C510482   1.467   2.414  13.972 -0.0143  0.0788 -0.5633
  709TMC3    C610483   1.385   2.432  13.860  0.2962 -0.3401  0.1295
  709TMC3     C10484   1.748   2.224  13.855 -0.6682 -0.1347 -0.3640
  709TMC3     O10485   1.804   2.217  13.745  0.0744  0.3147  0.1769
  709TMC3     H10486   1.602   2.277  13.649 -0.6888 -1.1214 -0.2858
  709TMC3    H110487   1.637   2.330  14.060 -0.0121 -0.3232  0.4448
  709TMC3    H210488   1.296   2.495  13.866 -0.2449 -1.0141 -0.9567
  709TMC3    C710489   1.401   2.367  14.088  0.3235  0.4643 -0.6251
  709TMC3    C810490   1.364   2.399  13.620  0.6582  0.6181  0.1930
  709TMC3    O110491   1.432   2.401  14.205  0.2212  0.5920  0.3318
  709TMC3    O210492   1.243   2.418  13.640  0.2097  0.1825 -0.3999
  710TMC3    C110493   2.888   3.754   0.481 -0.4602 -0.1640 -0.0777
  710TMC3    C210494   2.980   3.758   0.385  0.4037 -0.4130  0.2121
  710TMC3    C310495   3.063   3.647   0.371  0.0547 -0.2403 -0.0685
  710TMC3    C410496   2.881   3.655   0.567 -0.2103 -0.0320 -0.2566
  710TMC3    C510497   2.957   3.540   0.556 -0.2879 -0.5324  0.0035
  710TMC3    C610498   3.044   3.530   0.446  0.0679 -0.8870 -0.6205
  710TMC3     C10499   2.777   3.845   0.461 -0.3342  0.4025 -0.6234
  710TMC3     O10500   2.764   3.891   0.347 -0.0699  0.5158  0.2729
  710TMC3     H10501   2.971   3.835   0.309 -1.4343 -0.3650  0.4926
  710TMC3    H110502   2.809   3.662   0.647 -1.3702 -4.0894 -0.9941
  710TMC3    H210503   3.083   3.431   0.422  1.3246 -0.7352  0.8021
  710TMC3    C710504   2.933   3.429   0.639  0.0686 -0.2352  0.1553
  710TMC3    C810505   3.124   3.626   0.242  0.2171 -0.0474  0.2346
  710TMC3    O110506   2.831   3.432   0.711  0.5256  0.3571  0.1825
  710TMC3    O210507   3.074   3.673   0.141 -0.2895  0.2339 -0.4568
  711TMC3    C110508   2.859   4.664  14.680  0.4785  0.2852 -0.3046
  711TMC3    C210509   2.832   4.719  14.801  0.1456 -0.6546  0.3148
  711TMC3    C310510   2.931   0.034  14.887 -0.1040  0.3244  0.0392
  711TMC3    C410511   2.988   4.647  14.640 -0.2238 -0.0501  0.4457
  711TMC3    C510512   3.084   4.655  14.737  0.1187 -0.8100 -0.8015
  711TMC3    C610513   3.063   0.007  14.852 -0.8768  0.4503 -0.0369
  711TMC3     C10514   2.772   4.551  14.646  0.7195  0.2747 -0.4408
  711TMC3     O10515   2.802   4.477  14.547 -0.9126  0.4279 -0.1692
  711TMC3     H10516   2.729   0.018  14.827 -0.3564 -0.4551 -1.8933
  711TMC3    H110517   3.009   4.599  14.545 -3.3366  1.5277 -1.0257
  711TMC3    H210518   3.146   0.039  14.913 -0.3129  0.0532 -0.5974
  711TMC3    C710519   3.149   4.530  14.760  1.0128  0.0789  0.1044
  711TMC3    C810520   2.898   4.701  15.014 -0.5309 -0.0717  0.0445
  711TMC3    O110521   3.230   4.533  14.848 -0.0535 -0.5142  0.5310
  711TMC3    O210522   2.797   4.636  15.018  0.9482 -0.3856 -0.6270
  712MPD2     C10523   4.250   0.788  13.584  0.3966 -0.1402 -0.0204
  712MPD2    C110524   4.141   0.842  13.518 -0.2157  0.1119 -0.6178
  712MPD2    C210525   4.150   0.964  13.459  0.4949 -0.1387  0.0424
  712MPD2    C310526   4.267   1.034  13.472 -0.4916  1.1717 -0.0510
  712MPD2    C410527   4.372   0.981  13.551  0.5833 -0.1843 -0.0511
  712MPD2    C510528   4.361   0.858  13.598  0.6290  0.6473  0.2583
  712MPD2     H10529   4.068   0.999  13.397  1.3427  0.9891 -0.4411
  712MPD2    H110530   4.465   1.035  13.560  1.3104 -1.5144  0.4227
  712MPD2    H210531   4.248   0.694  13.638  0.2344  0.3261  0.7859
  712MPD2    H310532   4.450   0.811  13.640 -0.2645 -1.7166 -0.5130
  712MPD2     N10533   4.300   1.161  13.411  0.4407  0.1554 -0.0186
  712MPD2    H510534   4.386   1.206  13.441  0.6033 -1.3286  1.7420
  712MPD2    N110535   4.019   0.770  13.509  0.4050  0.1359 -0.4497
  712MPD2    H710536   3.934   0.806  13.466  0.3106  2.1025  1.4098
  713TMC3    C110537   4.264   1.370  13.281 -0.0816  0.4993  0.3047
  713TMC3    C210538   4.367   1.432  13.345 -0.7781  0.2205  0.2892
  713TMC3    C310539   4.397   1.557  13.303  0.0208  0.3502  0.1069
  713TMC3    C410540   4.177   1.432  13.191 -0.6088  0.2125 -0.1790
  713TMC3    C510541   4.203   1.569  13.178 -0.1064  0.6812 -0.0816
  713TMC3    C610542   4.318   1.630  13.220  0.8633  0.0627 -0.8230
  713TMC3     C10543   4.215   1.238  13.327  0.0587  0.5788 -0.5894
  713TMC3     O10544   4.111   1.197  13.278 -0.4525 -0.6782 -0.1435
  713TMC3     H10545   4.411   1.383  13.431 -2.2688 -2.4616 -0.4507
  713TMC3    H110546   4.109   1.373  13.131 -0.2124  0.8341 -1.2484
  713TMC3    H210547   4.336   1.735  13.199 -0.3977  0.2678 -0.8990
  713TMC3    C710548   4.112   1.648  13.099  0.2771  0.4622 -0.1113
  713TMC3    C810549   4.509   1.623  13.367 -0.0634 -0.0369 -0.8757
  713TMC3    O110550   4.140   1.767  13.081  0.1462 -0.0148  0.3527
  713TMC3    O210551   4.514   1.742  13.340 -0.4680  0.4523 -0.2233
  714MPD2     C10552   1.008   4.084   1.586 -0.2071  0.0775  0.0259
  714MPD2    C110553   1.087   4.062   1.479 -0.2388 -0.2420 -0.0069
  714MPD2    C210554   1.053   4.116   1.358  0.7301  0.3867  0.0645
  714MPD2    C310555   0.928   4.177   1.346  0.1692  0.7598  0.4134
  714MPD2    C410556   0.845   4.185   1.455  1.1902 -0.6771  0.1752
  714MPD2    C510557   0.884   4.142   1.577 -0.0431  0.1961  0.2569
  714MPD2     H10558   1.119   4.105   1.272  1.1497 -0.6214  0.5111
  714MPD2    H110559   0.742   4.213   1.439  1.0271 -1.5477 -0.2725
  714MPD2    H210560   1.039   4.052   1.685 -2.0257  1.4786  1.0550
  714MPD2    H310561   0.814   4.160   1.657  1.1922 -2.3954  1.9112
  714MPD2     N10562   0.875   4.227   1.230 -0.4776 -0.0698 -0.1116
  714MPD2    H510563   0.780   4.262   1.236  0.2323  2.0129 -1.0674
  714MPD2    N110564   1.204   3.980   1.499 -0.3240  0.3833  0.6915
  714MPD2    H710565   1.219   3.940   1.591  3.0721 -0.9435 -0.4224
  715TMC3    C110566   1.390   3.857   1.438 -0.4096  0.0483 -0.1301
  715TMC3    C210567   1.447   3.764   1.350  0.2788 -0.1911  0.6249
  715TMC3    C310568   1.576   3.731   1.373 -0.0543  0.0717  0.1784
  715TMC3    C410569   1.449   3.891   1.555 -0.1273  0.0647 -0.1967
  715TMC3    C510570   1.580   3.852   1.573  0.1201 -0.2241 -0.1009
  715TMC3    C610571   1.644   3.776   1.486 -1.0528  0.0517  0.2321
  715TMC3     C10572   1.278   3.935   1.393 -0.0118 -0.5644  0.6859
  715TMC3     O10573   1.268   3.954   1.273 -0.3109  0.6059 -0.0212
  715TMC3     H10574   1.396   3.750   1.255  1.8232  0.9969 -0.3744
  715TMC3    H110575   1.407   3.976   1.607 -1.1142  0.6850 -1.9675
  715TMC3    H210576   1.749   3.757   1.510 -1.7031 -1.7769  1.6309
  715TMC3    C710577   1.643   3.913   1.695  0.3811 -0.1967 -0.6319
  715TMC3    C810578   1.650   3.728   1.245 -0.3168  0.4504 -0.0523
  715TMC3    O110579   1.766   3.916   1.692  0.2513 -0.2435 -0.0742
  715TMC3    O210580   1.576   3.725   1.146 -0.5358 -0.1145  0.0279
  716MPD2     C10581   0.950   2.560  10.384  0.2964 -0.4141  0.2547
  716MPD2    C110582   0.944   2.611  10.257 -0.4728 -0.0314  0.8890
  716MPD2    C210583   1.032   2.568  10.165 -0.3627 -0.1001  0.3950
  716MPD2    C310584   1.114   2.459  10.194  0.5018 -0.1105  0.2676
  716MPD2    C410585   1.116   2.403  10.322 -0.1822  0.1756  0.9263
  716MPD2    C510586   1.030   2.451  10.417  0.2596 -0.7796  0.1957
  716MPD2     H10587   1.044   2.613  10.068  1.6312  0.2778  0.8039
  716MPD2    H110588   1.185   2.327  10.359 -0.7629 -0.8415 -0.0628
  716MPD2    H210589   0.896   2.593  10.472 -2.6451 -4.4852 -0.0378
  716MPD2    H310590   1.036   2.420  10.521  2.2790  2.8145  1.1375
  716MPD2     N10591   1.180   2.394  10.088  1.0754 -0.4223 -0.6130
  716MPD2    H510592   1.177   2.445  10.001 -1.0798 -1.6987 -1.2851
  716MPD2    N110593   0.848   2.705  10.229  0.3695 -0.1328 -0.4530
  716MPD2    H710594   0.785   2.715  10.307  0.3537  1.6715 -0.7044
  717TMC3    C110595   1.305   2.258   9.957 -0.0295  0.0151  1.2289
  717TMC3    C210596   1.227   2.289   9.850 -0.7065 -0.5094  0.0764
  717TMC3    C310597   1.261   2.234   9.724 -0.5800  0.5941  0.2808
  717TMC3    C410598   1.396   2.162   9.945  0.1817  0.1874 -0.3401
  717TMC3    C510599   1.423   2.101   9.825  0.5213 -0.3218  0.0795
  717TMC3    C610600   1.364   2.139   9.713 -0.0744 -0.0188 -0.1015
  717TMC3     C10601   1.266   2.290  10.100 -0.3047  0.0616  0.7891
  717TMC3     O10602   1.318   2.231  10.196 -0.4687  0.2118 -0.1828
  717TMC3     H10603   1.143   2.357   9.859  0.1464  0.5115  0.2607
  717TMC3    H110604   1.452   2.131  10.032  0.6551 -0.8041 -0.9903
  717TMC3    H210605   1.408   2.109   9.619 -0.3699  1.3887 -0.6887
  717TMC3    C710606   1.532   2.008   9.814  0.1023  0.0683  0.9118
  717TMC3    C810607   1.183   2.281   9.612  0.6826 -1.1008  0.3945
  717TMC3    O110608   1.581   1.983   9.699 -0.0255 -0.0270  0.5336
  717TMC3    O210609   1.107   2.375   9.637  0.4661 -0.3311  0.0710
  718MPD2     C10610   1.078   1.602  13.512  0.1325  0.1568 -0.5048
  718MPD2    C110611   1.074   1.551  13.380 -0.5931  0.0486 -0.1193
  718MPD2    C210612   1.054   1.414  13.354  0.3139 -0.4633  0.4753
  718MPD2    C310613   1.052   1.330  13.460 -0.3952 -0.1472 -0.2010
  718MPD2    C410614   1.064   1.371  13.590  0.4193 -1.0004 -0.1675
  718MPD2    C510615   1.062   1.511  13.613  0.5470 -0.1393  0.0936
  718MPD2     H10616   1.046   1.370  13.256  5.1012  1.0226 -0.5643
  718MPD2    H110617   1.081   1.311  13.678 -0.6353 -0.8381  0.1515
  718MPD2    H210618   1.094   1.704  13.546 -1.0660 -1.1653  4.1559
  718MPD2    H310619   1.079   1.552  13.712 -1.8108  0.5098  0.2299
  718MPD2     N10620   1.036   1.197  13.421  0.1807 -0.0202  0.0674
  718MPD2    H510621   1.030   1.189  13.320  0.1111 -0.7127  0.1246
  718MPD2    N110622   1.101   1.648  13.281 -0.8648 -0.3528  0.4539
  718MPD2    H710623   1.134   1.742  13.301  1.4291 -1.1454  0.3676
  719TMC3    C110624   1.098   1.723  13.051 -0.3333  0.0214  0.6132
  719TMC3    C210625   1.089   1.659  12.929  0.0759  0.5594  0.4008
  719TMC3    C310626   1.192   1.646  12.839  0.0061 -0.5224 -0.2774
  719TMC3    C410627   1.219   1.784  13.071 -0.1377 -0.3527 -0.2499
  719TMC3    C510628   1.317   1.790  12.974 -0.7692 -0.2365 -0.6177
  719TMC3    C610629   1.314   1.704  12.867 -0.2304  0.4062 -0.8742
  719TMC3     C10630   1.072   1.622  13.151  0.1839 -0.1436 -0.0386
  719TMC3     O10631   1.039   1.516  13.094  0.4825  0.2262  0.2018
  719TMC3     H10632   0.995   1.616  12.899  0.1336  0.3160  0.5675
  719TMC3    H110633   1.229   1.840  13.163 -0.0057 -0.6553 -0.0768
  719TMC3    H210634   1.399   1.686  12.802 -0.2555 -1.2679 -0.4458
  719TMC3    C710635   1.435   1.861  13.008  0.8119  0.5628  0.3042
  719TMC3    C810636   1.192   1.516  12.775  0.3819  0.2754  1.2674
  719TMC3    O110637   1.457   1.882  13.127 -0.3874 -0.3211  0.1893
  719TMC3    O210638   1.268   1.502  12.675  0.3867 -0.1950 -0.1541
  720MPD2     C10639   3.910   2.867  13.534 -0.4162 -0.4282  0.0982
  720MPD2    C110640   3.849   2.884  13.653 -0.1226 -0.6508 -0.1739
  720MPD2    C210641   3.913   2.837  13.767  0.4659 -0.3578 -0.7801
  720MPD2    C310642   4.048   2.803  13.763 -0.9114 -0.1561  0.5629
  720MPD2    C410643   4.111   2.807  13.641  0.0608 -0.4478 -0.2586
  720MPD2    C510644   4.038   2.828  13.527 -0.4018 -0.0874 -0.4287
  720MPD2     H10645   3.861   2.847  13.861  0.0020 -1.4737 -0.9172
  720MPD2    H110646   4.218   2.793  13.627  0.2785  0.2558  0.7116
  720MPD2    H210647   3.862   2.904  13.445  0.1955  0.9911  0.3572
  720MPD2    H310648   4.085   2.848  13.431  0.8514  0.2173  0.2633
  720MPD2     N10649   4.115   2.764  13.883  0.4974 -1.1278  0.0899
  720MPD2    H510650   4.061   2.742  13.966  0.9355  0.1647  0.7051
  720MPD2    N110651   3.721   2.950  13.653  0.3579 -0.7804  0.3370
  720MPD2    H710652   3.697   2.991  13.742 -1.6715 -3.8703  1.2065
  721TMC3    C110653   4.298   2.715  14.033  0.0433 -0.3339 -0.2403
  721TMC3    C210654   4.225   2.626  14.102 -0.5668 -0.1614 -0.0452
  721TMC3    C310655   4.287   2.579  14.216 -0.0578  0.3223  0.1025
  721TMC3    C410656   4.422   2.757  14.071 -0.0425  0.0944  0.4102
  721TMC3    C510657   4.477   2.700  14.179 -0.4119  0.0435 -0.3891
  721TMC3    C610658   4.416   2.602  14.255  0.4293 -0.1167  0.9391
  721TMC3     C10659   4.253   2.745  13.896 -0.3077 -0.9370 -0.9697
  721TMC3     O10660   4.338   2.770  13.812 -0.0037 -0.1697 -0.7804
  721TMC3     H10661   4.129   2.590  14.066 -0.2593 -1.9298  0.9076
  721TMC3    H110662   4.470   2.827  14.003 -1.3296  0.8241  0.2661
  721TMC3    H210663   4.456   2.564  14.348  1.6361  0.1111  0.5205
  721TMC3    C710664   4.624   2.708  14.176  0.2872 -0.4030 -0.3227
  721TMC3    C810665   4.192   2.508  14.303  0.0119  0.4220 -0.0259
  721TMC3    O110666   4.673   2.760  14.076  0.4147 -0.2220 -0.1196
  721TMC3    O210667   4.071   2.523  14.276 -0.4877  0.1509  0.3443
  722MPD2     C10668   3.008   1.118  13.214  0.1529  0.7361 -0.3870
  722MPD2    C110669   2.956   1.212  13.129 -0.6964 -0.3099  0.3811
  722MPD2    C210670   2.824   1.250  13.141 -0.3770 -0.1762 -0.1164
  722MPD2    C310671   2.747   1.192  13.244 -0.0375  0.5553 -0.0480
  722MPD2    C410672   2.797   1.093  13.326  0.1758 -0.4783  0.7997
  722MPD2    C510673   2.924   1.053  13.305 -0.1684 -0.3195 -0.1695
  722MPD2     H10674   2.798   1.339  13.085  0.9502  1.1870  1.4474
  722MPD2    H110675   2.747   1.071  13.420 -0.3559  0.2437  0.6867
  722MPD2    H210676   3.107   1.074  13.217  0.5624  1.4552 -3.3264
  722MPD2    H310677   2.964   0.977  13.371  0.8220 -0.2965 -0.7402
  722MPD2     N10678   2.621   1.255  13.254  0.6361 -0.1153 -0.2793
  722MPD2    H510679   2.601   1.333  13.192 -1.3714 -1.3753 -1.2183
  722MPD2    N110680   3.030   1.269  13.026 -0.3866  0.7010  0.1321
  722MPD2    H710681   2.984   1.325  12.955  0.5241 -1.0289 -1.8328
  723TMC3    C110682   2.411   1.310  13.335 -0.3174 -0.2153  0.6735
  723TMC3    C210683   2.290   1.252  13.371 -0.9043 -0.0587 -0.0734
  723TMC3    C310684   2.173   1.326  13.340  0.3287 -0.1628  0.1254
  723TMC3    C410685   2.417   1.436  13.281 -0.4182  0.2588  0.7950
  723TMC3    C510686   2.302   1.508  13.277  0.3194 -0.5944 -0.3373
  723TMC3    C610687   2.179   1.455  13.306  0.7558 -0.0917 -0.0499
  723TMC3     C10688   2.527   1.223  13.351  0.4368  0.4103 -0.4225
  723TMC3     O10689   2.515   1.115  13.409  0.7996  0.7480  0.3481
  723TMC3     H10690   2.288   1.151  13.409  1.6996 -0.4682 -1.0544
  723TMC3    H110691   2.509   1.487  13.253 -0.2525  0.2850  1.3863
  723TMC3    H210692   2.086   1.510  13.292  1.8406  1.6295 -0.5959
  723TMC3    C710693   2.304   1.632  13.201 -0.6258 -0.2840  0.0108
  723TMC3    C810694   2.049   1.262  13.349 -0.0467  0.1752  0.4030
  723TMC3    O110695   2.368   1.640  13.103  0.6231 -0.7479  0.1293
  723TMC3    O210696   1.954   1.339  13.363  0.6426  0.1260  0.7961
  724TMC3    C110697   2.064   0.631   9.540 -0.3639 -0.3077  0.2166
  724TMC3    C210698   2.125   0.508   9.573  0.7226  0.1110 -0.7149
  724TMC3    C310699   2.223   0.453   9.494 -1.0002  0.2244  0.5117
  724TMC3    C410700   2.095   0.696   9.429  0.4008  0.1583  0.1934
  724TMC3    C510701   2.187   0.640   9.344  0.0810  0.1720 -0.5119
  724TMC3    C610702   2.253   0.527   9.381  0.1942  0.2491 -0.6153
  724TMC3     C10703   1.982   0.692   9.638  0.1934 -0.3525 -0.1590
  724TMC3     O10704   1.957   0.809   9.614 -0.2091 -0.3561  0.2517
  724TMC3     H10705   2.124   0.486   9.680  1.2911  2.3129 -0.2593
  724TMC3    H110706   2.029   0.777   9.399  1.1645 -0.0893 -2.0905
  724TMC3    H210707   2.327   0.486   9.313  0.8907 -0.1511  0.3804
  724TMC3    C710708   2.225   0.701   9.223  0.0536 -0.4060 -0.0257
  724TMC3    C810709   2.307   0.365   9.567 -0.1637  0.7853 -0.2655
  724TMC3    O110710   2.286   0.626   9.151  0.2573  0.1839  0.9236
  724TMC3    O210711   2.265   0.301   9.666 -0.2887  0.0091 -0.7718
  725TMC3    C110712   3.826   2.695  13.014  0.8917  0.6517  0.0364
  725TMC3    C210713   3.718   2.740  12.944  0.1445 -0.4123 -0.2848
  725TMC3    C310714   3.719   2.716  12.813  0.5764 -0.2227 -0.9508
  725TMC3    C410715   3.928   2.632  12.958  0.4719  0.4757 -0.2068
  725TMC3    C510716   3.926   2.614  12.825 -0.3581 -0.0958  0.1949
  725TMC3    C610717   3.827   2.662  12.746 -0.8082  0.2439  0.4724
  725TMC3     C10718   3.887   2.807  13.083 -0.1883 -0.4004  0.6123
  725TMC3     O10719   4.004   2.822  13.060  0.2192  0.1872  0.1339
  725TMC3     H10720   3.620   2.749  12.990  0.8600  0.2913  1.1024
  725TMC3    H110721   4.010   2.589  13.015 -1.1785 -0.2418  1.6408
  725TMC3    H210722   3.830   2.653  12.638  0.1786  0.5284  0.4752
  725TMC3    C710723   4.054   2.594  12.761  0.0486  0.5084 -0.3300
  725TMC3    C810724   3.620   2.777  12.733 -0.6136  0.0948 -0.5005
  725TMC3    O110725   4.052   2.545  12.650 -0.0567 -0.1671 -0.0347
  725TMC3    O210726   3.502   2.745  12.743  0.0253  0.1071 -0.5007
  726MPD2     C10727   2.609   0.175  10.283 -0.2562  0.3960  0.1771
  726MPD2    C110728   2.668   0.158  10.408 -0.7082  0.0820  0.2049
  726MPD2    C210729   2.607   0.065  10.489 -0.3008 -0.3722 -0.6697
  726MPD2    C310730   2.495   4.715  10.444 -0.0656 -0.3950 -0.5582
  726MPD2    C410731   2.429   0.022  10.325 -0.0386 -0.0723 -0.0254
  726MPD2    C510732   2.498   0.105  10.241  0.0289  0.3744 -0.2907
  726MPD2     H10733   2.647   0.044  10.588  3.0612 -0.4364 -2.0441
  726MPD2    H110734   2.339   4.693  10.291 -0.9584 -1.4515  4.4311
  726MPD2    H210735   2.646   0.247  10.211  0.9300 -0.0151  0.3701
  726MPD2    H310736   2.459   0.135  10.144  1.1455  1.1474 -0.5121
  726MPD2     N10737   2.432   4.616  10.517  0.0561  0.5469  0.1023
  726MPD2    H510738   2.345   4.576  10.484 -0.6619  0.6214  1.9168
  726MPD2    N110739   2.781   0.229  10.445 -0.3207  0.0295 -0.5917
  726MPD2    H710740   2.825   0.208  10.534  0.1093  2.3745 -0.2551
  727TMC3    C110741   2.947   0.397  10.443  0.2176 -0.1420 -0.2419
  727TMC3    C210742   3.034   0.457  10.352  0.2719  0.1822 -0.1388
  727TMC3    C310743   3.102   0.569  10.390  0.6265 -1.0195  0.3622
  727TMC3    C410744   2.933   0.452  10.564  0.0095  0.7743 -0.2685
  727TMC3    C510745   3.000   0.568  10.593 -0.0879  0.4797 -0.4129
  727TMC3    C610746   3.085   0.637  10.509  0.0713 -0.8946 -0.6211
  727TMC3     C10747   2.841   0.329  10.374 -0.1040 -0.2680  0.4806
  727TMC3     O10748   2.811   0.383  10.269  0.1938  0.2018  0.6596
  727TMC3     H10749   3.054   0.418  10.253  0.8521  1.0877 -0.3833
  727TMC3    H110750   2.880   0.400  10.643 -0.1928  0.3438 -0.6883
  727TMC3    H210751   3.156   0.705  10.553  0.0789 -1.3806  0.1098
  727TMC3    C710752   3.005   0.599  10.729  0.1292 -0.9987 -0.2424
  727TMC3    C810753   3.224   0.602  10.308  0.3465  0.1373 -0.1418
  727TMC3    O110754   3.037   0.501  10.795 -0.1113  0.3499 -0.4974
  727TMC3    O210755   3.256   0.515  10.229  0.0750 -0.0134  0.2688
  728TMC3    C110756   1.780   3.254  15.372 -0.3299  0.4471  0.5515
  728TMC3    C210757   1.876   3.179  15.431  0.7017 -0.0674 -0.2180
  728TMC3    C310758   1.968   3.125  15.344  0.1944 -0.1109 -0.1979
  728TMC3    C410759   1.771   3.284  15.236  0.1502  0.1521  0.2191
  728TMC3    C510760   1.879   3.248  15.162  0.0660 -0.0569  0.0166
  728TMC3    C610761   1.976   3.160  15.215 -0.0438 -0.0195 -0.4162
  728TMC3     C10762   1.684   3.327  15.464 -0.5875  0.3555 -0.1049
  728TMC3     O10763   1.728   3.335  15.580 -0.2679  0.0153 -0.5411
  728TMC3     H10764   1.883   3.160  15.537 -2.1768 -0.1298 -0.0492
  728TMC3    H110765   1.690   3.344  15.196  0.7387  0.3645 -0.6542
  728TMC3    H210766   2.062   3.129  15.157  0.2220 -1.1277  0.5853
  728TMC3    C710767   1.869   3.230  15.014  0.3670  0.2613 -0.5608
  728TMC3    C810768   2.062   3.016  15.382 -0.1745 -0.4318 -0.2496
  728TMC3    O110769   1.779   3.156  14.974  0.6509  0.7379  0.0335
  728TMC3    O210770   2.155   2.992  15.307 -0.3346  0.4257  0.0983
  729MPD2     C10771   3.648   0.197  16.394  0.5776 -0.1217  0.0519
  729MPD2    C110772   3.764   0.128  16.432  0.4575 -0.0344 -0.0486
  729MPD2    C210773   3.755   0.025  16.520  0.5284 -0.1966 -0.0196
  729MPD2    C310774   3.635   0.003  16.589  0.4716 -0.5172 -0.3376
  729MPD2    C410775   3.523   0.072  16.557  0.1185 -0.4465  0.6433
  729MPD2    C510776   3.531   0.164  16.459 -0.4511  0.1344  0.2897
  729MPD2     H10777   3.847   4.699  16.554  1.4430  1.1287 -0.6529
  729MPD2    H110778   3.426   0.055  16.603 -1.1819 -0.2464 -1.9763
  729MPD2    H210779   3.653   0.270  16.314 -0.7285 -1.9009 -1.6621
  729MPD2    H310780   3.439   0.212  16.429 -0.6601  0.2563  1.1246
  729MPD2     N10781   3.625   4.636  16.690  0.4668  0.2565  0.2075
  729MPD2    H510782   3.542   4.644  16.748  0.8486  1.6095  0.5877
  729MPD2    N110783   3.887   0.160  16.367  0.1312  0.2370 -0.2333
  729MPD2    H710784   3.878   0.240  16.305 -1.6495 -1.7415 -2.5272
  730TMC3    C110785   3.701   4.497  16.869 -0.1753 -0.4610 -0.3985
  730TMC3    C210786   3.795   4.400  16.911  0.5905 -0.2904  0.2386
  730TMC3    C310787   3.846   4.406  17.039 -0.1570  0.2857 -0.0341
  730TMC3    C410788   3.655   4.579  16.966  0.4505 -0.0564 -0.1339
  730TMC3    C510789   3.712   4.599  17.086 -0.8841 -0.2868 -0.0845
  730TMC3    C610790   3.818   4.517  17.123 -0.0161 -0.2748 -0.0795
  730TMC3     C10791   3.719   4.544  16.734  0.5555 -0.4113  0.6159
  730TMC3     O10792   3.806   4.498  16.666  0.0411  0.0782  0.2189
  730TMC3     H10793   3.827   4.328  16.837  0.1614  0.0591 -0.2849
  730TMC3    H110794   3.580   4.652  16.936  1.1838  1.6609  2.1521
  730TMC3    H210795   3.872   4.536  17.214  0.2459 -2.9031  0.2971
  730TMC3    C710796   3.732   0.015  17.106 -0.5538 -0.3281 -0.3042
  730TMC3    C810797   3.990   4.396  17.011  0.2360 -0.5542 -0.6949
  730TMC3    O110798   3.785   0.082  17.021 -0.2628 -0.1427  0.4035
  730TMC3    O210799   4.027   4.295  16.962 -0.0440  0.0622  0.0054
  731MPD2     C10800   3.569   2.567  12.416 -0.4889  0.0259 -0.3038
  731MPD2    C110801   3.687   2.511  12.368 -0.2803  0.0673  0.6452
  731MPD2    C210802   3.762   2.427  12.450  0.9489  0.2094  0.0258
  731MPD2    C310803   3.706   2.380  12.565  0.2626  0.2172 -0.0651
  731MPD2    C410804   3.585   2.429  12.606  0.1898  0.2322  0.1163
  731MPD2    C510805   3.521   2.520  12.532 -0.2625 -1.1474  0.6730
  731MPD2     H10806   3.856   2.380  12.422  0.6693 -0.6299  0.5143
  731MPD2    H110807   3.532   2.391  12.693  0.2383 -2.4876 -1.0439
  731MPD2    H210808   3.506   2.635  12.360  3.2351  1.9446 -2.2022
  731MPD2    H310809   3.431   2.562  12.576 -0.5878 -0.8009 -0.3347
  731MPD2     N10810   3.777   2.280  12.644  0.2609 -0.1484  1.2039
  731MPD2    H510811   3.867   2.253  12.606 -1.2873 -2.2857 -0.9596
  731MPD2    N110812   3.715   2.529  12.231 -0.4293 -0.2051  0.0896
  731MPD2    H710813   3.641   2.580  12.184 -0.8359 -0.3024  0.6223
  732TMC3    C110814   3.798   2.502  12.018  0.0211 -0.2189 -0.0566
  732TMC3    C210815   3.674   2.461  11.971 -0.4443  0.3202 -0.0040
  732TMC3    C310816   3.650   2.480  11.833 -0.1640  0.3642  0.6452
  732TMC3    C410817   3.898   2.520  11.931  0.1438 -0.7649 -0.1747
  732TMC3    C510818   3.871   2.537  11.799  0.2462  0.3798  0.1385
  732TMC3    C610819   3.750   2.514  11.749 -0.1386  0.3613 -0.2755
  732TMC3     C10820   3.829   2.494  12.159 -0.4077  0.5184 -0.3521
  732TMC3     O10821   3.936   2.455  12.207  0.0636 -0.0261  0.0723
  732TMC3     H10822   3.606   2.413  12.040 -2.0299  0.1212 -1.7063
  732TMC3    H110823   3.994   2.542  11.976  0.5334 -1.2105 -0.7842
  732TMC3    H210824   3.739   2.503  11.642 -2.3716  0.9839 -0.1125
  732TMC3    C710825   3.971   2.603  11.708 -0.5413 -0.0803 -0.6533
  732TMC3    C810826   3.522   2.443  11.784 -0.0428  0.0954 -0.6669
  732TMC3    O110827   3.950   2.594  11.588 -0.0206  0.8371 -0.2391
  732TMC3    O210828   3.506   2.404  11.669 -0.1565 -0.0365  0.1288
  733TMC3    C110829   0.837   0.816  13.335 -0.0647 -1.0132 -0.1047
  733TMC3    C210830   0.869   0.919  13.424 -0.0001  0.3328 -0.3855
  733TMC3    C310831   0.986   0.976  13.420  0.0103 -0.3438  0.0007
  733TMC3    C410832   0.922   0.769  13.242  1.2113  0.0933 -0.6134
  733TMC3    C510833   1.038   0.843  13.235  0.4425 -0.1687  0.3139
  733TMC3    C610834   1.071   0.941  13.324  0.0454 -0.0977  0.3279
  733TMC3     C10835   0.701   0.807  13.310  0.4951 -0.2949 -0.1987
  733TMC3     O10836   0.629   0.906  13.309 -0.1834 -0.1035  0.6726
  733TMC3     H10837   0.796   0.960  13.492  0.0827 -0.8124  0.3908
  733TMC3    H110838   0.896   0.688  13.174  0.5769  1.1642 -1.6408
  733TMC3    H210839   1.162   0.996  13.304  0.7034 -0.2526  2.8929
  733TMC3    C710840   1.072   0.875  13.098 -0.5198 -0.3022  0.6348
  733TMC3    C810841   1.014   1.090  13.504 -0.6582 -0.4432 -0.6664
  733TMC3    O110842   1.058   0.781  13.023  0.1236  0.9422 -0.1164
  733TMC3    O210843   1.004   1.088  13.624 -0.0032 -0.6960  0.1433
  734MPD2     C10844   2.580   3.289  12.451 -0.3669 -0.0554 -0.9067
  734MPD2    C110845   2.467   3.244  12.388 -0.3306  0.0978 -0.2608
  734MPD2    C210846   2.432   3.324  12.278  0.3320 -0.2095 -0.3985
  734MPD2    C310847   2.496   3.447  12.244  0.7548 -0.7731 -0.2954
  734MPD2    C410848   2.604   3.486  12.317  0.6626  0.0689 -0.0357
  734MPD2    C510849   2.643   3.405  12.416 -0.7727  0.0161 -0.0866
  734MPD2     H10850   2.347   3.302  12.215  2.7394 -2.1010 -2.9946
  734MPD2    H110851   2.654   3.581  12.306 -0.3828  0.7769  1.3055
  734MPD2    H210852   2.633   3.241  12.532  0.3941  0.4119 -1.1229
  734MPD2    H310853   2.726   3.436  12.478 -1.0263  1.6265 -0.5611
  734MPD2     N10854   2.431   3.519  12.136 -0.1060  0.1191 -0.5919
  734MPD2    H510855   2.343   3.478  12.106 -0.4724  0.8597 -0.5236
  734MPD2    N110856   2.408   3.115  12.415  0.4966  0.1128  0.2893
  734MPD2    H710857   2.440   3.067  12.499  2.6643 -0.3183 -0.7737
  735TMC3    C110858   2.250   2.929  12.389 -0.0993  0.6498  0.3949
  735TMC3    C210859   2.122   2.895  12.344 -0.3779  0.1179 -0.3042
  735TMC3    C310860   2.092   2.782  12.266 -0.2802 -0.6567  0.7455
  735TMC3    C410861   2.355   2.840  12.380  0.1745  0.3594  0.3240
  735TMC3    C510862   2.325   2.731  12.305 -0.1142 -0.7703 -0.2141
  735TMC3    C610863   2.200   2.699  12.252 -0.4596 -0.2771  0.0061
  735TMC3     C10864   2.286   3.071  12.369 -0.8371 -0.3067 -0.5283
  735TMC3     O10865   2.217   3.125  12.282 -0.1942 -0.5389  0.0346
  735TMC3     H10866   2.044   2.969  12.358  0.3275  0.4594  1.8034
  735TMC3    H110867   2.450   2.853  12.430  0.4566  0.6152 -0.2804
  735TMC3    H210868   2.181   2.610  12.194  0.3499 -0.0880 -0.5514
  735TMC3    C710869   2.440   2.663  12.251  0.5474  0.2038  0.4129
  735TMC3    C810870   2.021   2.825  12.147 -0.6302  0.2044  0.0893
  735TMC3    O110871   2.550   2.717  12.248  0.0380 -0.6039 -0.2277
  735TMC3    O210872   1.949   2.749  12.083  0.1561 -0.0994  0.0468
  736MPD2     C10873   2.464   2.319  12.142  0.4327  0.1432  0.6273
  736MPD2    C110874   2.494   2.451  12.147 -0.0414 -0.7442 -0.2653
  736MPD2    C210875   2.595   2.495  12.066 -0.5199  0.4184  0.0393
  736MPD2    C310876   2.650   2.407  11.971  0.5197  0.0497 -0.5837
  736MPD2    C410877   2.609   2.275  11.959 -0.7888 -0.1918 -0.3542
  736MPD2    C510878   2.517   2.235  12.047  0.2174 -1.0659  0.4566
  736MPD2     H10879   2.624   2.599  12.052 -1.9827  0.9355  0.9176
  736MPD2    H110880   2.646   2.199  11.891 -2.3602  0.5086 -2.0040
  736MPD2    H210881   2.389   2.274  12.205 -2.6236  2.2896 -1.4606
  736MPD2    H310882   2.481   2.133  12.038 -2.1000 -0.0996 -1.0233
  736MPD2     N10883   2.746   2.443  11.874 -0.0206 -0.1274 -0.0036
  736MPD2    H510884   2.769   2.381  11.797 -0.4002  1.5740 -1.5055
  736MPD2    N110885   2.409   2.530  12.229 -0.1124  0.1493 -0.5393
  736MPD2    H710886   2.335   2.487  12.284 -1.0068  0.1431 -1.7381
  737TMC3    C110887   2.892   2.590  11.746  0.2706 -0.1534 -0.3485
  737TMC3    C210888   2.884   2.720  11.714  0.1114  0.6075  0.1990
  737TMC3    C310889   2.903   2.754  11.580  0.2130 -0.9706 -0.4334
  737TMC3    C410890   2.930   2.488  11.660 -0.3733  0.1871  0.4422
  737TMC3    C510891   2.957   2.531  11.536 -0.8243 -0.0785 -0.2462
  737TMC3    C610892   2.947   2.660  11.491 -0.5842  0.2524 -0.8361
  737TMC3     C10893   2.817   2.565  11.872  0.2722  0.4019  0.0686
  737TMC3     O10894   2.820   2.659  11.950 -0.4810 -0.0602  0.3771
  737TMC3     H10895   2.862   2.804  11.779  1.0422  1.4811 -0.6011
  737TMC3    H110896   2.922   2.383  11.685  1.3091 -0.2195 -0.7452
  737TMC3    H210897   2.953   2.685  11.386  1.7713  0.5765 -0.6373
  737TMC3    C710898   3.024   2.423  11.458 -0.5116 -0.1898  0.2890
  737TMC3    C810899   2.882   2.896  11.554  0.8557 -0.9090 -0.4985
  737TMC3    O110900   2.999   2.308  11.491  0.1844  0.4877  0.1889
  737TMC3    O210901   2.820   2.967  11.635 -0.1986 -0.1413  0.1797
  738MPD2     C10902   3.008   1.604  15.662 -0.1646  0.6433 -0.3632
  738MPD2    C110903   2.960   1.589  15.533  1.4698 -0.0281 -0.3170
  738MPD2    C210904   2.989   1.683  15.439 -0.1743 -0.3239 -0.2082
  738MPD2    C310905   3.081   1.785  15.464  0.6834  0.7597 -0.1566
  738MPD2    C410906   3.138   1.789  15.592 -0.5679 -0.0001 -0.0916
  738MPD2    C510907   3.099   1.700  15.695  0.1795 -0.1061  0.0793
  738MPD2     H10908   2.941   1.682  15.342 -0.6823  2.7843 -0.0004
  738MPD2    H110909   3.213   1.862  15.621  0.1636 -0.4557 -0.8613
  738MPD2    H210910   2.971   1.543  15.744 -0.9041 -1.3660 -2.1714
  738MPD2    H310911   3.136   1.709  15.797 -2.1981  1.6080  0.7923
  738MPD2     N10912   3.105   1.899  15.383  0.4012 -0.5572  0.1029
  738MPD2    H510913   3.174   1.964  15.419 -1.6328  1.7901 -0.2772
  738MPD2    N110914   2.860   1.487  15.496  0.2355  0.4442  0.4798
  738MPD2    H710915   2.831   1.483  15.399  0.4106 -0.1630  0.4521
  739TMC3    C110916   3.129   2.017  15.192  0.3608 -0.2545 -0.2692
  739TMC3    C210917   3.225   1.972  15.102  0.6736 -0.0317 -0.1064
  739TMC3    C310918   3.325   2.052  15.055 -0.9228  0.0329  0.0077
  739TMC3    C410919   3.149   2.134  15.246 -0.8744 -0.1254 -0.0183
  739TMC3    C510920   3.261   2.209  15.221  0.1429 -0.5872 -0.4741
  739TMC3    C610921   3.345   2.170  15.120  0.1270  1.0604  0.0302
  739TMC3     C10922   3.066   1.907  15.257  0.5731 -0.5811  0.0599
  739TMC3     O10923   3.002   1.833  15.182 -0.4316 -0.2853 -0.2685
  739TMC3     H10924   3.236   1.867  15.076 -2.5311 -0.0469 -1.3864
  739TMC3    H110925   3.085   2.168  15.326 -1.1612 -1.0535  0.1510
  739TMC3    H210926   3.443   2.215  15.106  1.0870 -1.1392 -0.2725
  739TMC3    C710927   3.285   2.322  15.311  0.6405 -0.0859  0.0234
  739TMC3    C810928   3.382   2.025  14.923 -0.8102 -0.0381 -0.0078
  739TMC3    O110929   3.232   2.323  15.419  1.0063 -0.7144  0.4262
  739TMC3    O210930   3.306   1.954  14.857 -0.7577 -0.4391 -0.1829
  740TMC3    C110931   3.774   3.251  14.461  0.6623  0.2475 -0.3861
  740TMC3    C210932   3.814   3.177  14.566  0.4248  0.3722 -0.2601
  740TMC3    C310933   3.921   3.095  14.544  0.3379  0.1996 -0.0090
  740TMC3    C410934   3.810   3.228  14.334 -0.6515  0.0085 -0.0246
  740TMC3    C510935   3.917   3.149  14.309  0.2340  0.1167 -0.0919
  740TMC3    C610936   3.973   3.087  14.415 -0.3036  0.3215  0.4750
  740TMC3     C10937   3.644   3.327  14.473 -0.6468  0.2457  0.6804
  740TMC3     O10938   3.626   3.424  14.397 -0.8522 -0.2661 -0.2712
  740TMC3     H10939   3.777   3.190  14.667  0.4362  2.2343 -0.4952
  740TMC3    H110940   3.741   3.273  14.263  0.4980  0.1949 -1.0402
  740TMC3    H210941   4.070   3.041  14.397  0.4230  1.7674  0.7065
  740TMC3    C710942   3.970   3.131  14.177  0.2754 -0.1241 -0.3398
  740TMC3    C810943   3.998   3.045  14.652 -0.3521 -0.2014  0.0230
  740TMC3    O110944   4.069   3.063  14.167 -0.6786  0.3773  0.2950
  740TMC3    O210945   3.969   3.095  14.765  0.4938 -0.4458 -0.2740
  741TMC3    C110946   3.403   2.812  14.436  0.3609 -0.5031  0.3877
  741TMC3    C210947   3.281   2.749  14.442  0.2157  0.0709 -0.8003
  741TMC3    C310948   3.259   2.644  14.521  0.3290  0.4608 -0.2261
  741TMC3    C410949   3.501   2.761  14.516  0.3508  0.0628 -0.1423
  741TMC3    C510950   3.468   2.661  14.606  0.4763  0.3018 -0.2383
  741TMC3    C610951   3.345   2.604  14.619  0.1472  0.3616  0.4948
  741TMC3     C10952   3.415   2.941  14.368 -0.1777 -0.2675 -0.0214
  741TMC3     O10953   3.526   2.982  14.351 -0.1819 -0.7515  0.7831
  741TMC3     H10954   3.201   2.772  14.373 -0.5950 -0.3710 -0.0049
  741TMC3    H110955   3.602   2.800  14.510  1.0039 -1.1492  2.7894
  741TMC3    H210956   3.327   2.534  14.700 -0.0951 -1.9981 -1.5890
  741TMC3    C710957   3.540   2.659  14.728  0.0121  0.7565 -0.5762
  741TMC3    C810958   3.143   2.563  14.486  0.6473 -0.3482 -0.7490
  741TMC3    O110959   3.473   2.648  14.830 -0.8758  0.2899  0.1853
  741TMC3    O210960   3.044   2.607  14.433 -0.1624  0.1636  0.1597
  742TMC3    C110961   3.479   1.016  15.643  0.2805  0.0375 -0.1146
  742TMC3    C210962   3.404   0.945  15.557  0.5424  0.0768 -0.0207
  742TMC3    C310963   3.444   0.932  15.431  0.0841 -0.2851  0.0142
  742TMC3    C410964   3.596   1.075  15.608 -0.1813  0.1219  0.6563
  742TMC3    C510965   3.627   1.078  15.470  0.4421  0.0533 -0.3950
  742TMC3    C610966   3.555   1.001  15.381 -0.2005  0.2403  0.4009
  742TMC3     C10967   3.430   1.042  15.779  0.7714 -0.5626  0.5642
  742TMC3     O10968   3.496   1.127  15.834  0.4884  0.4469 -0.0468
  742TMC3     H10969   3.301   0.920  15.579  0.0620 -0.2757 -2.6875
  742TMC3    H110970   3.662   1.115  15.685  1.7949 -0.2574 -0.8594
  742TMC3    H210971   3.595   0.984  15.282  2.2562 -3.3151  1.9689
  742TMC3    C710972   3.762   1.107  15.421 -0.4382 -0.3098 -0.3524
  742TMC3    C810973   3.350   0.874  15.323 -0.2388 -0.2834 -0.1461
  742TMC3    O110974   3.815   1.012  15.360  0.1176 -0.3732 -0.1002
  742TMC3    O210975   3.378   0.908  15.209  0.2681 -0.0052  0.0762
  743MPD2     C10976   1.255   2.036   1.888  0.2170 -0.0865  0.3012
  743MPD2    C110977   1.282   2.080   1.757 -0.2682 -0.2126  0.9171
  743MPD2    C210978   1.398   2.161   1.747 -0.1999 -0.4490  0.4839
  743MPD2    C310979   1.479   2.189   1.854  1.4608 -0.0894 -0.3414
  743MPD2    C410980   1.441   2.145   1.980 -0.3548  0.1464  0.2284
  743MPD2    C510981   1.328   2.076   2.002  0.1066 -0.4474  0.8230
  743MPD2     H10982   1.431   2.192   1.648 -0.1578  0.2078  0.7022
  743MPD2    H110983   1.499   2.155   2.071  0.1108  0.0922 -0.0649
  743MPD2    H210984   1.174   1.965   1.890 -0.6618  0.8597 -1.3814
  743MPD2    H310985   1.290   2.039   2.097  0.6703 -0.7195  0.9396
  743MPD2     N10986   1.596   2.258   1.838 -0.5483  0.0853 -0.4438
  743MPD2    H510987   1.613   2.310   1.753 -0.2997  0.8538  0.0750
  743MPD2    N110988   1.200   2.039   1.643  0.2140  0.0375  0.6263
  743MPD2    H710989   1.125   1.973   1.661 -0.9126  0.8880 -0.9088
  744TMC3    C110990   1.125   2.017   1.430  0.4480  0.3814  0.7208
  744TMC3    C210991   1.003   2.001   1.467 -0.9938 -0.9015  0.3967
  744TMC3    C310992   0.913   1.957   1.377 -0.1923  0.2918 -0.2106
  744TMC3    C410993   1.169   1.978   1.305  0.0302  0.0299  0.5840
  744TMC3    C510994   1.079   1.922   1.217 -0.3738  0.7805  0.6859
  744TMC3    C610995   0.948   1.924   1.251 -0.5466  0.4630 -0.4761
  744TMC3     C10996   1.214   2.083   1.518 -0.4836  0.9655  0.3280
  744TMC3     O10997   1.316   2.137   1.480  0.1991 -1.1689 -0.3140
  744TMC3     H10998   0.980   2.054   1.559  0.6265  0.0508  0.2479
  744TMC3    H110999   1.272   1.989   1.273  0.2204  2.3665  1.9758
  744TMC3    H211000   0.867   1.888   1.189 -0.9216 -0.6498  0.6572
  744TMC3    C711001   1.112   1.908   1.076  0.3888  0.2423  0.2374
  744TMC3    C811002   0.772   1.987   1.411 -0.0480  0.1353  0.1363
  744TMC3    O111003   1.025   1.925   0.993 -0.5209 -0.3644  0.9284
  744TMC3    O211004   0.689   2.007   1.318  0.9250  0.2696 -0.1068
  745TMC3    C111005   3.867   0.595  13.527 -0.5340  0.1648 -0.7903
  745TMC3    C211006   3.758   0.643  13.584  0.0096  0.1957  0.2277
  745TMC3    C311007   3.657   0.683  13.503  0.6670  0.2217 -0.2917
  745TMC3    C411008   3.876   0.591  13.391 -0.5631 -0.8467 -0.3749
  745TMC3    C511009   3.771   0.631  13.315  0.0694 -0.6375  0.0723
  745TMC3    C611010   3.651   0.667  13.372 -0.2078  0.4882  0.8810
  745TMC3     C11011   3.984   0.658  13.582 -0.0366  0.2932 -0.4110
  745TMC3     O11012   4.017   0.622  13.693 -0.0788 -0.3928 -0.0845
  745TMC3     H11013   3.757   0.674  13.688 -0.8091 -0.9249  0.5619
  745TMC3    H111014   3.969   0.548  13.355  0.0295 -0.4112  0.6442
  745TMC3    H211015   3.591   0.739  13.318 -1.0928 -1.2364 -0.4451
  745TMC3    C711016   3.810   0.712  13.192 -0.2625  0.2561  0.3890
  745TMC3    C811017   3.647   0.821  13.543  0.7837  0.7578 -0.0143
  745TMC3    O111018   3.721   0.732  13.111 -0.0014 -0.4055  0.1970
  745TMC3    O211019   3.747   0.888  13.521  0.1221  0.2245 -0.1010
  746TMC3    C111020   1.097   2.632  11.335  0.2344 -0.6261  0.4623
  746TMC3    C211021   1.089   2.610  11.204  1.1234  0.9286 -0.1118
  746TMC3    C311022   1.112   2.477  11.161 -0.2783 -0.2571 -0.6465
  746TMC3    C411023   1.113   2.534  11.431  0.2123 -0.1616 -0.3855
  746TMC3    C511024   1.121   2.403  11.380  0.3741 -0.3386  0.4014
  746TMC3    C611025   1.126   2.376  11.245 -0.2421 -0.4242 -0.5754
  746TMC3     C11026   1.118   2.770  11.374 -0.2471 -0.2893  0.0850
  746TMC3     O11027   1.137   2.794  11.492  0.3986  0.6515 -0.0006
  746TMC3     H11028   1.057   2.682  11.130 -2.8869 -1.2672 -0.5426
  746TMC3    H111029   1.112   2.553  11.538  0.1038 -1.7019 -0.1016
  746TMC3    H211030   1.130   2.273  11.211  2.0269 -0.4773 -0.1573
  746TMC3    C711031   1.079   2.303  11.476 -0.6886  0.1676 -0.3438
  746TMC3    C811032   1.154   2.462  11.025  0.2750  0.4167 -0.2031
  746TMC3    O111033   0.990   2.243  11.420 -0.0156  0.7265 -0.2472
  746TMC3    O211034   1.135   2.354  10.973  0.4287  0.1110  0.4572
  747TMC3    C111035   3.372   2.788  10.613 -0.0916  0.7764 -0.3955
  747TMC3    C211036   3.418   2.662  10.651  0.6711 -0.0881  0.3335
  747TMC3    C311037   3.454   2.647  10.785  0.4990 -0.7681 -0.1266
  747TMC3    C411038   3.361   2.894  10.699 -0.3545 -0.3054 -0.2819
  747TMC3    C511039   3.401   2.873  10.831 -0.3493 -0.6759 -0.1114
  747TMC3    C611040   3.455   2.751  10.873 -0.5265 -0.5624 -0.6614
  747TMC3     C11041   3.303   2.804  10.479  0.7488 -0.3960  0.0008
  747TMC3     O11042   3.247   2.909  10.450 -0.1668 -0.3680 -0.0141
  747TMC3     H11043   3.415   2.575  10.587  0.1845  0.7826 -0.8469
  747TMC3    H111044   3.330   2.993  10.669 -0.6117 -0.0565  0.8340
  747TMC3    H211045   3.487   2.734  10.975 -0.5210 -1.4173 -0.8108
  747TMC3    C711046   3.319   2.929  10.933 -0.9469  0.6663  0.0614
  747TMC3    C811047   3.425   2.518  10.846 -1.2096  0.1057 -0.3289
  747TMC3    O111048   3.301   2.857  11.028 -0.3523  0.2530 -0.0168
  747TMC3    O211049   3.440   2.415  10.784 -0.1762 -0.7569  0.6224
  748MPD2     C11050   4.582   3.881   1.220  0.1655 -0.7208  0.5451
  748MPD2    C111051   4.644   3.768   1.267  0.6185  0.2068  0.0995
  748MPD2    C211052   0.051   3.724   1.227 -0.4629 -0.1929 -0.3051
  748MPD2    C311053   0.116   3.798   1.126  0.2265 -0.8321 -0.2991
  748MPD2    C411054   0.055   3.910   1.073  0.2359  0.1386 -0.6442
  748MPD2    C511055   4.646   3.943   1.116  0.1624  0.3513 -0.1951
  748MPD2     H11056   0.088   3.628   1.260 -1.2552 -0.1488  0.7181
  748MPD2    H111057   0.093   3.969   0.990  0.0746  1.5214  0.2687
  748MPD2    H211058   4.490   3.919   1.264  1.4399  1.6583  1.1055
  748MPD2    H311059   4.606   4.027   1.061 -1.2605  0.2544  0.6889
  748MPD2     N11060   0.243   3.753   1.083 -0.4084  0.0447  0.1848
  748MPD2    H511061   0.272   3.660   1.112  0.4999 -0.6289 -2.8533
  748MPD2    N111062   4.574   3.698   1.367  0.1804  0.5551 -0.1633
  748MPD2    H711063   4.487   3.737   1.402 -1.0712 -2.6502  0.3062
  749TMC3    C111064   0.462   3.766   0.990  0.1597  0.6736 -0.4831
  749TMC3    C211065   0.516   3.671   1.075 -0.1932 -0.9215 -0.4344
  749TMC3    C311066   0.640   3.627   1.040  0.5850  0.2059  0.3785
  749TMC3    C411067   0.537   3.820   0.891 -0.3383  0.0535 -0.3528
  749TMC3    C511068   0.662   3.773   0.866 -0.4896 -0.0214 -0.5292
  749TMC3    C611069   0.720   3.679   0.944  0.3750 -0.4249 -0.6134
  749TMC3     C11070   0.328   3.825   1.007  0.0204 -0.1377  0.1459
  749TMC3     O11071   0.304   3.921   0.939 -0.3037  0.4227  0.5800
  749TMC3     H11072   0.460   3.631   1.158  0.0491 -0.4906 -0.0600
  749TMC3    H111073   0.491   3.905   0.841 -0.6781  0.7133  1.0889
  749TMC3    H211074   0.825   3.652   0.934  0.0941 -1.5481 -0.5074
  749TMC3    C711075   0.761   3.858   0.797 -0.2225 -0.0381 -0.5862
  749TMC3    C811076   0.697   3.544   1.147  0.1795 -0.5977  0.0768
  749TMC3    O111077   0.877   3.842   0.819  0.6094  0.0280  0.2494
  749TMC3    O211078   0.634   3.531   1.252 -0.2763  0.0765 -0.5746
  750MPD2     C11079   1.364   4.603  11.495 -0.0335 -0.1736  0.4927
  750MPD2    C111080   1.311   4.513  11.584 -0.0672 -0.3009 -0.5536
  750MPD2    C211081   1.271   4.382  11.552 -0.1554  0.4632  0.1397
  750MPD2    C311082   1.304   4.338  11.418 -0.2366 -0.6750  0.1749
  750MPD2    C411083   1.386   4.421  11.334 -0.5244  0.8648 -0.6117
  750MPD2    C511084   1.404   4.554  11.374 -0.3042  0.1417 -0.2482
  750MPD2     H11085   1.206   4.330  11.621  0.3008 -0.6249 -0.2447
  750MPD2    H111086   1.426   4.389  11.238 -0.7072  1.7190 -0.9780
  750MPD2    H211087   1.377   4.707  11.520 -0.2610  0.0173 -0.1743
  750MPD2    H311088   1.466   4.624  11.318 -0.4389 -0.1297 -0.7390
  750MPD2     N11089   1.266   4.211  11.372 -0.7245 -0.2381 -0.2711
  750MPD2    H511090   1.304   4.173  11.286  0.7995  0.8300 -0.0673
  750MPD2    N111091   1.281   4.563  11.714  0.2553  0.6653 -0.3266
  750MPD2    H711092   1.298   4.662  11.724  2.2286  0.3556 -0.5503
  751TMC3    C111093   1.220   3.982  11.386 -0.0004 -0.0285 -0.1101
  751TMC3    C211094   1.123   3.897  11.434 -0.2278 -0.1665  0.4175
  751TMC3    C311095   1.128   3.764  11.392 -0.2436  1.1057 -0.8360
  751TMC3    C411096   1.326   3.942  11.306 -0.6200  0.3167  0.0796
  751TMC3    C511097   1.329   3.807  11.274  0.2686 -0.2784 -0.1655
  751TMC3    C611098   1.228   3.716  11.313  0.5532 -0.0742 -0.1666
  751TMC3     C11099   1.202   4.117  11.447  0.0627  0.4950  0.6233
  751TMC3     O11100   1.135   4.124  11.547  0.4816  0.0883  0.4998
  751TMC3     H11101   1.038   3.944  11.483 -1.2147 -1.6065  0.0859
  751TMC3    H111102   1.398   4.014  11.270 -0.6833  0.6387  0.5903
  751TMC3    H211103   1.232   3.609  11.299 -1.6602 -0.2652  0.6985
  751TMC3    C711104   1.438   3.739  11.202  0.0636  0.2061 -0.4327
  751TMC3    C811105   1.009   3.679  11.391 -0.1695  0.2135  0.3536
  751TMC3    O111106   1.521   3.806  11.142 -0.3630 -0.1199 -0.0056
  751TMC3    O211107   1.016   3.584  11.311  0.0834  0.1330 -0.0323
  752TMC3    C111108   0.215   0.042  17.016 -0.6324 -0.2628  0.1262
  752TMC3    C211109   0.119   4.721  17.104 -0.5361 -0.2826 -0.6644
  752TMC3    C311110   0.143   0.024  17.237  0.3615 -0.4506  0.5423
  752TMC3    C411111   0.341   0.075  17.056 -0.4539  0.4673  0.2397
  752TMC3    C511112   0.367   0.081  17.189 -0.7364  0.9627 -0.0201
  752TMC3    C611113   0.265   0.069  17.281  0.0650 -0.5023 -0.1972
  752TMC3     C11114   0.206   4.702  16.885  0.1380  0.3909  0.3453
  752TMC3     O11115   0.309   4.637  16.849  0.5400 -0.0232  0.1839
  752TMC3     H11116   0.023   4.679  17.075 -1.5741  0.1256  2.2154
  752TMC3    H111117   0.418   0.091  16.982  1.2410  1.2751  2.1990
  752TMC3    H211118   0.276   0.101  17.384 -0.9272 -0.9820  0.0559
  752TMC3    C711119   0.500   0.114  17.229  0.0729 -0.0533  0.3170
  752TMC3    C811120   0.060   4.667  17.323  0.6258  0.1356  0.0443
  752TMC3    O111121   0.508   0.169  17.337  0.3066 -0.0932  0.4214
  752TMC3    O211122   4.666   4.652  17.295 -0.0789 -0.1917 -0.0492
  753TMC3    C111123   2.083   0.713  13.688  0.3100 -0.0362  0.4544
  753TMC3    C211124   2.161   0.680  13.798 -0.0713  0.4881 -0.3573
  753TMC3    C311125   2.149   0.549  13.845 -0.1422  0.3261 -0.0676
  753TMC3    C411126   1.998   0.627  13.629 -0.4721  0.4867  0.3253
  753TMC3    C511127   1.983   0.498  13.686  0.3995 -0.0482 -0.0284
  753TMC3    C611128   2.058   0.455  13.797  0.0448  0.4717 -0.4239
  753TMC3     C11129   2.055   0.844  13.676  0.3101  0.2417 -0.0500
  753TMC3     O11130   1.942   0.879  13.641 -1.1823  0.2506  0.1634
  753TMC3     H11131   2.226   0.751  13.847 -0.1665 -0.4258  1.0820
  753TMC3    H111132   1.937   0.657  13.544  0.3278 -2.3007 -1.2283
  753TMC3    H211133   2.044   0.359  13.846 -1.5088  2.1722  2.4968
  753TMC3    C711134   1.857   0.431  13.652  0.3187  0.3142 -0.1762
  753TMC3    C811135   2.238   0.498  13.952  0.2144  0.1317 -0.5562
  753TMC3    O111136   1.782   0.494  13.585  0.2186  0.1076  0.6719
  753TMC3    O211137   2.231   0.382  13.998  0.6750  0.2116  0.1804
  754MPD2     C11138   0.018   3.055  12.603 -0.3290 -0.1149  0.7473
  754MPD2    C111139   0.089   3.100  12.709 -0.6163 -0.5617 -0.2333
  754MPD2    C211140   0.027   3.164  12.810  0.4345  0.2505  0.7970
  754MPD2    C311141   4.614   3.171  12.817  0.1425  0.6348  1.0443
  754MPD2    C411142   4.549   3.134  12.705 -0.1699  0.3386 -0.0640
  754MPD2    C511143   4.605   3.075  12.599  0.7719 -1.0090 -0.5221
  754MPD2     H11144   0.091   3.183  12.895  1.4059 -0.2227  0.1621
  754MPD2    H111145   4.441   3.134  12.692 -0.4341 -0.0577  2.0977
  754MPD2    H211146   0.075   3.000  12.529 -1.8590 -1.0946  0.2751
  754MPD2    H311147   4.548   3.043  12.512 -0.2271  3.1772 -1.4168
  754MPD2     N11148   4.538   3.217  12.935 -0.0395 -0.7392 -0.2091
  754MPD2    H511149   4.440   3.233  12.916 -0.2424 -0.2255  1.2985
  754MPD2    N111150   0.222   3.052  12.722  0.3995  0.3144 -0.3580
  754MPD2    H711151   0.256   2.976  12.663  1.4391 -0.0262  0.6669
  755MPD2     C11152   0.353   3.654  13.610 -0.2278  0.3948 -0.0387
  755MPD2    C111153   0.237   3.727  13.609 -0.4508 -0.4683 -0.5308
  755MPD2    C211154   0.131   3.663  13.554  0.4705  0.1046 -0.4451
  755MPD2    C311155   0.127   3.531  13.521 -0.2326 -0.0951  0.9585
  755MPD2    C411156   0.240   3.456  13.535  0.5280 -0.0129  0.2024
  755MPD2    C511157   0.353   3.522  13.570 -0.3942 -0.1272  0.1284
  755MPD2     H11158   0.043   3.726  13.554 -0.0094 -0.5659 -0.9715
  755MPD2    H111159   0.244   3.348  13.521 -0.8314  0.0411 -0.5854
  755MPD2    H211160   0.455   3.690  13.622 -0.2704  1.2597 -2.2893
  755MPD2    H311161   0.448   3.471  13.576  0.0192  0.7339  0.9016
  755MPD2     N11162   0.021   3.466  13.464 -0.4391 -0.0491 -0.2798
  755MPD2    H511163   0.030   3.365  13.466  0.4349  0.0195 -0.9681
  755MPD2    N111164   0.221   3.857  13.660  0.3646  0.7356 -0.4891
  755MPD2    H711165   0.128   3.895  13.667  0.9501  2.1845 -0.5178
  756MPD2     C11166   1.199   4.313   9.358 -0.3279  0.1490  0.2704
  756MPD2    C111167   1.135   4.329   9.481  0.4842 -0.1909  0.2744
  756MPD2    C211168   1.030   4.243   9.517 -0.1539 -0.1071  0.1877
  756MPD2    C311169   0.993   4.135   9.434  0.4449  0.1887  0.2318
  756MPD2    C411170   1.055   4.121   9.314 -0.7480  0.1517  0.1917
  756MPD2    C511171   1.153   4.213   9.278  0.0755  0.1005 -0.4189
  756MPD2     H11172   0.973   4.262   9.607  0.5506  2.4156  0.0890
  756MPD2    H111173   1.034   4.034   9.253 -0.2397  0.3492 -0.2614
  756MPD2    H211174   1.280   4.373   9.318 -0.8162  0.3020 -0.4892
  756MPD2    H311175   1.210   4.186   9.190 -1.2784  1.0396 -1.5773
  756MPD2     N11176   0.901   4.045   9.496 -0.2736  0.1359  0.5937
  756MPD2    H511177   0.856   4.076   9.581 -3.5235 -1.6728 -0.4673
  756MPD2    N111178   1.169   4.429   9.571 -0.0331 -0.1725 -0.3847
  756MPD2    H711179   1.130   4.441   9.663  1.6569 -0.1346  0.3281
  757MPD2     C11180   0.379   4.050  10.272 -0.0225  0.8441  0.2302
  757MPD2    C111181   0.505   3.994  10.295 -0.0145  0.3903 -0.1517
  757MPD2    C211182   0.574   3.960  10.185  0.5652 -0.1724  0.3670
  757MPD2    C311183   0.530   3.979  10.055 -0.5519  0.7423  0.0025
  757MPD2    C411184   0.408   4.043  10.030 -0.4020 -0.1483  0.0799
  757MPD2    C511185   0.339   4.078  10.144  1.3179 -0.2950  0.1302
  757MPD2     H11186   0.675   3.922  10.196 -0.0271 -1.7300  0.4371
  757MPD2    H111187   0.352   4.065   9.940  0.7998  0.1149 -0.5926
  757MPD2    H211188   0.311   4.077  10.353  0.8554  1.4999  0.7558
  757MPD2    H311189   0.236   4.110  10.130  0.9302 -2.1395 -1.2246
  757MPD2     N11190   0.594   3.906   9.959 -0.2951 -0.3339  0.5991
  757MPD2    H511191   0.678   3.854   9.982 -0.8830 -1.2848  0.5802
  757MPD2    N111192   0.549   3.984  10.429  0.0430  0.0395 -0.0169
  757MPD2    H711193   0.495   4.026  10.505 -0.2929 -3.0902  1.5086
  758MPD2     C11194   1.148   3.897  15.525  0.2779  0.1324  0.3635
  758MPD2    C111195   1.258   3.901  15.608  0.5673 -0.3321 -0.2862
  758MPD2    C211196   1.236   3.923  15.743 -0.0881  0.3747  0.1915
  758MPD2    C311197   1.114   3.947  15.802  0.4957  0.9708  0.1182
  758MPD2    C411198   1.009   3.950  15.713  0.0717 -0.2093 -0.0907
  758MPD2    C511199   1.026   3.922  15.580 -0.7014 -0.1009  0.3845
  758MPD2     H11200   1.323   3.913  15.806 -0.2917  1.7526  0.6991
  758MPD2    H111201   0.909   3.982  15.740 -0.1522 -0.7256 -0.3133
  758MPD2    H211202   1.164   3.888  15.418  2.0762 -1.8256  0.7983
  758MPD2    H311203   0.945   3.932  15.509 -0.4695 -2.3494 -0.1858
  758MPD2     N11204   1.091   3.980  15.942 -0.3614  0.3051 -0.8302
  758MPD2    H511205   0.992   3.986  15.960 -0.1996  1.3621 -0.3301
  758MPD2    N111206   1.381   3.887  15.555 -0.0654 -0.0414 -0.0618
  758MPD2    H711207   1.391   3.854  15.460 -2.5432  0.4814 -0.5066
  759MPD2     C11208   4.082   1.764  10.608  0.2971  0.5713 -0.0930
  759MPD2    C111209   4.170   1.680  10.551  0.1811  0.0883  0.0106
  759MPD2    C211210   4.292   1.726  10.503 -0.0052  0.2865  0.1468
  759MPD2    C311211   4.330   1.858  10.513  0.7224 -0.5620  0.0658
  759MPD2    C411212   4.233   1.951  10.559  0.9307 -0.4082 -0.2870
  759MPD2    C511213   4.117   1.896  10.616 -0.0056 -0.1095 -0.7134
  759MPD2     H11214   4.364   1.654  10.467  0.0439  0.5214 -0.2236
  759MPD2    H111215   4.256   2.055  10.578  1.7150 -1.0272  2.2227
  759MPD2    H211216   3.989   1.736  10.657  0.4687 -1.3781 -0.9175
  759MPD2    H311217   4.050   1.974  10.650 -1.4286 -1.0054 -1.4847
  759MPD2     N11218   4.454   1.898  10.461 -1.0420  0.3425  0.1055
  759MPD2    H511219   4.512   1.823  10.425 -1.1399  0.0240  0.6021
  759MPD2    N111220   4.133   1.546  10.538  0.3042  0.3833 -0.3396
  759MPD2    H711221   4.037   1.521  10.558 -0.0550  0.8252 -1.5139
  760MPD2     C11222   3.615   4.049  12.050 -0.1919  0.1627  0.1153
  760MPD2    C111223   3.746   4.040  12.000  0.1318  0.0079 -0.1551
  760MPD2    C211224   3.790   3.919  11.961  0.4318  0.1780 -0.0057
  760MPD2    C311225   3.705   3.809  11.961  0.6209 -0.2021  0.1087
  760MPD2    C411226   3.572   3.828  11.977 -0.4031 -0.3211  0.2657
  760MPD2    C511227   3.527   3.948  12.029  0.4326  0.7858 -0.3562
  760MPD2     H11228   3.893   3.918  11.929  0.6121  2.3587  0.5014
  760MPD2    H111229   3.507   3.741  11.972  0.7416 -1.2646  1.5630
  760MPD2    H211230   3.583   4.146  12.085 -0.6371  0.2291 -0.4753
  760MPD2    H311231   3.421   3.967  12.038 -0.0793 -1.7748 -1.0725
  760MPD2     N11232   3.749   3.674  11.951 -0.0162  0.3555  0.8364
  760MPD2    H511233   3.679   3.602  11.936 -0.8194  1.6921 -1.8213
  760MPD2    N111234   3.836   4.151  11.990  0.3786  0.5100 -0.0602
  760MPD2    H711235   3.930   4.126  11.961  0.6307  0.7688  0.5452
  761MPD2     C11236   0.573   3.460  11.552  0.0601 -0.7063  0.8543
  761MPD2    C111237   0.659   3.443  11.443  0.2183 -0.2072  0.1160
  761MPD2    C211238   0.760   3.535  11.423  0.5549 -0.0553 -0.5092
  761MPD2    C311239   0.795   3.638  11.508 -0.2419 -0.5341  0.5990
  761MPD2    C411240   0.707   3.652  11.620 -0.2864 -0.5125 -0.3487
  761MPD2    C511241   0.605   3.568  11.638 -0.1490  0.6742  0.0081
  761MPD2     H11242   0.812   3.525  11.328  0.9627 -0.0352 -0.2902
  761MPD2    H111243   0.722   3.718  11.704 -1.0661 -1.3725  0.4759
  761MPD2    H211244   0.488   3.398  11.576 -0.5359 -0.6948 -1.3087
  761MPD2    H311245   0.539   3.587  11.721 -1.9979 -0.6203 -1.1833
  761MPD2     N11246   0.912   3.713  11.485 -0.2581 -0.5022  0.0440
  761MPD2    H511247   0.933   3.797  11.539 -0.9500  0.1282 -0.6601
  761MPD2    N111248   0.643   3.337  11.347 -0.6757  0.3971 -0.0674
  761MPD2    H711249   0.717   3.333  11.277 -1.5681 -1.6099 -0.8921
  762MPD2     C11250   1.007   3.427  11.021  0.6697 -0.5444  0.3510
  762MPD2    C111251   0.971   3.316  10.950 -0.1555 -0.1393 -0.2165
  762MPD2    C211252   1.059   3.262  10.857  0.8716  0.0491  0.2610
  762MPD2    C311253   1.178   3.327  10.823 -0.0306 -0.5299 -0.0511
  762MPD2    C411254   1.208   3.440  10.893 -0.0908 -0.2488 -0.4887
  762MPD2    C511255   1.128   3.482  11.001 -0.3049  0.3492 -0.6837
  762MPD2     H11256   1.031   3.172  10.804 -0.4495 -0.0069  1.0571
  762MPD2    H111257   1.295   3.504  10.886 -0.6171  0.5416  0.2881
  762MPD2    H211258   0.946   3.465  11.102 -0.0226 -0.8857 -0.0138
  762MPD2    H311259   1.157   3.562  11.068  1.1076 -1.1383  0.4796
  762MPD2     N11260   1.257   3.282  10.716  0.3535  0.6017  0.2502
  762MPD2    H511261   1.219   3.196  10.676 -3.4406  1.4190  2.0678
  762MPD2    N111262   0.851   3.251  10.988 -0.4704 -0.3555 -0.1333
  762MPD2    H711263   0.801   3.310  11.053  0.1589  0.7917 -0.6871
  763MPD2     C11264   2.886   4.044  16.243 -0.2411 -0.0441 -0.2556
  763MPD2    C111265   2.781   4.113  16.179 -0.7451 -0.1803  0.4209
  763MPD2    C211266   2.767   4.249  16.211 -0.2518 -0.0882 -1.1691
  763MPD2    C311267   2.857   4.313  16.298  0.2875 -0.3698  0.7488
  763MPD2    C411268   2.962   4.246  16.349 -0.3778  0.9811  0.5081
  763MPD2    C511269   2.975   4.113  16.319  0.4765  0.4249  0.3234
  763MPD2     H11270   2.690   4.315  16.172  0.5011  1.5939  0.1907
  763MPD2    H111271   3.035   4.296  16.411  0.0890 -0.0251  0.7837
  763MPD2    H211272   2.912   3.940  16.224  1.3887  0.2809  0.2232
  763MPD2    H311273   3.066   4.067  16.354  0.6143  0.3813 -0.0968
  763MPD2     N11274   2.863   4.454  16.314 -0.4253 -0.1780 -0.3653
  763MPD2    H511275   2.943   4.496  16.360  0.1864 -2.0006  0.2586
  763MPD2    N111276   2.690   4.048  16.093  0.6453  0.2579  0.1864
  763MPD2    H711277   2.646   4.108  16.025 -1.9013 -0.9982  0.7154
  764MPD2     C11278   0.881   0.696  17.111 -0.4758  0.2242  0.0715
  764MPD2    C111279   0.748   0.665  17.113 -0.4861 -0.4205  0.7926
  764MPD2    C211280   0.684   0.586  17.211 -0.1977  0.0701 -0.4087
  764MPD2    C311281   0.756   0.543  17.317  0.6240  0.0422  0.7083
  764MPD2    C411282   0.891   0.564  17.320 -0.1046 -0.4158 -0.0602
  764MPD2    C511283   0.953   0.634  17.216  0.0546 -0.1877  0.3765
  764MPD2     H11284   0.580   0.563  17.193 -0.3947  1.1778 -0.6579
  764MPD2    H111285   0.963   0.529  17.393  0.6160 -0.4889 -0.8225
  764MPD2    H211286   0.925   0.759  17.035 -0.1502  0.0721  0.1339
  764MPD2    H311287   1.060   0.649  17.214 -0.1764  1.4679  0.1758
  764MPD2     N11288   0.690   0.475  17.430  0.2319 -0.0643 -0.0386
  764MPD2    H511289   0.592   0.449  17.415  0.7884 -1.3256 -1.4644
  764MPD2    N111290   0.653   0.709  17.012  0.1687  0.2581 -0.2622
  764MPD2    H711291   0.555   0.692  17.028  0.1552 -0.5990 -1.2931
  765MPD2     C11292   0.286   3.116  15.987 -0.2637 -0.9104 -0.3586
  765MPD2    C111293   0.291   3.256  15.959  0.2119 -0.0888 -0.3487
  765MPD2    C211294   0.404   3.299  15.886 -0.0624 -0.0063  0.0532
  765MPD2    C311295   0.504   3.215  15.834 -0.2962 -0.7636  0.1052
  765MPD2    C411296   0.499   3.083  15.876 -0.1582 -0.0795 -0.4242
  765MPD2    C511297   0.398   3.041  15.958 -0.0020  0.1866  0.8804
  765MPD2     H11298   0.406   3.404  15.862 -0.2786 -0.5206 -2.2136
  765MPD2    H111299   0.579   3.013  15.856 -0.2911 -0.7951  1.5280
  765MPD2    H211300   0.208   3.065  16.043 -0.8868  1.5133  0.9856
  765MPD2    H311301   0.402   2.934  15.979  0.1014  0.1026  0.4154
  765MPD2     N11302   0.593   3.270  15.741  0.3487 -0.5363 -0.6138
  765MPD2    H511303   0.571   3.359  15.697 -0.8139 -1.4728 -1.9295
  765MPD2    N111304   0.183   3.331  16.001  0.1646 -0.0555 -0.1741
  765MPD2    H711305   0.099   3.277  16.020  0.3986 -0.8713 -1.4387
  766MPD2     C11306   4.374   3.173  15.642  0.0519  0.5018  0.8443
  766MPD2    C111307   4.475   3.268  15.635 -0.3398  0.4844 -0.4927
  766MPD2    C211308   4.570   3.253  15.535  0.6206 -0.1694 -0.3030
  766MPD2    C311309   4.555   3.161  15.440  0.0048  0.0375  0.1745
  766MPD2    C411310   4.453   3.076  15.437  0.1783 -0.4382  0.4670
  766MPD2    C511311   4.363   3.084  15.544  0.1444  0.0756  0.3476
  766MPD2     H11312   4.645   3.332  15.536 -0.2901  0.6771  0.0680
  766MPD2    H111313   4.441   3.004  15.357 -1.5049 -2.4424  2.5290
  766MPD2    H211314   4.294   3.180  15.714  0.8638 -2.2024  2.0037
  766MPD2    H311315   4.291   3.005  15.562 -0.4774  0.1265 -1.8602
  766MPD2     N11316   4.656   3.150  15.345  0.5186  0.9179 -0.2257
  766MPD2    H511317   4.626   3.105  15.259  1.5233  0.9003 -0.5671
  766MPD2    N111318   4.487   3.371  15.740  0.5424  0.2462 -0.4457
  766MPD2    H711319   4.451   3.349  15.833  0.0507  1.4579 -0.3509
  767MPD2     C11320   4.428   3.490  15.333  0.2888 -0.9847  0.3489
  767MPD2    C111321   4.554   3.487  15.274 -0.7359 -0.6106  0.1256
  767MPD2    C211322   4.568   3.424  15.149  0.7477 -0.3351  0.3756
  767MPD2    C311323   4.461   3.362  15.089  0.8723  0.0851  0.0572
  767MPD2    C411324   4.340   3.364  15.154 -0.0710  0.3340 -0.6363
  767MPD2    C511325   4.320   3.433  15.271  0.2669  0.2620  0.4466
  767MPD2     H11326   4.655   3.427  15.083 -1.5439  1.1705 -2.5777
  767MPD2    H111327   4.251   3.312  15.121 -0.6166  1.0387 -0.2811
  767MPD2    H211328   4.407   3.545  15.424  0.2187  2.3573 -1.7019
  767MPD2    H311329   4.220   3.435  15.315  0.6964  0.1524  1.4419
  767MPD2     N11330   4.472   3.311  14.961 -0.5450  0.7196 -0.7112
  767MPD2    H511331   4.566   3.292  14.926 -0.5201 -0.9121  0.2576
  767MPD2    N111332   4.654   3.563  15.338 -0.7250  0.5273 -0.1853
  767MPD2    H711333   4.631   3.588  15.433  2.3447  0.2845  0.6270
  768MPD2     C11334   0.957   1.457  11.277  0.2668 -0.6142 -0.0234
  768MPD2    C111335   0.949   1.593  11.296 -0.6594 -0.2768 -0.3036
  768MPD2    C211336   1.059   1.676  11.272  0.1357  0.3777  0.0360
  768MPD2    C311337   1.184   1.614  11.264 -0.7416  0.0257  0.1910
  768MPD2    C411338   1.184   1.481  11.232  0.0437 -0.2754  0.6348
  768MPD2    C511339   1.075   1.401  11.242 -0.3380  0.3147  0.0956
  768MPD2     H11340   1.050   1.784  11.278  0.9798  0.5074 -1.0330
  768MPD2    H111341   1.277   1.431  11.210 -0.1787 -0.7448  0.7688
  768MPD2    H211342   0.879   1.382  11.284 -0.3373  0.1213  1.0941
  768MPD2    H311343   1.087   1.294  11.233  0.8465  0.4126  0.5052
  768MPD2     N11344   1.306   1.672  11.293  0.0948  0.0609 -0.8203
  768MPD2    H511345   1.393   1.621  11.286 -0.2532 -0.8472  1.5861
  768MPD2    N111346   0.828   1.658  11.340  0.6598  0.3478  0.1551
  768MPD2    H711347   0.846   1.755  11.364  0.9698  0.7731 -1.7890
  769MPD2     C11348   2.049   4.175  14.761  0.3336  0.4787 -0.0254
  769MPD2    C111349   1.924   4.224  14.784 -0.0376 -0.2690  0.0078
  769MPD2    C211350   1.898   4.312  14.892 -0.2098 -0.2639 -0.4652
  769MPD2    C311351   1.994   4.353  14.985  0.1377 -0.2409  0.2019
  769MPD2    C411352   2.121   4.308  14.955 -0.1896  0.5388 -0.8431
  769MPD2    C511353   2.148   4.222  14.846 -0.3707  0.8106 -0.0031
  769MPD2     H11354   1.798   4.347  14.916  0.6658  0.5335  2.0320
  769MPD2    H111355   2.208   4.324  15.019 -0.5551 -0.7841 -0.0027
  769MPD2    H211356   2.082   4.107  14.683  1.5114  1.4127 -0.3307
  769MPD2    H311357   2.251   4.189  14.835 -0.5071  0.2730  0.3183
  769MPD2     N11358   1.961   4.425  15.097  0.3081 -0.5426  0.1205
  769MPD2    H511359   1.862   4.445  15.107  0.0346 -1.6398 -0.4443
  769MPD2    N111360   1.820   4.201  14.691  0.6506 -0.1208  0.4528
  769MPD2    H711361   1.857   4.144  14.615 -0.0995 -0.3568  0.2611
  770MPD2     C11362   0.979   4.191  14.892 -0.0248 -0.4225  0.0730
  770MPD2    C111363   1.014   4.105  14.788  0.7045  0.1399  0.3495
  770MPD2    C211364   1.093   4.155  14.685  0.5902 -0.0726  0.0982
  770MPD2    C311365   1.155   4.277  14.688 -0.0604  0.3288 -0.3141
  770MPD2    C411366   1.119   4.354  14.800  0.1166 -0.6229  0.2177
  770MPD2    C511367   1.033   4.315  14.895  0.3166  0.3449  0.9229
  770MPD2     H11368   1.121   4.076  14.615  0.3691 -0.8317  0.8695
  770MPD2    H111369   1.163   4.452  14.815  1.4196 -1.3748  1.3508
  770MPD2    H211370   0.923   4.156  14.978 -1.4392 -2.2491 -1.5843
  770MPD2    H311371   1.012   4.379  14.981  0.6813 -0.0117  1.2794
  770MPD2     N11372   1.252   4.318  14.598 -0.7605  0.3376  0.5037
  770MPD2    H511373   1.301   4.404  14.620 -2.2576  1.1985  0.4753
  770MPD2    N111374   0.976   3.968  14.790 -0.1507 -0.1209  0.5770
  770MPD2    H711375   1.013   3.928  14.704 -0.2793  2.7136 -0.7862
  771MPD2     C11376   2.554   2.704  13.875  0.3736  0.6233 -0.0477
  771MPD2    C111377   2.455   2.780  13.810 -0.1396 -1.0730 -0.2802
  771MPD2    C211378   2.331   2.730  13.776 -0.4901  0.6977  0.1250
  771MPD2    C311379   2.300   2.599  13.795 -0.0421  0.4096  0.1033
  771MPD2    C411380   2.391   2.522  13.865  1.1457  0.1963  1.2371
  771MPD2    C511381   2.512   2.572  13.905  0.3148 -0.1301  0.0878
  771MPD2     H11382   2.262   2.801  13.732 -0.5341  0.4085 -0.2750
  771MPD2    H111383   2.366   2.421  13.898  0.2467 -0.0230 -0.1239
  771MPD2    H211384   2.653   2.738  13.903  0.0083  0.3400  1.5896
  771MPD2    H311385   2.581   2.502  13.950  1.7234  1.0068 -0.2828
  771MPD2     N11386   2.178   2.549  13.756 -0.2460 -0.1946 -0.3437
  771MPD2    H511387   2.109   2.615  13.723 -1.2331 -0.6366  0.8663
  771MPD2    N111388   2.484   2.908  13.756  0.0386 -0.6262  0.6977
  771MPD2    H711389   2.408   2.954  13.706 -0.0917 -0.3182  1.1817
  772MPD2     C11390   2.224   3.311  13.225  0.8576  0.1385 -0.4328
  772MPD2    C111391   2.220   3.212  13.319  0.4421  0.2277  0.0783
  772MPD2    C211392   2.108   3.174  13.381  0.1295 -0.4346 -0.5690
  772MPD2    C311393   1.989   3.234  13.357 -0.7842 -0.2596 -0.0675
  772MPD2    C411394   1.985   3.332  13.257 -0.5956 -0.1552  0.0562
  772MPD2    C511395   2.100   3.365  13.188 -0.0826  0.2036 -0.0809
  772MPD2     H11396   2.129   3.091  13.447  0.3764  2.4316  2.9486
  772MPD2    H111397   1.899   3.399  13.253  0.6426  1.4514  0.5145
  772MPD2    H211398   2.317   3.348  13.184  2.0447 -2.2180  0.1103
  772MPD2    H311399   2.105   3.445  13.116 -0.4141  0.0252 -0.3020
  772MPD2     N11400   1.880   3.219  13.446 -0.2208  0.1303 -0.5497
  772MPD2    H511401   1.803   3.283  13.429  1.1688  1.1025 -3.1382
  772MPD2    N111402   2.341   3.162  13.376  0.4317  0.0493  0.1081
  772MPD2    H711403   2.326   3.098  13.453 -0.6383 -0.9739 -0.9423
  773MPD2     C11404   1.399   4.179   0.035 -0.0787  0.5824 -0.4963
  773MPD2    C111405   1.321   4.100  17.644  0.5959  0.1838 -0.8574
  773MPD2    C211406   1.320   3.961  17.658  0.5157  0.1651 -0.0404
  773MPD2    C311407   1.387   3.906   0.082 -0.7009 -0.1636 -0.9110
  773MPD2    C411408   1.466   3.993   0.155 -0.2631 -0.3074 -0.6141
  773MPD2    C511409   1.483   4.121   0.124  0.6837  0.3129  0.2674
  773MPD2     H11410   1.251   3.896  17.607  1.1682 -1.5134  1.1955
  773MPD2    H111411   1.525   3.948   0.234 -0.4263 -0.2327 -0.4504
  773MPD2    H211412   1.404   4.285   0.014  1.1879  0.8953  1.3718
  773MPD2    H311413   1.551   4.181   0.184 -0.5080  2.1846 -0.2218
  773MPD2     N11414   1.370   3.774   0.113  0.4659  0.0740 -0.2072
  773MPD2    H511415   1.318   3.723   0.043  0.4149  1.6009 -1.2879
  773MPD2    N111416   1.223   4.149  17.555  0.4539  0.0538  0.1954
  773MPD2    H711417   1.161   4.078  17.515  0.7566 -0.5230  0.7479
  774MPD2     C11418   0.389   2.527  13.518  0.2277 -0.9552 -0.8007
  774MPD2    C111419   0.477   2.630  13.539 -0.4448 -0.1208  0.7609
  774MPD2    C211420   0.498   2.716  13.438 -0.1158  0.1073 -0.0419
  774MPD2    C311421   0.451   2.695  13.311  0.3022 -0.3760 -1.1398
  774MPD2    C411422   0.369   2.590  13.290 -0.3824 -0.5960 -0.9764
  774MPD2    C511423   0.332   2.512  13.394  0.6072 -0.4743 -0.0586
  774MPD2     H11424   0.543   2.812  13.464 -0.9673 -0.0286  1.9378
  774MPD2    H111425   0.319   2.581  13.194 -2.8025  1.7652  0.0558
  774MPD2    H211426   0.375   2.454  13.597 -1.0705 -0.6289 -0.7233
  774MPD2    H311427   0.262   2.430  13.389  0.7055 -0.5468 -0.2469
  774MPD2     N11428   0.482   2.790  13.202  0.1856  0.4184 -0.5664
  774MPD2    H511429   0.548   2.862  13.229 -0.3872  1.3799 -1.7176
  774MPD2    N111430   0.526   2.642  13.673  0.3383 -0.4957 -0.1281
  774MPD2    H711431   0.468   2.601  13.745  0.2834  0.1599  0.2040
  775MPD2     C11432   1.998   4.378  15.707  0.1853 -0.6971  0.8725
  775MPD2    C111433   2.032   4.499  15.770 -0.9429 -0.0238  0.1637
  775MPD2    C211434   2.165   4.540  15.747 -0.0684 -0.3045 -0.0960
  775MPD2    C311435   2.243   4.487  15.657 -0.6485 -0.3793 -0.0619
  775MPD2    C411436   2.192   4.390  15.576 -0.0318  0.3591 -0.0050
  775MPD2    C511437   2.071   4.331  15.602 -0.3412  0.1936 -0.0932
  775MPD2     H11438   2.205   4.621  15.807 -1.3994 -0.0304  0.4141
  775MPD2    H111439   2.242   4.342  15.492 -1.8995  0.3839 -1.1261
  775MPD2    H211440   1.903   4.330  15.728 -0.7989  1.8410  2.2647
  775MPD2    H311441   2.038   4.249  15.539 -0.8937 -1.0104  1.7303
  775MPD2     N11442   2.380   4.523  15.626  0.0686 -0.1093 -0.5373
  775MPD2    H511443   2.409   4.470  15.545 -1.2555  0.5519 -1.4381
  775MPD2    N111444   1.953   4.543  15.880 -0.4675  0.6895  0.3198
  775MPD2    H711445   1.875   4.484  15.907 -0.0905  0.5565  1.1214
  776MPD2     C11446   1.215   0.495  12.222 -0.6979 -0.5163 -0.2923
  776MPD2    C111447   1.158   0.419  12.120 -0.4049  0.3147  0.0897
  776MPD2    C211448   1.090   0.486  12.022 -0.0057  0.2271 -0.4661
  776MPD2    C311449   1.087   0.622  12.019 -0.1579  0.5127  0.6247
  776MPD2    C411450   1.135   0.693  12.128 -0.8044 -0.4528  0.0117
  776MPD2    C511451   1.197   0.630  12.228 -0.0137 -0.7892  0.0601
  776MPD2     H11452   1.036   0.432  11.945  1.9458  0.7324 -2.1583
  776MPD2    H111453   1.142   0.799  12.147 -1.5569 -0.4389  0.2322
  776MPD2    H211454   1.257   0.442  12.307  2.0284  0.1677 -1.2095
  776MPD2    H311455   1.251   0.681  12.307 -0.3369  0.9283 -0.8326
  776MPD2     N11456   1.048   0.702  11.909  0.0447  0.2689  0.1035
  776MPD2    H511457   1.087   0.796  11.902 -0.0603  0.1982 -1.6190
  776MPD2    N111458   1.164   0.278  12.130 -0.2914 -0.4308  0.0978
  776MPD2    H711459   1.199   0.218  12.204 -1.5570 -2.6280 -1.0628
  777MPD2     C11460   0.929   2.596   0.697  0.3524  0.1061  0.5243
  777MPD2    C111461   1.066   2.588   0.702 -0.3177 -0.1412  0.3913
  777MPD2    C211462   1.134   2.527   0.598 -0.8845 -0.4128 -0.0771
  777MPD2    C311463   1.060   2.456   0.501 -0.1462  0.1220 -0.5440
  777MPD2    C411464   0.930   2.484   0.491 -0.3473  0.2864  0.7907
  777MPD2    C511465   0.864   2.542   0.592 -0.2866 -0.8406 -0.1501
  777MPD2     H11466   1.240   2.511   0.614 -1.2680 -0.9439  2.0141
  777MPD2    H111467   0.866   2.453   0.409 -0.9235  2.4035  0.4141
  777MPD2    H211468   0.881   2.647   0.779 -2.8642 -1.1670 -0.5890
  777MPD2    H311469   0.756   2.543   0.580  0.0164  2.1079 -2.5088
  777MPD2     N11470   1.132   2.372   0.408  1.2446  0.5013  0.2133
  777MPD2    H511471   1.230   2.347   0.418  0.9333 -0.1037  1.7441
  777MPD2    N111472   1.125   2.664   0.803 -0.5547  0.1588 -0.7948
  777MPD2    H711473   1.067   2.728   0.857  1.3012 -0.4242  1.8441
  778MPD2     C11474   2.715   2.830  14.892  0.3680  0.1650  0.6934
  778MPD2    C111475   2.703   2.720  14.812  0.1421  0.0002  0.0431
  778MPD2    C211476   2.739   2.735  14.684  0.4345  0.7975 -0.1661
  778MPD2    C311477   2.765   2.860  14.629  0.4796 -0.3020 -0.1502
  778MPD2    C411478   2.779   2.969  14.705  0.0950 -0.1022 -0.0223
  778MPD2    C511479   2.745   2.957  14.841 -1.3204 -0.1190  0.0149
  778MPD2     H11480   2.737   2.645  14.624 -2.2916  0.4798  0.4084
  778MPD2    H111481   2.817   3.065  14.671  0.5154 -0.1497  0.3139
  778MPD2    H211482   2.691   2.825  14.997  0.3635 -1.2500  0.6310
  778MPD2    H311483   2.757   3.037  14.913  0.1359 -0.2320 -0.1187
  778MPD2     N11484   2.780   2.869  14.496  0.3902 -0.0367 -0.0387
  778MPD2    H511485   2.752   2.787  14.444 -0.1149 -0.7772  1.3905
  778MPD2    N111486   2.659   2.594  14.868 -0.3332  0.5506 -0.0062
  778MPD2    H711487   2.662   2.507  14.816  1.7311 -0.1682  1.3117
  779MPD2     C11488   2.345   1.465  14.367 -0.3868  0.0422  0.2046
  779MPD2    C111489   2.469   1.497  14.325 -0.2559 -0.0063 -0.0375
  779MPD2    C211490   2.507   1.623  14.280 -0.5256  0.6349 -0.7574
  779MPD2    C311491   2.415   1.723  14.279  0.5620  0.5964  1.0253
  779MPD2    C411492   2.282   1.694  14.319 -0.6364 -0.5522  0.5877
  779MPD2    C511493   2.251   1.567  14.370  0.0280  0.1006  0.3575
  779MPD2     H11494   2.611   1.638  14.251  0.1849  0.2972  1.6260
  779MPD2    H111495   2.195   1.758  14.313 -1.3942 -1.5778  0.6503
  779MPD2    H211496   2.322   1.366  14.405 -0.5498  0.1547  0.4004
  779MPD2    H311497   2.156   1.547  14.419 -0.7087 -0.8450 -1.4342
  779MPD2     N11498   2.457   1.852  14.233  0.2235 -0.3827 -0.6452
  779MPD2    H511499   2.546   1.870  14.189  0.1671  1.9467  0.1946
  779MPD2    N111500   2.581   1.410  14.316  0.9266  0.0383  0.3307
  779MPD2    H711501   2.668   1.429  14.267  0.0529  0.9903 -0.8344
  780MPD2     C11502   2.380   1.598   1.045  0.6755  0.0127 -0.3075
  780MPD2    C111503   2.266   1.665   1.067  0.6182  0.7004 -0.2900
  780MPD2    C211504   2.218   1.745   0.968  0.0980 -0.5697  0.5839
  780MPD2    C311505   2.274   1.742   0.841  0.1505 -0.1278  0.6702
  780MPD2    C411506   2.394   1.678   0.824  0.4871  0.2395 -0.3965
  780MPD2    C511507   2.446   1.607   0.928  0.3530 -0.1847 -0.7104
  780MPD2     H11508   2.136   1.814   0.980  2.9935  2.6990  1.7323
  780MPD2    H111509   2.464   1.694   0.742  0.4656  1.6617 -0.1399
  780MPD2    H211510   2.425   1.545   1.128 -2.1850 -0.4357  0.9827
  780MPD2    H311511   2.548   1.569   0.923  0.5285  0.1175  0.6925
  780MPD2     N11512   2.218   1.818   0.733 -0.0630 -0.0477  0.5316
  780MPD2    H511513   2.135   1.873   0.755  0.9136  1.4516  0.4827
  780MPD2    N111514   2.207   1.645   1.202 -0.1788  0.2007  0.6870
  780MPD2    H711515   2.265   1.577   1.250  1.7538  1.3229 -0.0332
  781MPD2     C11516   3.315   3.542  12.266  0.2139 -0.1965  0.9405
  781MPD2    C111517   3.288   3.409  12.299 -0.2952 -0.0287 -0.5685
  781MPD2    C211518   3.242   3.323  12.202 -0.0811 -0.8752  0.3607
  781MPD2    C311519   3.217   3.372  12.069  0.0357 -0.6630  0.8389
  781MPD2    C411520   3.251   3.508  12.041  0.9241 -0.4893  0.3339
  781MPD2    C511521   3.296   3.593  12.142 -0.9109  0.8309  0.1385
  781MPD2     H11522   3.221   3.223  12.239 -2.4153 -0.0821  1.1808
  781MPD2    H111523   3.240   3.540  11.938  2.3366 -2.5845 -0.4588
  781MPD2    H211524   3.366   3.608  12.336  0.6090  1.9289 -1.3774
  781MPD2    H311525   3.338   3.692  12.125  2.9989 -1.0742 -1.2109
  781MPD2     N11526   3.165   3.299  11.960  0.2186  0.2321 -0.2212
  781MPD2    H511527   3.174   3.347  11.871  0.5967 -0.9301 -0.8039
  781MPD2    N111528   3.319   3.351  12.425  0.1824 -0.2406 -0.0881
  781MPD2    H711529   3.297   3.253  12.438  0.3029 -0.5141 -1.8716
  782MPD2     C11530   1.618   4.038  10.534 -0.3151 -0.0842 -0.0474
  782MPD2    C111531   1.746   4.000  10.501  0.4077  0.2776 -0.3657
  782MPD2    C211532   1.853   4.085  10.531 -0.1483 -0.0643  0.5291
  782MPD2    C311533   1.832   4.207  10.596 -0.8028 -0.1113  0.0969
  782MPD2    C411534   1.698   4.243  10.621  0.4654  0.4364  0.4299
  782MPD2    C511535   1.592   4.157  10.594 -0.6448 -0.4173 -0.1559
  782MPD2     H11536   1.954   4.052  10.512  0.0142  1.8279 -1.9137
  782MPD2    H111537   1.674   4.337  10.669  0.6867  1.3371 -1.2272
  782MPD2    H211538   1.536   3.967  10.534  0.5416 -1.0643 -2.5818
  782MPD2    H311539   1.496   4.171  10.642 -0.2784 -0.5313  0.6197
  782MPD2     N11540   1.939   4.294  10.644  0.0225 -0.1460  0.7765
  782MPD2    H511541   1.906   4.374  10.696 -2.4918 -1.7996  1.7151
  782MPD2    N111542   1.776   3.870  10.465 -0.1470  0.4842  0.0629
  782MPD2    H711543   1.869   3.851  10.431 -0.2075 -0.4413  0.4057
  783MPD2     C11544   1.594   3.420  11.257 -0.1106 -0.3331 -0.0596
  783MPD2    C111545   1.549   3.524  11.182  0.5481 -0.0891  0.2743
  783MPD2    C211546   1.588   3.547  11.048  0.8341 -0.1753  0.5272
  783MPD2    C311547   1.685   3.461  10.989 -0.8058  0.0978 -0.2992
  783MPD2    C411548   1.728   3.359  11.067 -0.0685  0.6773  0.0201
  783MPD2    C511549   1.683   3.338  11.200  0.5261 -0.5746 -0.3884
  783MPD2     H11550   1.549   3.634  10.995 -0.7440 -2.4893 -2.0889
  783MPD2    H111551   1.803   3.291  11.027  0.1811  1.0805 -0.1961
  783MPD2    H211552   1.567   3.398  11.359  1.4975  0.5827  0.5553
  783MPD2    H311553   1.710   3.247  11.253 -2.4167 -1.3491 -0.2309
  783MPD2     N11554   1.725   3.495  10.862  0.3025  0.3913 -0.6936
  783MPD2    H511555   1.674   3.576  10.829  0.1606  0.8715  0.7011
  783MPD2    N111556   1.452   3.608  11.241  0.0059 -0.0182  0.3759
  783MPD2    H711557   1.416   3.575  11.330 -0.9805  1.5222  0.5374
  784MPD2     C11558   3.179   0.059   0.916  0.3324 -0.7274  0.1061
  784MPD2    C111559   3.228   0.172   0.981  0.1869 -0.2494 -0.0429
  784MPD2    C211560   3.166   0.219   1.092 -0.4119  0.4263  0.2937
  784MPD2    C311561   3.064   0.148   1.151 -0.5888 -0.3596 -0.2825
  784MPD2    C411562   3.026   0.030   1.094 -0.2134  0.3121 -0.0702
  784MPD2    C511563   3.070   4.720   0.971  0.4885 -0.2702 -0.3753
  784MPD2     H11564   3.199   0.311   1.138  0.1643  1.0666 -1.4242
  784MPD2    H111565   2.943   4.690   1.127  1.6262 -2.5430 -0.7409
  784MPD2    H211566   3.228   0.019   0.827  1.5036 -3.1214  1.8071
  784MPD2    H311567   3.045   4.627   0.923 -0.3365  0.3015 -1.0487
  784MPD2     N11568   2.993   0.203   1.260  0.5565 -0.3618 -0.2338
  784MPD2    H511569   3.019   0.296   1.289 -0.9539  0.2531 -0.8598
  784MPD2    N111570   3.346   0.235   0.936 -0.3589 -0.1655 -0.1966
  784MPD2    H711571   3.381   0.307   0.998  0.8731  0.0994 -1.1959
  785MPD2     C11572   3.665   3.070  11.158 -0.1846 -0.6078 -0.6217
  785MPD2    C111573   3.631   3.150  11.049 -1.0194 -0.4701  0.2865
  785MPD2    C211574   3.667   3.107  10.919  1.0404 -1.2350  0.5227
  785MPD2    C311575   3.755   2.999  10.905 -0.2603 -0.1034 -0.4484
  785MPD2    C411576   3.797   2.926  11.016  0.4967  0.2331  0.4351
  785MPD2    C511577   3.744   2.957  11.139 -0.0051  1.3263  0.4897
  785MPD2     H11578   3.637   3.150  10.824 -1.1273 -0.7246  1.4576
  785MPD2    H111579   3.867   2.843  11.011  0.1651  0.0432 -0.8211
  785MPD2    H211580   3.613   3.082  11.252  1.1819  0.9387 -0.0661
  785MPD2    H311581   3.772   2.893  11.222 -1.3606 -0.7741 -0.6848
  785MPD2     N11582   3.792   2.976  10.767  0.3684 -0.4112  0.4150
  785MPD2    H511583   3.751   3.036  10.696  0.6652  0.4640  0.9804
  785MPD2    N111584   3.567   3.273  11.081  0.8257 -0.4556 -0.6967
  785MPD2    H711585   3.549   3.295  11.178 -0.5619 -0.8806 -0.8556
  786MPD2     C11586   3.022   0.512  15.149 -0.4630  0.1792  0.5337
  786MPD2    C111587   3.104   0.602  15.080  0.4083  0.1852  1.0542
  786MPD2    C211588   3.178   0.697  15.156 -0.1160  0.7800  0.3276
  786MPD2    C311589   3.177   0.697  15.295  0.2420 -0.4629  0.0944
  786MPD2    C411590   3.093   0.610  15.362  0.1026  0.9866  1.2169
  786MPD2    C511591   3.016   0.518  15.286 -0.3300  0.1937  0.2920
  786MPD2     H11592   3.245   0.765  15.104  0.5044 -1.1323 -1.3821
  786MPD2    H111593   3.084   0.610  15.470 -0.5516  0.0518  1.1597
  786MPD2    H211594   2.960   0.439  15.099  0.8024  0.6134 -1.6768
  786MPD2    H311595   2.948   0.449  15.334 -0.3680  0.9347  1.3114
  786MPD2     N11596   3.258   0.782  15.374 -0.3774 -0.3388 -0.2820
  786MPD2    H511597   3.254   0.760  15.472 -0.7688  0.2313 -0.1686
  786MPD2    N111598   3.118   0.586  14.945 -0.1884 -0.3444 -0.5720
  786MPD2    H711599   3.189   0.643  14.900  0.1837 -1.0468 -0.8821
  787MPD2     C11600   3.685   0.549  14.878  0.0681  0.4599 -0.6838
  787MPD2    C111601   3.650   0.448  14.796 -0.4958  0.0405  0.3211
  787MPD2    C211602   3.735   0.340  14.781  0.2588  0.8676 -0.2949
  787MPD2    C311603   3.854   0.327  14.850  0.7510 -0.2590  0.0040
  787MPD2    C411604   3.874   0.420  14.948  0.3115  0.6624 -0.1343
  787MPD2    C511605   3.800   0.536  14.955  1.4462 -0.1635  0.3426
  787MPD2     H11606   3.697   0.259  14.720 -0.6090 -0.4629  2.0077
  787MPD2    H111607   3.952   0.404  15.021  2.0985  0.1175 -2.1670
  787MPD2    H211608   3.622   0.634  14.900  1.6543  1.6292 -0.6882
  787MPD2    H311609   3.818   0.603  15.038 -1.6150  0.4878  0.4979
  787MPD2     N11610   3.942   0.221  14.830 -0.5701  0.5335 -0.1549
  787MPD2    H511611   3.924   0.161  14.751  2.1515 -1.1428  0.5104
  787MPD2    N111612   3.523   0.463  14.728  0.0026  0.4825  0.1496
  787MPD2    H711613   3.472   0.547  14.752  0.5120  1.1592 -1.1133
  788MPD2     C11614   0.415   4.025   0.356 -0.1292 -0.1404 -0.3871
  788MPD2    C111615   0.292   3.965   0.375 -0.0217 -0.4877  0.1510
  788MPD2    C211616   0.199   3.978   0.278  0.4180  0.3979 -0.0524
  788MPD2    C311617   0.230   4.032   0.154  0.2855  0.1156  0.4846
  788MPD2    C411618   0.357   4.081   0.135  0.9443 -0.4190  0.1755
  788MPD2    C511619   0.450   4.079   0.235 -0.2273 -0.0069 -0.4849
  788MPD2     H11620   0.109   3.919   0.291  0.2885  0.2172 -1.6993
  788MPD2    H111621   0.394   4.113   0.038 -2.9816  1.6205 -0.6329
  788MPD2    H211622   0.499   4.023   0.425 -0.0620  0.2666 -0.4550
  788MPD2    H311623   0.552   4.111   0.218 -0.3668  1.6087  1.7094
  788MPD2     N11624   0.143   4.037   0.047  0.0831  0.2142 -0.4134
  788MPD2    H511625   0.175   4.072  17.643 -0.2576  0.0849 -0.5853
  788MPD2    N111626   0.254   3.897   0.491  0.2358  0.1469  0.3385
  788MPD2    H711627   0.157   3.866   0.496  0.0295  0.6392 -0.5759
  789MPD2     C11628   0.438   3.773  16.186 -0.6674 -0.0031  0.0861
  789MPD2    C111629   0.422   3.649  16.239 -0.2465 -0.1892  0.1403
  789MPD2    C211630   0.314   3.627  16.329 -0.4099 -0.9414 -0.2443
  789MPD2    C311631   0.226   3.735  16.361  0.4689 -0.0490 -0.5819
  789MPD2    C411632   0.250   3.860  16.302 -0.0828 -0.0882  0.4081
  789MPD2    C511633   0.361   3.876  16.227  0.0176  0.9837  0.3561
  789MPD2     H11634   0.305   3.528  16.373 -1.3677  0.3102  2.3337
  789MPD2    H111635   0.173   3.935  16.315 -1.5494 -1.2703 -1.5217
  789MPD2    H211636   0.522   3.804  16.126 -0.2831 -1.2457 -0.0145
  789MPD2    H311637   0.374   3.971  16.178 -0.5512  1.1590  0.5473
  789MPD2     N11638   0.104   3.724  16.428 -0.0761 -0.3085  0.2817
  789MPD2    H511639   0.044   3.806  16.424 -0.5596 -0.7795 -2.1660
  789MPD2    N111640   0.495   3.536  16.204  0.2160  0.3093  0.0698
  789MPD2    H711641   0.477   3.460  16.269  2.1939 -1.3867 -1.3995
  790MPD2     C11642   1.150   0.640  13.808 -0.2571 -0.4887  0.0402
  790MPD2    C111643   1.180   0.503  13.809 -0.2736  0.2468  0.4860
  790MPD2    C211644   1.128   0.428  13.702 -0.0904  0.6874 -0.2851
  790MPD2    C311645   1.055   0.485  13.601  0.1221  0.5291  0.6082
  790MPD2    C411646   1.034   0.621  13.601 -0.2022  0.2881  0.2418
  790MPD2    C511647   1.072   0.701  13.708  0.2557  0.0730  0.1510
  790MPD2     H11648   1.148   0.322  13.690  0.1752  0.5762  1.1236
  790MPD2    H111649   0.989   0.665  13.513 -0.0194 -0.6708 -0.3326
  790MPD2    H211650   1.178   0.699  13.895 -0.8949 -0.1309  0.0042
  790MPD2    H311651   1.050   0.807  13.716 -2.1881 -0.2024 -2.6256
  790MPD2     N11652   1.028   0.396  13.497  0.4020 -0.3034 -0.1067
  790MPD2    H511653   1.051   0.300  13.518  0.7580 -0.0414  0.7028
  790MPD2    N111654   1.272   0.456  13.907 -0.3213 -0.1148  0.7203
  790MPD2    H711655   1.309   0.529  13.968 -1.4991 -1.1070  2.6277
  791MPD2     C11656   0.447   0.345  13.015  0.2279 -0.3644 -0.9352
  791MPD2    C111657   0.517   0.222  13.015 -0.1035  0.3483 -0.6096
  791MPD2    C211658   0.458   0.108  12.983 -0.0612 -0.7514 -0.3942
  791MPD2    C311659   0.331   0.114  12.921 -0.3397 -0.5992 -0.1751
  791MPD2    C411660   0.267   0.239  12.916  0.7545  0.5948  0.6315
  791MPD2    C511661   0.320   0.353  12.975  1.2199  0.3428 -0.4555
  791MPD2     H11662   0.502   0.009  12.993  1.5075  0.2782  2.9061
  791MPD2    H111663   0.165   0.245  12.880  1.4207 -1.0934 -1.5359
  791MPD2    H211664   0.493   0.433  13.060 -0.3483 -0.3581 -0.3486
  791MPD2    H311665   0.269   0.448  12.983 -0.4380 -0.7866  2.4625
  791MPD2     N11666   0.269   4.717  12.870  0.1765 -0.0036 -0.3328
  791MPD2    H511667   0.301   4.624  12.898 -0.1867  0.1272  0.5202
  791MPD2    N111668   0.643   0.235  13.074 -0.0207 -0.4874  0.4205
  791MPD2    H711669   0.682   0.329  13.078 -2.4360  0.4470  1.6722
  792MPD2     C11670   1.816   0.094  11.267  0.1015 -0.2102 -0.3738
  792MPD2    C111671   1.711   0.153  11.203  0.1403  0.0587  0.1337
  792MPD2    C211672   1.629   0.079  11.121 -0.2134  0.3301  0.3770
  792MPD2    C311673   1.653   4.664  11.098  1.2704 -0.3247 -0.5750
  792MPD2    C411674   1.756   4.605  11.170  0.8810  0.6562 -0.7628
  792MPD2    C511675   1.829   4.681  11.260  0.2320 -0.4261 -0.3065
  792MPD2     H11676   1.537   0.118  11.079 -0.0480  0.9992  0.6278
  792MPD2    H111677   1.770   4.497  11.174  0.1055  0.5687 -0.3999
  792MPD2    H211678   1.867   0.152  11.343 -3.2589 -1.9203  3.2259
  792MPD2    H311679   1.896   4.636  11.333  1.3315  2.0664  0.2307
  792MPD2     N11680   1.584   4.587  11.007  0.1653  0.2639  0.4671
  792MPD2    H511681   1.599   4.487  11.007  0.2789  0.2627 -3.5588
  792MPD2    N111682   1.694   0.294  11.211  0.2455  0.4329 -0.0703
  792MPD2    H711683   1.768   0.344  11.259 -0.1801  1.1198 -0.1348
  793MPD2     C11684   0.939   4.712  10.208  0.0309  0.2031  0.0799
  793MPD2    C111685   1.076   4.700  10.210  0.0546  0.3363  0.8649
  793MPD2    C211686   1.132   4.661  10.330 -0.2518  0.0882 -0.7469
  793MPD2    C311687   1.063   4.649  10.449 -0.0333  0.6253  0.1642
  793MPD2    C411688   0.927   4.672  10.443  0.0278  0.0845 -0.2431
  793MPD2    C511689   0.870   4.694  10.322  0.1805  0.2269  0.0289
  793MPD2     H11690   1.237   4.634  10.336 -0.5812 -1.1025 -0.2025
  793MPD2    H111691   0.862   4.675  10.529  0.6082 -0.8100  0.2202
  793MPD2    H211692   0.885   0.023  10.120  1.1060  1.5692 -0.0922
  793MPD2    H311693   0.761   4.697  10.321  0.1836  0.5594  0.5941
  793MPD2     N11694   1.135   4.623  10.571 -0.6083  0.1145 -0.2307
  793MPD2    H511695   1.236   4.612  10.569 -0.5863  0.0079  2.0524
  793MPD2    N111696   1.150   4.704  10.088 -0.7210 -0.0638 -0.5999
  793MPD2    H711697   1.251   4.696  10.091 -0.7476 -0.7066 -1.7119
  794MPD2     C11698   1.143   4.463  16.806  0.1044  0.4065 -0.6015
  794MPD2    C111699   1.015   4.440  16.843  0.1355 -0.7473 -0.4021
  794MPD2    C211700   0.913   4.470  16.754 -1.0182  0.3121 -0.3800
  794MPD2    C311701   0.929   4.526  16.630 -0.3347 -0.5182 -1.0843
  794MPD2    C411702   1.061   4.535  16.590 -0.4041 -0.9077 -0.1530
  794MPD2    C511703   1.157   4.514  16.681  0.5767  0.2216 -0.4384
  794MPD2     H11704   0.811   4.462  16.792 -1.2056  2.4319 -0.3955
  794MPD2    H111705   1.093   4.559  16.489  0.3939 -0.2579  0.2520
  794MPD2    H211706   1.235   4.426  16.848 -0.6381 -0.8575 -0.1044
  794MPD2    H311707   1.258   4.522  16.644  1.1666  3.8098  1.9854
  794MPD2     N11708   0.823   4.542  16.538 -0.0303  0.2479  0.3318
  794MPD2    H511709   0.844   4.567  16.442 -4.1259 -1.1543 -0.9043
  794MPD2    N111710   0.993   4.392  16.974  0.7361 -0.1338  0.3288
  794MPD2    H711711   0.898   4.365  16.998  0.6625  0.2920  0.5150
  795MPD2     C11712   3.730   1.673  12.783  0.0650  0.4173  0.0216
  795MPD2    C111713   3.701   1.577  12.873  0.3682  0.5044  0.2450
  795MPD2    C211714   3.783   1.561  12.978 -0.2734 -0.3992  0.1869
  795MPD2    C311715   3.890   1.637  12.984 -0.2438  0.2022 -0.7139
  795MPD2    C411716   3.930   1.728  12.887 -0.2398 -0.2697  0.3013
  795MPD2    C511717   3.849   1.746  12.781  0.1520 -0.0710 -0.5140
  795MPD2     H11718   3.759   1.481  13.047 -1.4288  0.8560  1.2276
  795MPD2    H111719   4.024   1.781  12.894 -0.0870 -0.4140 -0.6419
  795MPD2    H211720   3.672   1.686  12.692 -0.0187 -0.9787 -0.1287
  795MPD2    H311721   3.877   1.822  12.710 -0.8272 -0.6984 -1.5830
  795MPD2     N11722   3.985   1.592  13.086 -0.3028 -0.2959 -0.7588
  795MPD2    H511723   3.973   1.504  13.136 -3.4843 -0.3130 -1.5741
  795MPD2    N111724   3.590   1.499  12.864 -0.6498 -0.4816 -0.1369
  795MPD2    H711725   3.573   1.450  12.952 -1.5464 -1.5065 -0.8710
  796MPD2     C11726   3.196   3.222  15.990  0.2965 -0.1263  0.0480
  796MPD2    C111727   3.316   3.286  16.008  0.3448  0.5640  0.2021
  796MPD2    C211728   3.313   3.422  16.013  0.4339 -0.4700  0.4817
  796MPD2    C311729   3.198   3.492  16.006 -0.6715 -0.5005  0.5783
  796MPD2    C411730   3.074   3.424  16.006  0.2568 -0.3687 -0.3182
  796MPD2    C511731   3.080   3.291  15.975  0.0131  0.1240 -0.2233
  796MPD2     H11732   3.409   3.471  16.015  1.2404 -2.0722  0.1880
  796MPD2    H111733   2.975   3.468  16.009  0.2068 -0.4773 -0.3784
  796MPD2    H211734   3.195   3.114  15.982 -2.3272 -0.1116  0.0472
  796MPD2    H311735   2.989   3.241  15.942 -0.2910 -0.8524  2.1120
  796MPD2     N11736   3.213   3.631  16.001 -0.1679 -0.8112 -0.4417
  796MPD2    H511737   3.306   3.663  15.979 -0.6685  0.5226 -0.6127
  796MPD2    N111738   3.433   3.209  16.018  0.1153  0.2547 -1.2743
  796MPD2    H711739   3.424   3.109  16.003  1.9290 -0.0929 -0.0713
  797MPD2     C11740   3.833   2.973  16.820  0.4780  0.1311  0.1146
  797MPD2    C111741   3.808   3.069  16.924 -0.6739  0.4154  0.1059
  797MPD2    C211742   3.728   3.173  16.905  0.1778 -0.0839  0.1333
  797MPD2    C311743   3.671   3.190  16.779  0.1379  0.4573  0.3454
  797MPD2    C411744   3.690   3.096  16.678 -0.3611  0.1315  1.1149
  797MPD2    C511745   3.762   2.986  16.707  0.4881  0.3998 -0.5464
  797MPD2     H11746   3.724   3.240  16.990  0.2455 -0.9139  0.7935
  797MPD2    H111747   3.625   3.104  16.592  0.1389  0.5699  0.7745
  797MPD2    H211748   3.911   2.898  16.826 -0.9139 -1.3526 -0.4293
  797MPD2    H311749   3.755   2.919  16.622 -1.7673 -1.6963  1.3056
  797MPD2     N11750   3.603   3.310  16.744  1.0128  0.2494 -0.1493
  797MPD2    H511751   3.576   3.329  16.649 -2.1619 -1.4054  0.4021
  797MPD2    N111752   3.870   3.058  17.047 -0.1145 -0.0262  0.3323
  797MPD2    H711753   3.846   3.135  17.109 -0.1875  2.2081 -2.4653
  798MPD2     C11754   3.639   3.669  17.327 -0.3047 -0.2241  0.1688
  798MPD2    C111755   3.715   3.628  17.218 -0.2089 -0.0032 -0.4357
  798MPD2    C211756   3.806   3.526  17.245 -1.2905 -0.1517 -0.3822
  798MPD2    C311757   3.804   3.446  17.365  0.5997  0.5229 -0.2486
  798MPD2    C411758   3.734   3.498  17.471  0.5777  0.7240 -0.1190
  798MPD2    C511759   3.651   3.608  17.447  1.0226 -0.0192 -0.3863
  798MPD2     H11760   3.865   3.490  17.161  0.5639  0.7270  0.5522
  798MPD2    H111761   3.739   3.457  17.571  0.0461 -0.9760 -0.7799
  798MPD2    H211762   3.572   3.753  17.328 -2.5117 -1.9790  0.0339
  798MPD2    H311763   3.594   3.650  17.529  3.4993  0.0399  1.2941
  798MPD2     N11764   3.878   3.323  17.370  0.1392  0.3071 -0.1773
  798MPD2    H511765   3.929   3.298  17.286  0.0742 -1.0790  0.2015
  798MPD2    N111766   3.694   3.670  17.089 -0.0569  0.2091 -0.2741
  798MPD2    H711767   3.751   3.627  17.018 -1.6722 -1.4143 -0.5999
  799MPD2     C11768   3.427   4.509  14.593 -0.3925  0.3696 -0.2749
  799MPD2    C111769   3.347   4.430  14.510  0.5860 -0.1618 -0.6638
  799MPD2    C211770   3.266   4.485  14.408  0.6410 -0.1315  0.0593
  799MPD2    C311771   3.266   4.619  14.394  0.0654  0.2541  0.0684
  799MPD2    C411772   3.343   4.698  14.478  0.8783  1.1647 -0.0085
  799MPD2    C511773   3.422   4.640  14.573  0.4665 -0.0143 -0.1098
  799MPD2     H11774   3.213   4.426  14.334 -1.6425  0.2567  1.4026
  799MPD2    H111775   3.343   0.085  14.470 -0.0689  1.2040  0.4944
  799MPD2    H211776   3.478   4.480  14.685  0.7527  0.1828 -0.9643
  799MPD2    H311777   3.479   4.701  14.643  0.1505 -1.9179  1.7910
  799MPD2     N11778   3.193   4.687  14.302  0.5190 -0.4125 -0.0140
  799MPD2    H511779   3.213   0.064  14.286 -1.2558 -0.0077  0.2245
  799MPD2    N111780   3.343   4.289  14.516  0.2001  0.1310  0.0712
  799MPD2    H711781   3.266   4.251  14.462  0.4716 -2.1648  1.2970
  800MPD2     C11782   3.511   1.161  13.885 -0.0106 -0.5729  0.7794
  800MPD2    C111783   3.638   1.130  13.834 -0.5438  0.0160  0.3953
  800MPD2    C211784   3.643   1.024  13.749 -0.0597  0.2712 -0.2273
  800MPD2    C311785   3.531   0.951  13.716 -0.2898 -0.1207  1.0917
  800MPD2    C411786   3.409   0.976  13.774  0.6427  0.6423  0.4959
  800MPD2    C511787   3.401   1.086  13.857  0.2689  0.0976 -0.5424
  800MPD2     H11788   3.740   0.987  13.719 -0.4387 -1.2080  0.3475
  800MPD2    H111789   3.321   0.914  13.762  0.0655  1.6628 -0.5177
  800MPD2    H211790   3.490   1.245  13.950  4.3533  0.3576  0.9746
  800MPD2    H311791   3.309   1.104  13.911 -0.5039 -0.0961 -1.7730
  800MPD2     N11792   3.545   0.842  13.630  0.3462 -0.5652 -0.0995
  800MPD2    H511793   3.471   0.773  13.634 -1.3585  1.2967  0.3943
  800MPD2    N111794   3.752   1.202  13.878 -0.1668  0.0138  0.3958
  800MPD2    H711795   3.736   1.272  13.949  2.2151  0.2020  0.7437
  801MPD2     C11796   3.897   1.596  14.403  0.5156 -0.7909  0.4766
  801MPD2    C111797   3.820   1.566  14.290 -0.1859 -0.4821 -0.0637
  801MPD2    C211798   3.684   1.569  14.299 -0.8108  0.0653  0.3109
  801MPD2    C311799   3.614   1.597  14.414 -0.4509  0.2248 -0.2556
  801MPD2    C411800   3.687   1.625  14.531  0.4213  0.9278  0.4259
  801MPD2    C511801   3.825   1.615  14.523  0.6906  0.5175  0.4132
  801MPD2     H11802   3.623   1.561  14.210 -0.2850 -1.1503  0.0609
  801MPD2    H111803   3.630   1.657  14.617 -1.4535 -1.8647  0.2156
  801MPD2    H211804   4.004   1.580  14.408  0.2370 -2.4549  1.1352
  801MPD2    H311805   3.877   1.617  14.618 -0.9122  0.1101  1.3030
  801MPD2     N11806   3.469   1.602  14.423  0.1753  0.3136 -0.6599
  801MPD2    H511807   3.421   1.592  14.512  1.2698  0.9962 -0.0066
  801MPD2    N111808   3.881   1.510  14.174  0.5133  0.2354 -0.3193
  801MPD2    H711809   3.814   1.469  14.110  1.5392  0.1608 -1.3471
  802MPD2     C11810   3.151   2.181   0.541  0.8121  0.4643 -0.4388
  802MPD2    C111811   3.085   2.212   0.424  0.5295  0.5217 -0.6577
  802MPD2    C211812   3.084   2.126   0.317 -0.2540  0.1386 -0.2292
  802MPD2    C311813   3.158   2.012   0.322  0.5203 -0.0714 -0.1436
  802MPD2    C411814   3.222   1.973   0.443  0.2865  0.6295 -0.2693
  802MPD2    C511815   3.221   2.066   0.544 -0.7224  0.0185 -0.0290
  802MPD2     H11816   3.027   2.153   0.229 -0.1931  0.4896 -0.1613
  802MPD2    H111817   3.283   1.886   0.462 -0.0631  0.0625 -1.7636
  802MPD2    H211818   3.169   2.250   0.623 -2.1820 -0.1483  0.7145
  802MPD2    H311819   3.271   2.040   0.637 -2.4993 -1.1339  0.5932
  802MPD2     N11820   3.146   1.927   0.212  0.4469 -0.3256 -0.1804
  802MPD2    H511821   3.088   1.955   0.133  1.6005  1.1329 -0.4890
  802MPD2    N111822   3.005   2.332   0.438 -0.2322  0.0789  0.7746
  802MPD2    H711823   2.995   2.372   0.531  0.8622  0.6645  0.6432
  803MPD2     C11824   3.832   0.431  12.031  0.2411  0.4817  0.5051
  803MPD2    C111825   3.926   0.330  12.029 -0.5160 -0.4570  0.1009
  803MPD2    C211826   3.901   0.208  12.100  0.5812  0.2099 -0.0668
  803MPD2    C311827   3.791   0.191  12.186  0.5923 -0.1447 -0.2574
  803MPD2    C411828   3.700   0.303  12.189 -0.1001 -0.3637  0.0903
  803MPD2    C511829   3.726   0.413  12.104  0.2216  0.6719 -0.6473
  803MPD2     H11830   3.976   0.130  12.113 -1.9163 -1.8878  1.7468
  803MPD2    H111831   3.613   0.307  12.254  1.3528  0.8595  1.9610
  803MPD2    H211832   3.847   0.525  11.978  0.7706  0.2738  0.2801
  803MPD2    H311833   3.647   0.487  12.104  0.1713  0.6131 -2.3367
  803MPD2     N11834   3.777   0.077  12.274  0.5042 -0.0627 -0.0452
  803MPD2    H511835   3.704   0.093  12.343  1.0961 -1.7360  0.9602
  803MPD2    N111836   4.052   0.342  11.965 -0.2786  0.2227  0.1180
  803MPD2    H711837   4.095   0.253  11.946 -1.6490  0.1923 -2.8497
  804MPD2     C11838   3.369   1.634  17.299 -0.1642  0.3112  0.2699
  804MPD2    C111839   3.429   1.583  17.410 -0.1839  0.2545 -0.3034
  804MPD2    C211840   3.528   1.651  17.472  0.2895 -0.2561  0.1812
  804MPD2    C311841   3.573   1.771  17.413  0.7374  0.1511 -0.7910
  804MPD2    C411842   3.517   1.820  17.294  0.4598 -0.3490 -0.2767
  804MPD2    C511843   3.418   1.743  17.238 -0.4189 -0.6636  0.4731
  804MPD2     H11844   3.587   1.614  17.555 -1.0914  1.0876  1.7489
  804MPD2    H111845   3.553   1.909  17.245  1.3018 -0.1425  0.7125
  804MPD2    H211846   3.292   1.580  17.246 -0.3267  1.7793 -1.0003
  804MPD2    H311847   3.379   1.774  17.142  0.9588 -0.9870 -0.1872
  804MPD2     N11848   3.684   1.832  17.472 -0.2137  0.2781  0.0948
  804MPD2    H511849   3.748   1.787  17.536  0.3475  2.6051  1.1749
  804MPD2    N111850   3.419   1.448  17.450 -0.3828  1.1071  0.0843
  804MPD2    H711851   3.477   1.419  17.528 -0.3612  0.0244 -0.3385
  805MPD2     C11852   2.885   4.589  15.294  0.4875  0.0671  0.3835
  805MPD2    C111853   2.983   4.677  15.247  0.0046  0.1232  0.2755
  805MPD2    C211854   3.095   4.701  15.323 -0.4739  0.8650 -0.0604
  805MPD2    C311855   3.118   4.650  15.450 -0.4633 -0.2346 -0.4610
  805MPD2    C411856   3.018   4.569  15.498  0.1639  0.1637  0.1874
  805MPD2    C511857   2.910   4.538  15.417  0.2478 -0.6326  0.2138
  805MPD2     H11858   3.160   0.050  15.272 -0.5619  1.2611  0.3674
  805MPD2    H111859   3.019   4.525  15.597  0.4713 -1.6721 -0.6343
  805MPD2    H211860   2.794   4.559  15.242  0.5792  1.7355 -0.7298
  805MPD2    H311861   2.835   4.477  15.466 -1.5870  0.8683 -0.7469
  805MPD2     N11862   3.235   4.697  15.517 -0.2538  0.2335 -0.3276
  805MPD2    H511863   3.289   0.056  15.484  0.1468 -0.0826 -0.4262
  805MPD2    N111864   2.992   0.005  15.109 -0.0617  0.1790 -0.4342
  805MPD2    H711865   3.074   0.059  15.084  1.8226 -2.2001  0.5510
  806MPD2     C11866   3.274   4.158  17.638  0.6066 -1.0289  0.4489
  806MPD2    C111867   3.313   4.219   0.072 -0.5452  1.0311 -0.4430
  806MPD2    C211868   3.402   4.325   0.068  0.1395  0.3564 -0.2152
  806MPD2    C311869   3.478   4.359  17.639 -0.8561  0.0303 -0.4316
  806MPD2    C411870   3.444   4.287  17.526  0.2240 -0.5326  0.1003
  806MPD2    C511871   3.341   4.194  17.527 -0.0815  0.2665  0.1351
  806MPD2     H11872   3.437   4.358   0.165 -0.3677  2.8937 -0.8901
  806MPD2    H111873   3.504   4.307  17.438  2.2466 -3.7801  0.7133
  806MPD2    H211874   3.207   4.073  17.633  0.0714 -0.5267 -0.8663
  806MPD2    H311875   3.339   4.133  17.437  0.3021  0.8194 -0.2431
  806MPD2     N11876   3.578   4.464  17.639 -0.3814  0.4821 -0.1719
  806MPD2    H511877   3.592   4.508   0.043 -1.9758 -0.9080  0.7637
  806MPD2    N111878   3.241   4.194   0.195  0.0159  0.2215  0.1141
  806MPD2    H711879   3.182   4.111   0.193  0.9742 -0.4333 -1.4052
  807MPD2     C11880   3.323   3.623   0.706 -0.4391  0.6858  0.5001
  807MPD2    C111881   3.207   3.689   0.738  0.0944  0.4024  0.3992
  807MPD2    C211882   3.120   3.632   0.826  0.3924 -0.2630  0.4054
  807MPD2    C311883   3.151   3.510   0.888  0.5936  0.1090  0.4785
  807MPD2    C411884   3.266   3.445   0.855  0.5397  0.0730  0.1510
  807MPD2    C511885   3.342   3.500   0.758 -0.1468  0.2486 -0.3100
  807MPD2     H11886   3.027   3.682   0.851  0.0088  0.7680 -3.0329
  807MPD2    H111887   3.292   3.348   0.896 -0.1080 -0.1951 -0.0716
  807MPD2    H211888   3.406   3.658   0.646  0.5941  1.6756  2.5099
  807MPD2    H311889   3.429   3.442   0.729  0.3327  1.7406 -1.8490
  807MPD2     N11890   3.073   3.464   1.000  0.2674  0.4382  0.5056
  807MPD2    H511891   2.982   3.509   1.009 -0.0810 -0.2213  0.2992
  807MPD2    N111892   3.169   3.813   0.671  0.0756 -0.1363  0.5547
  807MPD2    H711893   3.081   3.858   0.695  0.1984  1.2301 -1.5675
  808MPD2     C11894   3.499   0.758   9.051  0.4054  0.7356  0.0182
  808MPD2    C111895   3.464   0.759   9.185 -0.2557  0.4564  0.7016
  808MPD2    C211896   3.509   0.859   9.263 -0.2627  0.0652  0.3279
  808MPD2    C311897   3.593   0.958   9.210 -1.0920 -0.0313  0.5766
  808MPD2    C411898   3.631   0.954   9.080 -0.0578  0.5798 -0.1877
  808MPD2    C511899   3.583   0.854   9.001  0.1470  1.0452  0.0226
  808MPD2     H11900   3.473   0.857   9.366  0.0875 -3.1056  0.3786
  808MPD2    H111901   3.696   1.030   9.038  0.7357 -0.2427 -0.4643
  808MPD2    H211902   3.491   0.671   8.986 -0.4224  0.6394  0.2380
  808MPD2    H311903   3.622   0.834   8.902  0.6506  4.6705 -0.4993
  808MPD2     N11904   3.651   1.064   9.285  0.2662  0.8878 -0.3153
  808MPD2    H511905   3.703   1.137   9.238  1.7704  0.6928  1.0322
  808MPD2    N111906   3.386   0.666   9.243 -0.0828 -0.1085 -0.1576
  808MPD2    H711907   3.356   0.673   9.340  0.2640  2.0890 -0.2106
  809MPD2     C11908   4.472   1.250   9.185 -0.0485 -0.0629  0.2943
  809MPD2    C111909   4.463   1.307   9.316 -0.1513  0.2423 -0.7345
  809MPD2    C211910   4.331   1.323   9.359  0.6084  0.2422  0.3654
  809MPD2    C311911   4.222   1.270   9.289  0.2075  0.3568 -0.1931
  809MPD2    C411912   4.245   1.209   9.167  0.1801  0.0657  0.4350
  809MPD2    C511913   4.363   1.206   9.107  0.9832 -0.0080  0.0324
  809MPD2     H11914   4.315   1.382   9.449  0.5836  0.4662  0.2135
  809MPD2    H111915   4.170   1.169   9.100 -0.7533  0.4671  1.2507
  809MPD2    H211916   4.568   1.244   9.136  0.1536  0.0273  0.6753
  809MPD2    H311917   4.377   1.164   9.008  3.2081  1.1811 -0.1671
  809MPD2     N11918   4.092   1.283   9.334 -0.1902 -0.9670  0.7599
  809MPD2    H511919   4.019   1.236   9.280  0.9726  2.0562 -3.4078
  809MPD2    N111920   4.577   1.343   9.390 -0.2850 -0.5364  0.4207
  809MPD2    H711921   4.550   1.395   9.473  0.6264  0.1276  0.3031
  810MPD2     C11922   3.837   4.521   9.867  0.1214 -0.6397 -0.0607
  810MPD2    C111923   3.716   4.598   9.864  0.2868 -0.1431 -0.3760
  810MPD2    C211924   3.722   0.013   9.840 -0.1366 -0.3311  0.0915
  810MPD2    C311925   3.845   0.067   9.803 -0.0912  0.4933  0.1355
  810MPD2    C411926   3.956   4.708   9.800 -0.1848 -0.0329 -0.4944
  810MPD2    C511927   3.959   4.579   9.838  0.2197 -0.1924  0.5855
  810MPD2     H11928   3.629   0.068   9.832  0.0178  0.0576  0.9299
  810MPD2    H111929   4.049   0.022   9.756 -1.2296  0.2594 -2.4346
  810MPD2    H211930   3.829   4.413   9.865  2.8745 -0.8710  1.0341
  810MPD2    H311931   4.047   4.518   9.824  0.3327 -0.4807  2.4538
  810MPD2     N11932   3.856   0.210   9.783 -0.6379  0.1866 -0.0007
  810MPD2    H511933   3.947   0.249   9.761 -0.2752 -1.0197 -0.6768
  810MPD2    N111934   3.586   4.546   9.879 -1.0704 -0.1034  0.6158
  810MPD2    H711935   3.508   4.608   9.862 -3.0435 -2.5151  0.8461
  811MPD2     C11936   2.840   0.030   9.920 -0.2297 -0.3946 -0.1109
  811MPD2    C111937   2.959   0.034   9.857  0.3760  0.6491 -0.0385
  811MPD2    C211938   3.024   0.154   9.835  0.4995  0.2256  0.4386
  811MPD2    C311939   2.970   0.272   9.880 -1.1039  0.5707  0.2602
  811MPD2    C411940   2.850   0.269   9.944  0.2095  0.5283  0.5804
  811MPD2    C511941   2.784   0.147   9.964 -0.6625 -0.1247 -0.6068
  811MPD2     H11942   3.128   0.157   9.805  0.1131 -2.6466 -1.1242
  811MPD2    H111943   2.809   0.358   9.990  0.7777  0.5200  1.0952
  811MPD2    H211944   2.791   4.656   9.936  1.8784 -1.5472 -0.4843
  811MPD2    H311945   2.690   0.133  10.015 -0.0351  0.1041  0.6094
  811MPD2     N11946   3.046   0.395   9.864 -0.5289 -0.0882 -1.3148
  811MPD2    H511947   3.129   0.392   9.805  0.9303 -2.4036  0.8501
  811MPD2    N111948   3.014   4.630   9.833 -0.2674  0.2652 -0.6037
  811MPD2    H711949   2.961   4.548   9.859 -0.7807  0.9694  0.5489
  812MPD2     C11950   1.647   0.300  12.735 -0.7480 -0.3562  0.1380
  812MPD2    C111951   1.746   0.254  12.653  0.4957  0.3239 -0.2389
  812MPD2    C211952   1.827   0.145  12.692 -0.2375 -0.1530  1.6124
  812MPD2    C311953   1.810   0.097  12.817 -0.1482  0.8052  1.1670
  812MPD2    C411954   1.723   0.153  12.901  0.2866  0.8019  0.7908
  812MPD2    C511955   1.641   0.257  12.866 -0.0422  0.2133  0.5460
  812MPD2     H11956   1.905   0.106  12.626 -0.9999  0.6867  0.2025
  812MPD2    H111957   1.703   0.111  12.999  2.7865 -1.6778  0.2432
  812MPD2    H211958   1.580   0.380  12.703  0.2768  0.2099 -0.5915
  812MPD2    H311959   1.565   0.293  12.934 -0.6602 -1.6492  0.8297
  812MPD2     N11960   1.884   4.705  12.845 -0.2596 -0.3749 -0.0246
  812MPD2    H511961   1.945   4.671  12.771 -1.7786 -1.2647 -0.8776
  812MPD2    N111962   1.767   0.325  12.531  0.0835 -0.0384  0.1689
  812MPD2    H711963   1.699   0.390  12.494  0.5920 -0.9843 -2.4311
  813MPD2     C11964   1.141   2.083  12.741 -0.2638  0.2723 -0.5870
  813MPD2    C111965   1.151   2.219  12.765 -0.0654  0.0018  0.4795
  813MPD2    C211966   1.061   2.278  12.854 -0.4926 -0.0505 -0.2048
  813MPD2    C311967   0.971   2.206  12.927  0.2438 -0.9726 -0.0288
  813MPD2    C411968   0.964   2.074  12.904  0.3974 -0.8882  0.3368
  813MPD2    C511969   1.048   2.014  12.808  0.0514 -0.1939  1.0840
  813MPD2     H11970   1.071   2.384  12.873  0.8990 -0.1934 -0.1814
  813MPD2    H111971   0.894   2.003  12.946  0.0054  0.2609  1.6464
  813MPD2    H211972   1.207   2.036  12.669 -0.1167 -1.4775  0.6877
  813MPD2    H311973   1.051   1.907  12.795  0.4100 -0.0425 -0.1238
  813MPD2     N11974   0.894   2.274  13.029 -0.7620  0.1979  0.3905
  813MPD2    H511975   0.916   2.373  13.031 -1.3023  0.3409 -0.3495
  813MPD2    N111976   1.256   2.292  12.709 -0.1660  0.2676 -0.0897
  813MPD2    H711977   1.322   2.243  12.648  0.2296  1.3034 -0.4899
  814MPD2     C11978   2.071   3.466  12.277  0.3742 -0.2219 -0.0840
  814MPD2    C111979   2.039   3.553  12.169 -0.1850 -0.1940 -0.6095
  814MPD2    C211980   2.071   3.687  12.172 -0.4829 -0.7236  0.0785
  814MPD2    C311981   2.149   3.731  12.279 -0.5012  0.7000  0.1967
  814MPD2    C411982   2.200   3.645  12.373 -0.3355  0.7859 -0.6424
  814MPD2    C511983   2.160   3.507  12.375  0.5646 -0.1512  0.5268
  814MPD2     H11984   2.038   3.746  12.087  2.1120  0.4789 -0.0928
  814MPD2    H111985   2.268   3.677  12.452 -2.1655  2.3260  0.3224
  814MPD2    H211986   2.027   3.367  12.282  0.0217 -0.1172 -0.9811
  814MPD2    H311987   2.186   3.450  12.464 -2.9156 -0.8459  1.1104
  814MPD2     N11988   2.186   3.865  12.282 -0.2349  1.1651 -0.2402
  814MPD2    H511989   2.242   3.893  12.362 -0.1636 -2.8264  1.0899
  814MPD2    N111990   1.976   3.501  12.049 -0.0570  0.1287 -0.2037
  814MPD2    H711991   1.966   3.567  11.973 -2.3182  1.0442  0.8684
  815MPD2     C11992   2.254   2.346  11.701  0.1454 -0.5630  0.0920
  815MPD2    C111993   2.268   2.210  11.707 -0.3007 -0.1145  0.4428
  815MPD2    C211994   2.234   2.156  11.831 -0.2954  0.1888 -0.3807
  815MPD2    C311995   2.184   2.230  11.939 -0.0004  0.1598  0.2268
  815MPD2    C411996   2.178   2.370  11.925 -0.4334  0.3205 -1.4890
  815MPD2    C511997   2.215   2.421  11.809 -0.3513  0.1590 -0.1102
  815MPD2     H11998   2.237   2.048  11.839 -1.4363  0.2087  0.3266
  815MPD2    H111999   2.147   2.433  12.009 -0.8739 -0.4613 -1.0631
  815MPD2    H212000   2.287   2.402  11.613 -1.1569 -2.0630 -1.3497
  815MPD2    H312001   2.197   2.528  11.796 -2.2481 -0.1146  0.1991
  815MPD2     N12002   2.147   2.152  12.047  0.0931 -0.3863 -0.8503
  815MPD2    H512003   2.151   2.051  12.038  1.7917 -0.5527  1.8097
  815MPD2    N112004   2.323   2.128  11.605 -0.3823  0.2062 -0.2699
  815MPD2    H712005   2.337   2.171  11.515 -0.0042 -0.0278 -0.3192
  816MPD2     C12006   1.891   0.959  17.384 -0.2837 -0.6732  0.3796
  816MPD2    C112007   1.959   1.077  17.374 -0.4677 -0.3077  0.2009
  816MPD2    C212008   2.090   1.071  17.322  0.1427 -0.5888  0.4222
  816MPD2    C312009   2.159   0.954  17.296  0.1305 -0.3961 -0.1190
  816MPD2    C412010   2.089   0.833  17.317 -0.5133 -0.1157 -0.7556
  816MPD2    C512011   1.955   0.838  17.353  0.5560  0.0989 -1.0319
  816MPD2     H12012   2.140   1.165  17.301 -1.3089 -0.2732 -1.7284
  816MPD2    H112013   2.139   0.741  17.289  0.3437 -0.0003  0.4039
  816MPD2    H212014   1.785   0.954  17.405 -0.1789  0.2034  1.1358
  816MPD2    H312015   1.885   0.755  17.358  1.0234 -0.1389  1.4939
  816MPD2     N12016   2.283   0.953  17.230 -0.2151 -0.2513  0.1027
  816MPD2    H512017   2.313   1.047  17.203  0.5987 -0.0555  1.6941
  816MPD2    N112018   1.875   1.188  17.394 -1.3166 -0.4105 -0.0595
  816MPD2    H712019   1.775   1.173  17.399 -1.0727 -2.4612 -1.3164
  817MPD2     C12020   1.379   2.749  10.157 -0.0856 -0.3587 -0.2261
  817MPD2    C112021   1.386   2.767  10.022 -0.8455 -0.0595 -0.2140
  817MPD2    C212022   1.292   2.851   9.959  0.3402  0.2679 -0.4154
  817MPD2    C312023   1.183   2.903  10.026 -0.0475  0.7597 -0.1235
  817MPD2    C412024   1.176   2.876  10.156 -0.2650  0.5240  0.0607
  817MPD2    C512025   1.273   2.803  10.224 -1.0141  0.5424  0.3705
  817MPD2     H12026   1.302   2.862   9.852  1.0782 -2.1718 -0.5986
  817MPD2    H112027   1.105   2.914  10.228 -0.0149  2.6231 -0.7796
  817MPD2    H212028   1.442   2.676  10.207  0.2146  0.7275  0.9758
  817MPD2    H312029   1.269   2.782  10.330 -0.4899 -0.6264  0.1586
  817MPD2     N12030   1.087   2.984   9.956  0.1755 -0.1112 -0.2451
  817MPD2    H512031   1.097   2.996   9.856 -0.2578 -0.6915 -0.3568
  817MPD2    N112032   1.488   2.713   9.939  0.6848  0.0666 -0.5664
  817MPD2    H712033   1.500   2.760   9.850 -0.0746  0.0467 -0.6799
  818MPD2     C12034   0.417   2.560  10.429  0.3107  0.2765  0.4051
  818MPD2    C112035   0.404   2.479  10.533 -0.0126 -0.1698  0.3906
  818MPD2    C212036   0.371   2.348  10.504 -0.1887 -0.1276 -0.2209
  818MPD2    C312037   0.377   2.297  10.378 -1.1406 -0.0793 -0.4202
  818MPD2    C412038   0.400   2.387  10.275  0.0304 -0.5189  0.5472
  818MPD2    C512039   0.415   2.517  10.298  0.6220 -0.1274  0.1677
  818MPD2     H12040   0.367   2.287  10.594 -0.1490  0.3320  0.0951
  818MPD2    H112041   0.418   2.352  10.174  0.1717 -1.2757  0.8331
  818MPD2    H212042   0.425   2.666  10.452 -0.6605  0.4489 -0.0192
  818MPD2    H312043   0.439   2.587  10.218  0.4372 -0.4152 -0.1417
  818MPD2     N12044   0.363   2.156  10.350  0.5439 -0.2369  0.4504
  818MPD2    H512045   0.381   2.121  10.257 -0.5912 -1.4590  0.6937
  818MPD2    N112046   0.414   2.515  10.674  0.7405  0.4047  0.1454
  818MPD2    H712047   0.379   2.445  10.739  2.6493 -1.4917 -0.8991
  819MPD2     C12048   3.631   4.586  15.512 -1.0211  0.0319 -0.1013
  819MPD2    C112049   3.650   4.454  15.546  0.2156 -0.3624 -0.2433
  819MPD2    C212050   3.730   4.414  15.646 -0.4035  0.1225  0.4154
  819MPD2    C312051   3.812   4.506  15.712 -0.1748  0.5739 -0.7180
  819MPD2    C412052   3.807   4.634  15.673 -0.5216  0.2825 -0.5916
  819MPD2    C512053   3.717   4.673  15.578  1.0290 -0.1656 -0.4437
  819MPD2     H12054   3.748   4.310  15.672 -0.3256  0.1104  0.3131
  819MPD2    H112055   3.865   4.713  15.720  1.5555 -1.2022 -0.6663
  819MPD2    H212056   3.548   4.626  15.456 -1.1549  0.3294  0.3095
  819MPD2    H312057   3.704   0.059  15.561 -2.2672 -0.6497 -0.9625
  819MPD2     N12058   3.895   4.453  15.817  0.7240  0.9944 -0.5002
  819MPD2    H512059   3.903   4.353  15.831 -1.6686  0.6148 -1.7187
  819MPD2    N112060   3.569   4.362  15.475 -0.4714 -0.0795  0.4194
  819MPD2    H712061   3.516   4.391  15.394  0.0411  1.9097  0.7976
  820MPD2     C12062   3.003   4.200  14.702  0.0839 -0.3532 -0.4562
  820MPD2    C112063   3.093   4.290  14.761  0.5011  0.2815  0.7989
  820MPD2    C212064   3.163   4.246  14.876  0.4004 -0.3483 -0.1878
  820MPD2    C312065   3.152   4.118  14.926 -0.9316 -0.3470 -0.8807
  820MPD2    C412066   3.069   4.031  14.857 -0.6284  0.1953  0.0067
  820MPD2    C512067   2.999   4.072  14.748 -0.0283 -0.1163 -0.1745
  820MPD2     H12068   3.246   4.305  14.914  0.0510 -0.5826  0.9519
  820MPD2    H112069   3.061   3.931  14.899 -0.6423  0.4189  0.5307
  820MPD2    H212070   2.941   4.219  14.615  0.9212  0.3626 -0.8944
  820MPD2    H312071   2.928   3.999  14.709 -1.8604  1.3580  0.4329
  820MPD2     N12072   3.224   4.067  15.044 -0.5499  0.0417  0.4946
  820MPD2    H512073   3.195   3.974  15.071 -3.6634  0.0187 -2.9521
  820MPD2    N112074   3.089   4.421  14.703  0.2288  0.2532 -0.6112
  820MPD2    H712075   3.021   4.435  14.629 -0.0496 -0.1403 -0.4327
  821MPD2     C12076   3.935   0.927  13.019  0.3217  0.7015  0.8312
  821MPD2    C112077   3.999   0.850  13.115 -0.2603 -0.3447 -0.4688
  821MPD2    C212078   4.140   0.867  13.127 -0.0056  0.4001 -0.0763
  821MPD2    C312079   4.202   0.959  13.040  0.9462  0.2631  0.4734
  821MPD2    C412080   4.140   1.028  12.938 -0.2050  0.4901 -0.8591
  821MPD2    C512081   4.004   1.006  12.930 -0.0163 -0.4261 -0.6516
  821MPD2     H12082   4.191   0.808  13.202  1.4167  0.3700 -1.0713
  821MPD2    H112083   4.179   1.110  12.878  1.3244  2.6032  2.9952
  821MPD2    H212084   3.829   0.918  13.000  0.3049  1.5208  0.5071
  821MPD2    H312085   3.936   1.062  12.867  1.0690  0.3720 -1.1183
  821MPD2     N12086   4.341   0.989  13.053 -0.2385 -0.2298  0.5062
  821MPD2    H512087   4.369   1.072  13.001 -0.2179 -0.6677 -0.1767
  821MPD2    N112088   3.932   0.764  13.204  0.6138  0.1441  0.3575
  821MPD2    H712089   3.993   0.729  13.277  2.6488  0.1661 -1.3268
  822MPD2     C12090   4.070   1.257  15.872  0.1137 -0.0296 -0.0789
  822MPD2    C112091   4.151   1.254  15.985 -0.4597 -1.4269  0.4238
  822MPD2    C212092   4.121   1.341  16.085 -0.0327  0.5354 -0.2951
  822MPD2    C312093   4.010   1.425  16.076 -0.1989  0.4709 -0.5190
  822MPD2    C412094   3.928   1.428  15.963  0.5416 -0.1076  0.2406
  822MPD2    C512095   3.969   1.345  15.865  0.0107 -0.3558 -0.0492
  822MPD2     H12096   4.159   1.327  16.186  0.2796 -2.5139 -0.8438
  822MPD2    H112097   3.840   1.488  15.944  1.5662  1.6671  0.9912
  822MPD2    H212098   4.077   1.183  15.793 -1.4809  0.2065 -0.4253
  822MPD2    H312099   3.910   1.347  15.774  0.6616  2.6482 -0.4031
  822MPD2     N12100   3.988   1.495  16.190  0.2620  0.4489  0.0660
  822MPD2    H512101   4.048   1.473  16.269 -0.5462 -0.3907  0.4480
  822MPD2    N112102   4.252   1.157  16.010  0.1029  0.1475 -0.0523
  822MPD2    H712103   4.284   1.144  16.106 -1.1330  0.4521  0.3918
  823MPD2     C12104   3.625   1.521  17.016 -0.8526 -0.3255 -0.5211
  823MPD2    C112105   3.692   1.460  16.909  0.0566  0.4898 -0.2740
  823MPD2    C212106   3.739   1.330  16.919  0.3148 -0.2749  0.7066
  823MPD2    C312107   3.737   1.261  17.038  0.2712 -0.6889  0.1076
  823MPD2    C412108   3.673   1.319  17.140 -0.2291 -0.1261 -0.1886
  823MPD2    C512109   3.622   1.446  17.130 -0.4954 -0.3214 -0.6970
  823MPD2     H12110   3.784   1.282  16.833  0.6092 -0.8438  1.1802
  823MPD2    H112111   3.660   1.274  17.238 -2.4745 -0.2645 -0.5458
  823MPD2    H212112   3.580   1.620  17.013  0.8555  0.4234 -1.3773
  823MPD2    H312113   3.580   1.491  17.220  0.5111 -2.6916  0.9726
  823MPD2     N12114   3.805   1.139  17.062  0.1178  0.2150  0.3489
  823MPD2    H512115   3.792   1.108  17.158  0.2946  1.3615  0.7367
  823MPD2    N112116   3.715   1.529  16.790  0.8820  0.1137  0.6931
  823MPD2    H712117   3.704   1.629  16.800  0.9804  0.1614  0.3321
  824MPD2     C12118   4.445   0.299  15.898 -0.5373 -0.4085 -0.2777
  824MPD2    C112119   4.558   0.381  15.881 -0.2882  0.2890  0.7846
  824MPD2    C212120   4.689   0.334  15.852 -0.6034 -0.1257 -1.2901
  824MPD2    C312121   4.706   0.199  15.826  0.2635 -0.6134  0.3653
  824MPD2    C412122   4.594   0.113  15.843 -0.0601  0.9033  0.0693
  824MPD2    C512123   4.471   0.164  15.890 -0.0446 -0.0373 -0.2757
  824MPD2     H12124   0.055   0.399  15.844 -0.2873 -0.0994  2.6173
  824MPD2    H112125   4.600   0.005  15.840  1.5667  0.9737  0.7549
  824MPD2    H212126   4.347   0.333  15.931  0.5333  1.4810  0.9642
  824MPD2    H312127   4.394   0.090  15.906 -1.1815  1.5238  1.4910
  824MPD2     N12128   0.118   0.154  15.810 -0.3837  0.8269 -0.0396
  824MPD2    H512129   0.193   0.218  15.785 -0.7402  1.5984  0.8967
  824MPD2    N112130   4.545   0.523  15.903  0.2093  0.0579  0.4822
  824MPD2    H712131   4.627   0.577  15.929  0.4665 -0.9499  1.7642
  825MPD2     C12132   0.462   4.632  15.076  0.1952 -0.2167 -0.5262
  825MPD2    C112133   0.465   0.002  15.179 -0.0943  0.0760 -0.3460
  825MPD2    C212134   0.537   0.122  15.150 -0.3436 -0.6153 -0.1827
  825MPD2    C312135   0.591   0.147  15.025  0.5981  0.2620  0.2955
  825MPD2    C412136   0.575   0.054  14.921 -0.0818 -0.0531 -0.1348
  825MPD2    C512137   0.517   4.654  14.955 -0.2283  0.1019 -0.8446
  825MPD2     H12138   0.537   0.195  15.230  1.2189  0.4929 -1.1915
  825MPD2    H112139   0.619   0.071  14.823 -1.0836 -0.7063 -0.6992
  825MPD2    H212140   0.421   4.534  15.094  0.0148 -0.4277 -2.0222
  825MPD2    H312141   0.526   4.571  14.886 -1.3989 -1.0462  0.4009
  825MPD2     N12142   0.644   0.270  15.001 -0.0737  0.0638 -0.2797
  825MPD2    H512143   0.681   0.285  14.908  0.0561  0.8814 -0.0902
  825MPD2    N112144   0.411   4.689  15.303  0.1163  0.2050  1.0351
  825MPD2    H712145   0.386   4.591  15.310  0.4878  0.0623  0.3346
  826MPD2     C12146   0.383   4.181  13.424 -0.1590  0.6769 -0.3262
  826MPD2    C112147   0.246   4.165  13.405 -0.0767 -0.3985  0.3856
  826MPD2    C212148   0.166   4.273  13.450 -0.6807 -0.1975 -0.7278
  826MPD2    C312149   0.222   4.385  13.516 -0.4336  0.0616 -0.8405
  826MPD2    C412150   0.361   4.387  13.529  0.6184  0.4196  0.1104
  826MPD2    C512151   0.435   4.289  13.487  0.4042  0.6359  0.1648
  826MPD2     H12152   0.059   4.280  13.432 -0.5264 -2.1006 -2.3331
  826MPD2    H112153   0.405   4.471  13.580 -1.3582  3.0042 -2.4405
  826MPD2    H212154   0.450   4.110  13.376 -0.6722  0.2314 -0.3930
  826MPD2    H312155   0.536   4.267  13.521  0.3538 -0.8537 -0.6291
  826MPD2     N12156   0.146   4.496  13.560 -0.0621 -0.0197 -0.1232
  826MPD2    H512157   0.198   4.560  13.620  0.6268 -0.6081 -0.0918
  826MPD2    N112158   0.202   4.059  13.323  0.1387  0.1293 -0.4605
  826MPD2    H712159   0.263   3.982  13.298  1.7639  1.6026 -1.0540
  827MPD2     C12160   1.005   1.615  10.179 -0.2628  0.3703 -0.0578
  827MPD2    C112161   1.039   1.494  10.220  0.4034 -0.5454  0.6096
  827MPD2    C212162   1.010   1.387  10.141  0.5138  0.1626 -0.2981
  827MPD2    C312163   0.938   1.398  10.024 -0.4696 -0.2130  0.1360
  827MPD2    C412164   0.896   1.523   9.983 -0.5307 -0.1467  0.1914
  827MPD2    C512165   0.932   1.633  10.065  1.1309  0.2969 -0.5112
  827MPD2     H12166   1.026   1.282  10.164 -0.4110 -0.3998 -2.1850
  827MPD2    H112167   0.838   1.540   9.893 -0.6615 -0.2544  0.2552
  827MPD2    H212168   1.016   1.704  10.240  2.8812  0.0890 -0.2423
  827MPD2    H312169   0.905   1.737  10.047  0.2596 -0.0062 -0.9520
  827MPD2     N12170   0.912   1.276   9.960 -0.5020  0.2127 -0.2430
  827MPD2    H512171   0.929   1.185  10.001 -0.3699 -0.3295 -1.5076
  827MPD2    N112172   1.112   1.485  10.339 -0.5902 -0.4967 -0.2908
  827MPD2    H712173   1.148   1.571  10.380  0.7863 -0.4346 -1.6330
  828MPD2     C12174   4.124   1.191  12.492  1.0808  0.2317 -0.1610
  828MPD2    C112175   4.122   1.176  12.357 -0.0390 -0.2174  0.3745
  828MPD2    C212176   4.237   1.155  12.288 -0.4804  0.1299 -0.6297
  828MPD2    C312177   4.359   1.144  12.357 -0.1617 -0.0096 -1.0614
  828MPD2    C412178   4.355   1.155  12.498 -0.1215  0.1517 -0.0846
  828MPD2    C512179   4.240   1.190  12.560 -0.4610  0.3457  0.1686
  828MPD2     H12180   4.234   1.141  12.180 -2.4044 -0.8961 -0.4522
  828MPD2    H112181   4.445   1.138  12.556 -0.0541  2.0507  0.3805
  828MPD2    H212182   4.034   1.197  12.552 -0.4437  0.7523 -2.4895
  828MPD2    H312183   4.235   1.218  12.665  1.7157 -1.1971  0.6840
  828MPD2     N12184   4.489   1.137  12.302 -0.2255  0.5155  0.2082
  828MPD2    H512185   4.561   1.117  12.372  0.8710 -1.1331 -1.4062
  828MPD2    N112186   4.003   1.190  12.283 -0.0482  0.0617 -0.6698
  828MPD2    H712187   4.021   1.164  12.186 -2.7093 -0.2279 -1.0889
  829MPD2     C12188   3.958   1.155  11.424  0.5564 -0.1944 -0.2905
  829MPD2    C112189   3.838   1.211  11.454  0.5228 -0.0763 -0.1477
  829MPD2    C212190   3.790   1.217  11.584  0.1712 -0.7489 -0.3741
  829MPD2    C312191   3.871   1.171  11.687  0.6215 -0.2016  0.6496
  829MPD2    C412192   3.998   1.130  11.659 -0.4614  0.1139 -0.6003
  829MPD2    C512193   4.040   1.131  11.527 -0.4724 -0.0694 -0.2430
  829MPD2     H12194   3.694   1.263  11.607  1.1702  0.7753  0.7561
  829MPD2    H112195   4.068   1.098  11.736 -0.3483  0.0601 -0.7253
  829MPD2    H212196   3.999   1.158  11.324  1.2821  0.5490  0.0353
  829MPD2    H312197   4.138   1.092  11.500 -0.9909 -1.8500  0.4346
  829MPD2     N12198   3.825   1.171  11.829  0.1203  0.0527 -0.1095
  829MPD2    H512199   3.891   1.131  11.896 -0.6316 -1.5742 -0.3391
  829MPD2    N112200   3.762   1.246  11.337  0.1564 -0.3574 -0.6607
  829MPD2    H712201   3.812   1.250  11.248 -0.8532  1.9830 -1.1008
  830MPD2     C12202   4.637   4.207  15.661 -0.1883  0.1018  0.0128
  830MPD2    C112203   4.573   4.322  15.679  0.2178  0.0985  0.0897
  830MPD2    C212204   4.608   4.429  15.615  0.2070 -0.1825  0.3854
  830MPD2    C312205   4.689   4.424  15.499 -0.2556  0.0072 -0.5683
  830MPD2    C412206   0.034   4.308  15.475 -0.5402 -0.3000 -0.2477
  830MPD2    C512207   0.004   4.203  15.559  0.0295  0.3137 -0.4046
  830MPD2     H12208   4.565   4.523  15.646  0.4598  0.4169 -1.0549
  830MPD2    H112209   0.117   4.295  15.406 -1.8925 -0.4633 -1.8268
  830MPD2    H212210   4.590   4.115  15.694 -0.2286  0.3904  0.7562
  830MPD2    H312211   0.067   4.117  15.538 -1.9363 -1.3081  0.3769
  830MPD2     N12212   4.714   4.543  15.423  0.4796 -0.2947  0.3702
  830MPD2    H512213   0.060   4.537  15.347 -1.7902 -0.1278 -1.6387
  830MPD2    N112214   4.472   4.325  15.780  0.8247 -0.3351 -0.5484
  830MPD2    H712215   4.473   4.249  15.847  0.5546 -0.4139 -0.6309
  831MPD2     C12216   4.334   1.433  16.721 -0.2151  0.1040  0.4800
  831MPD2    C112217   4.299   1.438  16.588  0.3367  0.2409  0.5291
  831MPD2    C212218   4.186   1.376  16.546  0.0424 -0.2163  0.8317
  831MPD2    C312219   4.104   1.312  16.634  0.0485 -0.5486  0.1282
  831MPD2    C412220   4.128   1.323  16.764 -0.2096 -0.1713  0.0589
  831MPD2    C512221   4.244   1.379  16.812  0.2752  0.0116  0.3758
  831MPD2     H12222   4.177   1.356  16.440 -0.1976 -0.7487  0.9537
  831MPD2    H112223   4.059   1.272  16.831 -2.5790  0.2686 -2.0794
  831MPD2    H212224   4.427   1.474  16.759 -0.0051  1.2171 -1.2154
  831MPD2    H312225   4.267   1.387  16.918 -0.0159  1.7597  0.3050
  831MPD2     N12226   3.987   1.232  16.606  0.3365  0.0462  0.3124
  831MPD2    H512227   3.929   1.195  16.680  0.2506  0.4176  0.4342
  831MPD2    N112228   4.393   1.502  16.500  0.6721  0.3059 -0.2199
  831MPD2    H712229   4.487   1.527  16.530  0.3579 -0.1469  1.1655
  832MPD2     C12230   2.493   2.293  17.460  0.1907 -0.9450  0.0029
  832MPD2    C112231   2.547   2.335  17.340  0.4232 -0.0285 -0.2431
  832MPD2    C212232   2.451   2.351  17.236  1.0606 -0.0598 -0.3731
  832MPD2    C312233   2.315   2.315  17.250 -0.0133 -0.0764  0.5597
  832MPD2    C412234   2.272   2.257  17.367  0.5913 -0.3704 -0.9842
  832MPD2    C512235   2.361   2.252  17.468 -0.6433  0.5471  0.3633
  832MPD2     H12236   2.489   2.400  17.147  0.9200  0.3941 -0.1798
  832MPD2    H112237   2.176   2.210  17.387  0.8212  0.8087  3.0469
  832MPD2    H212238   2.548   2.283  17.553 -0.2129 -2.9621  0.0059
  832MPD2    H312239   2.327   2.211  17.563 -0.9895  0.5314  0.2324
  832MPD2     N12240   2.221   2.316  17.141 -0.5890  0.1127  0.0793
  832MPD2    H512241   2.131   2.268  17.145  0.5229 -2.1186 -1.3387
  832MPD2    N112242   2.681   2.366  17.336  0.0665 -0.1503 -0.8673
  832MPD2    H712243   2.730   2.356  17.424 -2.0574  1.0602  0.4497
  833MPD2     C12244   4.104   3.394  12.893 -0.2880  0.5270  0.2853
  833MPD2    C112245   4.208   3.380  12.796 -0.1649  0.2461 -0.0728
  833MPD2    C212246   4.205   3.267  12.718  0.0853 -0.2363  0.1952
  833MPD2    C312247   4.109   3.171  12.724 -0.0000 -0.1394  0.6837
  833MPD2    C412248   4.028   3.174  12.830  0.7003 -0.6388  0.1489
  833MPD2    C512249   4.028   3.288  12.908 -0.5096 -0.4143 -0.8078
  833MPD2     H12250   4.287   3.235  12.655  0.0440 -1.7636  0.9248
  833MPD2    H112251   3.953   3.099  12.852  0.9884 -0.9079  0.2146
  833MPD2    H212252   4.097   3.483  12.955  0.5959 -0.1883  1.4057
  833MPD2    H312253   3.951   3.276  12.983 -0.3624 -0.1068 -0.6057
  833MPD2     N12254   4.131   3.056  12.647 -0.1892  0.5156 -0.0708
  833MPD2    H512255   4.202   3.073  12.576 -1.3505 -0.8867 -1.5511
  833MPD2    N112256   4.305   3.485  12.782  0.1225  0.1982 -0.5007
  833MPD2    H712257   4.293   3.579  12.817  1.6050 -0.2727  1.2687
  834MPD2     C12258   3.721   2.865  11.741 -0.0598 -0.4283 -0.0869
  834MPD2    C112259   3.852   2.910  11.741 -0.9823  0.9274 -0.6742
  834MPD2    C212260   3.924   2.912  11.858  0.3122 -0.6240  0.3391
  834MPD2    C312261   3.867   2.877  11.975 -0.0607  0.8295  0.1236
  834MPD2    C412262   3.731   2.834  11.976  0.4189  0.0959 -0.2685
  834MPD2    C512263   3.656   2.830  11.861 -0.4828  0.0627  0.2146
  834MPD2     H12264   4.031   2.931  11.864  0.6787 -2.7796  0.6786
  834MPD2    H112265   3.679   2.804  12.067  2.2748  1.6663  1.3072
  834MPD2    H212266   3.664   2.862  11.649  0.6831  1.0846 -0.5937
  834MPD2    H312267   3.551   2.804  11.864 -0.9237  1.9148  0.8844
  834MPD2     N12268   3.952   2.892  12.086 -0.2712  0.1388  0.1746
  834MPD2    H512269   4.045   2.932  12.074 -0.7368  1.1067 -0.2375
  834MPD2    N112270   3.919   2.926  11.618  0.1837 -0.0357 -0.0492
  834MPD2    H712271   3.865   2.907  11.534  1.7373  1.1238 -1.3047
  835MPD2     C12272   0.013   1.061  11.116  0.5675  0.0143  0.2777
  835MPD2    C112273   0.005   1.193  11.157 -0.7422  0.9246  0.4926
  835MPD2    C212274   0.067   1.217  11.279 -0.1618  0.1638 -0.5868
  835MPD2    C312275   0.111   1.119  11.368 -1.2936 -0.6704 -0.3599
  835MPD2    C412276   0.110   0.994  11.328  0.3046  0.1885 -0.1451
  835MPD2    C512277   0.063   0.967  11.206  0.0074  0.0753  0.4319
  835MPD2     H12278   0.050   1.312  11.327 -0.5768  0.0473 -0.4972
  835MPD2    H112279   0.147   0.912  11.389 -4.8292 -2.2672 -0.2831
  835MPD2    H212280   4.706   1.034  11.015 -1.1201  2.0865  0.1827
  835MPD2    H312281   0.065   0.862  11.180 -1.1028  0.0739  0.3921
  835MPD2     N12282   0.155   1.159  11.495 -0.6271  0.1220  0.3289
  835MPD2    H512283   0.114   1.242  11.536  0.1991 -0.6083  2.6169
  835MPD2    N112284   4.677   1.296  11.073 -0.0161  0.2285 -0.7039
  835MPD2    H712285   4.634   1.262  10.988 -0.9266  0.5099 -0.3505
  836MPD2     C12286   4.539   1.552  11.824  0.3152  0.2266  0.1474
  836MPD2    C112287   4.633   1.516  11.920  0.0016  0.3883 -0.3251
  836MPD2    C212288   4.623   1.578  12.047 -0.4847  0.6974 -0.1386
  836MPD2    C312289   4.518   1.668  12.080  0.4896  0.8012  0.2886
  836MPD2    C412290   4.436   1.708  11.976 -0.4677 -0.0236 -0.1929
  836MPD2    C512291   4.446   1.654  11.850 -0.3839 -0.2536 -0.8636
  836MPD2     H12292   4.678   1.543  12.133  0.6972  1.1959 -0.6906
  836MPD2    H112293   4.349   1.770  11.989 -0.2224  0.2922 -0.0597
  836MPD2    H212294   4.542   1.518  11.722  1.2236  2.4961 -0.5909
  836MPD2    H312295   4.368   1.689  11.784 -1.5676  2.2881  1.8767
  836MPD2     N12296   4.497   1.733  12.202  0.2598 -0.2401 -0.2046
  836MPD2    H512297   4.433   1.811  12.201 -0.7736 -1.0512  1.2667
  836MPD2    N112298   0.004   1.417  11.878  0.0665 -0.3735 -0.5100
  836MPD2    H712299   4.693   1.354  11.805  1.3149 -0.3916 -1.0510
  837MPD2     C12300   3.201   0.984   9.350 -0.1576  0.3255 -0.4932
  837MPD2    C112301   3.144   1.013   9.472 -0.0710  0.0659  1.0601
  837MPD2    C212302   3.093   1.139   9.485  0.5983 -0.0171  0.4126
  837MPD2    C312303   3.107   1.237   9.388  0.1812 -0.4290  0.1843
  837MPD2    C412304   3.185   1.211   9.281  0.7627 -0.2943  0.4545
  837MPD2    C512305   3.225   1.082   9.259  0.5782  0.6290  0.0455
  837MPD2     H12306   3.050   1.166   9.580  0.1407  2.8087 -0.6069
  837MPD2    H112307   3.197   1.279   9.197  1.4494  0.0972  0.8764
  837MPD2    H212308   3.227   0.883   9.321 -1.3943  0.2402 -1.2848
  837MPD2    H312309   3.263   1.051   9.162  1.3624 -3.3255  1.5844
  837MPD2     N12310   3.053   1.363   9.413  0.1911 -0.5495  0.2634
  837MPD2    H512311   2.981   1.377   9.482  1.4397  1.0043  1.2698
  837MPD2    N112312   3.145   0.924   9.579  0.1762 -0.0294  0.4846
  837MPD2    H712313   3.107   0.958   9.667  2.7056  0.4985  1.3672
  838MPD2     C12314   1.640   4.398  12.113 -0.1651  0.2372 -0.1854
  838MPD2    C112315   1.568   4.355  12.003 -0.1110 -0.2903  0.3043
  838MPD2    C212316   1.487   4.242  12.011 -0.9519 -0.3919  0.2801
  838MPD2    C312317   1.479   4.173  12.137 -0.4070 -0.1087  0.5800
  838MPD2    C412318   1.560   4.206  12.241 -0.2943  0.6212  0.2002
  838MPD2    C512319   1.632   4.327  12.230  0.2674  0.1093  1.0071
  838MPD2     H12320   1.423   4.208  11.930 -2.1229 -2.0694  1.8941
  838MPD2    H112321   1.556   4.157  12.337  0.7531 -0.6714 -0.4208
  838MPD2    H212322   1.709   4.482  12.116 -0.1649  0.1738  1.5564
  838MPD2    H312323   1.689   4.366  12.314  1.7958 -1.6310  0.7643
  838MPD2     N12324   1.400   4.052  12.151  0.2198 -0.2565  0.1666
  838MPD2    H512325   1.435   3.987  12.220 -0.3441 -0.4817  0.2442
  838MPD2    N112326   1.571   4.409  11.866 -0.4236 -0.3742 -0.2131
  838MPD2    H712327   1.509   4.358  11.804  1.1552 -1.3462 -1.0015
  839MPD2     C12328   1.627   3.796  12.015 -0.6725  0.3643  0.0303
  839MPD2    C112329   1.570   3.797  11.885 -0.2978 -0.0487 -0.4224
  839MPD2    C212330   1.609   3.899  11.796  0.3561 -0.8244  0.6356
  839MPD2    C312331   1.705   3.990  11.830  0.5245  0.0275 -1.3480
  839MPD2    C412332   1.762   3.985  11.963  0.0565 -0.0087 -0.8335
  839MPD2    C512333   1.722   3.885  12.046 -0.5601  0.9387 -0.1975
  839MPD2     H12334   1.562   3.913  11.700 -0.3521  0.1071  1.1144
  839MPD2    H112335   1.839   4.054  11.994 -0.5923  0.8798 -1.1820
  839MPD2    H212336   1.616   3.709  12.079 -0.4998 -0.3975 -0.9805
  839MPD2    H312337   1.780   3.886  12.137  0.4460 -3.7679 -0.7689
  839MPD2     N12338   1.723   4.106  11.744 -0.1432 -0.1162 -0.0797
  839MPD2    H512339   1.808   4.161  11.754 -0.0807 -0.5235  1.5570
  839MPD2    N112340   1.468   3.707  11.846 -1.1248 -0.4087  0.1696
  839MPD2    H712341   1.439   3.718  11.749  4.2850  0.6350 -1.3168
  840MPD2     C12342   1.557   1.866  10.417  0.1084 -0.1123  0.1461
  840MPD2    C112343   1.567   1.799  10.536  0.6777  0.0972  0.0119
  840MPD2    C212344   1.642   1.854  10.640 -0.0687  0.0950  0.1584
  840MPD2    C312345   1.701   1.975  10.615  0.0674 -0.0324 -0.1935
  840MPD2    C412346   1.707   2.035  10.490 -0.4038 -0.1428  0.5509
  840MPD2    C512347   1.627   1.981  10.391  0.0809  0.1272 -0.1161
  840MPD2     H12348   1.639   1.795  10.731  0.4485 -1.0648 -0.5789
  840MPD2    H112349   1.761   2.127  10.470  0.7129 -0.7648  0.7051
  840MPD2    H212350   1.498   1.825  10.336  0.8655  1.9006 -1.4364
  840MPD2    H312351   1.628   2.027  10.293 -1.1719 -0.6325 -0.4924
  840MPD2     N12352   1.772   2.042  10.711 -0.2084  0.4611 -0.5743
  840MPD2    H512353   1.820   2.124  10.674 -0.4755  1.2181  0.7336
  840MPD2    N112354   1.492   1.686  10.546  0.0516 -0.3088 -0.3857
  840MPD2    H712355   1.432   1.665  10.467 -1.1164  0.5456  0.2898
  841MPD2     C12356   1.149   1.349  15.170 -0.4252 -0.1191  0.3976
  841MPD2    C112357   1.232   1.283  15.082  0.7059 -0.1898 -0.4036
  841MPD2    C212358   1.311   1.352  14.991 -0.6348 -0.2108  0.6472
  841MPD2    C312359   1.311   1.486  14.998 -0.0312 -0.0613  0.4990
  841MPD2    C412360   1.230   1.556  15.089  0.2829  0.2650  0.1184
  841MPD2    C512361   1.147   1.486  15.166  0.6693  0.5838 -0.0005
  841MPD2     H12362   1.373   1.294  14.923 -2.2284 -0.8200 -0.2663
  841MPD2    H112363   1.225   1.663  15.104  0.7963  0.4401 -0.9764
  841MPD2    H212364   1.090   1.307  15.250 -2.6270  0.6190 -0.8271
  841MPD2    H312365   1.077   1.531  15.235 -0.2298 -1.8816  0.7178
  841MPD2     N12366   1.404   1.549  14.911 -0.0693  0.0610  0.8081
  841MPD2    H512367   1.463   1.489  14.854 -0.1924 -0.4917  1.2595
  841MPD2    N112368   1.232   1.140  15.068  0.3262  0.2988 -0.0951
  841MPD2    H712369   1.285   1.095  14.994 -1.4222 -0.4963 -0.8616
  842MPD2     C12370   2.000   2.747  16.566 -0.2820 -0.4175 -0.0032
  842MPD2    C112371   1.907   2.646  16.595 -0.2908 -0.1678  0.0840
  842MPD2    C212372   1.890   2.610  16.727 -0.2953  0.1956 -0.1144
  842MPD2    C312373   1.962   2.666  16.833 -0.5278 -0.7737 -0.2757
  842MPD2    C412374   2.055   2.758  16.799 -0.3544 -0.5747  0.3799
  842MPD2    C512375   2.082   2.794  16.669  0.2397  0.5322  0.3063
  842MPD2     H12376   1.820   2.531  16.750  0.8194 -0.7551 -0.0260
  842MPD2    H112377   2.117   2.810  16.871  0.4414  0.1846 -0.8635
  842MPD2    H212378   2.013   2.785  16.465 -0.0887 -0.3970  0.0285
  842MPD2    H312379   2.163   2.865  16.656  1.0612 -0.7109 -1.3921
  842MPD2     N12380   1.954   2.620  16.968 -0.2546 -0.7084 -0.6810
  842MPD2    H512381   2.006   2.670  17.040  1.5495 -0.8170 -1.9047
  842MPD2    N112382   1.833   2.603  16.483  0.2291 -0.0383  0.1400
  842MPD2    H712383   1.881   2.641  16.402 -0.6079  1.1402  0.1934
  843MPD2     C12384   3.990   2.461   0.629 -0.1525 -0.0753  0.3717
  843MPD2    C112385   4.047   2.387   0.530  0.1491 -0.4676 -0.1157
  843MPD2    C212386   4.134   2.444   0.435 -0.0962 -0.1844  0.3144
  843MPD2    C312387   4.165   2.579   0.442  0.3629  0.0487  0.1888
  843MPD2    C412388   4.097   2.647   0.546 -0.6348  0.4946 -0.5672
  843MPD2    C512389   4.012   2.595   0.639 -0.0251 -0.3142 -0.2867
  843MPD2     H12390   4.173   2.381   0.356 -1.5390 -1.7793  0.8825
  843MPD2    H112391   4.125   2.752   0.550 -2.0311  0.9802 -3.6203
  843MPD2    H212392   3.910   2.420   0.690 -1.7725  0.0281 -1.7161
  843MPD2    H312393   3.960   2.657   0.710  1.1851  0.6637 -0.2490
  843MPD2     N12394   4.239   2.647   0.350  0.4829  0.0906 -0.1500
  843MPD2    H512395   4.257   2.746   0.361  0.5544  0.2010 -1.2684
  843MPD2    N112396   4.022   2.249   0.546 -0.0632 -0.1194 -1.0535
  843MPD2    H712397   3.970   2.222   0.629  0.3922  0.0724 -0.7078
  844MPD2     C12398   2.017   1.545  16.947 -0.4346  0.3874 -0.1569
  844MPD2    C112399   2.038   1.614  16.825 -0.3843  0.6154  0.5771
  844MPD2    C212400   2.112   1.733  16.823 -0.3139  0.0238  0.0883
  844MPD2    C312401   2.185   1.772  16.935  0.1349  0.3658  0.1352
  844MPD2    C412402   2.170   1.699  17.043 -0.3686  0.1740 -0.4184
  844MPD2    C512403   2.091   1.586  17.050  0.0987  0.4264  0.6032
  844MPD2     H12404   2.117   1.779  16.725  1.1135  0.4617  0.3728
  844MPD2    H112405   2.208   1.725  17.141 -0.4050  1.0094 -0.6317
  844MPD2    H212406   1.967   1.449  16.946  2.2662 -1.0322  0.9640
  844MPD2    H312407   2.071   1.537  17.144  0.1066  1.8825  1.3661
  844MPD2     N12408   2.273   1.877  16.943  0.4167 -0.0971  0.2120
  844MPD2    H512409   2.328   1.871  17.028  0.1645  0.4502  0.4130
  844MPD2    N112410   1.975   1.556  16.711  0.0333  0.4751  0.4942
  844MPD2    H712411   1.927   1.469  16.729 -2.8199  2.6093  3.1144
  845MPD2     C12412   2.651   2.872  16.741  0.8130 -0.6035  0.1544
  845MPD2    C112413   2.678   2.828  16.871  0.3391  0.2374 -1.0806
  845MPD2    C212414   2.655   2.692  16.898 -0.7472 -0.5090  0.8751
  845MPD2    C312415   2.602   2.610  16.806 -0.1636 -0.3524  0.0660
  845MPD2    C412416   2.580   2.662  16.678 -0.0318  0.3247  0.0059
  845MPD2    C512417   2.598   2.792  16.643  0.0785 -0.0692  0.6140
  845MPD2     H12418   2.682   2.658  16.997 -0.5919 -1.0791  0.6329
  845MPD2    H112419   2.566   2.589  16.599 -3.2510  0.1961  0.7147
  845MPD2    H212420   2.681   2.971  16.712  1.1239 -0.8327 -0.3110
  845MPD2    H312421   2.581   2.836  16.545 -0.9447  0.1828  0.9102
  845MPD2     N12422   2.590   2.475  16.840 -1.0128  0.5947  0.1581
  845MPD2    H512423   2.645   2.448  16.921 -0.0225  3.8278  0.5317
  845MPD2    N112424   2.733   2.928  16.959  0.2033 -0.5763  0.7547
  845MPD2    H712425   2.745   3.022  16.924 -0.8442 -1.1615 -1.1571
  846MPD2     C12426   4.036   3.253  13.679  0.1913 -0.9704 -0.2705
  846MPD2    C112427   3.957   3.349  13.742  0.7248  0.5970  0.6905
  846MPD2    C212428   3.917   3.332  13.877 -0.6571  0.7689  0.5067
  846MPD2    C312429   3.959   3.219  13.948  0.6586 -0.0085 -0.3244
  846MPD2    C412430   4.045   3.131  13.892 -0.6827  0.0488 -0.3833
  846MPD2    C512431   4.083   3.146  13.756  0.3383 -1.0150  0.4527
  846MPD2     H12432   3.856   3.405  13.929  1.2494  1.2224  2.1341
  846MPD2    H112433   4.083   3.041  13.940 -0.1201 -0.1569 -1.2067
  846MPD2    H212434   4.067   3.266  13.576  0.3970 -0.6607 -0.1685
  846MPD2    H312435   4.144   3.070  13.708  1.9537 -0.5696  1.8160
  846MPD2     N12436   3.916   3.207  14.085  1.0886 -0.5326  0.6423
  846MPD2    H512437   3.849   3.278  14.111 -1.2918 -2.1019 -1.2484
  846MPD2    N112438   3.934   3.466  13.666  0.3719  0.2037  0.2656
  846MPD2    H712439   3.985   3.480  13.580 -0.4723 -1.3371 -0.4885
  847MPD2     C12440   4.251   3.729  14.371  0.1076  0.0571 -0.4704
  847MPD2    C112441   4.363   3.801  14.330  0.1397  0.2178 -0.0937
  847MPD2    C212442   4.477   3.793  14.403 -0.4892  0.7524 -0.3097
  847MPD2    C312443   4.481   3.717  14.512  0.1901 -0.0570 -0.8906
  847MPD2    C412444   4.376   3.639  14.544 -0.1684  0.4655  0.8344
  847MPD2    C512445   4.253   3.645  14.483  0.2738 -0.6595  0.1165
  847MPD2     H12446   4.564   3.844  14.363 -0.6625  0.1163 -1.4830
  847MPD2    H112447   4.386   3.564  14.620  1.6391 -0.1444 -0.0133
  847MPD2    H212448   4.158   3.722  14.315 -0.0988  1.4163 -0.2908
  847MPD2    H312449   4.175   3.580  14.520 -0.7256 -0.5855 -1.9035
  847MPD2     N12450   4.604   3.713  14.581  0.5927  0.0594  0.0995
  847MPD2    H512451   4.672   3.780  14.546  1.3627 -1.8854 -2.1462
  847MPD2    N112452   4.355   3.879  14.212 -0.2763 -0.6924 -0.5600
  847MPD2    H712453   4.442   3.918  14.179 -1.2860  0.9217 -1.2984
  848MPD2     C12454   2.151   2.438  16.297 -0.1157  0.3452 -0.6573
  848MPD2    C112455   2.195   2.500  16.414 -0.7017  0.3059  0.1665
  848MPD2    C212456   2.284   2.605  16.397  0.2984 -0.1748 -0.8213
  848MPD2    C312457   2.313   2.656  16.273  0.0918  0.1282 -0.1211
  848MPD2    C412458   2.268   2.583  16.167 -0.1400 -0.8025  0.9055
  848MPD2    C512459   2.187   2.475  16.175  0.5399 -0.2099 -0.1413
  848MPD2     H12460   2.345   2.646  16.476 -2.7358  0.5084  1.1580
  848MPD2    H112461   2.313   2.606  16.071  0.7306 -1.2256  1.2081
  848MPD2    H212462   2.092   2.347  16.291  0.7113 -0.2556  0.2089
  848MPD2    H312463   2.158   2.407  16.095  0.2244 -1.2252  0.8253
  848MPD2     N12464   2.393   2.767  16.241  0.6871 -0.0792  0.2536
  848MPD2    H512465   2.430   2.773  16.146 -1.4523  0.2685 -0.5711
  848MPD2    N112466   2.177   2.440  16.542 -0.4771 -0.0469  0.6122
  848MPD2    H712467   2.219   2.494  16.617  1.1083 -0.5171  0.0605
  849MPD2     C12468   1.243   2.037  14.079 -0.3289 -0.4366  0.0224
  849MPD2    C112469   1.324   2.137  14.136 -0.4339 -0.6505 -0.4614
  849MPD2    C212470   1.402   2.120  14.248  0.1377  0.1991 -0.1984
  849MPD2    C312471   1.406   1.987  14.293  0.2767  0.2095  0.2039
  849MPD2    C412472   1.337   1.888  14.231 -0.6442  0.9147 -0.5574
  849MPD2    C512473   1.252   1.912  14.123  1.0035 -0.0696  0.6023
  849MPD2     H12474   1.463   2.194  14.297  0.2802 -0.0075 -0.0632
  849MPD2    H112475   1.346   1.789  14.273  1.5739  0.6364 -1.6706
  849MPD2    H212476   1.172   2.053  13.999 -0.1070 -1.4201 -0.3726
  849MPD2    H312477   1.198   1.828  14.080  0.5485  1.2549 -1.3835
  849MPD2     N12478   1.509   1.945  14.387  0.1225  0.0810 -0.0873
  849MPD2    H512479   1.515   1.848  14.415 -1.8823 -0.2598 -0.8378
  849MPD2    N112480   1.326   2.257  14.059  0.2008  0.1104 -0.4709
  849MPD2    H712481   1.271   2.262  13.974  1.5474  0.0794 -1.3509
  850MPD2     C12482   4.673   1.363  14.642  0.1908 -0.2337  0.0106
  850MPD2    C112483   4.686   1.242  14.711  0.0621 -0.7750 -0.3942
  850MPD2    C212484   0.058   1.244  14.814 -0.1704 -0.7480  0.0934
  850MPD2    C312485   0.136   1.355  14.849 -0.3211  0.8294  0.0169
  850MPD2    C412486   0.130   1.471  14.777 -0.2571 -0.1755 -0.1272
  850MPD2    C512487   0.043   1.464  14.672  0.2068 -0.8598  0.0178
  850MPD2     H12488   0.073   1.150  14.867 -2.8616 -0.7091  0.9090
  850MPD2    H112489   0.170   1.569  14.804 -0.8489  0.4472 -1.5265
  850MPD2    H212490   4.620   1.371  14.548  1.4369  0.3332 -0.6527
  850MPD2    H312491   0.047   1.552  14.608  0.2604 -0.9861 -0.1539
  850MPD2     N12492   0.214   1.338  14.963  0.4514 -0.2818 -0.9731
  850MPD2    H512493   0.230   1.243  14.994 -2.5016 -0.7918 -1.0904
  850MPD2    N112494   4.600   1.130  14.714  0.5063  0.0351  0.2424
  850MPD2    H712495   4.624   1.053  14.775 -1.1222 -1.3006 -0.8005
  851MPD2     C12496   4.680   0.884  15.360  0.1862 -0.4788  0.1373
  851MPD2    C112497   4.636   0.818  15.249  0.4159 -0.4234  0.3553
  851MPD2    C212498   4.678   0.687  15.230 -0.0814 -0.6075 -0.2838
  851MPD2    C312499   0.044   0.621  15.318  0.7365  0.3162  0.1986
  851MPD2    C412500   0.088   0.693  15.426 -0.3364 -0.1754  0.2164
  851MPD2    C512501   0.041   0.822  15.446 -0.0671  0.1021 -0.1132
  851MPD2     H12502   4.643   0.627  15.147 -2.1927  0.2526 -0.0108
  851MPD2    H112503   0.144   0.643  15.505 -1.5505  0.7672  1.6619
  851MPD2    H212504   4.658   0.989  15.374  1.3321 -0.0319 -1.3289
  851MPD2    H312505   0.076   0.864  15.539  0.6264 -2.0259  0.6028
  851MPD2     N12506   0.081   0.487  15.285  0.0401 -0.5874 -0.5650
  851MPD2    H512507   0.067   0.458  15.189 -2.3115  3.8534 -1.5633
  851MPD2    N112508   4.558   0.905  15.162 -0.2582 -0.1330  0.1833
  851MPD2    H712509   4.541   0.997  15.202 -0.7845 -0.9664  1.8694
  852MPD2     C12510   4.459   3.240  10.497  0.1178  0.2647  0.8782
  852MPD2    C112511   4.344   3.266  10.566 -0.2523 -0.2289  0.4648
  852MPD2    C212512   4.340   3.364  10.660 -0.3567 -0.6387  0.4577
  852MPD2    C312513   4.459   3.430  10.685 -0.1554 -0.0159 -0.2143
  852MPD2    C412514   4.572   3.410  10.607  0.6013 -0.4313  0.4861
  852MPD2    C512515   4.572   3.312  10.515 -0.1881 -0.0287 -0.2994
  852MPD2     H12516   4.251   3.393  10.716 -0.4664 -0.5820  0.2512
  852MPD2    H112517   4.660   3.472  10.618 -0.2415  0.6361  1.3268
  852MPD2    H212518   4.462   3.170  10.414 -1.2062 -0.7257  1.6515
  852MPD2    H312519   4.654   3.297  10.446  0.5448  0.8653  0.3797
  852MPD2     N12520   4.446   3.533  10.782 -0.3399  0.0607 -0.1473
  852MPD2    H512521   4.355   3.542  10.826  0.1409 -2.3182  1.3568
  852MPD2    N112522   4.219   3.195  10.540  0.4855 -0.4356 -0.0114
  852MPD2    H712523   4.137   3.218  10.596  0.0341  1.4299 -1.4387
  853MPD2     C12524   1.685   3.107  12.391  0.1815  0.4903  0.2525
  853MPD2    C112525   1.559   3.069  12.418  0.0181  0.3817 -0.1981
  853MPD2    C212526   1.487   3.006  12.315  0.2084  0.2222  0.2073
  853MPD2    C312527   1.551   2.975  12.195  0.5328 -0.7714  1.2591
  853MPD2    C412528   1.682   3.001  12.170  0.5655 -0.1110  0.3417
  853MPD2    C512529   1.749   3.071  12.279 -0.2131 -0.6662  0.3463
  853MPD2     H12530   1.380   2.991  12.322  0.2015 -0.1364 -0.5813
  853MPD2    H112531   1.725   2.975  12.074 -0.0893  0.1960 -0.0350
  853MPD2    H212532   1.743   3.144  12.475  3.7423 -0.3530 -1.8218
  853MPD2    H312533   1.852   3.103  12.266  0.3183 -2.0822  0.9516
  853MPD2     N12534   1.478   2.919  12.083 -0.3162 -0.2724  0.4355
  853MPD2    H512535   1.533   2.893  12.002  0.3760  0.3386  0.7081
  853MPD2    N112536   1.507   3.102  12.543  0.2851  0.0597 -0.2177
  853MPD2    H712537   1.566   3.159  12.603 -2.3408  1.1859  1.3050
  854MPD2     C12538   2.677   2.913  13.253  0.0157  0.0851  0.9395
  854MPD2    C112539   2.541   2.883  13.240 -0.2259 -0.0816  0.2134
  854MPD2    C212540   2.483   2.794  13.326 -0.3268  0.0645  0.3334
  854MPD2    C312541   2.565   2.732  13.419  0.0888  0.9589  0.5132
  854MPD2    C412542   2.686   2.784  13.452 -0.0716 -0.3497 -0.6040
  854MPD2    C512543   2.742   2.869  13.363  0.5028 -0.0226 -0.1508
  854MPD2     H12544   2.382   2.756  13.310 -1.0781  1.7954  1.0299
  854MPD2    H112545   2.755   2.750  13.529  1.9403  2.0961 -1.3261
  854MPD2    H212546   2.731   2.980  13.187  0.8781 -2.4946 -0.9507
  854MPD2    H312547   2.846   2.892  13.382  0.3610  0.6258 -0.1474
  854MPD2     N12548   2.532   2.611  13.487  0.1114  0.6252  0.1840
  854MPD2    H512549   2.610   2.567  13.535 -1.7862 -0.1533  2.5397
  854MPD2    N112550   2.470   2.951  13.133  0.2345  0.3864  0.2446
  854MPD2    H712551   2.523   3.011  13.070 -1.1081  1.3952  0.0953
  855MPD2     C12552   2.774   1.825  14.044 -0.3953 -0.1805 -0.2464
  855MPD2    C112553   2.842   1.937  14.001 -0.2293  0.2280  0.1467
  855MPD2    C212554   2.772   2.014  13.909  0.0251 -0.0705 -0.0231
  855MPD2    C312555   2.641   1.981  13.865 -0.2807 -0.5647  0.9877
  855MPD2    C412556   2.576   1.861  13.909 -0.1482  0.1640 -0.5005
  855MPD2    C512557   2.648   1.787  13.994 -0.2909 -0.2472 -1.0057
  855MPD2     H12558   2.814   2.106  13.868 -1.4527  0.6162  0.0091
  855MPD2    H112559   2.488   1.824  13.859  0.8820 -2.0740 -0.6981
  855MPD2    H212560   2.816   1.752  14.112  0.8459 -0.6195 -1.5026
  855MPD2    H312561   2.610   1.691  14.029  1.4494 -1.1179 -1.5158
  855MPD2     N12562   2.577   2.058  13.768  0.4504  0.8639 -0.1791
  855MPD2    H512563   2.505   2.015  13.711  2.3128 -1.9363 -0.4024
  855MPD2    N112564   2.978   1.968  14.028 -0.4223  0.2387 -0.8862
  855MPD2    H712565   3.026   2.044  13.980  1.1463 -1.4016 -1.9344
  856MPD2     C12566   0.792   3.078  14.320 -0.1730  0.2932 -0.1750
  856MPD2    C112567   0.837   3.180  14.236  0.0743  0.4134 -0.5022
  856MPD2    C212568   0.753   3.256  14.166  0.0896 -0.4036  0.4868
  856MPD2    C312569   0.620   3.236  14.176  0.7503 -0.2856 -0.9575
  856MPD2    C412570   0.570   3.135  14.248 -0.1557  0.1202  0.5886
  856MPD2    C512571   0.656   3.053  14.322  0.1411  0.1642 -0.0807
  856MPD2     H12572   0.791   3.329  14.095 -0.7710 -0.4834 -0.0516
  856MPD2    H112573   0.464   3.120  14.263 -0.3712  0.1912 -0.9407
  856MPD2    H212574   0.863   3.012  14.367 -0.0423  0.3764 -0.2557
  856MPD2    H312575   0.615   2.984  14.394 -0.1899  1.6367  1.1579
  856MPD2     N12576   0.527   3.318  14.103  0.2752  0.3737 -0.1091
  856MPD2    H512577   0.427   3.306  14.116 -0.1540  2.3412 -1.5389
  856MPD2    N112578   0.974   3.214  14.224  0.5569 -0.0506 -0.0816
  856MPD2    H712579   0.999   3.297  14.170 -1.5772  0.0278 -0.9374
  857MPD2     C12580   1.772   0.841  13.390  0.1393  0.3089  0.4518
  857MPD2    C112581   1.881   0.806  13.319 -0.0888 -0.0367  0.1626
  857MPD2    C212582   1.981   0.904  13.302 -0.1917 -0.0163 -0.1934
  857MPD2    C312583   1.962   1.034  13.343  0.1133  0.6865 -0.6187
  857MPD2    C412584   1.840   1.070  13.399  0.0152 -0.2614 -0.2461
  857MPD2    C512585   1.748   0.971  13.426  0.3077  0.5341 -0.3295
  857MPD2     H12586   2.081   0.885  13.263  0.2034 -0.9272  1.2867
  857MPD2    H112587   1.817   1.173  13.424 -0.5204 -0.3534 -0.3593
  857MPD2    H212588   1.692   0.772  13.416 -1.2038  2.6608  2.5850
  857MPD2    H312589   1.661   1.011  13.477  0.8534 -0.0168  1.0338
  857MPD2     N12590   2.066   1.128  13.322  0.3077  0.1449 -0.7503
  857MPD2    H512591   2.158   1.097  13.292 -0.6676 -2.4020 -1.0612
  857MPD2    N112592   1.889   0.674  13.270 -0.2916  0.1074  1.0143
  857MPD2    H712593   1.809   0.615  13.286 -2.1401  1.2122 -4.0247
  858MPD2     C12594   2.573   0.324  16.722  0.2094 -0.0965 -0.2036
  858MPD2    C112595   2.701   0.280  16.729 -0.7295 -0.0238  0.4938
  858MPD2    C212596   2.768   0.300  16.849 -0.6804 -0.2294 -0.2209
  858MPD2    C312597   2.704   0.351  16.960 -0.3515  0.1238 -0.0148
  858MPD2    C412598   2.579   0.403  16.953  0.2722 -0.0889  0.0374
  858MPD2    C512599   2.525   0.398  16.826  0.3428  0.3866  0.8091
  858MPD2     H12600   2.870   0.266  16.865 -0.7197 -0.6675 -0.9170
  858MPD2    H112601   2.532   0.458  17.034 -1.2099 -0.7104 -0.3957
  858MPD2    H212602   2.526   0.320  16.624 -2.0340  0.9307  0.8273
  858MPD2    H312603   2.436   0.456  16.804  0.5896  0.0998 -0.8970
  858MPD2     N12604   2.770   0.362  17.087 -0.5421 -0.2882 -0.2811
  858MPD2    H512605   2.720   0.407  17.163  0.7736 -1.0731  1.0627
  858MPD2    N112606   2.755   0.211  16.621  0.5491  0.1499  0.7814
  858MPD2    H712607   2.698   0.215  16.537 -0.0525 -0.2616  1.1798
  859MPD2     C12608   1.096   1.315  15.687 -0.2656  0.1193  0.1149
  859MPD2    C112609   1.194   1.351  15.596 -0.4669  0.1467  1.4310
  859MPD2    C212610   1.276   1.248  15.549  0.0042 -0.1731  0.3523
  859MPD2    C312611   1.265   1.117  15.591 -0.0481  0.3079  0.4160
  859MPD2    C412612   1.166   1.079  15.683  0.1831 -0.3690 -0.6799
  859MPD2    C512613   1.079   1.182  15.726 -0.6585 -0.3426 -0.1652
  859MPD2     H12614   1.344   1.268  15.467  0.5795  0.4265  0.9755
  859MPD2    H112615   1.153   0.977  15.719 -1.4891 -0.2440 -0.9516
  859MPD2    H212616   1.030   1.392  15.726  1.3885  0.7802  1.6330
  859MPD2    H312617   1.007   1.164  15.805 -0.1358  0.6296  0.5278
  859MPD2     N12618   1.348   1.011  15.547 -0.3792  0.7020 -0.4046
  859MPD2    H512619   1.338   0.920  15.590  0.7604  0.9473  0.3808
  859MPD2    N112620   1.200   1.490  15.549 -0.1825  0.0297 -0.1219
  859MPD2    H712621   1.119   1.546  15.571 -1.8867 -1.5298 -2.3548
  860MPD2     C12622   3.253   2.324  11.778  0.3926 -0.7897  0.4954
  860MPD2    C112623   3.297   2.409  11.876  1.0209  0.3856 -0.5918
  860MPD2    C212624   3.225   2.439  11.985  0.5016  0.6776 -0.1100
  860MPD2    C312625   3.104   2.373  12.001 -0.7809 -0.2635  0.0529
  860MPD2    C412626   3.056   2.285  11.906 -0.2991 -0.3421  0.1091
  860MPD2    C512627   3.130   2.267  11.791 -0.0868  0.0095  0.2177
  860MPD2     H12628   3.268   2.502  12.062 -0.2380  2.2598 -1.0019
  860MPD2    H112629   2.957   2.242  11.914 -0.2913 -0.0581  1.6356
  860MPD2    H212630   3.310   2.290  11.692 -2.1960 -1.1327 -1.0824
  860MPD2    H312631   3.097   2.203  11.709 -0.3746  0.0123  0.3325
  860MPD2     N12632   3.037   2.405  12.122 -0.0810 -0.4985 -0.7123
  860MPD2    H512633   3.074   2.488  12.168 -0.7986 -0.5334 -0.0794
  860MPD2    N112634   3.426   2.465  11.880  0.4855 -0.8094  0.1725
  860MPD2    H712635   3.454   2.525  11.956 -2.1595 -2.0842  2.1179
  861MPD2     C12636   2.278   0.643  10.829  0.7055  0.5180  1.0524
  861MPD2    C112637   2.298   0.771  10.882  0.4472 -0.3419 -0.4664
  861MPD2    C212638   2.218   0.876  10.835 -0.0296 -0.0165  0.9367
  861MPD2    C312639   2.131   0.861  10.732 -0.0018 -0.0679  0.5954
  861MPD2    C412640   2.131   0.739  10.663  0.3859 -0.7415 -0.5488
  861MPD2    C512641   2.200   0.632  10.714 -0.8020 -0.3969  0.3857
  861MPD2     H12642   2.230   0.976  10.877 -3.5873  0.7545  0.1058
  861MPD2    H112643   2.086   0.734  10.565 -2.5233 -0.1793  0.7572
  861MPD2    H212644   2.325   0.555  10.870 -0.2395 -1.1122 -1.3180
  861MPD2    H312645   2.178   0.538  10.664  0.9832  0.2264 -1.5930
  861MPD2     N12646   2.054   0.976  10.685  0.3431  0.1840 -0.0214
  861MPD2    H512647   2.002   0.961  10.599  2.6426 -0.2895 -1.3359
  861MPD2    N112648   2.372   0.799  10.998 -0.4363  0.4695  0.4294
  861MPD2    H712649   2.368   0.892  11.037  1.1312  1.4771 -1.7890
  862MPD2     C12650   2.008   1.218  10.056  0.7048 -0.3499 -0.7007
  862MPD2    C112651   1.964   1.138  10.159  0.0299 -0.2708 -0.0046
  862MPD2    C212652   1.982   1.000  10.144 -0.4946 -0.9394 -0.0945
  862MPD2    C312653   2.038   0.942  10.039  1.0334 -0.2872  0.4506
  862MPD2    C412654   2.071   1.019   9.928  0.4781 -0.4898  0.7282
  862MPD2    C512655   2.055   1.160   9.940 -0.2556  0.1190  0.1382
  862MPD2     H12656   1.951   0.946  10.233 -1.3402  0.0568  0.2191
  862MPD2    H112657   2.101   0.978   9.832  1.2176  2.3332 -0.2425
  862MPD2    H212658   1.984   1.323  10.043  1.8019  0.1032  0.9324
  862MPD2    H312659   2.090   1.223   9.859  1.4175  1.7094  2.0776
  862MPD2     N12660   2.069   0.801  10.051 -0.2849  0.2301  0.4893
  862MPD2    H512661   2.126   0.759   9.978  0.3044  3.3038 -0.8283
  862MPD2    N112662   1.930   1.186  10.284  0.1205 -0.0112  0.0797
  862MPD2    H712663   1.908   1.115  10.353 -0.2688 -0.8044 -0.8643
  863MPD2     C12664   0.887   3.713  16.748  0.2353 -0.1861 -0.3410
  863MPD2    C112665   1.008   3.756  16.704  0.3549  0.3378  0.3576
  863MPD2    C212666   1.112   3.743  16.786  0.3028 -0.3977  0.3898
  863MPD2    C312667   1.095   3.678  16.908  0.8009 -0.9548 -0.1252
  863MPD2    C412668   0.975   3.621  16.945 -0.6251  0.0193 -0.5128
  863MPD2    C512669   0.867   3.651  16.865 -0.0866 -0.5262 -0.4060
  863MPD2     H12670   1.202   3.797  16.760 -0.6537  1.7519  1.5901
  863MPD2    H112671   0.952   3.573  17.039 -1.5015  0.2685 -0.6013
  863MPD2    H212672   0.794   3.730  16.694  0.9670  1.7525 -0.9966
  863MPD2    H312673   0.768   3.614  16.892 -0.0751  0.0390  0.4180
  863MPD2     N12674   1.202   3.662  16.995  0.0752 -0.3174  0.0236
  863MPD2    H512675   1.183   3.598  17.072  1.6088  1.5876  2.0179
  863MPD2    N112676   1.016   3.826  16.582  0.3781 -0.0590 -0.3608
  863MPD2    H712677   0.930   3.834  16.528 -0.2817  0.4501  0.7775
  864MPD2     C12678   1.519   4.541  17.385  0.4448 -0.1144 -0.3772
  864MPD2    C112679   1.563   4.488  17.273 -0.8465 -0.4487  0.6967
  864MPD2    C212680   1.685   4.531  17.230 -0.1532 -0.2621  0.6744
  864MPD2    C312681   1.741   4.645  17.279  0.4981  0.5166  0.3494
  864MPD2    C412682   1.680   4.716  17.380  0.0241  0.5967 -0.2170
  864MPD2    C512683   1.575   4.649  17.438  0.1459 -0.1755  0.3729
  864MPD2     H12684   1.719   4.494  17.134  1.7472 -0.1303  1.2962
  864MPD2    H112685   1.720   0.087  17.420  0.8162 -0.0225  0.4260
  864MPD2    H212686   1.425   4.508  17.428  1.0664 -1.6215 -0.2039
  864MPD2    H312687   1.537   4.693  17.529  2.3754  2.0664  0.2150
  864MPD2     N12688   1.845   4.709  17.223 -0.4069 -0.0584 -0.0847
  864MPD2    H512689   1.864   0.081  17.260  4.2983 -0.0254 -2.5391
  864MPD2    N112690   1.482   4.385  17.224  0.4297  0.3882 -0.4911
  864MPD2    H712691   1.396   4.360  17.272  0.2199 -1.1503 -1.6592
  865MPD2     C12692   2.104   0.405  16.396 -0.0450  0.4216 -0.2716
  865MPD2    C112693   2.009   0.322  16.452 -0.1218  0.3994  0.0564
  865MPD2    C212694   1.987   0.318  16.587 -1.1075  0.1417 -0.4059
  865MPD2    C312695   2.066   0.395  16.673  0.1740  0.3831  0.5339
  865MPD2    C412696   2.154   0.484  16.623  0.0661 -0.3516  0.4812
  865MPD2    C512697   2.169   0.490  16.486 -0.2934  0.0321  0.4530
  865MPD2     H12698   1.915   0.252  16.633 -1.9268 -1.4193 -3.8842
  865MPD2    H112699   2.203   0.558  16.686 -0.7269  0.3948  0.2147
  865MPD2    H212700   2.122   0.416  16.289  1.1630 -0.2496 -0.1366
  865MPD2    H312701   2.234   0.569  16.453  0.2649 -0.7698 -0.3785
  865MPD2     N12702   2.066   0.387  16.813 -0.4897  0.0641  0.3888
  865MPD2    H512703   2.142   0.430  16.866  1.5295 -1.1846 -1.4862
  865MPD2    N112704   1.946   0.223  16.371  0.0544  0.1963  0.2819
  865MPD2    H712705   1.955   0.232  16.270 -1.1316 -2.0640 -0.0265
  866MPD2     C12706   3.090   1.163  11.136  0.7769  0.6150 -0.2994
  866MPD2    C112707   3.069   1.204  11.004 -0.5799  0.4265 -0.4299
  866MPD2    C212708   2.952   1.272  10.979 -0.1261  0.6454 -0.7288
  866MPD2    C312709   2.865   1.306  11.087 -0.5801 -1.1053 -0.1530
  866MPD2    C412710   2.884   1.250  11.208 -0.7263  0.0826  0.4326
  866MPD2    C512711   2.996   1.179  11.233 -0.2464  0.1978  0.1414
  866MPD2     H12712   2.938   1.319  10.882  0.9913 -0.3550 -1.3712
  866MPD2    H112713   2.806   1.265  11.282 -0.4374 -3.3878  1.4424
  866MPD2    H212714   3.191   1.134  11.160  1.0345 -0.4490 -2.7166
  866MPD2    H312715   3.013   1.139  11.332  0.4689 -1.7392 -0.7748
  866MPD2     N12716   2.739   1.368  11.066  0.2269  0.7935  0.3174
  866MPD2    H512717   2.693   1.388  11.154 -1.6544 -2.1676  0.0236
  866MPD2    N112718   3.179   1.173  10.917  0.6936 -0.0288 -0.5382
  866MPD2    H712719   3.261   1.125  10.951  0.7347 -0.6404 -1.5038
  867MPD2     C12720   0.080   0.307  16.301  0.0293  0.0234  0.2166
  867MPD2    C112721   0.192   0.276  16.367  0.2936 -0.2883 -0.6222
  867MPD2    C212722   0.257   0.375  16.435 -0.0685  0.8881 -0.0449
  867MPD2    C312723   0.202   0.504  16.451 -0.1619  0.4964 -0.3977
  867MPD2    C412724   0.092   0.535  16.375 -0.3074  0.1053  0.2203
  867MPD2    C512725   0.031   0.439  16.300 -0.3481  0.5794  0.5153
  867MPD2     H12726   0.350   0.355  16.486 -1.0739 -1.4314  0.8460
  867MPD2    H112727   0.049   0.635  16.381 -0.5693  0.0809 -1.0912
  867MPD2    H212728   0.035   0.226  16.244 -0.1375  0.6826 -0.5876
  867MPD2    H312729   4.654   0.461  16.259 -1.0325 -2.5278  0.5397
  867MPD2     N12730   0.253   0.598  16.536  0.1018  0.1273  0.3768
  867MPD2    H512731   0.219   0.693  16.538  0.8955  0.4090  0.4835
  867MPD2    N112732   0.243   0.143  16.359  0.5854 -0.3495 -0.3880
  867MPD2    H712733   0.211   0.085  16.281  0.4834  0.3946 -0.8982
  868MPD2     C12734   2.580   3.660  13.047  0.0580  0.6239 -0.3383
  868MPD2    C112735   2.624   3.794  13.050  0.6903  0.1420  0.3649
  868MPD2    C212736   2.550   3.892  13.116  0.4640  0.2307  0.3060
  868MPD2    C312737   2.429   3.859  13.179  0.0210  0.3546  0.2784
  868MPD2    C412738   2.385   3.729  13.180 -0.6162  0.5573 -0.3548
  868MPD2    C512739   2.457   3.638  13.104  0.0438  0.6089  0.4464
  868MPD2     H12740   2.575   3.997  13.112  1.8066 -0.0997  0.0042
  868MPD2    H112741   2.290   3.701  13.224 -0.5572  0.8750 -0.0207
  868MPD2    H212742   2.629   3.578  12.997  0.7472  0.8011  0.0449
  868MPD2    H312743   2.421   3.535  13.100 -2.9374  1.5825  2.6174
  868MPD2     N12744   2.367   3.958  13.254  0.3715  0.1575 -0.1981
  868MPD2    H512745   2.411   4.048  13.264  1.0723 -0.0837 -1.0966
  868MPD2    N112746   2.749   3.827  12.982 -0.4961 -0.1337  0.2904
  868MPD2    H712747   2.801   3.745  12.952 -0.0837  0.2997 -0.1811
  869MPD2     C12748   3.638   1.595   1.960  0.4380  0.5764 -0.1580
  869MPD2    C112749   3.502   1.629   1.955  0.2086 -0.7467  0.5812
  869MPD2    C212750   3.450   1.721   1.861  0.1066 -0.0305  0.3819
  869MPD2    C312751   3.545   1.784   1.776  0.3119  0.4775  0.1205
  869MPD2    C412752   3.676   1.739   1.772 -0.2167 -0.1240  0.1806
  869MPD2    C512753   3.724   1.652   1.866  0.0335  0.3739 -0.2280
  869MPD2     H12754   3.344   1.744   1.857  0.0343 -0.6546 -1.5473
  869MPD2    H112755   3.745   1.790   1.705  1.1337 -0.7150  1.1205
  869MPD2    H212756   3.685   1.532   2.036 -0.2322 -0.2068 -0.3870
  869MPD2    H312757   3.830   1.629   1.865  0.0267  0.2867  0.6813
  869MPD2     N12758   3.506   1.874   1.676  0.0374 -0.1168  0.0479
  869MPD2    H512759   3.580   1.889   1.609 -0.3485  1.0548 -0.0991
  869MPD2    N112760   3.420   1.560   2.042  0.7500 -0.3424  0.4339
  869MPD2    H712761   3.468   1.501   2.110  0.4695  2.1954  2.8283
  870MPD2     C12762   2.268   1.581   1.837 -0.2519  0.2998  0.4235
  870MPD2    C112763   2.395   1.565   1.784 -0.1267 -0.2690  0.5277
  870MPD2    C212764   2.438   1.651   1.682  0.0434 -0.1587  0.0109
  870MPD2    C312765   2.355   1.747   1.626 -0.0375 -0.2688 -0.0636
  870MPD2    C412766   2.230   1.755   1.678 -1.0091 -0.1900  0.2145
  870MPD2    C512767   2.188   1.680   1.782  0.4437  0.6202  0.0809
  870MPD2     H12768   2.531   1.626   1.632 -0.2709 -2.3060  0.4937
  870MPD2    H112769   2.161   1.830   1.641 -0.4358  0.9002  1.3740
  870MPD2    H212770   2.224   1.525   1.919 -0.9435  1.2647  0.7149
  870MPD2    H312771   2.092   1.702   1.827  0.3271  1.6427 -0.6685
  870MPD2     N12772   2.399   1.821   1.515  0.0814  0.6092 -0.0245
  870MPD2    H512773   2.475   1.778   1.463  0.3977  1.3837 -0.2112
  870MPD2    N112774   2.468   1.452   1.819  0.1895  0.1710  0.6001
  870MPD2    H712775   2.408   1.399   1.881  0.8356  1.7233  2.5186
  871MPD2     C12776   4.134   0.858  16.500  0.1700  0.6300  0.3230
  871MPD2    C112777   4.109   0.751  16.579  0.2377 -0.2717  0.7254
  871MPD2    C212778   4.117   0.629  16.527 -0.0821  0.9459 -0.2771
  871MPD2    C312779   4.139   0.616  16.392 -0.1569  0.1512  0.1268
  871MPD2    C412780   4.150   0.720  16.312  0.9194 -0.4115  0.1214
  871MPD2    C512781   4.151   0.847  16.366 -0.4090  0.6282  0.2335
  871MPD2     H12782   4.089   0.536  16.576  0.4590  0.3506 -1.0800
  871MPD2    H112783   4.162   0.713  16.205  2.1376  5.7479 -0.1681
  871MPD2    H212784   4.150   0.953  16.550  1.0233 -0.1276  1.4740
  871MPD2    H312785   4.160   0.937  16.306  0.5914  0.2315 -0.2274
  871MPD2     N12786   4.162   0.485  16.345  0.0655  0.0766 -0.2075
  871MPD2    H512787   4.146   0.404  16.404 -0.0491  0.6274  0.5208
  871MPD2    N112788   4.086   0.781  16.712  0.2564 -0.3116  0.6978
  871MPD2    H712789   4.084   0.880  16.735 -0.2321 -0.1504 -0.0550
  872MPD2     C12790   0.362   2.595  14.366 -0.0871  0.3867 -0.2041
  872MPD2    C112791   0.330   2.665  14.256  0.0494 -0.9839 -0.4535
  872MPD2    C212792   0.196   2.674  14.222  0.6999  0.1301  0.0585
  872MPD2    C312793   0.096   2.627  14.307  0.1958  0.2078 -0.3890
  872MPD2    C412794   0.132   2.560  14.420 -0.1976  0.5402 -0.0799
  872MPD2    C512795   0.268   2.548  14.453 -0.1381  1.2158  0.0848
  872MPD2     H12796   0.163   2.729  14.134 -1.1589 -1.7622 -0.4186
  872MPD2    H112797   0.057   2.532  14.493  0.7233  1.2788  1.1415
  872MPD2    H212798   0.463   2.582  14.406 -0.0905 -2.3853 -1.1126
  872MPD2    H312799   0.290   2.488  14.540  0.1005 -1.2236 -1.6518
  872MPD2     N12800   4.675   2.648  14.289 -0.4472 -0.7394 -0.6906
  872MPD2    H512801   4.604   2.603  14.346  0.1752 -1.0731 -0.1752
  872MPD2    N112802   0.420   2.711  14.164 -0.5380 -0.1599  0.0991
  872MPD2    H712803   0.372   2.745  14.081 -1.0248 -0.3476  0.3038
  873MPD2     C12804   1.357   2.923   0.575  0.1040  0.2775 -0.0336
  873MPD2    C112805   1.478   2.939   0.637  0.1602 -0.3587  0.4391
  873MPD2    C212806   1.573   2.838   0.637 -0.6428  1.0060 -0.4871
  873MPD2    C312807   1.542   2.715   0.574  0.6297 -0.0496 -0.0810
  873MPD2    C412808   1.431   2.701   0.495  0.8030  0.0678  0.0380
  873MPD2    C512809   1.338   2.804   0.506 -0.0028  0.6633 -0.2367
  873MPD2     H12810   1.664   2.849   0.695 -2.9667  0.8396  3.1489
  873MPD2    H112811   1.386   2.605   0.472 -0.7867  0.6101  0.8734
  873MPD2    H212812   1.289   3.007   0.568 -1.5938 -1.2219 -1.4547
  873MPD2    H312813   1.243   2.787   0.459  0.0869 -1.5667  0.3880
  873MPD2     N12814   1.624   2.600   0.589  0.2128  0.0153 -0.0182
  873MPD2    H512815   1.581   2.512   0.562 -1.0384 -0.0716  2.2785
  873MPD2    N112816   1.505   3.067   0.700 -0.0263  0.2210  0.9422
  873MPD2    H712817   1.427   3.131   0.686 -1.0799 -2.1517 -3.9898
  874MPD2     C12818   1.835   3.034  15.888 -1.1532  0.3368 -0.4003
  874MPD2    C112819   1.876   2.945  15.983  0.0187 -0.5483  0.3913
  874MPD2    C212820   2.015   2.946  16.015 -0.3908 -0.4941 -0.1253
  874MPD2    C312821   2.108   3.022  15.946  0.1707 -0.0830  0.2560
  874MPD2    C412822   2.065   3.100  15.843  1.2446  0.0493  0.6890
  874MPD2    C512823   1.930   3.105  15.816 -0.2889 -0.0082  0.2214
  874MPD2     H12824   2.049   2.893  16.103 -1.5508  0.6602  1.0125
  874MPD2    H112825   2.137   3.154  15.782 -1.6674  1.9905 -1.0659
  874MPD2    H212826   1.732   3.053  15.859 -1.5636  0.0188  0.8709
  874MPD2    H312827   1.893   3.172  15.740 -0.7672  0.3535  0.7784
  874MPD2     N12828   2.240   3.027  15.994  0.6801  0.4364 -0.1709
  874MPD2    H512829   2.259   2.970  16.075  0.0894  0.2350 -0.1736
  874MPD2    N112830   1.780   2.856  16.043 -0.6762  0.4152 -0.1891
  874MPD2    H712831   1.685   2.867  16.008 -0.5429 -0.3401 -0.7775
  875MPD2     C12832   3.068   0.956  14.799 -0.2964 -0.9118 -0.3392
  875MPD2    C112833   2.952   1.030  14.781 -0.1692  0.2171  0.4292
  875MPD2    C212834   2.882   1.078  14.891  0.4848  0.2825 -0.6487
  875MPD2    C312835   2.919   1.040  15.019 -0.0490  0.9501  0.0026
  875MPD2    C412836   3.035   0.968  15.038 -0.1733  0.6250  0.5788
  875MPD2    C512837   3.115   0.945  14.930 -0.7550 -0.1703 -0.5189
  875MPD2     H12838   2.797   1.145  14.878  1.2533  1.2971 -0.3810
  875MPD2    H112839   3.072   0.968  15.140 -0.1181  1.3778  0.5538
  875MPD2    H212840   3.123   0.914  14.716 -1.4073 -2.4054 -0.3119
  875MPD2    H312841   3.207   0.897  14.958  0.4779  1.9150 -1.0074
  875MPD2     N12842   2.847   1.098  15.128 -0.3172  0.3127  0.5015
  875MPD2    H512843   2.778   1.169  15.108  0.5811  0.9508 -0.3342
  875MPD2    N112844   2.896   1.053  14.657  0.3248 -0.3323 -0.5797
  875MPD2    H712845   2.803   1.094  14.662  0.8743  0.4842  2.7481
  876MPD2     C12846   1.252   2.247  15.824 -0.0906  0.1191 -0.5722
  876MPD2    C112847   1.381   2.229  15.859  0.8340  0.5104 -0.0397
  876MPD2    C212848   1.428   2.094  15.861 -0.2242 -0.8624 -0.3891
  876MPD2    C312849   1.348   1.989  15.849 -0.7618  0.3255 -0.5562
  876MPD2    C412850   1.209   2.016  15.843  0.2720  0.3367 -0.8423
  876MPD2    C512851   1.165   2.143  15.820  0.0282 -0.9759 -0.2136
  876MPD2     H12852   1.532   2.073  15.882  0.4798  2.9831  0.0208
  876MPD2    H112853   1.130   1.944  15.827 -0.0247  0.4632  0.0644
  876MPD2    H212854   1.211   2.347  15.812 -1.4141  0.2019  4.6099
  876MPD2    H312855   1.060   2.146  15.793 -0.1398 -0.4578  0.5044
  876MPD2     N12856   1.402   1.859  15.852  0.4696  0.0472  0.4570
  876MPD2    H512857   1.504   1.853  15.850  0.3731 -1.5061 -0.2125
  876MPD2    N112858   1.470   2.336  15.865  0.7334  1.0311  0.7569
  876MPD2    H712859   1.430   2.426  15.839 -0.2555  0.4990  0.4398
  877MPD2     C12860   1.578   2.905  15.441  0.0389  0.6619  0.0405
  877MPD2    C112861   1.691   2.826  15.437 -1.4707  0.0969  0.1090
  877MPD2    C212862   1.772   2.823  15.326  0.3513 -0.6634  0.2474
  877MPD2    C312863   1.744   2.897  15.215 -0.1717 -0.3572 -0.0288
  877MPD2    C412864   1.622   2.970  15.216  0.3683  0.0315  0.2240
  877MPD2    C512865   1.538   2.965  15.329  0.5000  0.2603 -0.2890
  877MPD2     H12866   1.865   2.767  15.332 -0.6972 -2.2958  1.2434
  877MPD2    H112867   1.596   3.017  15.122 -0.3861 -0.7395  0.0480
  877MPD2    H212868   1.515   2.916  15.529  1.8788  1.7317  1.2177
  877MPD2    H312869   1.442   3.014  15.312 -1.0919 -1.9350  2.4290
  877MPD2     N12870   1.824   2.903  15.098  0.4347 -0.2338 -0.1472
  877MPD2    H512871   1.806   2.967  15.022  0.2179 -1.1473 -0.8548
  877MPD2    N112872   1.732   2.737  15.543 -0.2265  0.5544  0.1014
  877MPD2    H712873   1.796   2.663  15.519  0.1066  0.9655 -0.2585
  878MPD2     C12874   1.252   2.245  13.148  0.2750 -0.6669  0.5701
  878MPD2    C112875   1.375   2.298  13.143 -0.7633  0.3727  0.0173
  878MPD2    C212876   1.432   2.329  13.264 -0.1871 -0.1784  0.2105
  878MPD2    C312877   1.355   2.332  13.380  0.0274 -0.0055 -0.2259
  878MPD2    C412878   1.224   2.289  13.374  0.6499  0.2089 -0.7186
  878MPD2    C512879   1.179   2.233  13.262  0.0938 -0.1625 -0.4258
  878MPD2     H12880   1.536   2.358  13.272 -0.4815  0.7948  0.5059
  878MPD2    H112881   1.169   2.275  13.467  0.5065  0.2285 -0.8003
  878MPD2    H212882   1.220   2.198  13.055 -0.8164 -0.4077  0.8145
  878MPD2    H312883   1.086   2.178  13.267 -0.4147  0.8704  1.4313
  878MPD2     N12884   1.421   2.363  13.501  0.3740 -0.2543  0.1499
  878MPD2    H512885   1.522   2.370  13.502  0.3314  0.3836 -1.7589
  878MPD2    N112886   1.448   2.298  13.021  0.4723 -0.1897 -0.5861
  878MPD2    H712887   1.396   2.266  12.940  0.5284 -0.1464 -0.6386
  879MPD2     C12888   2.139   3.657  16.882  0.0154  0.4452 -0.3176
  879MPD2    C112889   2.151   3.519  16.907  0.2827  0.1628 -0.0883
  879MPD2    C212890   2.129   3.428  16.802  0.5247  0.5984 -0.2645
  879MPD2    C312891   2.097   3.471  16.675 -0.2598 -0.0168  0.2121
  879MPD2    C412892   2.082   3.600  16.660 -0.2312  0.1675 -0.0678
  879MPD2    C512893   2.103   3.690  16.757  1.1583 -0.4034 -0.0705
  879MPD2     H12894   2.150   3.324  16.822 -1.4159  0.1061 -0.7278
  879MPD2    H112895   2.057   3.646  16.565  0.9448 -0.8485 -0.8816
  879MPD2    H212896   2.137   3.736  16.956  0.9295 -0.4077  0.6093
  879MPD2    H312897   2.074   3.792  16.736  0.4780 -1.1241 -2.5655
  879MPD2     N12898   2.079   3.384  16.557 -0.0434 -0.2975  0.3229
  879MPD2    H512899   2.056   3.428  16.468 -1.4684 -0.9133  0.3904
  879MPD2    N112900   2.187   3.500  17.043  0.2299  0.1773  0.4583
  879MPD2    H712901   2.204   3.579  17.104  1.2304  0.7992 -0.6359
  880MPD2     C12902   2.621   0.953   1.180 -0.3840 -0.3844  0.0016
  880MPD2    C112903   2.740   0.913   1.146  0.3497  0.2637 -0.4715
  880MPD2    C212904   2.797   0.798   1.200 -0.7553 -0.0346 -0.4213
  880MPD2    C312905   2.737   0.737   1.309  0.5001 -0.5024 -0.4673
  880MPD2    C412906   2.615   0.787   1.356 -0.5218  0.5377  0.3020
  880MPD2    C512907   2.557   0.891   1.287 -0.5015  0.2500 -0.4824
  880MPD2     H12908   2.894   0.760   1.173 -0.0295  0.8783  0.9230
  880MPD2    H112909   2.556   0.734   1.430  0.6309 -2.4309 -0.9151
  880MPD2    H212910   2.571   1.036   1.132  1.0014  1.9358  2.5522
  880MPD2    H312911   2.465   0.941   1.316  0.1495  1.7967 -1.0503
  880MPD2     N12912   2.787   0.618   1.356  0.4807  0.3344  0.0044
  880MPD2    H512913   2.864   0.575   1.306  0.3334  0.3392 -0.2306
  880MPD2    N112914   2.811   1.000   1.061  0.0367 -0.1144 -0.3025
  880MPD2    H712915   2.760   1.084   1.033  1.6593  0.9108 -0.1878
  881MPD2     C12916   3.032   0.796   0.166 -0.0819 -0.0673 -0.3580
  881MPD2    C112917   3.095   0.918   0.175 -0.3911 -0.0186 -0.1117
  881MPD2    C212918   3.108   0.977   0.300 -0.4950  1.0499  0.1700
  881MPD2    C312919   3.010   0.951   0.395  0.2109  0.8571 -0.0868
  881MPD2    C412920   2.932   0.841   0.379  0.3574 -0.0028  0.7867
  881MPD2    C512921   2.944   0.768   0.263 -0.0522 -0.3526 -0.1215
  881MPD2     H12922   3.175   1.063   0.304  0.4562  0.2976  0.3608
  881MPD2    H112923   2.861   0.806   0.453  0.8188 -2.4281  0.0750
  881MPD2    H212924   3.028   0.744   0.071 -1.2701  0.8619 -0.8344
  881MPD2    H312925   2.874   0.686   0.262 -0.1089 -0.3177  1.7033
  881MPD2     N12926   3.007   1.014   0.522 -0.2489 -0.3560 -0.2206
  881MPD2    H512927   2.932   0.981   0.582 -0.3476 -0.0036 -0.1529
  881MPD2    N112928   3.166   0.951   0.055 -0.4099 -0.3045 -0.9449
  881MPD2    H712929   3.166   0.886  17.663  0.6904 -0.6369 -0.6614
  882MPD2     C12930   1.779   2.729  14.278  0.1709 -0.5694  0.0918
  882MPD2    C112931   1.734   2.787  14.393 -0.2206  1.1251  0.3055
  882MPD2    C212932   1.600   2.808  14.407 -0.3605  0.4075 -0.3695
  882MPD2    C312933   1.509   2.749  14.320 -0.0677  0.4515  0.1199
  882MPD2    C412934   1.555   2.699  14.199  0.7144 -0.1013 -0.4296
  882MPD2    C512935   1.687   2.688  14.182  0.0864 -0.3008  0.4695
  882MPD2     H12936   1.560   2.849  14.499 -2.0417 -2.3941  0.1443
  882MPD2    H112937   1.490   2.648  14.129  2.5988 -1.6319 -1.0484
  882MPD2    H212938   1.884   2.720  14.252  0.7550  0.3760  2.1223
  882MPD2    H312939   1.716   2.645  14.086  2.7682  1.0274  0.6905
  882MPD2     N12940   1.372   2.739  14.344 -0.2375 -0.3991  0.0654
  882MPD2    H512941   1.316   2.723  14.261  0.2731  0.4068 -0.4434
  882MPD2    N112942   1.836   2.822  14.487  0.0373 -0.3506  0.2870
  882MPD2    H712943   1.930   2.794  14.458  0.0660  0.2842 -0.2320
  883MPD2     C12944   3.841   2.604  16.529  0.1805  0.3961  0.3137
  883MPD2    C112945   3.906   2.592  16.404 -0.4872  0.1553 -0.0429
  883MPD2    C212946   4.003   2.684  16.372  0.3878  0.0416 -0.3346
  883MPD2    C312947   4.046   2.775  16.461 -0.0760 -0.5283 -0.1940
  883MPD2    C412948   3.990   2.781  16.590  0.0967 -0.7586 -0.2521
  883MPD2    C512949   3.887   2.698  16.616  0.0012  0.7277 -0.2700
  883MPD2     H12950   4.050   2.677  16.275  0.0964  2.0768 -0.6313
  883MPD2    H112951   4.017   2.854  16.666  0.4091  3.1336 -4.1129
  883MPD2    H212952   3.766   2.533  16.560  0.6556 -0.1106  0.2962
  883MPD2    H312953   3.838   2.709  16.712  0.0739  0.4658 -0.2011
  883MPD2     N12954   4.148   2.860  16.415 -1.2423  0.4046 -0.1665
  883MPD2    H512955   4.185   2.837  16.323 -0.3189 -0.5870  0.4491
  883MPD2    N112956   3.863   2.497  16.302  0.3541  0.6567  0.5040
  883MPD2    H712957   3.915   2.505  16.216  0.8132 -1.3899  0.5947
  884MPD2     C12958   0.582   3.372  15.242 -0.1652  0.4394 -0.3993
  884MPD2    C112959   0.589   3.503  15.197  0.2406  0.4065  0.4765
  884MPD2    C212960   0.545   3.596  15.289  0.3022  0.9149 -0.1697
  884MPD2    C312961   0.490   3.568  15.414  0.2292  0.7102  0.4330
  884MPD2    C412962   0.470   3.433  15.446 -0.3547 -0.2044  0.7799
  884MPD2    C512963   0.514   3.338  15.359 -0.7869  0.4894 -0.0978
  884MPD2     H12964   0.556   3.703  15.271  0.6403  0.8277 -0.4715
  884MPD2    H112965   0.431   3.386  15.536 -0.3540 -0.7096  0.5155
  884MPD2    H212966   0.647   3.296  15.199 -1.1400 -0.6826  0.1090
  884MPD2    H312967   0.499   3.234  15.383  1.2108  0.1004 -0.5435
  884MPD2     N12968   0.431   3.675  15.480  0.1482 -0.4222 -0.1453
  884MPD2    H512969   0.442   3.767  15.438  2.8842 -1.3557 -1.4908
  884MPD2    N112970   0.652   3.543  15.077 -0.5525 -0.3807  0.3660
  884MPD2    H712971   0.648   3.644  15.066  2.0359 -0.4065 -0.7526
  885MPD2     C12972   4.307   4.265   0.188  0.1334 -0.2905 -0.8767
  885MPD2    C112973   4.175   4.267   0.216  0.4048 -0.0050  0.0042
  885MPD2    C212974   4.088   4.247   0.114 -0.3492 -0.7458 -0.7669
  885MPD2    C312975   4.131   4.205  17.673  0.2883 -0.1324 -0.0645
  885MPD2    C412976   4.263   4.192  17.649  0.0056  0.4205 -0.0884
  885MPD2    C512977   4.353   4.218   0.068 -0.9366 -0.1901  0.0400
  885MPD2     H12978   3.983   4.266   0.129 -0.2002 -0.5103 -0.0334
  885MPD2    H112979   4.305   4.147  17.560  1.6883  2.0099 -0.0927
  885MPD2    H212980   4.386   4.275   0.261  0.5610  0.4527 -1.4395
  885MPD2    H312981   4.458   4.196   0.058 -0.2993  2.0975  1.6208
  885MPD2     N12982   4.057   4.181  17.559 -0.2946 -0.1481 -0.1235
  885MPD2    H512983   4.104   4.168  17.469 -0.5172 -1.6087 -0.0297
  885MPD2    N112984   4.136   4.301   0.348  0.3899 -0.6217 -0.0499
  885MPD2    H712985   4.210   4.307   0.417  0.0248  0.7221  0.2259
  886MPD2     C12986   0.487   2.660  15.987  0.3353  0.5249  0.3978
  886MPD2    C112987   0.607   2.680  15.929  0.1490 -0.3941  0.4965
  886MPD2    C212988   0.614   2.695  15.793 -0.4616  0.0822  0.0775
  886MPD2    C312989   0.502   2.679  15.715  0.8196  0.7316 -0.1828
  886MPD2    C412990   0.381   2.660  15.774 -0.4762  0.4854 -0.3508
  886MPD2    C512991   0.374   2.646  15.912  0.0621  0.2190 -0.3804
  886MPD2     H12992   0.712   2.729  15.762 -0.6628  1.0615  0.4964
  886MPD2    H112993   0.285   2.654  15.723 -1.0272  1.9429  0.4882
  886MPD2    H212994   0.478   2.636  16.092 -0.7124  1.5795  0.5472
  886MPD2    H312995   0.285   2.621  15.967  2.0483 -3.0968  1.3131
  886MPD2     N12996   0.504   2.682  15.567 -0.0785 -0.3512 -0.4953
  886MPD2    H512997   0.419   2.666  15.514 -1.4800  0.7498  1.4185
  886MPD2    N112998   0.730   2.680  15.993 -0.4534  0.2992 -0.1227
  886MPD2    H712999   0.814   2.687  15.937 -0.9710 -0.0928 -0.9441
  887MPD2     C13000   1.238   2.709  15.622  0.0815 -0.5991  0.2351
  887MPD2    C113001   1.118   2.736  15.685 -0.0075  0.0305 -0.0404
  887MPD2    C213002   1.028   2.816  15.619 -0.3375  0.2618 -0.4657
  887MPD2    C313003   1.061   2.888  15.502  0.7443  0.3441 -0.1189
  887MPD2    C413004   1.182   2.858  15.440  0.2065 -0.9568  0.2295
  887MPD2    C513005   1.268   2.769  15.502 -0.2433  0.8284  0.2901
  887MPD2     H13006   0.936   2.833  15.672 -0.5924 -2.1578 -0.1607
  887MPD2    H113007   1.215   2.918  15.356  0.7832  1.1962  1.9673
  887MPD2    H213008   1.309   2.638  15.663 -0.8768 -2.5458 -1.4780
  887MPD2    H313009   1.360   2.745  15.450 -1.3918 -1.8736 -0.4710
  887MPD2     N13010   0.981   2.999  15.480 -0.1907  0.0191 -0.2576
  887MPD2    H513011   0.900   3.017  15.538 -1.8045  0.7589 -2.7341
  887MPD2    N113012   1.084   2.693  15.816  0.2439 -0.2383  0.2503
  887MPD2    H713013   0.993   2.719  15.850 -0.2245  0.9498 -1.8894
  888MPD2     C13014   3.020   2.329  15.001  0.4011 -0.1793 -0.3848
  888MPD2    C113015   2.927   2.359  15.101 -0.4904  0.2129  0.5985
  888MPD2    C213016   2.925   2.494  15.142  0.0086  0.0613 -0.0493
  888MPD2    C313017   3.028   2.582  15.110 -0.3765 -0.2378  0.2088
  888MPD2    C413018   3.135   2.536  15.031  0.0908 -0.4088  0.2211
  888MPD2    C513019   3.123   2.413  14.981 -0.0837 -0.5416  0.7601
  888MPD2     H13020   2.844   2.520  15.210 -0.2852  0.2498 -0.4664
  888MPD2    H113021   3.217   2.596  14.993  0.2421 -0.0094  1.1778
  888MPD2    H213022   3.023   2.229  14.959  1.4082  0.1420 -1.0776
  888MPD2    H313023   3.188   2.370  14.905  0.0378 -1.9989  1.6883
  888MPD2     N13024   3.024   2.716  15.159  0.4114 -0.0754  0.3350
  888MPD2    H513025   2.938   2.742  15.206 -0.1840  0.4400 -1.0524
  888MPD2    N113026   2.830   2.263  15.146 -0.3341 -0.1915  0.3917
  888MPD2    H713027   2.786   2.288  15.234 -3.2713  1.0445 -1.4641
  889MPD2     C13028   2.224   1.895  13.080  0.1977  0.0435  0.1972
  889MPD2    C113029   2.229   1.864  13.217  0.6798  0.5530 -0.0232
  889MPD2    C213030   2.160   1.947  13.297 -0.4856  0.7921 -0.3752
  889MPD2    C313031   2.121   2.068  13.254 -0.3489  0.4933  0.6545
  889MPD2    C413032   2.131   2.099  13.117 -0.6427 -0.2757  0.1590
  889MPD2    C513033   2.176   2.012  13.033 -0.7783  0.1830 -0.3738
  889MPD2     H13034   2.158   1.919  13.401  0.6385 -0.9595 -0.8251
  889MPD2    H113035   2.102   2.192  13.069  0.2201 -0.0668  0.0305
  889MPD2    H213036   2.256   1.826  13.003  0.1603  0.8847 -0.5641
  889MPD2    H313037   2.184   2.034  12.927  4.8500 -0.1730 -0.0007
  889MPD2     N13038   2.074   2.165  13.349  0.0736  0.3855  0.2700
  889MPD2    H513039   2.069   2.139  13.447  1.8129 -1.4560 -0.1372
  889MPD2    N113040   2.246   1.732  13.265 -0.1857  1.0165  0.6038
  889MPD2    H713041   2.213   1.721  13.360  0.7350  1.0601  0.9311
  890MPD2     C13042   2.072   3.260  14.542 -0.1540 -0.0340 -0.2466
  890MPD2    C113043   2.133   3.361  14.616  0.4072 -0.8875  0.3293
  890MPD2    C213044   2.102   3.365  14.752 -0.3408  0.2546 -0.6139
  890MPD2    C313045   2.001   3.294  14.803  0.0618  0.5839  0.5051
  890MPD2    C413046   1.930   3.210  14.718 -0.0993  0.1937  0.1551
  890MPD2    C513047   1.971   3.183  14.589  0.1579  0.0862  0.0472
  890MPD2     H13048   2.138   3.444  14.817  0.4730 -1.3213  0.8511
  890MPD2    H113049   1.848   3.153  14.759 -0.4092  0.4687 -0.0820
  890MPD2    H213050   2.077   3.268  14.434  1.1200  2.7953  0.0022
  890MPD2    H313051   1.909   3.114  14.533 -0.5180  0.2348  0.5952
  890MPD2     N13052   1.973   3.289  14.947  0.3442 -0.3570 -0.3470
  890MPD2    H513053   2.028   3.351  15.006  1.2454  0.3267 -1.9057
  890MPD2    N113054   2.213   3.452  14.552  0.6454  0.6525  0.1315
  890MPD2    H713055   2.227   3.443  14.452 -1.0831 -1.6548  0.0980
  891MPD2     C13056   0.019   2.164  16.786  0.8304 -0.2569 -0.2236
  891MPD2    C113057   4.622   2.120  16.854 -0.1006  0.1934 -0.1825
  891MPD2    C213058   4.638   2.015  16.940 -0.1981 -0.6399  0.1218
  891MPD2    C313059   0.040   1.949  16.949 -0.2213 -0.3040 -0.4186
  891MPD2    C413060   0.152   1.995  16.882 -0.5422 -0.1858  0.6739
  891MPD2    C513061   0.139   2.105  16.806  0.5943 -0.1407 -0.5096
  891MPD2     H13062   4.560   1.970  16.999 -0.0160 -1.1329 -0.0109
  891MPD2    H113063   0.252   1.956  16.897  0.0617  1.0163 -0.1922
  891MPD2    H213064   0.005   2.241  16.711  0.9927 -0.7254 -0.7360
  891MPD2    H313065   0.216   2.133  16.735 -2.2091  1.2983 -2.9476
  891MPD2     N13066   0.055   1.836  17.039  0.2486 -0.1820 -0.2562
  891MPD2    H513067   4.697   1.821  17.101 -1.2028 -0.2265 -2.1210
  891MPD2    N113068   4.493   2.175  16.825  0.3503 -0.2855  0.6091
  891MPD2    H713069   4.485   2.230  16.740 -3.5867 -0.9470  0.5491
  892MPD2     C13070   0.765   2.910  15.162  0.8463 -0.6082  0.1378
  892MPD2    C113071   0.689   2.948  15.057 -0.9764  0.2755  0.0278
  892MPD2    C213072   0.750   2.927  14.931  0.2563 -0.1751 -0.1296
  892MPD2    C313073   0.873   2.872  14.914  0.3233 -0.6108 -0.1094
  892MPD2    C413074   0.949   2.867  15.031 -0.2571  0.0564  0.5463
  892MPD2    C513075   0.899   2.885  15.154  0.4235 -0.0486 -0.4134
  892MPD2     H13076   0.695   2.957  14.843 -0.0811 -0.8903 -0.1645
  892MPD2    H113077   1.055   2.849  15.013 -1.2261 -3.2220 -1.7833
  892MPD2    H213078   0.726   2.920  15.263 -3.4966  1.0669 -1.7352
  892MPD2    H313079   0.952   2.861  15.245 -1.4038  0.8291  0.8671
  892MPD2     N13080   0.928   2.835  14.789 -0.2133  0.6035  0.1845
  892MPD2    H513081   1.026   2.808  14.789  0.1512  1.9197 -2.6330
  892MPD2    N113082   0.557   3.010  15.064 -0.1546  0.6568  0.5087
  892MPD2    H713083   0.516   3.047  14.979  0.0054 -2.2873 -0.8337
  893MPD2     C13084   1.913   2.110   1.560  0.1074  0.4795 -0.1081
  893MPD2    C113085   1.919   2.063   1.688 -0.0373 -1.0561  0.0942
  893MPD2    C213086   1.822   1.985   1.748 -0.0003  0.2616 -0.2082
  893MPD2    C313087   1.707   1.959   1.673  0.3509  0.3344 -0.1932
  893MPD2    C413088   1.704   2.011   1.546  0.6120 -0.7376  0.3551
  893MPD2    C513089   1.799   2.085   1.492  0.4697 -0.0869  0.6470
  893MPD2     H13090   1.851   1.951   1.847 -3.7417 -0.2801  0.7107
  893MPD2    H113091   1.625   1.971   1.482  0.8317 -2.2205  1.0042
  893MPD2    H213092   1.990   2.170   1.513  0.3100 -0.0872 -0.5017
  893MPD2    H313093   1.789   2.106   1.386  2.1137 -1.8228  0.1602
  893MPD2     N13094   1.596   1.879   1.712  0.1752  0.9396  0.2891
  893MPD2    H513095   1.521   1.875   1.644 -1.0805 -2.6795  1.8859
  893MPD2    N113096   2.059   2.066   1.735 -0.0214  0.1927 -0.4039
  893MPD2    H713097   2.129   2.087   1.664 -0.1606 -2.1962 -1.2719
  894MPD2     C13098   0.126   4.226   0.616 -0.8810 -0.7029  0.2632
  894MPD2    C113099   0.183   4.346   0.579  0.2982  0.7532 -0.7298
  894MPD2    C213100   0.310   4.385   0.625 -0.3883 -0.9049  0.7338
  894MPD2    C313101   0.380   4.307   0.715 -0.4459 -0.4825 -0.6558
  894MPD2    C413102   0.320   4.188   0.743 -0.1851  0.1222 -0.6894
  894MPD2    C513103   0.198   4.146   0.690 -0.0716 -0.1448  0.1773
  894MPD2     H13104   0.361   4.471   0.584 -1.1816 -0.4525  0.6809
  894MPD2    H113105   0.366   4.116   0.810 -0.0682  1.4571  0.6669
  894MPD2    H213106   0.025   4.198   0.588 -0.5474  0.9754 -2.6274
  894MPD2    H313107   0.147   4.052   0.710  1.9869 -1.0471  1.1381
  894MPD2     N13108   0.501   4.356   0.768 -0.7429  0.1556 -0.1649
  894MPD2    H513109   0.542   4.432   0.715  0.5357 -0.4702 -0.0519
  894MPD2    N113110   0.118   4.445   0.498  0.0767 -0.4038  0.1679
  894MPD2    H713111   0.176   4.522   0.465 -0.1707 -0.1597  0.2941
  895MPD2     C13112   4.528   2.278  14.148 -0.0339  0.1599  0.1001
  895MPD2    C113113   4.529   2.330  14.021  0.2541 -0.4998 -0.2043
  895MPD2    C213114   4.650   2.377  13.970  0.5359  0.2790 -0.1505
  895MPD2    C313115   0.047   2.376  14.045 -0.2610  0.0658 -0.6363
  895MPD2    C413116   0.044   2.328  14.173 -0.3279 -0.4540 -0.4160
  895MPD2    C513117   4.641   2.281  14.225 -0.7062 -0.0567 -0.5073
  895MPD2     H13118   4.639   2.450  13.891 -2.2074  1.1890  1.0927
  895MPD2    H113119   0.124   2.350  14.243 -0.7755 -0.4413  0.0855
  895MPD2    H213120   4.437   2.252  14.200  1.3919 -1.9461  1.5441
  895MPD2    H313121   4.639   2.248  14.328 -0.7483 -0.8998 -0.7839
  895MPD2     N13122   0.175   2.422  13.996 -0.3412  0.0632 -0.6977
  895MPD2    H513123   0.237   2.447  14.072  1.2487  1.5803 -2.5102
  895MPD2    N113124   4.425   2.346  13.935 -0.0491 -0.3710 -0.4586
  895MPD2    H713125   4.449   2.395  13.849 -0.9407 -0.6716 -0.8833
  896MPD2     C13126   2.034   4.664   2.069 -0.1754 -0.6654  0.4978
  896MPD2    C113127   2.046   4.634   1.934 -1.1540  0.2775  0.1796
  896MPD2    C213128   1.942   4.582   1.863 -0.2863 -0.2524  0.6964
  896MPD2    C313129   1.826   4.554   1.932  0.1930  0.5163 -0.8616
  896MPD2    C413130   1.806   4.602   2.061  0.4824  0.5115 -0.3264
  896MPD2    C513131   1.916   4.643   2.137 -0.4065  0.1147  0.6219
  896MPD2     H13132   1.956   4.567   1.756 -2.7443  1.2909  0.1633
  896MPD2    H113133   1.715   4.598   2.118  1.6784  2.1619  1.7009
  896MPD2    H213134   2.119   4.691   2.130  0.6219 -2.2006  0.0806
  896MPD2    H313135   1.906   4.668   2.242 -1.5328 -1.7478  0.9616
  896MPD2     N13136   1.719   4.493   1.863  0.2420  0.0426  0.0711
  896MPD2    H513137   1.745   4.459   1.771 -0.0076  1.1505 -0.4085
  896MPD2    N113138   2.170   4.676   1.879 -0.2550  0.1808 -0.5075
  896MPD2    H713139   2.237   4.704   1.950  0.6302  0.7411 -1.5768
  897MPD2     C13140   3.172   1.700  10.213  0.3513  0.3456 -0.2617
  897MPD2    C113141   3.111   1.825  10.198 -0.0445 -0.5162  0.3073
  897MPD2    C213142   3.017   1.861  10.285 -0.0020  0.0412  0.2870
  897MPD2    C313143   2.967   1.771  10.375 -0.3566 -0.8009 -0.2630
  897MPD2    C413144   3.013   1.646  10.380  0.4537  0.2730  0.1958
  897MPD2    C513145   3.122   1.620  10.310  0.3901 -0.4419  0.0940
  897MPD2     H13146   2.961   1.953  10.268 -1.3482 -0.5032  1.7837
  897MPD2    H113147   2.980   1.567  10.447 -1.1831  1.5435  0.9011
  897MPD2    H213148   3.259   1.670  10.155  0.5537  0.5766 -0.0748
  897MPD2    H313149   3.174   1.526  10.323  0.4661 -0.6135 -1.4295
  897MPD2     N13150   2.864   1.802  10.473 -0.6002 -0.3548 -0.2479
  897MPD2    H513151   2.838   1.731  10.541 -1.5292  1.9115  1.7641
  897MPD2    N113152   3.144   1.915  10.095 -0.0636  0.1879 -0.2392
  897MPD2    H713153   3.096   2.005  10.094 -0.2197  0.1041 -0.2030
  898MPD2     C13154   0.170   2.744  17.057  0.3027  0.1895 -0.4870
  898MPD2    C113155   0.294   2.792  17.063 -0.0478 -0.1062 -0.2958
  898MPD2    C213156   0.324   2.926  17.045 -0.1511  0.4534  0.6553
  898MPD2    C313157   0.219   3.014  17.003 -0.0215 -0.2857 -0.2495
  898MPD2    C413158   0.095   2.962  16.985  0.3107 -0.2193 -0.0111
  898MPD2    C513159   0.072   2.834  17.024  0.5360  0.2264 -0.2197
  898MPD2     H13160   0.428   2.956  17.053 -0.4969  2.0669 -0.9185
  898MPD2    H113161   0.011   3.023  16.956  0.1771  0.2026  1.2920
  898MPD2    H213162   0.140   2.640  17.066  0.3909  0.2803  0.8151
  898MPD2    H313163   4.694   2.795  17.006  0.4424  1.1642 -1.7283
  898MPD2     N13164   0.262   3.149  16.984  0.3643 -0.1915  0.1771
  898MPD2    H513165   0.355   3.171  16.950 -0.5413 -0.3121 -2.4514
  898MPD2    N113166   0.405   2.704  17.097 -0.0837  0.7815  0.4102
  898MPD2    H713167   0.494   2.745  17.073 -1.1552  2.7367 -0.2558
  899MPD2     C13168   1.093   3.277  17.433 -0.0367  0.0141  0.0641
  899MPD2    C113169   1.131   3.395  17.484 -0.3976  0.2328  0.2105
  899MPD2    C213170   1.085   3.438  17.607 -0.2857  0.1601  0.3311
  899MPD2    C313171   1.008   3.350  17.677 -0.2753  0.0766  0.2957
  899MPD2    C413172   0.972   3.230  17.630  0.0056 -0.3920  0.2814
  899MPD2    C513173   1.002   3.197  17.507  1.0929 -0.2585  0.4021
  899MPD2     H13174   1.124   3.529  17.649  1.5488  0.2150 -1.4678
  899MPD2    H113175   0.902   3.178   0.009 -0.2331 -3.2202 -2.2276
  899MPD2    H213176   1.123   3.232  17.339  1.0814 -0.6675  0.7472
  899MPD2    H313177   0.966   3.100  17.475 -0.8684  1.5665 -2.8804
  899MPD2     N13178   0.943   3.378   0.118 -0.0849  0.2020 -0.4744
  899MPD2    H513179   0.883   3.310   0.162 -2.0917  0.6914 -2.5019
  899MPD2    N113180   1.217   3.479  17.400  0.2057  0.5290  0.3865
  899MPD2    H713181   1.261   3.437  17.320  0.9860 -1.0238  1.6360
  900MPD2     C13182   0.930   0.182  12.714  0.1992 -0.4941  0.0363
  900MPD2    C113183   0.917   0.049  12.721  0.2953  0.1504 -0.4250
  900MPD2    C213184   0.791   4.720  12.667  0.0571  0.1744  0.1917
  900MPD2    C313185   0.694   0.083  12.613 -0.1940 -0.2082  0.5715
  900MPD2    C413186   0.713   0.218  12.623  0.2180  0.2960  0.5030
  900MPD2    C513187   0.829   0.265  12.674 -0.2545 -0.9055 -0.3521
  900MPD2     H13188   0.776   4.613  12.671  0.5120  0.0303 -2.0855
  900MPD2    H113189   0.642   0.293  12.589 -1.2458 -0.2433  2.3578
  900MPD2    H213190   1.023   0.221  12.753  0.0059 -0.1341  0.1367
  900MPD2    H313191   0.838   0.373  12.680 -0.3234 -0.9764  0.8430
  900MPD2     N13192   0.570   0.028  12.573  0.9559  0.2547  0.4016
  900MPD2    H513193   0.569   4.648  12.572  2.0364  0.2399  0.3341
  900MPD2    N113194   1.022   4.694  12.773  0.2719 -0.0380 -0.4285
  900MPD2    H713195   1.107   0.024  12.792 -0.3305  1.8825 -2.8161
  901MPD2     C13196   1.326   3.860  13.374  0.1878  0.3470 -0.2354
  901MPD2    C113197   1.420   3.868  13.272  0.1094  0.5893 -0.7774
  901MPD2    C213198   1.420   3.976  13.191 -0.0219 -0.2956 -0.0110
  901MPD2    C313199   1.337   4.083  13.218  0.0629  0.7836 -0.1476
  901MPD2    C413200   1.258   4.082  13.330 -0.3236 -0.5821  0.2057
  901MPD2    C513201   1.250   3.968  13.403 -0.0057 -0.2515 -0.1899
  901MPD2     H13202   1.476   3.985  13.100  1.2302  0.9058  0.8852
  901MPD2    H113203   1.191   4.156  13.373 -1.1766 -1.4953  0.4407
  901MPD2    H213204   1.332   3.778  13.445 -0.9376 -0.1313 -0.6873
  901MPD2    H313205   1.183   3.971  13.488  1.2310  0.7813  0.7453
  901MPD2     N13206   1.339   4.189  13.128  0.1960  0.5139 -0.4435
  901MPD2    H513207   1.397   4.175  13.046 -0.1957 -1.3422 -0.3862
  901MPD2    N113208   1.487   3.752  13.233  0.0694 -0.0920  0.3909
  901MPD2    H713209   1.467   3.668  13.286  0.6997  0.1353  0.9807
  902MPD2     C13210   4.350   2.777  12.874 -0.4491  0.5560 -0.2267
  902MPD2    C113211   4.287   2.678  12.797 -0.1690 -1.0853 -1.0054
  902MPD2    C213212   4.352   2.625  12.688 -0.4760  0.3301  0.2065
  902MPD2    C313213   4.483   2.669  12.658 -0.3443  0.9502 -0.0111
  902MPD2    C413214   4.544   2.761  12.739  0.9722  0.1691  0.2902
  902MPD2    C513215   4.479   2.805  12.849  0.2136  0.3682  0.2308
  902MPD2     H13216   4.293   2.553  12.633 -1.2021  1.0004  0.1018
  902MPD2    H113217   4.647   2.792  12.722  0.3467  1.3835 -1.3147
  902MPD2    H213218   4.307   2.823  12.962  0.3626 -0.6660  0.7982
  902MPD2    H313219   4.537   2.866  12.917 -1.1188  0.4712  1.2732
  902MPD2     N13220   4.547   2.623  12.543 -0.6984  0.1674  0.1528
  902MPD2    H513221   4.643   2.653  12.531  0.0529 -1.2358  2.4776
  902MPD2    N113222   4.154   2.653  12.834 -0.3284 -0.3099  0.2367
  902MPD2    H713223   4.120   2.714  12.907 -0.4107 -0.2237  0.1264
  903MPD2     C13224   4.461   2.684  11.657 -0.8498  0.5256 -0.0755
  903MPD2    C113225   4.437   2.700  11.782  0.7030  0.1612 -0.3384
  903MPD2    C213226   4.307   2.694  11.825  0.4755  0.0219 -0.2317
  903MPD2    C313227   4.207   2.662  11.734 -0.3661  0.7179 -0.3875
  903MPD2    C413228   4.233   2.645  11.597 -0.3166  0.2571 -0.5663
  903MPD2    C513229   4.365   2.660  11.563  0.0217  0.4540 -0.3075
  903MPD2     H13230   4.286   2.694  11.931 -0.2421  2.8816 -0.3687
  903MPD2    H113231   4.167   2.619  11.516 -0.8561 -0.3895  0.0795
  903MPD2    H213232   4.565   2.678  11.626 -0.2747  0.8100  1.8063
  903MPD2    H313233   4.392   2.649  11.459  0.8137 -0.5144  0.0058
  903MPD2     N13234   4.082   2.639  11.786 -0.3173 -0.2973 -0.1952
  903MPD2    H513235   4.087   2.632  11.887 -1.0075  1.8820 -0.0103
  903MPD2    N113236   4.545   2.717  11.875 -0.1409  0.1502  0.1180
  903MPD2    H713237   4.638   2.712  11.834  0.0143  2.1149  0.2321
  904MPD2     C13238   4.556   1.910  13.871  0.2196  0.3724 -0.1753
  904MPD2    C113239   4.587   1.779  13.914  0.1108 -0.1727  0.7104
  904MPD2    C213240   4.708   1.766  13.977 -0.4417  0.1432  0.2704
  904MPD2    C313241   0.071   1.870  14.012 -0.2526 -0.1536  0.1280
  904MPD2    C413242   0.024   1.997  13.973  0.5873  0.0806 -0.2342
  904MPD2    C513243   4.635   2.009  13.900 -0.7275  0.7656  0.0812
  904MPD2     H13244   0.026   1.668  14.003 -0.7226  0.4000  1.6137
  904MPD2    H113245   0.076   2.090  13.991 -0.9882  0.9110  0.0624
  904MPD2    H213246   4.466   1.931  13.815  0.6837  0.4032 -0.9049
  904MPD2    H313247   4.620   2.110  13.863  0.6257  1.5966  1.7621
  904MPD2     N13248   0.193   1.844  14.079  0.2508  0.2131  0.7015
  904MPD2    H513249   0.220   1.747  14.093 -0.7342 -0.3416 -1.2301
  904MPD2    N113250   4.513   1.665  13.887 -0.4417  0.0399 -0.0570
  904MPD2    H713251   4.564   1.580  13.903 -0.6460  0.1825  1.2969
  905MPD2     C13252   4.243   2.008  13.336 -0.1985  0.4521  0.1792
  905MPD2    C113253   4.262   2.040  13.468  0.6863 -0.6844  0.5476
  905MPD2    C213254   4.362   2.131  13.496  0.2778 -1.5728  0.6053
  905MPD2    C313255   4.445   2.184  13.392 -0.1329 -0.1604  0.2930
  905MPD2    C413256   4.419   2.149  13.264  0.3976 -0.1754  0.1528
  905MPD2    C513257   4.314   2.069  13.236  0.8232 -0.1517  0.7520
  905MPD2     H13258   4.387   2.153  13.599  0.4218 -0.2231  0.2838
  905MPD2    H113259   4.495   2.171  13.189 -0.6460  1.1663 -0.5042
  905MPD2    H213260   4.169   1.936  13.304 -0.1163  0.4091  0.0876
  905MPD2    H313261   4.299   2.032  13.135  1.1145  1.0684  0.2672
  905MPD2     N13262   4.565   2.255  13.427 -0.8627 -0.3955  0.0621
  905MPD2    H513263   4.635   2.269  13.354  0.8588 -0.5847  1.6725
  905MPD2    N113264   4.169   1.971  13.556 -0.2150  0.1045  1.0020
  905MPD2    H713265   4.114   1.896  13.516  1.0366  0.3280 -1.1283
  906MPD2     C13266   2.019   1.967  11.535  0.2995  0.1139  0.0350
  906MPD2    C113267   2.017   1.908  11.405 -0.9122  0.2614 -0.0110
  906MPD2    C213268   2.045   1.774  11.399  0.4857  0.1028  0.4001
  906MPD2    C313269   2.049   1.698  11.515  0.7501  0.3047  0.1191
  906MPD2    C413270   2.055   1.756  11.636 -0.0179 -0.2734 -0.6250
  906MPD2    C513271   2.046   1.895  11.642  0.3599  0.4809 -0.2249
  906MPD2     H13272   2.049   1.734  11.298 -1.1432  2.1173 -0.4647
  906MPD2    H113273   2.076   1.689  11.719 -1.8997 -3.6595 -2.8681
  906MPD2    H213274   1.997   2.072  11.546  1.5129  0.4918 -1.0962
  906MPD2    H313275   2.042   1.937  11.742  0.6268  2.9374 -1.2602
  906MPD2     N13276   2.026   1.561  11.514  0.3792  0.5780  0.4240
  906MPD2    H513277   2.026   1.510  11.602  0.9467 -1.0686 -0.5384
  906MPD2    N113278   1.982   1.976  11.283  0.7658 -0.1148 -0.4117
  906MPD2    H713279   1.988   1.921  11.198 -1.0902  1.6498 -1.6792
  907MPD2     C13280   0.707   1.014  15.380  0.2315 -0.9488 -0.1554
  907MPD2    C113281   0.770   0.892  15.377  0.7798 -0.7994  0.3712
  907MPD2    C213282   0.807   0.842  15.498 -0.4060 -0.4604  0.5105
  907MPD2    C313283   0.807   0.905  15.617  0.5351  0.3217  0.1089
  907MPD2    C413284   0.757   1.037  15.616 -0.2026 -0.0592 -0.4034
  907MPD2    C513285   0.707   1.085  15.499 -0.5392  0.6464  0.4662
  907MPD2     H13286   0.850   0.743  15.498  0.2692 -0.1615 -1.9125
  907MPD2    H113287   0.780   1.119  15.684 -1.4880 -1.5691  1.8498
  907MPD2    H213288   0.680   1.058  15.285 -0.7860  0.1713  0.6474
  907MPD2    H313289   0.685   1.191  15.494 -0.3696  0.7270  1.5023
  907MPD2     N13290   0.879   0.852  15.728  0.3476 -0.3942  0.0386
  907MPD2    H513291   0.941   0.775  15.706  0.1048 -0.3594 -0.7374
  907MPD2    N113292   0.786   0.808  15.266 -0.4836 -0.1486  0.2761
  907MPD2    H713293   0.814   0.711  15.276  1.2335  0.6040  2.8413
  908MPD2     C13294   3.200   1.845   9.105  0.5742  0.1598 -0.0706
  908MPD2    C113295   3.326   1.846   9.157  0.1088  0.5437  0.3975
  908MPD2    C213296   3.345   1.905   9.283 -0.6958  1.0740  0.3029
  908MPD2    C313297   3.235   1.947   9.357  0.2867  0.5989 -0.0184
  908MPD2    C413298   3.104   1.941   9.304 -0.7537  0.0966 -0.3841
  908MPD2    C513299   3.095   1.892   9.178  0.4190  0.3118 -0.8301
  908MPD2     H13300   3.444   1.914   9.324 -0.2243  0.4671 -0.7074
  908MPD2    H113301   3.016   1.970   9.361 -0.6562  0.7132 -0.5513
  908MPD2    H213302   3.186   1.802   9.006 -0.0244 -0.2943  0.2162
  908MPD2    H313303   2.995   1.885   9.135  0.1440  0.9313 -0.2917
  908MPD2     N13304   3.253   1.990   9.488  0.1006  0.2679  0.2908
  908MPD2    H513305   3.347   2.005   9.524  0.1950  1.1890 -0.3693
  908MPD2    N113306   3.430   1.800   9.078  0.1716  0.3701 -0.0769
  908MPD2    H713307   3.416   1.759   8.986  2.5458 -0.7992  0.0799
  909MPD2     C13308   3.448   4.700  11.981  0.3221  0.2359  0.8900
  909MPD2    C113309   3.367   4.715  11.867 -0.2776  0.3000 -0.2949
  909MPD2    C213310   3.236   0.055  11.881  0.0089  0.5116 -0.7333
  909MPD2    C313311   3.196   0.092  12.012  0.1965  0.8533  0.3386
  909MPD2    C413312   3.281   0.075  12.119  0.3874  0.1866  0.2879
  909MPD2    C513313   3.410   0.025  12.101 -0.1111  0.1782 -0.7343
  909MPD2     H13314   3.173   0.072  11.795  1.0713  0.6177 -1.4908
  909MPD2    H113315   3.245   0.105  12.216  0.5695 -1.3456  0.8273
  909MPD2    H213316   3.541   4.644  11.971  0.4066  0.9119 -2.1558
  909MPD2    H313317   3.478   0.014  12.185 -0.8458  2.3899  0.1573
  909MPD2     N13318   3.059   0.130  12.034  0.3562  0.0768  0.1659
  909MPD2    H513319   3.001   0.106  11.954  1.9780  2.9819 -1.8717
  909MPD2    N113320   3.401   4.663  11.742  0.6297 -0.5174  0.7605
  909MPD2    H713321   3.361   4.703  11.657  1.1748  1.5086  1.4613
  910MPD2     C13322   0.619   1.702  16.239  0.4018  0.6134  0.0775
  910MPD2    C113323   0.649   1.598  16.151  0.0153  0.1963  0.6521
  910MPD2    C213324   0.578   1.594  16.032  0.6070  0.5214  0.0679
  910MPD2    C313325   0.466   1.675  16.010  0.3517 -0.1439  0.9536
  910MPD2    C413326   0.433   1.762  16.108  0.5542  0.4136 -0.5915
  910MPD2    C513327   0.504   1.773  16.223 -0.0177 -0.5762  0.4163
  910MPD2     H13328   0.615   1.525  15.957  2.4507  0.9535  0.5793
  910MPD2    H113329   0.349   1.828  16.087  0.8091  1.2553  1.0495
  910MPD2    H213330   0.663   1.713  16.337  0.1839  2.0911  0.0056
  910MPD2    H313331   0.466   1.845  16.295 -0.6112 -0.5975  0.1256
  910MPD2     N13332   0.392   1.672  15.896 -0.5617  0.5066  0.2008
  910MPD2    H513333   0.314   1.737  15.893  0.1457  1.3267 -0.2478
  910MPD2    N113334   0.738   1.494  16.180  0.4245 -0.1100  0.5934
  910MPD2    H713335   0.737   1.415  16.115  2.2935  1.2101 -1.0343
  911MPD2     C13336   2.714   1.797  16.754 -0.1681 -0.2827  0.0803
  911MPD2    C113337   2.792   1.900  16.721  0.4122 -0.3773  0.3690
  911MPD2    C213338   2.745   2.002  16.636  0.1229 -0.5699  0.2535
  911MPD2    C313339   2.612   2.000  16.596 -0.1410  0.9293  0.1820
  911MPD2    C413340   2.536   1.897  16.632 -0.3867 -0.3098 -0.3986
  911MPD2    C513341   2.585   1.791  16.700 -0.3904 -0.2504 -0.7544
  911MPD2     H13342   2.812   2.083  16.610 -0.6685 -1.2479 -3.8575
  911MPD2    H113343   2.436   1.888  16.592 -0.7166 -1.3587  0.6823
  911MPD2    H213344   2.742   1.712  16.815 -2.1442 -0.2434  1.0647
  911MPD2    H313345   2.530   1.699  16.716 -0.4022 -0.1638 -0.2787
  911MPD2     N13346   2.555   2.095  16.512 -0.1428  0.3603  0.7652
  911MPD2    H513347   2.462   2.064  16.483  0.6306  0.5001 -1.9253
  911MPD2    N113348   2.918   1.910  16.780  0.3575  0.2414 -0.0848
  911MPD2    H713349   2.947   1.824  16.826  2.4366  0.7331 -0.4414
  912MPD2     C13350   2.102   1.954  15.910  0.4329 -0.0486 -0.5151
  912MPD2    C113351   2.115   1.965  16.045 -0.1176  0.0770  0.4594
  912MPD2    C213352   2.053   1.873  16.128 -1.3926 -0.7414  0.4554
  912MPD2    C313353   1.984   1.769  16.072 -0.3515 -0.2014  0.1975
  912MPD2    C413354   1.980   1.750  15.933 -0.2968 -0.9163  0.1350
  912MPD2    C513355   2.039   1.843  15.855  0.3351  0.2277  0.5053
  912MPD2     H13356   2.051   1.887  16.236  1.2447  0.0114  0.4006
  912MPD2    H113357   1.922   1.671  15.887  2.3503 -2.7643 -0.0031
  912MPD2    H213358   2.139   2.035  15.849 -1.2200  0.7526 -0.4570
  912MPD2    H313359   2.042   1.835  15.747 -0.0662  0.7514  0.4597
  912MPD2     N13360   1.916   1.691  16.173  0.1202  0.3766 -0.0056
  912MPD2    H513361   1.936   1.716  16.269 -0.1756 -1.2200  0.4571
  912MPD2    N113362   2.186   2.075  16.092 -0.3041  0.2763  0.3680
  912MPD2    H713363   2.220   2.141  16.023  0.2082  0.8881  1.2054
  913MPD2     C13364   2.145   3.541   9.592 -0.0632  0.7394  0.2399
  913MPD2    C113365   2.032   3.551   9.663  0.3230  0.2124 -0.0710
  913MPD2    C213366   1.962   3.672   9.644  0.3168  0.4007 -0.0148
  913MPD2    C313367   2.002   3.775   9.559 -0.2705 -0.3897  0.9099
  913MPD2    C413368   2.116   3.754   9.487  0.4163 -0.0115 -0.6774
  913MPD2    C513369   2.188   3.640   9.507 -0.0022  0.1131 -0.0574
  913MPD2     H13370   1.864   3.681   9.691  1.1711 -0.4086  1.9348
  913MPD2    H113371   2.148   3.827   9.412  0.2974  0.0079 -0.7086
  913MPD2    H213372   2.214   3.458   9.603  0.1249  0.9730  0.8107
  913MPD2    H313373   2.277   3.622   9.448 -0.4619 -1.3911 -0.2925
  913MPD2     N13374   1.940   3.899   9.550 -0.4328 -0.0840 -0.0641
  913MPD2    H513375   1.980   3.965   9.485 -0.5215 -0.2734 -0.3130
  913MPD2    N113376   1.987   3.445   9.744 -0.2895  0.4621 -0.7391
  913MPD2    H713377   2.056   3.372   9.757 -2.5974 -1.6929 -0.5622
  914MPD2     C13378   1.639   3.490  12.315  0.0006 -0.8855 -1.0496
  914MPD2    C113379   1.543   3.542  12.395 -0.4760 -0.8347  0.1144
  914MPD2    C213380   1.557   3.544  12.530 -0.9212 -0.2805 -0.2871
  914MPD2    C313381   1.671   3.494  12.587  0.4786  0.1424  0.3927
  914MPD2    C413382   1.769   3.433  12.511  0.0001  0.1315 -0.0913
  914MPD2    C513383   1.743   3.430  12.377 -0.4876  0.1379  0.3660
  914MPD2     H13384   1.479   3.586  12.592  0.4872  0.3373  1.0761
  914MPD2    H113385   1.863   3.386  12.539 -0.2050 -0.2409 -0.0156
  914MPD2    H213386   1.631   3.493  12.207 -0.0776  1.2490 -0.9912
  914MPD2    H313387   1.813   3.366  12.324  0.3049  0.9717  0.4100
  914MPD2     N13388   1.682   3.509  12.728  0.0647  0.3312  0.2122
  914MPD2    H513389   1.600   3.539  12.779  0.2062  2.5706 -0.9242
  914MPD2    N113390   1.430   3.589  12.329  0.0485 -0.0331  0.2658
  914MPD2    H713391   1.428   3.589  12.227  0.1403 -2.0666  0.2646
  915MPD2     C13392   3.953   3.334  15.561 -0.5079 -0.2452 -0.4576
  915MPD2    C113393   3.826   3.331  15.612  0.7716 -0.2583 -0.1866
  915MPD2    C213394   3.795   3.405  15.730 -0.0547  0.7604  1.7825
  915MPD2    C313395   3.886   3.476  15.804 -0.0436  0.1497 -0.6635
  915MPD2    C413396   4.015   3.474  15.759  0.1924 -0.2320  0.0224
  915MPD2    C513397   4.044   3.407  15.638  0.8926  0.7036 -0.0933
  915MPD2     H13398   3.694   3.410  15.769  0.1502 -2.0925  2.6412
  915MPD2    H113399   4.093   3.530  15.809 -0.4606 -0.5161  1.3491
  915MPD2    H213400   3.991   3.279  15.476 -1.2150 -1.2005 -0.1632
  915MPD2    H313401   4.146   3.401  15.604  0.5922  1.2350 -1.0805
  915MPD2     N13402   3.833   3.555  15.906 -0.3965 -0.1692 -0.1175
  915MPD2    H513403   3.737   3.536  15.930 -0.1570 -1.1709  0.0543
  915MPD2    N113404   3.733   3.246  15.541 -0.0557 -0.1974 -0.6345
  915MPD2    H713405   3.761   3.212  15.449 -0.9512  0.5945 -1.2069
  916MPD2     C13406   1.963   1.546  15.515 -0.1304 -0.5059 -0.2001
  916MPD2    C113407   1.923   1.442  15.596  0.3140  0.1879  0.8611
  916MPD2    C213408   1.988   1.324  15.588 -0.2839  0.0770 -0.3975
  916MPD2    C313409   2.102   1.304  15.508  0.3821  0.1115 -0.5552
  916MPD2    C413410   2.147   1.403  15.429  0.6513 -0.1880  0.1894
  916MPD2    C513411   2.071   1.526  15.430  0.4614 -0.2129 -0.2359
  916MPD2     H13412   1.963   1.242  15.656  0.2719 -0.5399 -0.9349
  916MPD2    H113413   2.230   1.396  15.359 -0.0038  1.9447 -0.7888
  916MPD2    H213414   1.901   1.633  15.499  0.0612 -0.0657  1.3736
  916MPD2    H313415   2.096   1.609  15.365 -0.1836 -0.4918 -0.8340
  916MPD2     N13416   2.154   1.179  15.507 -0.0358  0.2137  0.2986
  916MPD2    H513417   2.109   1.108  15.564 -0.8017  0.2879 -0.2090
  916MPD2    N113418   1.801   1.444  15.667 -0.6926 -0.4909  0.0972
  916MPD2    H713419   1.763   1.353  15.692 -1.2414  0.0386  1.1774
  917MPD2     C13420   2.460   4.200  11.051 -0.7242 -0.1219  0.6694
  917MPD2    C113421   2.500   4.272  11.159 -0.0387 -0.3411  0.4990
  917MPD2    C213422   2.576   4.386  11.128  0.5980 -0.4589  0.2246
  917MPD2    C313423   2.618   4.417  10.997  0.8605  0.0038  0.3101
  917MPD2    C413424   2.584   4.335  10.891  0.4279 -1.0279  0.6178
  917MPD2    C513425   2.498   4.239  10.922  0.1126  0.3994  0.5203
  917MPD2     H13426   2.601   4.454  11.209 -1.9750  0.8280 -0.0456
  917MPD2    H113427   2.624   4.344  10.790 -1.6788  1.8802  0.0322
  917MPD2    H213428   2.401   4.109  11.060 -2.1960  0.7713  0.1587
  917MPD2    H313429   2.474   4.166  10.846 -0.1223 -0.1108  1.0773
  917MPD2     N13430   2.687   4.530  10.967 -0.1799  0.2217 -0.3629
  917MPD2    H513431   2.693   4.545  10.866  1.8177  0.1633 -0.2424
  917MPD2    N113432   2.451   4.231  11.285 -0.5720  0.5459  0.0705
  917MPD2    H713433   2.393   4.150  11.300  1.1930 -0.4049  1.7021
  918MPD2     C13434   2.707   4.488  12.266  0.2544  0.2475 -0.2329
  918MPD2    C113435   2.793   4.481  12.156 -0.3784 -0.1341 -0.7081
  918MPD2    C213436   2.740   4.433  12.036 -0.7153  0.4697  0.5257
  918MPD2    C313437   2.614   4.395  12.026 -0.6422 -0.5829 -0.6690
  918MPD2    C413438   2.530   4.409  12.138  0.5259 -0.2215 -0.3207
  918MPD2    C513439   2.572   4.469  12.252 -0.5067 -0.3816  0.2312
  918MPD2     H13440   2.808   4.423  11.953 -1.2522 -0.3907  0.1840
  918MPD2    H113441   2.424   4.397  12.122 -0.0184  1.5873  1.8521
  918MPD2    H213442   2.741   4.531  12.359  1.8964 -1.9707  0.1937
  918MPD2    H313443   2.499   4.482  12.332  1.6773  4.5001  1.4289
  918MPD2     N13444   2.563   4.338  11.907  0.4857 -0.2198 -0.3878
  918MPD2    H513445   2.628   4.334  11.828  1.9838 -1.1498  0.8867
  918MPD2    N113446   2.930   4.506  12.160 -0.6055 -0.5001  0.7464
  918MPD2    H713447   2.971   4.482  12.070 -1.9977  1.4365 -0.4046
  919MPD2     C13448   2.831   3.146  11.406 -0.2898 -0.6261 -0.0663
  919MPD2    C113449   2.905   3.036  11.358 -0.3719  0.5167  0.2179
  919MPD2    C213450   2.941   3.033  11.223 -0.0416  0.5007 -0.2044
  919MPD2    C313451   2.894   3.131  11.135  0.1864  0.2219  0.5659
  919MPD2    C413452   2.829   3.246  11.192  0.1768  0.1120  0.0467
  919MPD2    C513453   2.809   3.252  11.327  0.3888 -0.5619 -0.2221
  919MPD2     H13454   2.997   2.947  11.187 -1.3667 -0.7518  0.7452
  919MPD2    H113455   2.801   3.324  11.122 -0.6332  0.3932  0.6995
  919MPD2    H213456   2.793   3.151  11.507 -0.9716  1.2403 -0.4233
  919MPD2    H313457   2.744   3.332  11.358  0.6348 -0.5431  0.2378
  919MPD2     N13458   2.904   3.120  10.994  0.8571 -0.7590  0.2460
  919MPD2    H513459   2.860   3.200  10.950  0.3240  0.5644  3.1659
  919MPD2    N113460   2.928   2.917  11.430  0.4523 -0.3881 -0.1888
  919MPD2    H713461   2.993   2.850  11.389  1.6613  1.1736 -0.8336
  920MPD2     C13462   2.788   3.664  10.248 -0.2189 -0.4984 -0.8841
  920MPD2    C113463   2.718   3.557  10.214 -0.5219  0.1017  0.3289
  920MPD2    C213464   2.743   3.439  10.291 -0.2190  0.6430 -0.6584
  920MPD2    C313465   2.834   3.441  10.394  0.2701 -0.3268 -0.1719
  920MPD2    C413466   2.904   3.555  10.422 -0.0501 -0.7482 -0.1441
  920MPD2    C513467   2.875   3.666  10.352  0.0316 -0.2148  0.3075
  920MPD2     H13468   2.680   3.356  10.261  0.7766 -1.6643  3.7042
  920MPD2    H113469   2.976   3.568  10.502  0.4667 -2.6859 -0.2739
  920MPD2    H213470   2.758   3.760  10.207  2.6245 -0.4076 -2.7801
  920MPD2    H313471   2.920   3.759  10.385 -0.4247  0.9802 -2.4856
  920MPD2     N13472   2.853   3.323  10.458  0.2739  0.6769 -0.2253
  920MPD2    H513473   2.784   3.249  10.447  2.2212 -1.2108  0.2099
  920MPD2    N113474   2.610   3.567  10.128 -0.3476  0.1101 -0.1152
  920MPD2    H713475   2.551   3.485  10.139  0.1937 -0.6375 -2.7153
  921MPD2     C13476   3.676   2.616  16.874 -0.2331  0.0050  0.3313
  921MPD2    C113477   3.728   2.489  16.881 -0.0589  0.4589 -0.0408
  921MPD2    C213478   3.642   2.376  16.884  0.7532 -0.0529 -0.1073
  921MPD2    C313479   3.502   2.394  16.880  0.6164 -0.1045 -0.7020
  921MPD2    C413480   3.452   2.525  16.894 -0.7558 -0.5664 -0.1541
  921MPD2    C513481   3.540   2.629  16.890 -0.4066 -0.4051 -0.8858
  921MPD2     H13482   3.687   2.279  16.893  2.1285  0.3864 -2.4445
  921MPD2    H113483   3.346   2.546  16.906 -0.5084  2.2686 -2.7551
  921MPD2    H213484   3.734   2.707  16.862 -1.5747  1.0172  1.5777
  921MPD2    H313485   3.504   2.731  16.903 -1.9619 -0.8045 -2.0759
  921MPD2     N13486   3.413   2.284  16.895  0.1129  0.1097  0.8605
  921MPD2    H513487   3.318   2.316  16.882 -0.1202 -0.4072  1.2928
  921MPD2    N113488   3.869   2.468  16.870  0.3663  0.0046 -0.6556
  921MPD2    H713489   3.929   2.548  16.852  1.6564 -0.6319  0.7442
  922MPD2     C13490   4.452   4.604  16.910 -0.0534 -0.3958 -0.0294
  922MPD2    C113491   4.379   4.690  16.995  0.1722  0.2739  0.5425
  922MPD2    C213492   4.259   4.642  17.038 -0.6938 -0.5986 -0.0812
  922MPD2    C313493   4.197   4.527  16.995 -0.1095  0.0261 -0.3292
  922MPD2    C413494   4.267   4.443  16.906  0.0153 -0.1461 -0.6241
  922MPD2    C513495   4.393   4.481  16.874  0.3113  0.2968  0.2461
  922MPD2     H13496   4.209   4.697  17.117  1.0799  1.9393 -0.7154
  922MPD2    H113497   4.229   4.358  16.851  0.5062 -0.3401 -0.6613
  922MPD2    H213498   4.553   4.630  16.882 -0.2631  0.4046 -0.0558
  922MPD2    H313499   4.442   4.418  16.801 -3.3256 -0.7573 -1.2670
  922MPD2     N13500   4.063   4.507  17.038 -0.1044  0.2336 -0.3564
  922MPD2    H513501   4.015   4.581  17.088 -1.4128 -0.3540 -0.7440
  922MPD2    N113502   4.426   0.085  17.054 -0.7852  0.2775 -0.3181
  922MPD2    H713503   4.372   0.131  17.127  0.2215 -1.1834  1.3529
  923MPD2     C13504   0.962   2.208   9.159 -0.1946  0.3215 -0.4686
  923MPD2    C113505   0.909   2.260   9.269 -0.5882 -0.2628  0.3880
  923MPD2    C213506   0.990   2.258   9.382 -0.3311 -0.5194 -0.1877
  923MPD2    C313507   1.125   2.223   9.378  0.0130 -0.0578 -0.6919
  923MPD2    C413508   1.172   2.174   9.259  0.2814  0.0032 -0.1692
  923MPD2    C513509   1.087   2.154   9.150 -0.1896  0.0407  0.3101
  923MPD2     H13510   0.954   2.296   9.477  0.0596  1.5258 -0.8620
  923MPD2    H113511   1.273   2.140   9.238 -0.1176 -0.8803 -0.6809
  923MPD2    H213512   0.900   2.210   9.070  0.1840  0.7109 -0.7250
  923MPD2    H313513   1.115   2.107   9.056  2.7581 -0.2283  1.3409
  923MPD2     N13514   1.210   2.223   9.490  0.1984 -0.7894 -0.0871
  923MPD2    H513515   1.294   2.167   9.480 -1.4193 -3.4797  1.4818
  923MPD2    N113516   0.778   2.307   9.266 -0.0480 -0.3363  1.0505
  923MPD2    H713517   0.728   2.283   9.180 -0.9470  1.9043  0.9328
  924MPD2     C13518   1.244   0.139  16.277 -0.0870  0.0211  0.1959
  924MPD2    C113519   1.124   0.202  16.252  0.2081  0.4136 -0.0422
  924MPD2    C213520   1.113   0.283  16.148 -0.2899  0.2488 -1.0144
  924MPD2    C313521   1.225   0.316  16.074 -0.3169 -0.1139 -0.3146
  924MPD2    C413522   1.345   0.249  16.089 -0.1134 -0.8548  0.3461
  924MPD2    C513523   1.354   0.160  16.194  0.1951 -0.5823 -0.0944
  924MPD2     H13524   1.019   0.338  16.140 -1.0035 -0.9687 -0.9561
  924MPD2    H113525   1.434   0.276  16.034 -0.8131 -0.9414 -0.8271
  924MPD2    H213526   1.261   0.068  16.357  1.0930 -0.0798 -0.1395
  924MPD2    H313527   1.440   0.097  16.212  0.3366  0.1049  1.6291
  924MPD2     N13528   1.228   0.434  15.996  0.0143  0.0468 -0.8032
  924MPD2    H513529   1.315   0.483  15.975 -0.5340  2.5715  2.8077
  924MPD2    N113530   1.011   0.189  16.334 -0.8601  0.1363  0.1773
  924MPD2    H713531   0.932   0.243  16.300 -1.2727 -1.6647 -1.7266
  925MPD2     C13532   4.037   2.340  14.509 -0.0085 -0.8231  0.1934
  925MPD2    C113533   4.165   2.394  14.526 -0.5687  0.2885  0.2854
  925MPD2    C213534   4.229   2.391  14.655  0.5199 -0.3646 -0.1456
  925MPD2    C313535   4.157   2.335  14.762 -0.4455  0.0512 -0.3112
  925MPD2    C413536   4.027   2.285  14.740 -0.0003  0.1415 -0.1838
  925MPD2    C513537   3.972   2.290  14.617  0.2307 -0.1653  0.0667
  925MPD2     H13538   4.329   2.432  14.667 -0.2125  1.5020 -0.4775
  925MPD2    H113539   3.972   2.239  14.821  0.1060 -1.0835 -0.8076
  925MPD2    H213540   3.987   2.348  14.413  0.9960 -2.1050 -0.4333
  925MPD2    H313541   3.871   2.256  14.598  0.9021 -1.6820 -0.7582
  925MPD2     N13542   4.211   2.326  14.892  0.5081 -0.3764  0.0245
  925MPD2    H513543   4.146   2.303  14.967 -0.6349  1.0149 -0.5428
  925MPD2    N113544   4.239   2.468  14.431  0.3242 -0.1652 -0.0288
  925MPD2    H713545   4.333   2.495  14.457  0.0464 -0.0135  0.8141
  926MPD2     C13546   3.536   0.991  12.899  0.8744  0.6816  1.3079
  926MPD2    C113547   3.587   1.096  12.976 -0.3785 -0.2072  1.0554
  926MPD2    C213548   3.667   1.188  12.912  0.4761  0.0085 -0.0429
  926MPD2    C313549   3.704   1.174  12.778  0.6178 -0.1493  0.2247
  926MPD2    C413550   3.647   1.079  12.697 -0.3200  0.2827 -0.2636
  926MPD2    C513551   3.568   0.991  12.764  0.7130  0.6005  0.1942
  926MPD2     H13552   3.700   1.271  12.973 -2.0686  0.2144  1.0573
  926MPD2    H113553   3.674   1.063  12.593  2.0324 -3.2928  0.9011
  926MPD2    H213554   3.475   0.909  12.934 -0.4279  0.3785 -1.7139
  926MPD2    H313555   3.537   0.904  12.709  2.0476 -0.2348  0.7499
  926MPD2     N13556   3.796   1.264  12.720 -0.6725  0.3304 -0.0065
  926MPD2    H513557   3.806   1.271  12.619 -3.2140  0.7983 -0.2202
  926MPD2    N113558   3.553   1.116  13.114 -0.0882 -0.3617  0.1933
  926MPD2    H713559   3.590   1.201  13.156 -1.2255 -0.3145  1.0838
  927MPD2     C13560   3.419   3.396   0.162  0.1095 -0.1098  0.1837
  927MPD2    C113561   3.302   3.476   0.142  0.0833  0.0305  0.6223
  927MPD2    C213562   3.269   3.501   0.014  0.7075  0.0410  0.8363
  927MPD2    C313563   3.323   3.434  17.591 -0.2235  0.6691  0.4717
  927MPD2    C413564   3.418   3.336  17.618  0.2319  0.4538  0.1839
  927MPD2    C513565   3.465   3.322   0.056 -0.1301  0.1965  0.4538
  927MPD2     H13566   3.203   3.582  17.671 -0.3423 -0.7865  0.9372
  927MPD2    H113567   3.470   3.283  17.539  0.0160 -0.2729  0.5333
  927MPD2    H213568   3.459   3.359   0.256 -0.9875 -0.1797  0.6236
  927MPD2    H313569   3.556   3.265   0.072 -0.1580 -0.1748 -0.6791
  927MPD2     N13570   3.287   3.476  17.457 -0.7264  0.5528 -0.0463
  927MPD2    H513571   3.221   3.552  17.448 -2.0058 -0.4029  1.1414
  927MPD2    N113572   3.234   3.546   0.252  0.3523  0.7550 -0.3377
  927MPD2    H713573   3.266   3.524   0.346 -2.6042  0.4170  0.5688
  928MPD2     C13574   1.421   1.785   0.933 -0.0794 -0.2089 -0.2024
  928MPD2    C113575   1.293   1.848   0.931 -0.3587  0.0010  0.3249
  928MPD2    C213576   1.244   1.898   0.810  0.5500  0.0976 -0.2173
  928MPD2    C313577   1.315   1.885   0.696 -0.0655  0.2096 -0.4591
  928MPD2    C413578   1.438   1.815   0.698  0.5713 -0.0505 -0.1064
  928MPD2    C513579   1.485   1.762   0.813  0.5244 -0.6735 -0.4639
  928MPD2     H13580   1.145   1.942   0.804  0.4972  0.1889  1.3011
  928MPD2    H113581   1.498   1.784   0.612 -2.5407  2.6898 -3.2674
  928MPD2    H213582   1.467   1.752   1.025  2.3210 -0.2636 -1.4162
  928MPD2    H313583   1.572   1.697   0.810  0.0051 -1.3083 -1.7052
  928MPD2     N13584   1.259   1.934   0.573 -0.6942  0.5393 -0.3484
  928MPD2    H513585   1.175   1.990   0.579 -2.1760 -1.8585  1.3597
  928MPD2    N113586   1.236   1.857   1.056 -0.5002  0.3228 -0.0585
  928MPD2    H713587   1.285   1.817   1.136  1.7379  1.2082 -0.9986
  929MPD2     C13588   0.983   2.069  10.443  0.7193  0.1284 -0.1338
  929MPD2    C113589   0.927   1.964  10.511  0.3050 -0.2660 -0.2969
  929MPD2    C213590   0.850   1.875  10.443  0.0968  1.7946 -0.2844
  929MPD2    C313591   0.806   1.899  10.313 -0.7258 -0.5140 -0.1505
  929MPD2    C413592   0.854   2.012  10.246  0.4315 -0.3692  0.3600
  929MPD2    C513593   0.939   2.092  10.315 -0.2842  0.5185  0.0508
  929MPD2     H13594   0.795   1.808  10.508  1.6031  0.0667 -0.7590
  929MPD2    H113595   0.821   2.046  10.149  0.5234 -1.6610 -0.1302
  929MPD2    H213596   1.054   2.140  10.484 -0.5039  0.7707  0.8711
  929MPD2    H313597   0.994   2.174  10.270 -0.8780  1.3352  0.7984
  929MPD2     N13598   0.700   1.844  10.252  0.0870  0.1649 -0.0846
  929MPD2    H513599   0.676   1.885  10.163  1.2540 -1.9419 -1.3649
  929MPD2    N113600   0.964   1.943  10.645 -0.7226  0.3972  0.0094
  929MPD2    H713601   0.975   2.031  10.694  1.8987  1.4882 -2.5262
  930MPD2     C13602   3.086   3.815  13.985 -0.2230 -0.1483 -0.2113
  930MPD2    C113603   3.016   3.906  13.909  0.1607  0.7751  0.4804
  930MPD2    C213604   2.915   3.857  13.826  0.2499 -0.0109 -0.0553
  930MPD2    C313605   2.895   3.718  13.808 -0.0287  0.5548  0.3909
  930MPD2    C413606   2.960   3.633  13.895  0.3455 -0.0423  0.0786
  930MPD2    C513607   3.046   3.684  13.985 -0.0715  0.5175 -0.2680
  930MPD2     H13608   2.859   3.924  13.761 -2.1082 -0.0871  1.9020
  930MPD2    H113609   2.949   3.525  13.888 -1.4637  0.2069 -0.7594
  930MPD2    H213610   3.172   3.844  14.044  0.1724 -1.0469 -0.3492
  930MPD2    H313611   3.093   3.621  14.059  2.5045  2.2390 -0.4202
  930MPD2     N13612   2.815   3.653  13.711  0.0456 -0.0101  0.6089
  930MPD2    H513613   2.790   3.558  13.737  2.4806 -0.4855  1.2098
  930MPD2    N113614   3.060   4.038  13.898  0.1973 -0.4207 -0.0628
  930MPD2    H713615   3.141   4.060  13.955 -0.9012  0.6031  1.1026
  931MPD2     C13616   3.154   3.142   0.682 -0.0506  0.3109 -0.1379
  931MPD2    C113617   3.044   3.218   0.719  0.4505 -0.4566  0.4811
  931MPD2    C213618   2.965   3.184   0.825 -0.7297 -0.5470 -0.4206
  931MPD2    C313619   2.987   3.064   0.890 -0.2890  0.1913 -0.4358
  931MPD2    C413620   3.084   2.984   0.844  0.0224  0.6138  0.5914
  931MPD2    C513621   3.170   3.023   0.747 -0.3817  0.3028 -0.2857
  931MPD2     H13622   2.896   3.257   0.866  0.8773  0.8898 -0.2750
  931MPD2    H113623   3.108   2.898   0.905 -2.6263 -0.8552 -0.4303
  931MPD2    H213624   3.223   3.186   0.610  0.9448 -0.5383  0.3027
  931MPD2    H313625   3.256   2.962   0.720 -0.2097  0.2032  0.4661
  931MPD2     N13626   2.909   3.018   0.999  1.0190  0.1320  0.0801
  931MPD2    H513627   2.922   2.921   1.027  0.8269  0.0965  0.0524
  931MPD2    N113628   3.035   3.337   0.648 -0.4874  0.0693 -0.3221
  931MPD2    H713629   3.114   3.357   0.587  0.1652 -1.0987  0.1495
  932MPD2     C13630   4.110   2.511  11.051 -0.2339 -0.0629 -0.1000
  932MPD2    C113631   4.213   2.596  11.088  0.5803 -0.4478 -0.4379
  932MPD2    C213632   4.341   2.552  11.087  0.1519  0.9197  0.7925
  932MPD2    C313633   4.371   2.424  11.050  0.1140 -0.3038  0.1668
  932MPD2    C413634   4.267   2.346  11.003 -0.2655  0.1188  0.0396
  932MPD2    C513635   4.141   2.393  10.996  0.4461  0.0727  0.7719
  932MPD2     H13636   4.410   2.627  11.124  2.4340  0.2049 -1.9019
  932MPD2    H113637   4.284   2.243  10.972  2.3721  0.9427 -1.2486
  932MPD2    H213638   4.004   2.530  11.065 -0.2237  0.3643 -0.5892
  932MPD2    H313639   4.065   2.322  10.964  0.3258  0.0329  1.1385
  932MPD2     N13640   4.510   2.371  11.050 -0.1390 -0.2471 -0.2446
  932MPD2    H513641   4.525   2.274  11.024  2.8393 -0.3395  1.8267
  932MPD2    N113642   4.190   2.726  11.128 -0.0392  0.3166 -0.2047
  932MPD2    H713643   4.265   2.794  11.139  0.5019 -0.5034  1.1872
  933MPD2     C13644   0.619   2.050   1.742  0.7519  0.7048 -0.1971
  933MPD2    C113645   0.625   2.052   1.599  0.1457  1.0748  0.3697
  933MPD2    C213646   0.514   2.103   1.532  0.0175 -0.2799 -0.0467
  933MPD2    C313647   0.405   2.160   1.593 -0.0809  0.2366 -0.3331
  933MPD2    C413648   0.409   2.172   1.737  0.5680  0.2903  0.3419
  933MPD2    C513649   0.514   2.118   1.805  0.0904  0.8836  0.8088
  933MPD2     H13650   0.507   2.095   1.424  1.1077 -1.6248 -0.0207
  933MPD2    H113651   0.328   2.225   1.787  1.7155  0.7389  1.7249
  933MPD2    H213652   0.689   1.995   1.803  1.6203  2.4827  0.4049
  933MPD2    H313653   0.512   2.126   1.913  3.7828 -0.1968  0.9904
  933MPD2     N13654   0.301   2.205   1.507 -0.2307 -0.0434 -0.1087
  933MPD2    H513655   0.323   2.187   1.410  1.7853 -1.8073  0.6721
  933MPD2    N113656   0.744   1.991   1.542  0.4472 -0.5867 -0.7418
  933MPD2    H713657   0.813   1.945   1.601 -1.4469 -0.9065  1.2637
  934MPD2     C13658   1.661   4.206   2.113  0.3196 -0.7020  0.3206
  934MPD2    C113659   1.763   4.160   2.033 -0.4174 -0.5576 -0.3332
  934MPD2    C213660   1.730   4.082   1.919  0.5742 -0.4226  0.1340
  934MPD2    C313661   1.601   4.047   1.899 -0.2637  0.5264  0.4043
  934MPD2    C413662   1.503   4.085   1.987 -0.2356 -0.3617 -0.3060
  934MPD2    C513663   1.534   4.165   2.090 -0.1408  0.3364  0.0587
  934MPD2     H13664   1.811   4.064   1.850  0.1711 -1.6209 -0.0246
  934MPD2    H113665   1.400   4.051   1.979  0.3774 -1.9891 -1.4247
  934MPD2    H213666   1.685   4.274   2.194  0.6252  0.3901 -0.6870
  934MPD2    H313667   1.460   4.186   2.166 -1.7575 -0.9669 -1.1489
  934MPD2     N13668   1.563   3.975   1.790 -0.2262  0.4129 -0.2935
  934MPD2    H513669   1.462   3.962   1.792 -0.0742 -0.3960  1.9664
  934MPD2    N113670   1.897   4.209   2.049 -0.0753  0.3227 -0.2921
  934MPD2    H713671   1.960   4.191   1.972 -1.0050  1.6972 -1.3811
  935MPD2     C13672   2.046   3.892   0.972 -0.7155 -0.1010 -0.0807
  935MPD2    C113673   1.911   3.891   0.947 -0.0671  0.2765 -0.3631
  935MPD2    C213674   1.827   3.822   1.037 -0.7682  0.8726 -0.0737
  935MPD2    C313675   1.875   3.783   1.159  0.0632  0.0866  0.4806
  935MPD2    C413676   2.010   3.782   1.179  0.0448  0.0826  0.4929
  935MPD2    C513677   2.093   3.827   1.085  0.1048  0.4027 -0.0858
  935MPD2     H13678   1.720   3.818   1.018 -0.5832  0.6117 -1.0271
  935MPD2    H113679   2.051   3.734   1.267 -1.0331 -0.1948  0.8422
  935MPD2    H213680   2.118   3.943   0.909  0.1847 -1.3243 -0.0541
  935MPD2    H313681   2.200   3.831   1.098  0.3116  1.7462 -2.2581
  935MPD2     N13682   1.789   3.743   1.261 -0.7225  0.0577  0.9112
  935MPD2    H513683   1.830   3.727   1.352  1.8510  1.2671 -0.0243
  935MPD2    N113684   1.849   3.953   0.836  0.0915 -0.4931 -0.0110
  935MPD2    H713685   1.748   3.948   0.828  0.1853 -1.6382 -0.4686
  936MPD2     C13686   1.113   1.010  12.820 -0.0485  0.5930 -0.3515
  936MPD2    C113687   1.114   1.069  12.944 -0.2744  0.9102  1.2946
  936MPD2    C213688   1.135   1.208  12.953  0.1420 -0.6489  0.5214
  936MPD2    C313689   1.146   1.282  12.840  0.4670  1.0253 -0.4719
  936MPD2    C413690   1.167   1.220  12.724  0.2026  0.4797 -0.8807
  936MPD2    C513691   1.143   1.086  12.708  0.4523  0.4640 -0.2224
  936MPD2     H13692   1.121   1.257  13.049  3.4676 -1.3061  1.3365
  936MPD2    H113693   1.187   1.276  12.633 -1.6232  1.2127 -0.8443
  936MPD2    H213694   1.098   0.903  12.810 -0.9898  0.7861 -1.0354
  936MPD2    H313695   1.157   1.028  12.617  1.2123 -2.1386  1.5544
  936MPD2     N13696   1.151   1.421  12.861  0.2723  0.5906  0.1703
  936MPD2    H513697   1.128   1.449  12.956  0.8912 -1.1058  0.8216
  936MPD2    N113698   1.094   1.009  13.072  0.6336  0.4309  0.1430
  936MPD2    H713699   1.103   1.070  13.152  0.8402  2.5795 -1.5113
  937MPD2     C13700   3.174   2.291  11.241  0.2669 -0.1057 -0.3527
  937MPD2    C113701   3.157   2.431  11.246  0.0288  0.2337  0.1657
  937MPD2    C213702   3.217   2.513  11.151  0.1393 -0.5306 -0.6990
  937MPD2    C313703   3.290   2.461  11.048 -0.2301 -0.2100  0.2478
  937MPD2    C413704   3.311   2.325  11.040 -0.1175  0.2525 -0.6148
  937MPD2    C513705   3.258   2.243  11.139 -0.0463 -0.1964 -0.0740
  937MPD2     H13706   3.220   2.620  11.163 -1.5504 -0.8877  2.6618
  937MPD2    H113707   3.380   2.283  10.968 -0.3803  1.3749 -1.5283
  937MPD2    H213708   3.144   2.219  11.317 -0.0321  1.5494  1.0917
  937MPD2    H313709   3.279   2.138  11.128 -0.4160 -0.3656  0.8482
  937MPD2     N13710   3.351   2.548  10.959 -0.2157 -0.2355  0.1487
  937MPD2    H513711   3.331   2.648  10.963  0.6461  0.0538 -3.2072
  937MPD2    N113712   3.093   2.485  11.359  0.2693  0.0319 -0.3129
  937MPD2    H713713   3.096   2.586  11.370  0.2694 -0.1045  0.9266
  938MPD2     C13714   0.886   4.295   0.545 -0.7096  0.3408 -0.0199
  938MPD2    C113715   0.958   4.224   0.642  0.4059  0.2058  0.1488
  938MPD2    C213716   0.894   4.109   0.688 -0.4726 -0.9049  0.3973
  938MPD2    C313717   0.769   4.064   0.654  0.3353 -0.1282 -0.5374
  938MPD2    C413718   0.692   4.142   0.567 -0.9629 -1.1039  0.1105
  938MPD2    C513719   0.750   4.259   0.514 -0.1420 -0.0591  0.2941
  938MPD2     H13720   0.953   4.059   0.764  1.4817  1.5430  0.5183
  938MPD2    H113721   0.587   4.120   0.549 -1.0968 -0.2607 -0.1355
  938MPD2    H213722   0.922   4.384   0.494  2.5175  0.3369  2.1993
  938MPD2    H313723   0.700   4.315   0.436 -0.0730 -1.5546 -0.8321
  938MPD2     N13724   0.704   3.951   0.712 -0.0921  0.3580 -0.3858
  938MPD2    H513725   0.609   3.933   0.682 -0.8937 -0.8304  2.8890
  938MPD2    N113726   1.088   4.258   0.682 -0.5654  0.5602 -0.2858
  938MPD2    H713727   1.130   4.199   0.753  0.8555 -0.9627 -2.3590
  939MPD2     C13728   2.057   0.081   1.365  0.4109  0.1201  0.4773
  939MPD2    C113729   2.116   0.196   1.371  0.3574  0.2572 -0.3846
  939MPD2    C213730   2.192   0.245   1.263 -0.5646  0.4584 -0.0908
  939MPD2    C313731   2.207   0.165   1.148  0.3846  0.5396  0.2758
  939MPD2    C413732   2.162   0.029   1.161  0.7463 -0.2203  0.1928
  939MPD2    C513733   2.076   4.715   1.261  0.1505 -0.3437  0.1214
  939MPD2     H13734   2.213   0.352   1.268 -2.3335  0.7379  1.3486
  939MPD2    H113735   2.183   4.674   1.086 -2.2279 -0.1474 -0.7286
  939MPD2    H213736   1.989   0.056   1.446 -0.7389  1.6045 -0.0102
  939MPD2    H313737   2.019   4.623   1.259 -1.9463  0.9743 -0.5603
  939MPD2     N13738   2.279   0.219   1.037 -0.1672 -0.4487  0.2790
  939MPD2    H513739   2.310   0.315   1.052 -0.8258 -0.3256  0.8187
  939MPD2    N113740   2.087   0.272   1.484  0.1532 -0.4988  0.3345
  939MPD2    H713741   2.003   0.253   1.536 -0.7751 -1.7016 -1.6305
  940MPD2     C13742   1.391   1.261  13.453  0.3497  0.9121  0.8930
  940MPD2    C113743   1.404   1.132  13.480  0.1963 -0.1125  0.3092
  940MPD2    C213744   1.432   1.043  13.379  0.2255 -0.2880 -0.0722
  940MPD2    C313745   1.450   1.091  13.244 -0.2860 -0.2671 -0.8679
  940MPD2    C413746   1.442   1.230  13.226  0.1314  0.4609 -0.9529
  940MPD2    C513747   1.422   1.314  13.333 -0.3446 -0.1045 -0.2041
  940MPD2     H13748   1.447   0.938  13.402 -0.7004 -0.4410 -0.1765
  940MPD2    H113749   1.471   1.268  13.129  1.2999 -0.1438 -0.8419
  940MPD2    H213750   1.358   1.320  13.538  1.0709  0.2375  1.6498
  940MPD2    H313751   1.429   1.421  13.316 -1.1686  0.0082  0.1496
  940MPD2     N13752   1.452   1.011  13.128  0.3626 -0.2725 -0.4710
  940MPD2    H513753   1.469   1.057  13.039 -0.5907 -0.7684 -0.9144
  940MPD2    N113754   1.380   1.103  13.614  0.2552  0.5791 -0.8504
  940MPD2    H713755   1.343   1.178  13.671  2.2958 -1.3082  2.9286
  941MPD2     C13756   0.924   0.076   9.483  0.6661 -0.5732 -0.0513
  941MPD2    C113757   0.883   0.098   9.611  0.2351  0.7820  0.5156
  941MPD2    C213758   0.810   4.720   9.670  0.2395 -0.0578  0.3532
  941MPD2    C313759   0.767   4.612   9.596  0.2278 -0.1176 -0.7902
  941MPD2    C413760   0.813   4.595   9.467 -0.5631  0.0274 -0.4130
  941MPD2    C513761   0.885   4.688   9.413  0.5073 -0.0703  0.0258
  941MPD2     H13762   0.774   0.017   9.771 -0.3629  1.8911 -0.2091
  941MPD2    H113763   0.788   4.512   9.402  2.2570 -0.5215 -0.8111
  941MPD2    H213764   0.999   0.133   9.429 -0.0148  0.0467 -0.3322
  941MPD2    H313765   0.910   4.676   9.308  0.3770 -0.1993  0.0103
  941MPD2     N13766   0.692   4.517   9.659 -0.3344  0.6260 -0.5340
  941MPD2    H513767   0.677   4.538   9.758  0.8819  1.2451 -0.4832
  941MPD2    N113768   0.898   0.212   9.690  0.6503  0.0585  0.3032
  941MPD2    H713769   0.869   0.206   9.788 -1.8297  1.3932 -0.3330
  942MPD2     C13770   0.007   1.583   9.040 -0.4048 -0.4776 -0.2628
  942MPD2    C113771   4.709   1.674   9.137  0.1271 -0.1576 -0.2997
  942MPD2    C213772   0.100   1.748   9.175 -0.4990  0.8916 -0.1491
  942MPD2    C313773   0.222   1.717   9.120 -0.5319 -0.3501  0.2561
  942MPD2    C413774   0.229   1.632   9.008  0.1097 -0.2146  0.2662
  942MPD2    C513775   0.122   1.560   8.970  0.2696 -0.2650 -0.3501
  942MPD2     H13776   0.089   1.827   9.247  1.5901  0.2703  0.8525
  942MPD2    H113777   0.322   1.638   8.953 -0.9590  1.6161 -1.3311
  942MPD2    H213778   4.643   1.524   9.008 -2.8252  2.0177  1.5208
  942MPD2    H313779   0.120   1.483   8.894  0.2363  3.1734 -3.8721
  942MPD2     N13780   0.338   1.791   9.145  0.4229 -0.5455  0.3264
  942MPD2    H513781   0.414   1.773   9.080  1.3042  1.2214  0.8758
  942MPD2    N113782   4.576   1.703   9.184  0.8117 -0.1031 -0.2760
  942MPD2    H713783   4.575   1.774   9.257  2.3553  1.6815 -1.9982
  943MPD2     C13784   3.121   0.175   8.925 -0.6022 -0.0393  0.6823
  943MPD2    C113785   2.994   0.212   8.973  0.3048  0.3028 -0.3782
  943MPD2    C213786   2.937   0.336   8.942  0.2487  0.0541 -0.0567
  943MPD2    C313787   3.012   0.419   8.861 -0.0613 -0.1705 -0.9607
  943MPD2    C413788   3.133   0.380   8.808 -0.5145 -0.0343 -0.0249
  943MPD2    C513789   3.188   0.257   8.839 -0.4604 -0.5715  0.5252
  943MPD2     H13790   2.837   0.352   8.982 -1.1092 -1.4674 -2.7777
  943MPD2    H113791   3.187   0.441   8.737  0.0648 -0.6151 -0.0836
  943MPD2    H213792   3.165   0.080   8.953  1.7226  0.4376 -1.3692
  943MPD2    H313793   3.286   0.224   8.808 -1.6905 -0.5246 -3.3364
  943MPD2     N13794   2.968   0.544   8.813  0.2216 -0.1769  0.3897
  943MPD2    H513795   3.035   0.607   8.770 -1.2317  0.1290 -1.4196
  943MPD2    N113796   2.918   0.119   9.051  0.1230 -0.5004 -0.2220
  943MPD2    H713797   2.967   0.035   9.081 -0.2810 -0.1802  1.3456
  944MPD2     C13798   3.140   3.726  10.703  0.5663 -0.3630  0.4444
  944MPD2    C113799   3.198   3.832  10.780 -0.6097  0.0042 -0.6056
  944MPD2    C213800   3.176   3.844  10.915  0.0105 -0.1548 -0.4312
  944MPD2    C313801   3.096   3.746  10.980  0.1376  0.4011 -0.0239
  944MPD2    C413802   3.039   3.643  10.906 -0.5415  0.6401  0.7645
  944MPD2    C513803   3.054   3.641  10.773 -0.4242  0.0698 -0.4727
  944MPD2     H13804   3.212   3.924  10.978  2.5324 -1.7567  0.1887
  944MPD2    H113805   2.979   3.564  10.952  0.3441 -0.2040  0.4757
  944MPD2    H213806   3.159   3.717  10.597 -0.3828  0.2452  0.2206
  944MPD2    H313807   2.997   3.571  10.714 -0.2312 -1.1952  0.8300
  944MPD2     N13808   3.084   3.758  11.118  0.0378  0.2427  0.2540
  944MPD2    H513809   3.143   3.830  11.158 -0.8334  0.0485  1.9091
  944MPD2    N113810   3.279   3.921  10.711  0.2821 -0.4029  0.0579
  944MPD2    H713811   3.316   3.892  10.621 -0.2875 -1.5791  0.1862
    1TCq1    O113812   1.646   4.629  14.142  0.0710 -1.0853 -0.1261
    1TCq1    C113813   1.603   4.510  14.194  0.0523  0.2028 -0.3007
    1TCq1    O213814   1.521   4.431  14.144 -0.7060 -0.6376 -0.6806
    1TCq1    C213815   1.705   4.472  14.285 -0.7906  0.0131  0.5411
    1TCq1    C313816   1.764   4.350  14.262 -0.1273  0.2356 -0.3165
    1TCq1    C413817   1.856   4.319  14.355 -0.1425 -0.2473 -0.2495
    1TCq1    C513818   1.906   4.408  14.449  0.0246  0.2026 -0.0674
    1TCq1    C613819   1.846   4.526  14.459  0.1076  0.6196 -0.1970
    1TCq1    C713820   1.744   4.564  14.382 -0.5491 -0.1068  0.2944
    1TCq1    C813821   1.894   4.616  14.563 -0.9257 -0.0862 -0.0441
    1TCq1    O413822   1.959   4.575  14.658  0.1532  0.3522  0.1326
    1TCq1    C913823   1.910   4.188  14.344 -0.2196 -0.0916  0.2670
    1TCq1    O513824   1.965   4.144  14.449 -0.7464  0.7314  0.2906
    1TCq1    O613825   1.866   4.126  14.245  0.1391  0.1290 -0.3542
    1TCq1    H113826   1.718   4.666  14.198  1.0100  0.7057 -2.4888
    1TCq1    H213827   1.724   4.284  14.185 -0.3212  1.2979 -1.1297
    1TCq1    H313828   1.980   4.379  14.522 -0.5295  0.8129  0.7479
    1TCq1    H413829   1.683   4.652  14.401 -0.4286  0.0389 -0.0039
    2MPD2     C13830   2.055   0.363  14.700 -0.0041 -0.1664  0.4153
    2MPD2    C113831   1.943   0.380  14.618 -0.2710 -0.4974 -0.3744
    2MPD2    C213832   1.884   0.260  14.562  0.6097  0.4098  0.0959
    2MPD2    C313833   1.939   0.137  14.594  0.0622 -0.7454  0.0384
    2MPD2    C413834   2.038   0.129  14.688  0.0751 -0.2356 -0.0669
    2MPD2    C513835   2.098   0.242  14.740 -0.1551 -0.7649 -0.0741
    2MPD2     H13836   1.804   0.262  14.490  0.7264 -0.3440 -0.0449
    2MPD2    H113837   2.074   0.030  14.714 -1.2119 -0.6775  0.0124
    2MPD2    H213838   2.118   0.442  14.739  0.9745 -0.6493 -0.1845
    2MPD2    H313839   2.183   0.236  14.807 -0.0816  0.8020 -0.0190
    2MPD2     N13840   1.873   0.031  14.532  0.0456  0.1912 -0.2128
    2MPD2    H513841   1.808   0.048  14.456  0.9667 -3.5386 -1.8626
    2MPD2    N113842   1.909   0.514  14.583 -0.8998  0.2061 -0.0580
    2MPD2    H713843   1.978   0.583  14.612  0.0706 -0.3292 -1.0637
    3TMC2    C113844   1.788   0.696  14.502 -0.9349 -0.2034  0.0912
    3TMC2    C213845   1.901   0.771  14.489  1.0435 -0.2370  0.3299
    3TMC2    C313846   1.894   0.906  14.485  0.1458 -0.4169  0.3738
    3TMC2    C413847   1.662   0.760  14.488  0.2938  0.1839 -0.9353
    3TMC2    C513848   1.666   0.897  14.475  0.0644  0.3136  0.0348
    3TMC2    C613849   1.777   0.978  14.486 -0.1867  0.2194  0.4955
    3TMC2     C13850   1.787   0.553  14.540  0.0604 -0.1884 -0.1826
    3TMC2     O13851   1.676   0.500  14.544  0.0075  0.8648  0.2649
    3TMC2     H13852   1.996   0.720  14.502  3.4888  4.3192  0.1738
    3TMC2    H113853   1.566   0.711  14.472 -0.1998  0.5899  0.8126
    3TMC2    H213854   1.773   1.086  14.489  1.2385  0.2908  0.1087
    3TMC2    C713855   1.546   0.969  14.457  0.1231  0.2464 -0.0907
    3TMC2    C813856   2.024   0.962  14.471 -0.4833 -0.1707 -0.0644
    3TMC2    O113857   1.466   0.947  14.549 -0.7053 -0.7668  0.0742
    3TMC2    O213858   2.117   0.922  14.544  0.4128  0.1308  0.1280
    3TMC2    O513859   2.008   1.090  14.431 -0.0986  0.3718 -0.0213
    3TMC2    H513860   1.927   1.105  14.377 -1.1197 -1.4608  1.0131
    4MPD2     C13861   1.011   2.048  13.679  0.4545  0.4773 -0.0808
    4MPD2    C113862   1.000   1.925  13.732 -0.0685  0.0814  0.3246
    4MPD2    C213863   1.112   1.856  13.776  0.5363  0.4249  0.7338
    4MPD2    C313864   1.233   1.919  13.773  0.2425  0.5239 -0.2917
    4MPD2    C413865   1.239   2.052  13.732  0.1218 -0.2977  0.1205
    4MPD2    C513866   1.124   2.123  13.696  0.5797  0.1917 -0.5370
    4MPD2     H13867   1.112   1.752  13.805 -1.7514 -0.0183 -0.8154
    4MPD2    H113868   1.331   2.110  13.740 -0.4010  0.9928 -3.2156
    4MPD2    H213869   0.923   2.098  13.640  0.7488  2.8648  2.2876
    4MPD2    H313870   1.136   2.228  13.670  2.0608 -0.0289 -0.7449
    4MPD2     N13871   1.347   1.841  13.813 -0.0676 -0.4153 -0.6229
    4MPD2    H513872   1.320   1.747  13.840 -1.7197  0.0107 -0.7727
    4MPD2    N113873   0.875   1.858  13.711 -0.2745  0.4496  0.4618
    4MPD2    H713874   0.800   1.901  13.658 -0.6409 -0.4814  0.2261
    5TCq2    C113875   1.472   1.895  13.838 -0.3410  0.5143  0.2241
    5TCq2    O213876   1.518   2.008  13.827  0.0426  0.4283 -0.5675
    5TCq2    C213877   1.573   1.799  13.884 -0.5711 -0.8195 -0.3402
    5TCq2    C313878   1.703   1.824  13.852 -0.6183 -0.4883 -0.0839
    5TCq2    C413879   1.801   1.735  13.875 -0.0939 -0.3231 -0.0341
    5TCq2    C513880   1.757   1.629  13.955 -0.1757 -0.3249  0.1987
    5TCq2    C613881   1.633   1.616  14.012  0.3637  0.3406  1.1112
    5TCq2    C713882   1.529   1.700  13.966  0.1567 -0.4271 -0.4132
    5TCq2    C813883   1.615   1.494  14.084 -0.3160  0.2066  0.5710
    5TCq2    O413884   1.714   1.430  14.110 -0.1934 -0.2105 -0.3273
    5TCq2    C913885   1.926   1.713  13.807  0.6023 -0.0279 -0.2406
    5TCq2    O513886   1.946   1.780  13.697 -0.4164  0.0937  0.0905
    5TCq2    O613887   1.993   1.611  13.838 -0.0481  0.1116  0.3162
    5TCq2    H213888   1.727   1.890  13.769  0.3088  0.3543  0.8592
    5TCq2    H313889   1.831   1.553  13.973 -0.9098 -1.2761 -0.7941
    5TCq2    H413890   1.427   1.695  14.002  0.2995  0.2155  0.0758
    6MPD1     C13891   1.193   2.289  12.348  0.1169  1.1517 -0.5935
    6MPD1    C113892   1.203   2.154  12.325 -0.0814  0.4577 -0.4800
    6MPD1    C213893   1.105   2.077  12.375 -0.7916  0.9088 -0.6256
    6MPD1    C313894   0.997   2.131  12.442  0.8334  0.1413 -0.2070
    6MPD1    C413895   0.988   2.263  12.457 -0.1358 -0.1233 -0.3078
    6MPD1    C513896   1.088   2.346  12.413  0.2223  0.1260 -0.1720
    6MPD1     H13897   1.120   1.970  12.372 -0.5470  0.9345 -0.2374
    6MPD1    H113898   0.910   2.313  12.512  0.8796 -1.0776  1.9824
    6MPD1    H213899   1.268   2.358  12.309  0.0469  0.8801 -1.2020
    6MPD1    H313900   1.083   2.454  12.418  4.8187  0.2847  1.3264
    6MPD1     N13901   0.895   2.051  12.497 -0.4481 -0.1801 -0.3108
    6MPD1    H513902   0.827   2.108  12.546  0.3694 -0.7062  1.4391
    6MPD1    N113903   1.311   2.099  12.250 -0.2694 -0.1201  0.3593
    6MPD1    H613904   1.332   2.161  12.172 -0.8300 -0.9940 -0.4731
    6MPD1    H713905   1.289   2.003  12.223 -1.1722  0.0193  0.6029
    7MPD2     C13906   0.414   2.124  13.069 -0.2131  0.1203 -0.1688
    7MPD2    C113907   0.464   2.003  13.061  0.0729  0.0137 -0.4660
    7MPD2    C213908   0.471   1.931  13.177  0.2494  0.0571 -0.1092
    7MPD2    C313909   0.430   1.979  13.300 -1.0243  0.4961  0.8808
    7MPD2    C413910   0.375   2.101  13.309  0.1792  0.6170  0.1389
    7MPD2    C513911   0.381   2.179  13.192 -0.0718  0.2787  0.0098
    7MPD2     H13912   0.529   1.841  13.159 -0.1036  0.1112 -1.5053
    7MPD2    H113913   0.345   2.149  13.401 -1.7655 -0.9213  0.3110
    7MPD2    H213914   0.403   2.188  12.982  0.6860  0.1726 -0.2506
    7MPD2    H313915   0.337   2.278  13.189 -0.8772  0.0049  2.9323
    7MPD2     N13916   0.448   1.905  13.422 -0.4581 -0.5833  0.0846
    7MPD2    H513917   0.420   1.951  13.508 -1.2024 -0.5832 -0.1570
    7MPD2    N113918   0.519   1.938  12.948 -0.0091  0.2944  0.4693
    7MPD2    H713919   0.558   1.845  12.965  2.4981  0.8113 -2.5427
    8TMC3    C113920   0.540   1.728  13.544  0.2602 -0.3336  0.7197
    8TMC3    C213921   0.649   1.786  13.607 -0.8417 -0.2266  0.3962
    8TMC3    C313922   0.715   1.695  13.692  0.2728  0.8329  0.2015
    8TMC3    C413923   0.518   1.597  13.547 -0.3023 -0.0704 -0.9091
    8TMC3    C513924   0.610   1.509  13.592 -1.4397 -0.1789  0.0001
    8TMC3    C613925   0.708   1.559  13.676 -0.2519 -0.1631 -0.4845
    8TMC3     C13926   0.501   1.776  13.415  0.1051  0.6485  0.5753
    8TMC3     O13927   0.480   1.696  13.322 -0.0044  0.5360 -1.2066
    8TMC3     H13928   0.669   1.892  13.599  0.7303 -0.4892  0.9508
    8TMC3    H113929   0.438   1.563  13.483 -0.5548  0.4767 -0.8841
    8TMC3    H213930   0.781   1.495  13.725  0.8125  1.2566 -0.2022
    8TMC3    C713931   0.662   1.424  13.489  0.1881 -0.4784 -0.5367
    8TMC3    C813932   0.834   1.742  13.762 -0.5241 -0.7510  0.1092
    8TMC3    O113933   0.707   1.312  13.513  0.0112  0.6233 -0.0216
    8TMC3    O213934   0.892   1.675  13.842 -0.1781  0.6503 -0.2494
    9TMC3    C113935   0.781   1.867  12.596 -0.0560  0.2806 -0.3248
    9TMC3    C213936   0.773   1.734  12.622  0.3089 -0.4230 -0.0273
    9TMC3    C313937   0.681   1.685  12.713  0.2141 -0.4449 -0.0271
    9TMC3    C413938   0.692   1.953  12.660 -0.3852 -0.5534 -0.5614
    9TMC3    C513939   0.598   1.899  12.744 -0.1341 -0.3406 -0.2930
    9TMC3    C613940   0.595   1.768  12.778  0.4846 -0.3164  0.4577
    9TMC3     C13941   0.888   1.912  12.511 -0.0538  0.1121  0.5065
    9TMC3     O13942   0.962   1.826  12.462  0.0337 -0.3802 -0.1838
    9TMC3     H13943   0.833   1.661  12.568  1.3348  0.1611  0.3251
    9TMC3    H113944   0.697   2.060  12.650 -1.2362 -0.4727 -0.0904
    9TMC3    H213945   0.501   1.741  12.825  0.7092  0.3943  1.3188
    9TMC3    C713946   0.533   1.994  12.832  1.4905  0.5676  0.3906
    9TMC3    C813947   0.730   1.565  12.785 -0.0464 -0.5873  0.5372
    9TMC3    O113948   0.525   2.110  12.796  0.2871 -0.1911 -0.0873
    9TMC3    O213949   0.803   1.487  12.723  0.0863 -0.5399  0.0553
   10MPD2     C13950   0.769   1.319  13.231 -0.1173  0.1505 -0.8399
   10MPD2    C113951   0.702   1.435  13.243  0.3298 -0.0462 -0.4649
   10MPD2    C213952   0.695   1.520  13.141  0.0060  0.1662 -0.6974
   10MPD2    C313953   0.724   1.479  13.016  0.5754  0.6479 -0.3903
   10MPD2    C413954   0.773   1.359  12.993 -0.7224 -0.0212  0.7719
   10MPD2    C513955   0.798   1.280  13.103  0.2836  0.0707 -0.3603
   10MPD2     H13956   0.655   1.619  13.156  0.4977  0.0953  1.0850
   10MPD2    H113957   0.804   1.321  12.896  0.8975 -0.1689  1.3310
   10MPD2    H213958   0.785   1.252  13.315 -1.4646  0.1234 -0.6013
   10MPD2    H313959   0.836   1.179  13.097 -1.0117 -0.4579  0.2036
   10MPD2     N13960   0.684   1.564  12.914 -0.0850  0.1568  0.4039
   10MPD2    H513961   0.642   1.653  12.940  0.6933  0.9135 -0.9431
   10MPD2    N113962   0.659   1.483  13.366  0.2447  0.0977  0.1866
   10MPD2    H713963   0.620   1.577  13.365 -0.6992 -0.3033 -0.6654
   11MPD2     C13964   1.350   1.187  14.406  0.0345 -0.0446  0.4107
   11MPD2    C113965   1.472   1.171  14.339 -0.7771  0.3672 -0.6731
   11MPD2    C213966   1.510   1.268  14.241 -0.4250  0.6484 -0.4322
   11MPD2    C313967   1.437   1.385  14.214 -0.1673  0.3314 -0.1119
   11MPD2    C413968   1.317   1.388  14.283  0.2078  0.5533 -0.3105
   11MPD2    C513969   1.270   1.288  14.365 -0.5334  0.5879 -0.0094
   11MPD2     H13970   1.598   1.241  14.184 -0.6395  0.4988 -0.6893
   11MPD2    H113971   1.250   1.472  14.279  0.0334  0.2892 -3.0769
   11MPD2    H213972   1.316   1.112  14.476 -0.6050  2.1313  2.4523
   11MPD2    H313973   1.171   1.313  14.402 -0.8725 -0.4705 -0.2163
   11MPD2     N13974   1.482   1.486  14.129 -0.0836  0.3920 -0.3790
   11MPD2    H513975   1.417   1.559  14.100 -0.4280  0.8601  1.5902
   11MPD2    N113976   1.562   1.063  14.362  0.2727  0.0123  0.1562
   11MPD2    H713977   1.653   1.066  14.318  0.1626 -0.1218 -0.0759
    1MPD1     C13978   3.834   2.440  17.236 -0.1760  0.1026  0.5022
    1MPD1    C113979   3.892   2.555  17.202  0.0946 -0.6446 -0.3884
    1MPD1    C213980   4.034   2.563  17.196  0.7827  0.2626  0.0617
    1MPD1    C313981   4.106   2.448  17.221  0.0511  0.2334 -0.2336
    1MPD1    C413982   4.042   2.337  17.262  1.2484 -0.2617  0.4831
    1MPD1    C513983   3.904   2.333  17.273 -0.4228  0.3474 -0.4416
    1MPD1     H13984   4.077   2.661  17.179  3.0264 -0.1903  3.2342
    1MPD1    H113985   4.097   2.244  17.274  0.3921 -0.8277  0.0347
    1MPD1    H213986   3.727   2.419  17.235  0.2512 -2.0871  0.3813
    1MPD1    H313987   3.857   2.235  17.280 -1.2780  0.8066  0.2791
    1MPD1     N13988   4.244   2.433  17.195 -0.1073  0.5966 -0.3362
    1MPD1    H513989   4.287   2.344  17.217 -1.0064  0.4088  0.6378
    1MPD1    N113990   3.815   2.670  17.213 -0.1521 -0.4008 -0.3782
    1MPD1    H613991   3.718   2.652  17.188 -0.5712  0.6232  0.5248
    1MPD1    H713992   3.843   2.732  17.137  0.2971  0.5667  0.5842
    2MPD1     C13993   0.018   1.829  17.492  0.2939 -0.2544 -0.3805
    2MPD1    C113994   4.624   1.900  17.515 -0.2831 -0.5482  0.6049
    2MPD1    C213995   4.592   2.009  17.432 -0.7903  0.5157  0.3690
    2MPD1    C313996   4.681   2.068  17.341 -0.4342 -0.6824 -0.2963
    2MPD1    C413997   0.077   1.990  17.322  0.3210  0.0699 -0.4145
    2MPD1    C513998   0.104   1.876  17.393  0.0680 -0.3847  0.5131
    2MPD1     H13999   4.494   2.050  17.453 -1.0555  1.0219 -1.8462
    2MPD1    H114000   0.133   2.008  17.231  1.3284 -1.6871 -0.1412
    2MPD1    H214001   0.044   1.743  17.553  1.8243  1.4909  1.4188
    2MPD1    H314002   0.195   1.839  17.347 -0.2436  0.4750 -0.8282
    2MPD1     N14003   4.637   2.184  17.265  0.5194  0.6541 -0.2743
    2MPD1    H514004   4.539   2.208  17.276  0.1260 -1.1266  0.2294
    2MPD1    N114005   4.531   1.877  17.607 -0.1005  0.4087  0.2213
    2MPD1    H614006   4.438   1.890  17.568 -0.6073 -0.7190  1.0364
    2MPD1    H714007   4.542   1.785  17.649 -1.2601 -0.0529 -0.4788
    3TMC3    C114008   4.649   2.369  17.121  0.1301  0.1888 -0.5399
    3TMC3    C214009   4.698   2.426  17.007  0.3266  0.3586  0.2705
    3TMC3    C314010   4.625   2.522  16.947  0.1219  0.8302  0.0884
    3TMC3    C414011   4.525   2.398  17.171 -0.3264  0.0673  0.7753
    3TMC3    C514012   4.456   2.486  17.098  0.1418  0.3316 -0.4374
    3TMC3    C614013   4.507   2.556  16.998  0.0803 -0.1917  0.1971
    3TMC3     C14014   4.713   2.259  17.180 -0.5471 -0.9032 -0.3393
    3TMC3     O14015   0.105   2.237  17.144  1.0360  0.3492  0.0760
    3TMC3     H14016   0.057   2.371  16.959  2.0184  3.0597 -0.0493
    3TMC3    H114017   4.488   2.378  17.271  1.9910 -0.8161  1.4702
    3TMC3    H214018   4.444   2.628  16.945  1.7074  1.7178  0.8758
    3TMC3    C714019   4.327   2.534  17.153  0.4048  0.3326  0.0195
    3TMC3    C814020   4.618   2.510  16.802 -0.0189  0.0732  0.2168
    3TMC3    O114021   4.299   2.650  17.131  0.8550 -0.0247 -0.1758
    3TMC3    O214022   4.504   2.514  16.761 -0.6152  0.0158  0.1445
    4MPD1     C14023   0.093   2.445  16.340  0.1162 -0.8073  0.2050
    4MPD1    C114024   0.192   2.422  16.433  0.7066 -0.3517  0.0866
    4MPD1    C214025   0.172   2.439  16.565  0.0084  0.8401 -0.5029
    4MPD1    C314026   0.047   2.483  16.609 -0.0564 -0.3649  0.2507
    4MPD1    C414027   4.667   2.509  16.520  0.3079  0.3863 -0.1814
    4MPD1    C514028   4.691   2.477  16.389 -0.8613  0.2798 -0.0550
    4MPD1     H14029   0.252   2.410  16.632 -1.2813 -1.3265  0.0784
    4MPD1    H114030   4.563   2.535  16.537 -0.4183 -0.1033 -3.9660
    4MPD1    H214031   0.110   2.419  16.236 -1.3694  1.8662 -0.6976
    4MPD1    H314032   4.626   2.499  16.305  1.4803  0.7183 -1.7657
    4MPD1     N14033   0.020   2.492  16.741 -0.0933 -0.7127 -0.0460
    4MPD1    H514034   0.109   2.495  16.790 -1.5577  0.4783  2.5868
    4MPD1    N114035   0.310   2.364  16.386 -0.0396 -0.2501 -0.1430
    4MPD1    H614036   0.397   2.394  16.430 -1.0444  2.8291 -0.2588
    4MPD1    H714037   0.320   2.395  16.290 -0.2793 -3.2738 -1.1154
    1TCq1    O114038   0.632   3.767  12.845 -0.0647 -0.0556 -0.1220
    1TCq1    C114039   0.627   3.635  12.827 -0.1291 -0.2215 -0.1221
    1TCq1    O214040   0.723   3.553  12.826  0.7273 -0.3978  0.1499
    1TCq1    C214041   0.521   3.616  12.729 -0.6909 -0.1628 -0.6557
    1TCq1    C314042   0.457   3.715  12.659  0.1658 -0.1189 -0.5241
    1TCq1    C414043   0.370   3.693  12.556  0.3494 -0.8425 -0.4142
    1TCq1    C514044   0.361   3.570  12.506  0.2940  0.1224 -0.3973
    1TCq1    C614045   0.422   3.471  12.581  0.4546  0.0918 -0.5626
    1TCq1    C714046   0.494   3.487  12.694 -0.0182  0.1045 -0.2883
    1TCq1    C814047   0.453   3.353  12.513 -0.2796  0.7588  0.0844
    1TCq1    O414048   0.560   3.301  12.541 -0.3308  0.3391 -0.3135
    1TCq1    C914049   0.332   3.808  12.485 -0.5709  0.4383 -0.0367
    1TCq1    O514050   0.359   3.917  12.536  0.2191  0.2487  0.7792
    1TCq1    O614051   0.319   3.786  12.361 -0.7568  0.2602  0.1753
    1TCq1    H114052   0.541   3.802  12.849 -1.1029 -2.7505 -0.0034
    1TCq1    H214053   0.499   3.815  12.664 -1.1726  0.4906 -1.5631
    1TCq1    H314054   0.295   3.556  12.421  0.9394  0.4483 -0.9590
    1TCq1    H414055   0.547   3.403  12.737 -1.9302  0.5484  2.8958
    2MPD1     C14056   0.328   2.937  12.245 -0.0309  0.5559 -0.5462
    2MPD1    C114057   0.209   3.010  12.250  0.4301 -0.6627 -0.0737
    2MPD1    C214058   0.211   3.135  12.324  0.6159 -0.4839 -0.7701
    2MPD1    C314059   0.333   3.188  12.378  0.3784  0.1838  0.1332
    2MPD1    C414060   0.450   3.112  12.350 -0.6641 -0.2844  0.2087
    2MPD1    C514061   0.441   2.991  12.289 -0.6981  0.2473 -0.0297
    2MPD1     H14062   0.119   3.184  12.355 -0.1430 -3.0450  1.0446
    2MPD1    H114063   0.550   3.144  12.375 -0.1040 -1.5214 -0.4444
    2MPD1    H214064   0.336   2.838  12.203  3.7760 -0.5533  2.7981
    2MPD1    H314065   0.527   2.926  12.275  1.3347  2.8064  0.5492
    2MPD1     N14066   0.342   3.307  12.448 -0.1652  0.0528  0.3587
    2MPD1    H514067   0.254   3.352  12.470  1.9583  3.4343  1.9444
    2MPD1    N114068   0.088   2.942  12.213  0.5055 -0.3291 -0.0958
    2MPD1    H614069   0.103   2.874  12.139  1.0723 -0.1717 -0.1294
    2MPD1    H714070   0.007   3.002  12.199  0.8814  0.4024  0.8259
    1TCq1    O114071   1.677   3.289   9.516  1.3841  0.4411  0.3087
    1TCq1    C114072   1.804   3.293   9.467  0.5616  0.5046  0.7534
    1TCq1    O214073   1.891   3.205   9.462 -0.4326  0.1553  0.3221
    1TCq1    C214074   1.817   3.410   9.382  0.7120  0.5730  0.0442
    1TCq1    C314075   1.917   3.407   9.286  0.1862  0.3503  0.4422
    1TCq1    C414076   1.920   3.515   9.199 -0.6556  0.1881  0.0109
    1TCq1    C514077   1.858   3.635   9.220 -0.3848 -0.1967  0.0709
    1TCq1    C614078   1.754   3.634   9.313 -0.1475  0.4935 -0.4055
    1TCq1    C714079   1.735   3.523   9.399  1.1740  0.5231 -0.3769
    1TCq1    C814080   1.671   3.753   9.345  0.1873  0.1844  0.3071
    1TCq1    O414081   1.573   3.740   9.419 -0.3302  0.1136 -0.1111
    1TCq1    C914082   2.030   3.525   9.103 -0.6840 -0.2103  0.7837
    1TCq1    O514083   2.073   3.420   9.045  0.0067 -0.2115 -0.0235
    1TCq1    O614084   2.086   3.637   9.082  0.3952  0.2029  0.1478
    1TCq1    H114085   1.634   3.367   9.476  0.0573  0.1555  1.1765
    1TCq1    H214086   1.981   3.324   9.261 -0.2653 -0.2464  1.2807
    1TCq1    H314087   1.860   3.703   9.136  2.1777 -2.0706 -1.3831
    1TCq1    H414088   1.665   3.541   9.479  1.4918 -0.6510  0.1711
    2MPD1     C14089   1.603   4.268   9.292  0.6630 -0.3336 -0.5096
    2MPD1    C114090   1.723   4.232   9.229  0.6722  0.6865  0.1735
    2MPD1    C214091   1.757   4.098   9.229 -0.3702 -0.2238 -0.2982
    2MPD1    C314092   1.676   4.005   9.290  1.0358  0.9120  0.1332
    2MPD1    C414093   1.556   4.041   9.341  0.5907 -0.5103 -0.0736
    2MPD1    C514094   1.518   4.171   9.342 -0.0169  0.1143  0.1766
    2MPD1     H14095   1.846   4.061   9.179 -0.7330 -1.0598 -0.3258
    2MPD1    H114096   1.488   3.965   9.380 -0.9861  0.3560 -1.1575
    2MPD1    H214097   1.570   4.371   9.292  1.6816 -0.0054 -1.2931
    2MPD1    H314098   1.424   4.188   9.394 -0.3413  2.2314 -1.1029
    2MPD1     N14099   1.723   3.870   9.287  0.3043  0.4480  0.2736
    2MPD1    H514100   1.811   3.860   9.239  1.9804  2.8242  2.8177
    2MPD1    N114101   1.810   4.326   9.172  0.1512  0.8247 -0.0942
    2MPD1    H614102   1.903   4.287   9.155 -0.6721 -1.1514 -0.0262
    2MPD1    H714103   1.832   4.412   9.222 -0.6020  0.1531  1.3693
    1MPD1     C14104   3.478   1.994  11.844  0.3500 -0.1354  0.1895
    1MPD1    C114105   3.375   1.918  11.894  0.3351  0.5752  0.4776
    1MPD1    C214106   3.268   1.909  11.815 -0.3039 -0.2927 -0.0933
    1MPD1    C314107   3.263   1.937  11.681  0.2024 -0.5379  0.0198
    1MPD1    C414108   3.378   1.994  11.627  0.6973  0.3919  0.1985
    1MPD1    C514109   3.481   2.028  11.711 -0.1380 -0.0734 -0.5446
    1MPD1     H14110   3.184   1.864  11.867  1.2692 -2.0221  0.9409
    1MPD1    H114111   3.381   2.032  11.526  0.0590  1.9689  0.7643
    1MPD1    H214112   3.559   2.027  11.908 -2.6039  0.9011  3.4792
    1MPD1    H314113   3.571   2.076  11.674  1.0942 -0.0186  2.5358
    1MPD1     N14114   3.144   1.934  11.609 -0.5491  0.2415  0.1186
    1MPD1    H514115   3.069   1.906  11.672 -0.6053  1.4693  0.6090
    1MPD1    N114116   3.365   1.883  12.027  0.1424 -0.1437 -0.1953
    1MPD1    H614117   3.305   1.802  12.041  1.1025 -1.6522 -4.6466
    1MPD1    H714118   3.458   1.859  12.060  0.0343  0.3170  0.4348
    2MPD1     C14119   1.618   3.066  11.551 -0.1902 -0.0953  0.2567
    2MPD1    C114120   1.508   2.982  11.523 -0.1735 -0.0518 -0.3431
    2MPD1    C214121   1.503   2.911  11.407 -0.0256  1.1648  0.1099
    2MPD1    C314122   1.610   2.908  11.320  0.1934  0.2587  0.2425
    2MPD1    C414123   1.712   2.994  11.343  0.5624  0.3973  0.1752
    2MPD1    C514124   1.723   3.072  11.455 -0.2575  0.3422 -0.6965
    2MPD1     H14125   1.420   2.846  11.381  1.5411 -0.7166 -0.2105
    2MPD1    H114126   1.791   2.996  11.268  1.1596 -0.4319  0.7794
    2MPD1    H214127   1.634   3.133  11.635  0.5982 -1.2294  1.0082
    2MPD1    H314128   1.817   3.124  11.463  0.2447 -0.8692  1.2447
    2MPD1     N14129   1.636   2.818  11.215  0.1550  0.1093 -0.1069
    2MPD1    H514130   1.735   2.823  11.194  0.6815  0.2702  2.3207
    2MPD1    N114131   1.418   2.961  11.633  0.3393  0.1338 -0.3438
    2MPD1    H614132   1.332   2.909  11.615  0.9935 -1.8293  2.1490
    2MPD1    H714133   1.389   3.050  11.673 -0.5802 -0.0628 -0.5726
    3MPD1     C14134   1.289   1.936  10.818  0.2667 -0.6695  0.0472
    3MPD1    C114135   1.280   1.975  10.951  0.2321 -0.5725 -0.2802
    3MPD1    C214136   1.348   2.092  10.984 -0.0467  0.1024 -0.3581
    3MPD1    C314137   1.413   2.173  10.894 -0.0428 -0.0307 -0.6262
    3MPD1    C414138   1.409   2.129  10.763 -0.4687 -0.1321 -0.0860
    3MPD1    C514139   1.346   2.018  10.721  0.1909 -0.0140 -0.2210
    3MPD1     H14140   1.339   2.131  11.085  0.4291 -0.9673  0.0963
    3MPD1    H114141   1.445   2.185  10.677  1.2729  0.3075  0.9403
    3MPD1    H214142   1.238   1.845  10.789  1.9300 -1.1216 -1.3827
    3MPD1    H314143   1.347   1.996  10.614 -2.2800 -0.5071 -0.1313
    3MPD1     N14144   1.465   2.297  10.929  0.0733 -0.3701  0.3471
    3MPD1    H514145   1.436   2.326  11.022  1.0922  1.2096  0.1837
    3MPD1    N114146   1.192   1.911  11.041 -0.0904  0.0462 -0.3007
    3MPD1    H614147   1.223   1.908  11.138 -1.1228  0.4468  0.0371
    3MPD1    H714148   1.183   1.814  11.011  0.8765 -0.0531 -0.2929
    4MPD2     C14149   2.562   2.439  11.593  0.5891  0.0458  0.5498
    4MPD2    C114150   2.634   2.396  11.480  0.6400 -0.3845  0.3255
    4MPD2    C214151   2.653   2.496  11.387 -0.2565 -0.1382 -0.4530
    4MPD2    C314152   2.616   2.628  11.406 -0.2582  0.2167 -0.2122
    4MPD2    C414153   2.550   2.654  11.518 -0.1303  0.1755 -0.1082
    4MPD2    C514154   2.515   2.563  11.611  0.1743 -0.3484  0.4753
    4MPD2     H14155   2.708   2.471  11.297  0.6967 -1.3686  0.4546
    4MPD2    H114156   2.517   2.756  11.534 -1.7481  0.2011 -3.6520
    4MPD2    H214157   2.549   2.373  11.678 -0.4594 -1.9898 -1.1718
    4MPD2    H314158   2.473   2.596  11.705  0.3968  2.3523 -0.3766
    4MPD2     N14159   2.640   2.721  11.306 -0.1686 -0.2156  0.1230
    4MPD2    H514160   2.701   2.690  11.230  0.0153 -1.3227  0.7145
    4MPD2    N114161   2.684   2.264  11.465 -0.0570 -0.0786 -0.6406
    4MPD2    H714162   2.713   2.233  11.373  0.7647 -0.5820 -0.2032
    5TMC3    C114163   2.767   2.051  11.511 -0.1048 -0.9087 -0.5283
    5TMC3    C214164   2.901   2.023  11.548  0.2770  0.3015  0.2189
    5TMC3    C314165   2.985   1.979  11.448  0.0608 -0.4631 -0.0589
    5TMC3    C414166   2.722   2.043  11.377 -0.7291  0.5774 -0.2577
    5TMC3    C514167   2.818   2.015  11.283 -1.1582  0.1284  0.3318
    5TMC3    C614168   2.948   1.975  11.317 -0.9221 -0.3720 -0.0799
    5TMC3     C14169   2.711   2.177  11.567 -0.7240 -0.3698  0.1325
    5TMC3     O14170   2.725   2.190  11.687  0.7120 -0.4902 -0.1332
    5TMC3     H14171   2.931   2.028  11.652  2.1194  0.7372 -0.3348
    5TMC3    H114172   2.619   2.062  11.352 -1.2597 -0.8512  0.8491
    5TMC3    H214173   3.011   1.952  11.232  1.5184  1.2651  1.3112
    5TMC3    C714174   2.797   2.105  11.173  0.5524 -0.5414  0.1182
    5TMC3    C814175   3.124   1.943  11.475 -0.9691  0.0237 -1.0510
    5TMC3    O114176   2.683   2.147  11.160  0.3389  0.8628  0.0554
    5TMC3    O214177   3.204   1.910  11.392  0.4412 -0.2283 -0.0260
    6TMC3    C114178   1.587   2.677  11.033  0.0641 -0.1239  0.5667
    6TMC3    C214179   1.542   2.559  10.993 -0.3749 -0.7526  0.1372
    6TMC3    C314180   1.596   2.496  10.893 -0.2531  0.1356  0.1258
    6TMC3    C414181   1.675   2.749  10.956  0.1511 -0.1855  0.0178
    6TMC3    C514182   1.720   2.688  10.841  0.1104  0.2744  0.3061
    6TMC3    C614183   1.694   2.555  10.815 -0.3539 -0.3088 -0.0927
    6TMC3     C14184   1.541   2.732  11.160  0.0243  0.1030  1.2026
    6TMC3     O14185   1.430   2.699  11.200  0.0998 -0.7280  0.9699
    6TMC3     H14186   1.446   2.525  11.030 -1.2810  0.5194 -1.0583
    6TMC3    H114187   1.697   2.854  10.970 -1.1541  0.0670  0.1644
    6TMC3    H214188   1.742   2.495  10.738  0.1786 -1.5792  1.2185
    6TMC3    C714189   1.845   2.736  10.798  0.5048 -0.5210 -0.6954
    6TMC3    C814190   1.542   2.370  10.842 -0.4643  0.6696  0.0032
    6TMC3    O114191   1.905   2.819  10.869  0.1059 -0.1854 -0.1932
    6TMC3    O214192   1.585   2.336  10.733  0.1398 -0.4110 -0.0361
    7MPD2     C14193   2.860   2.374  10.755 -0.1942  0.9519 -0.1476
    7MPD2    C114194   2.825   2.417  10.882  0.7136 -1.1803 -0.6457
    7MPD2    C214195   2.834   2.328  10.993  0.3069 -0.8010  0.4279
    7MPD2    C314196   2.903   2.205  10.975  0.2404 -0.7831 -0.0584
    7MPD2    C414197   2.969   2.174  10.855 -0.4879  0.0956  0.6165
    7MPD2    C514198   2.934   2.253  10.750 -0.2877  0.3579 -0.2721
    7MPD2     H14199   2.793   2.353  11.090 -2.7810  0.8322 -1.3043
    7MPD2    H114200   3.018   2.080  10.833  0.8881  0.8308  0.5803
    7MPD2    H214201   2.832   2.423  10.662  2.9930  0.9516 -1.1007
    7MPD2    H314202   2.962   2.218  10.651  1.8577  0.9676  0.1316
    7MPD2     N14203   2.901   2.108  11.083  0.1179 -0.2302  0.3127
    7MPD2    H514204   2.972   2.036  11.084 -0.4614 -0.8334 -1.5865
    7MPD2    N114205   2.772   2.549  10.890  0.2016 -0.3959  0.7969
    7MPD2    H714206   2.759   2.586  10.797  0.9885  2.0610  1.6566
    8TMC3    C114207   2.692   2.745  10.992  0.8743 -0.5142 -0.4444
    8TMC3    C214208   2.583   2.766  10.906 -0.5026 -0.6890  0.4031
    8TMC3    C314209   2.480   2.849  10.956  0.1523 -0.4866  0.2821
    8TMC3    C414210   2.706   2.828  11.104  0.0162  0.0573 -0.0781
    8TMC3    C514211   2.604   2.899  11.157  0.3771  0.2166 -0.1996
    8TMC3    C614212   2.488   2.909  11.083 -0.4442 -0.2463 -0.4731
    8TMC3     C14213   2.743   2.615  11.002 -0.2998 -0.3158 -0.6150
    8TMC3     O14214   2.770   2.588  11.116  0.3191 -0.0418  0.3117
    8TMC3     H14215   2.571   2.710  10.814 -1.3328  1.1662 -0.6324
    8TMC3    H114216   2.798   2.819  11.159  0.3295  0.6029 -0.5192
    8TMC3    H214217   2.403   2.955  11.131 -0.2986 -2.2047  1.6169
    8TMC3    C714218   2.569   2.838  11.284  0.3971  0.0865  0.0102
    8TMC3    C814219   2.351   2.835  10.897  0.6651  0.8386  0.4140
    8TMC3    O114220   2.455   2.864  11.327 -0.3023 -1.1058 -0.2154
    8TMC3    O214221   2.255   2.875  10.955  0.1768 -0.6039 -0.3732
    9MPD2     C14222   2.287   2.722  10.557 -0.1577  0.2762 -0.6872
    9MPD2    C114223   2.251   2.754  10.685 -0.2903 -0.3231 -0.2137
    9MPD2    C214224   2.128   2.733  10.732 -0.6734  0.4906 -0.2162
    9MPD2    C314225   2.034   2.680  10.646  0.6045  0.1776 -0.0930
    9MPD2    C414226   2.071   2.647  10.521 -0.5178 -0.1912 -0.9079
    9MPD2    C514227   2.197   2.673  10.476 -0.5005  0.3734  0.3130
    9MPD2     H14228   2.111   2.756  10.836 -0.8688 -2.7876  0.4728
    9MPD2    H114229   2.007   2.588  10.457  0.4018 -0.7521 -1.3089
    9MPD2    H214230   2.389   2.737  10.523  1.0187 -2.1942  1.8076
    9MPD2    H314231   2.218   2.640  10.375  1.2612  3.1284 -0.2143
    9MPD2     N14232   1.892   2.667  10.690 -0.7602  0.8561 -0.0664
    9MPD2    H514233   1.831   2.611  10.631 -1.4060  0.0183  1.3962
    9MPD2    N114234   2.359   2.803  10.768 -0.0829 -0.4278 -0.5047
    9MPD2    H714235   2.451   2.794  10.725  1.0275  3.0515  1.0841
    1MPD1     C14236   1.653   0.597  15.718  0.4058  0.3122 -0.0216
    1MPD1    C114237   1.689   0.731  15.746 -0.2429 -0.3210  0.3587
    1MPD1    C214238   1.752   0.796  15.643 -0.3649  0.0695 -0.6942
    1MPD1    C314239   1.804   0.729  15.540  0.3019 -0.1257 -0.1814
    1MPD1    C414240   1.787   0.594  15.533 -0.0754  0.2727  0.2147
    1MPD1    C514241   1.709   0.530  15.618  0.5649 -0.3521 -0.0828
    1MPD1     H14242   1.761   0.902  15.664  1.8135 -0.6894  2.2628
    1MPD1    H114243   1.840   0.532  15.462  0.2772 -1.7677  2.2779
    1MPD1    H214244   1.589   0.535  15.779 -3.2757  4.7696  0.6111
    1MPD1    H314245   1.683   0.426  15.601 -1.1558 -0.2446  1.9381
    1MPD1     N14246   1.876   0.789  15.433 -0.0350 -0.1805  0.2382
    1MPD1    H514247   1.890   0.725  15.355 -2.5532 -0.0510 -0.3129
    1MPD1    N114248   1.618   0.804  15.842 -0.1825 -0.5524  0.1662
    1MPD1    H614249   1.666   0.886  15.877 -0.0590 -0.4943 -0.1346
    1MPD1    H714250   1.591   0.752  15.925 -2.1923 -2.2542 -1.5286
    2MPD1     C14251   1.922   1.751  15.118 -0.6391 -0.4425 -0.4946
    2MPD1    C114252   1.811   1.678  15.130 -0.2299  0.1363  0.2146
    2MPD1    C214253   1.822   1.545  15.132  0.4013 -0.5709  0.4136
    2MPD1    C314254   1.945   1.484  15.128  0.4243 -0.2153  0.2240
    2MPD1    C414255   2.057   1.554  15.102  0.0277 -0.1763  0.6199
    2MPD1    C514256   2.042   1.692  15.103  0.3219 -0.9178  0.4379
    2MPD1     H14257   1.740   1.474  15.139 -1.8683  1.9720 -0.5190
    2MPD1    H114258   2.160   1.521  15.107  0.2377  0.6252  1.7951
    2MPD1    H214259   1.918   1.859  15.106  1.1602 -0.4850 -1.3218
    2MPD1    H314260   2.130   1.756  15.106  0.2325 -0.6653 -2.0883
    2MPD1     N14261   1.956   1.342  15.147  0.5755 -0.0397 -0.3999
    2MPD1    H514262   1.869   1.292  15.161 -0.6118  1.7524 -1.3024
    2MPD1    N114263   1.688   1.738  15.157  0.3794  0.2987 -0.0112
    2MPD1    H614264   1.682   1.836  15.130  0.0534  0.0154 -0.9714
    2MPD1    H714265   1.601   1.688  15.139 -0.0333  1.0398 -0.0593
    3TCq2    C114266   2.073   1.264  15.129  0.3353 -0.0684  0.5265
    3TCq2    O214267   2.182   1.297  15.083  0.3971 -0.6500 -0.0747
    3TCq2    C214268   2.047   1.123  15.158  0.5210 -0.1727 -0.2346
    3TCq2    C314269   2.117   1.035  15.088 -0.2621 -0.5063  0.1445
    3TCq2    C414270   2.098   0.906  15.118 -0.5208 -0.4421 -0.1982
    3TCq2    C514271   2.013   0.860  15.216 -1.2502  0.5061  0.6630
    3TCq2    C614272   1.942   0.957  15.284 -0.5332 -0.3342 -0.2206
    3TCq2    C714273   1.957   1.089  15.256  0.2958 -0.2900 -0.6241
    3TCq2    C814274   1.880   0.920  15.410 -0.5812  0.3003  0.0874
    3TCq2    O414275   1.848   1.014  15.484 -0.1648 -0.5413 -0.3044
    3TCq2    C914276   2.158   0.804  15.033 -0.9190 -0.3608 -0.5163
    3TCq2    O514277   2.240   0.845  14.951 -0.1171 -0.0894  0.2025
    3TCq2    O614278   2.121   0.685  15.057 -0.3630  0.1540 -0.0785
    3TCq2    H214279   2.177   1.065  15.003 -2.6886 -1.1983 -1.8337
    3TCq2    H314280   1.994   0.755  15.229 -1.1116  0.3723 -0.1884
    3TCq2    H414281   1.918   1.170  15.317  2.8536 -0.4540  1.2464
    1TCq1    O114282   0.029   3.988  12.626 -0.0102  0.6499 -0.6219
    1TCq1    C114283   4.669   3.989  12.737 -0.1699  0.7731 -0.7538
    1TCq1    O214284   4.544   3.987  12.741  0.2277  0.0599 -0.5071
    1TCq1    C214285   0.036   4.040  12.837  0.2422  0.5570  0.4166
    1TCq1    C314286   0.160   3.981  12.853  0.2871  0.3250  0.3685
    1TCq1    C414287   0.245   4.035  12.949  0.5441  0.3245 -0.9234
    1TCq1    C514288   0.217   4.154  13.018 -0.4753 -0.1281  1.0342
    1TCq1    C614289   0.088   4.198  13.005 -0.3151  0.6243 -0.5878
    1TCq1    C714290   4.717   4.141  12.915  0.0651 -0.0771  0.1456
    1TCq1    C814291   0.055   4.328  13.059 -0.3833  0.3850  0.1493
    1TCq1    O414292   4.658   4.358  13.060  0.2445 -0.4809  0.2253
    1TCq1    C914293   0.376   3.972  12.965  0.3537  0.0480  0.0080
    1TCq1    O514294   0.412   3.884  12.883 -0.5133 -0.0404 -0.1092
    1TCq1    O614295   0.460   4.032  13.034  0.2503  0.1733 -0.0909
    1TCq1    H114296   0.122   4.005  12.649  0.3496  0.0092 -1.5801
    1TCq1    H214297   0.190   3.890  12.802  1.4997  0.4575  0.8430
    1TCq1    H314298   0.286   4.191  13.094 -0.9074  2.6409  0.0850
    1TCq1    H414299   4.615   4.178  12.911  0.3073  0.3981 -1.5011
    2MPD2     C14300   0.043   4.615  13.140 -0.6386 -0.1302  0.2379
    2MPD2    C114301   0.159   4.537  13.146 -0.2749 -0.2736  0.3286
    2MPD2    C214302   0.271   4.590  13.201 -0.0865  0.6935  0.6709
    2MPD2    C314303   0.267   4.713  13.260 -0.6356 -0.2077 -0.8403
    2MPD2    C414304   0.151   0.072  13.253  0.2341 -0.7473  0.6480
    2MPD2    C514305   0.039   0.022  13.186  0.1160  0.2697  0.5271
    2MPD2     H14306   0.353   4.520  13.205 -1.3223 -0.8380 -0.6966
    2MPD2    H114307   0.161   0.171  13.294 -1.4460  0.1361 -1.0804
    2MPD2    H214308   4.673   4.585  13.089 -0.4908 -1.1503  0.5726
    2MPD2    H314309   4.667   0.077  13.177 -0.3883 -0.6845 -0.1004
    2MPD2     N14310   0.380   0.047  13.340  0.1544 -0.1633 -0.1069
    2MPD2    H514311   0.371   0.138  13.384  0.9283 -0.8247  1.4150
    2MPD2    N114312   0.167   4.407  13.086  0.2886 -0.1294  0.4978
    2MPD2    H714313   0.257   4.362  13.094 -0.0764 -0.7047  1.3890
    3TCq1    O114314   0.712   0.308  13.812  0.0020 -0.2819 -0.1402
    3TCq1    C114315   0.629   0.312  13.705 -0.3136 -0.4005  0.2836
    3TCq1    O214316   0.534   0.384  13.682 -0.1246 -0.1945 -0.4857
    3TCq1    C214317   0.664   0.211  13.608 -0.5687  0.1028 -0.1298
    3TCq1    C314318   0.795   0.163  13.596 -0.2283  0.1020 -0.4687
    3TCq1    C414319   0.822   0.055  13.514  0.1047 -0.2072 -0.5054
    3TCq1    C514320   0.721   4.709  13.444  0.6576  0.0690 -0.1383
    3TCq1    C614321   0.595   0.039  13.451 -0.0691  0.0781 -0.5771
    3TCq1    C714322   0.568   0.150  13.532  0.5040 -0.0637 -0.2906
    3TCq1    C814323   0.500   4.703  13.355  0.6455  0.3160 -0.0826
    3TCq1    O414324   0.543   4.604  13.292  0.4760 -0.1781 -0.3205
    3TCq1    C914325   0.959   0.000  13.517 -0.2717  0.1175  0.9118
    3TCq1    O514326   0.977   4.607  13.472 -0.0434 -0.3841 -0.2479
    3TCq1    O614327   1.047   0.072  13.570 -0.0318 -0.1681 -0.0341
    3TCq1    H114328   0.760   0.223  13.821  1.4192  0.5779  0.2378
    3TCq1    H214329   0.875   0.210  13.653 -1.3273  1.0266  0.3117
    3TCq1    H314330   0.752   4.622  13.387  2.4681 -0.6615  1.9719
    3TCq1    H414331   0.471   0.194  13.550  0.3447 -0.2664 -0.6808
    1MPD2     C14332   4.485   1.597  14.281  0.2294 -0.5226 -0.0276
    1MPD2    C114333   4.481   1.465  14.281 -0.0704 -0.1023  0.3950
    1MPD2    C214334   4.598   1.389  14.299  0.7538 -0.1837  0.1862
    1MPD2    C314335   4.716   1.456  14.320 -0.1914 -0.8741  0.3533
    1MPD2    C414336   4.719   1.593  14.315 -0.2119 -0.7678  0.3380
    1MPD2    C514337   4.605   1.659  14.298  0.0387 -0.5021  0.6825
    1MPD2     H14338   4.601   1.281  14.313 -1.5913 -0.1409  1.0371
    1MPD2    H114339   0.090   1.650  14.308 -0.9797  0.2877 -1.0524
    1MPD2    H214340   4.397   1.660  14.272  0.7503  0.2850  0.5609
    1MPD2    H314341   4.611   1.767  14.297  1.2997 -0.5714  1.6242
    1MPD2     N14342   0.117   1.393  14.353  0.4315 -0.2015  0.5692
    1MPD2    H514343   0.195   1.452  14.380  0.4338  0.4191 -0.8135
    1MPD2    N114344   4.351   1.398  14.262  0.7131  0.5313  0.1939
    1MPD2    H714345   4.269   1.456  14.248 -0.4200 -1.3811 -1.1920
    2TMC3    C114346   4.192   1.217  14.287  0.5400 -0.3015 -0.3800
    2TMC3    C214347   4.186   1.081  14.287 -0.5707 -0.1198 -0.3426
    2TMC3    C314348   4.131   1.011  14.395 -0.8191  0.4735 -0.0828
    2TMC3    C414349   4.127   1.286  14.388  0.3135 -0.4194 -0.0442
    2TMC3    C514350   4.074   1.215  14.493  0.3005  0.2010  0.2807
    2TMC3    C614351   4.079   1.077  14.499  0.1584 -0.3182 -0.0158
    2TMC3     C14352   4.329   1.260  14.273 -0.1854 -0.0192 -0.6071
    2TMC3     O14353   4.409   1.170  14.265  0.0276  0.0408 -0.2517
    2TMC3     H14354   4.215   1.020  14.202 -1.3486  0.8094 -1.2876
    2TMC3    H114355   4.116   1.393  14.379  2.4472 -0.1012  1.3081
    2TMC3    H214356   4.047   1.023  14.587 -0.7134 -1.1249 -0.8258
    2TMC3    C714357   4.034   1.308  14.598  0.1981 -0.0238  0.4364
    2TMC3    C814358   4.220   0.909  14.438  0.3467  0.3006  0.2802
    2TMC3    O114359   4.077   1.423  14.592 -0.1202  0.2004  0.7029
    2TMC3    O214360   4.166   0.808  14.483  0.0865  0.3537  0.2949
    3TCq1    O114361   4.391   1.808  15.002  0.2748  0.3891  0.2738
    3TCq1    C114362   4.373   1.917  15.083 -0.0999 -0.9787 -0.4171
    3TCq1    O214363   4.450   2.015  15.090 -0.1753  0.6007  0.1766
    3TCq1    C214364   4.234   1.907  15.126  0.5188 -0.6117  0.6515
    3TCq1    C314365   4.172   2.024  15.125  0.3745  0.5090  0.6357
    3TCq1    C414366   4.036   2.030  15.125 -0.6799 -0.0654  0.8845
    3TCq1    C514367   3.955   1.921  15.107 -0.2362  1.1728  0.8360
    3TCq1    C614368   4.018   1.803  15.101 -0.1912  0.6167 -0.5702
    3TCq1    C714369   4.153   1.794  15.112  0.5154  0.1391 -0.5747
    3TCq1    C814370   3.931   1.690  15.107 -0.3868  0.4079 -0.2606
    3TCq1    O414371   3.828   1.692  15.171 -0.1011  0.3930 -0.4316
    3TCq1    C914372   3.964   2.159  15.119  0.0035 -0.8796  0.9305
    3TCq1    O514373   4.025   2.265  15.100 -0.0122 -0.4904  0.3945
    3TCq1    O614374   3.837   2.147  15.118  0.2746  0.8039 -0.4117
    3TCq1    H114375   4.314   1.748  14.992  1.2423 -1.0288  1.2807
    3TCq1    H214376   4.223   2.120  15.122  2.2211 -0.6313 -2.8948
    3TCq1    H314377   3.852   1.930  15.076 -0.0697 -1.6883 -0.5638
    3TCq1    H414378   4.200   1.697  15.115  2.3261  1.0529  0.9131
    4MPD2     C14379   3.793   1.420  15.031  0.5702  0.1507  0.0278
    4MPD2    C114380   3.905   1.483  14.969 -0.0261 -0.0733 -0.3265
    4MPD2    C214381   3.955   1.413  14.861  0.1259 -0.0951 -0.7078
    4MPD2    C314382   3.911   1.296  14.811  0.7020 -0.3356 -0.1915
    4MPD2    C414383   3.816   1.227  14.882 -0.4591  0.1020 -0.7819
    4MPD2    C514384   3.754   1.295  14.988  0.1974 -0.0719  0.4037
    4MPD2     H14385   4.038   1.452  14.804  1.2879  1.7452  2.2428
    4MPD2    H114386   3.776   1.134  14.843 -1.2462  0.0215  0.2199
    4MPD2    H214387   3.733   1.460  15.111  0.6940  0.4598 -0.0330
    4MPD2    H314388   3.679   1.243  15.047  1.2933 -3.5436 -1.2555
    4MPD2     N14389   3.953   1.243  14.681  0.6485  0.1681  0.1943
    4MPD2    H514390   3.910   1.154  14.657  0.7270  0.2867 -0.3804
    4MPD2    N114391   3.971   1.599  15.012 -0.2552  0.1586  0.8419
    4MPD2    H714392   4.054   1.619  14.957 -0.6892  0.0756  0.1537
    5TMC2    C114393   0.307   0.983  14.504 -0.6453  0.6891  0.5813
    5TMC2    C214394   0.365   1.042  14.615 -0.5848 -0.0236  0.0119
    5TMC2    C314395   0.364   1.180  14.623  0.2018 -0.3848 -0.1264
    5TMC2    C414396   0.260   1.060  14.401 -0.5114  0.9368  0.1886
    5TMC2    C514397   0.259   1.195  14.413 -0.5675  0.1481  0.1737
    5TMC2    C614398   0.310   1.257  14.523  0.0224 -0.1263  0.2693
    5TMC2     C14399   0.224   0.867  14.536  0.0675  0.3781  0.0241
    5TMC2     O14400   0.231   0.809  14.643  0.1377  0.5235 -0.0782
    5TMC2     H14401   0.422   0.981  14.684  0.9307  0.5778 -0.7150
    5TMC2    H114402   0.236   1.021  14.303 -0.4178 -0.6743  0.8134
    5TMC2    H214403   0.306   1.364  14.535  0.9138  0.0620 -1.1062
    5TMC2    C714404   0.139   1.253  14.348 -0.4687 -0.0809  0.7834
    5TMC2    C814405   0.457   1.254  14.707 -0.3622  0.1516  0.3345
    5TMC2    O114406   0.074   1.160  14.296  0.6449 -0.0297  0.1401
    5TMC2    O214407   0.503   1.360  14.675  0.0723  0.1856 -0.3535
    5TMC2    O514408   0.474   1.196  14.827  0.6301 -0.1789  0.1148
    5TMC2    H514409   0.408   1.128  14.852  0.5378 -0.6509 -1.4750
    6MPD2     C14410   4.451   0.753  14.550 -0.2933 -0.2322 -0.2581
    6MPD2    C114411   4.465   0.863  14.467  0.0070  0.5858 -0.2589
    6MPD2    C214412   4.595   0.904  14.438 -0.5777  0.0482 -0.4400
    6MPD2    C314413   4.705   0.832  14.494  0.5616  0.2479 -0.0304
    6MPD2    C414414   4.689   0.720  14.575  0.0258  0.3376  0.5826
    6MPD2    C514415   4.559   0.687  14.606  0.0975  0.2015  0.5108
    6MPD2     H14416   4.611   1.001  14.392 -2.5650  0.3269 -0.5603
    6MPD2    H114417   0.050   0.656  14.605 -3.0538 -3.9135 -0.0934
    6MPD2    H214418   4.352   0.720  14.580 -0.3283 -0.5612 -0.7454
    6MPD2    H314419   4.544   0.600  14.669  2.2664  0.1283  0.9223
    6MPD2     N14420   0.105   0.890  14.469  0.6151  0.2894  0.0721
    6MPD2    H514421   0.110   0.958  14.394 -0.4230  1.5855  1.1872
    6MPD2    N114422   4.356   0.936  14.411 -0.4013  0.3765 -0.1055
    6MPD2    H714423   4.371   1.015  14.349  0.0156  1.2744  1.1407
  945NH4     N114424   3.429   3.125   7.345  0.5415  0.5964 -0.3124
  945NH4     H214425   3.504   3.132   7.274 -1.8130  2.0103 -2.6755
  945NH4     H314426   3.465   3.152   7.439 -0.6918 -0.1156  0.3695
  945NH4     H414427   3.392   3.029   7.357 -1.3090  1.6859  3.0033
  945NH4     H514428   3.342   3.174   7.315 -0.5596 -0.8895  0.4156
  946SOD     NA14429   0.189   1.403   0.448  0.1439 -0.3411 -0.2784
  947SOD     NA14430   2.427   0.935  14.951  0.3707 -0.4308  0.2637
  948SOD     NA14431   1.825   4.606   0.206 -0.3355 -0.2129 -0.2090
  949SOD     NA14432   0.085   1.920   9.787  0.0250  0.0810  0.3932
  950SOD     NA14433   4.325   4.275  14.837  0.3633 -0.1687  0.0191
  951SOD     NA14434   0.132   4.590  11.570  0.5051 -0.1514  0.0734
  952SOD     NA14435   0.861   3.232   8.079  0.5737 -0.4351 -0.3328
  953SOD     NA14436   0.012   4.570  10.834 -0.1922  0.1992 -0.2465
  954SOD     NA14437   0.439   4.058  12.664 -0.3709  0.6735  0.2086
  955SOD     NA14438   0.804   1.601  12.036 -0.0403  0.3286 -0.1291
  956SOD     NA14439   3.227   0.119  11.338  0.1936 -0.7351  0.0562
  957SOD     NA14440   4.296   2.202   0.200 -0.1800  0.0926 -0.0750
  958SOD     NA14441   1.804   2.968   2.293 -0.3339 -0.2329  0.2714
  959SOD     NA14442   3.435   0.340   9.875  0.2319 -0.2160  0.7276
  960SOD     NA14443   1.774   4.204  13.245  0.1091 -0.1570 -0.2683
  961SOD     NA14444   3.917   4.423  10.533 -0.8114 -0.3398 -0.1051
  962SOD     NA14445   0.211   1.891   8.321 -0.5504 -0.0448  0.2900
  963SOD     NA14446   0.788   4.621   3.868 -0.4854 -0.1274  0.0903
  964SOD     NA14447   1.966   4.494   0.629  0.0231  0.5787 -0.3088
  965SOD     NA14448   0.300   4.095  12.400 -0.0345 -0.4621 -0.2927
  966SOD     NA14449   2.625   2.459   3.380 -0.1214  0.4584 -0.0963
  967SOD     NA14450   0.629   4.434  12.264  0.3894 -0.6630 -0.1311
  968SOD     NA14451   2.789   0.578  10.157  0.2955 -0.4037  0.0667
  969SOD     NA14452   3.861   0.387  12.494 -0.1386 -0.0904 -0.2326
  970SOD     NA14453   1.539   3.719   0.533 -0.1605 -0.3674 -0.4499
  971SOD     NA14454   3.022   3.555   9.813 -0.1478  0.6329  0.4088
  972SOD     NA14455   1.798   3.913  14.214 -0.0766 -0.0262 -0.0818
  973SOD     NA14456   3.430   0.868  11.249  0.2632  0.0354 -0.5295
  974SOD     NA14457   3.821   4.543  10.838 -0.0452  0.1141  0.1818
  975SOD     NA14458   4.263   0.584   9.877  0.0418  0.1818  0.4685
  976SOD     NA14459   0.550   4.155  15.475 -0.8238 -0.1101 -0.2021
  977SOD     NA14460   4.433   1.691  15.684 -0.1697 -0.2161 -0.4275
  978SOD     NA14461   1.431   2.902   1.666  0.0516 -0.0419  0.3419
  979SOD     NA14462   1.223   1.403   2.884 -0.6802  0.0909  0.0428
  980SOD     NA14463   1.313   0.413  15.085  0.6175 -0.1151  0.2012
  981SOD     NA14464   1.431   3.692   7.164 -0.3572 -0.2547  0.1693
  982SOD     NA14465   0.712   0.428  11.737 -0.0785 -0.2266  0.4762
  983SOD     NA14466   1.815   4.611   0.874  0.0553  0.0137 -0.4325
  984SOD     NA14467   2.891   0.154   2.831 -0.1630 -0.2140 -0.2325
  985SOD     NA14468   2.333   0.799   0.734 -0.1554  0.1561 -0.7937
  986SOD     NA14469   4.233   0.067  15.453  1.0886 -0.3051  0.0328
  987SOD     NA14470   1.913   2.102  16.411  0.3092 -0.5768  0.0325
  988SOD     NA14471   1.256   4.331   1.254  0.4207 -0.1395  0.1435
  989SOD     NA14472   3.960   0.249   3.087 -0.4906  0.4304  0.0907
  990SOD     NA14473   0.688   0.434   2.159  0.3279  0.2684  0.4203
  991SOD     NA14474   1.336   2.211  14.922 -0.0471  0.2314  0.1816
  992SOD     NA14475   2.889   4.571  12.604  0.3160  0.2158 -0.2728
  993SOD     NA14476   2.624   3.649  15.340  0.4596  0.3009 -0.4680
  994SOD     NA14477   0.107   1.755  15.066  0.1756  0.2188 -0.2024
  995SOD     NA14478   3.399   0.051  13.564 -0.0512 -0.0441  0.3785
  996SOD     NA14479   1.475   0.121  14.610  0.6182 -0.1530 -0.6267
  997SOD     NA14480   3.630   1.364   2.440 -0.0786 -0.2437 -0.2607
  998SOD     NA14481   3.569   2.153   0.880 -0.3122  0.9192  0.0086
  999SOD     NA14482   0.133   2.005  10.720 -0.2366  0.2470  0.0020
 1000SOD     NA14483   0.472   3.781  12.200 -0.0735  0.1496  0.1914
 1001SOD     NA14484   1.078   2.078  14.604 -0.6233 -0.1758 -0.3506
 1002SOD     NA14485   2.397   1.351  12.739  0.4811  0.5217 -0.2615
 1003SOD     NA14486   4.561   0.964   9.567 -0.2468  0.2646  0.1527
 1004SOD     NA14487   3.516   2.355  13.050 -0.1887 -0.0964  0.4452
 1005SOD     NA14488   2.577   0.664  14.982 -0.1772  0.3129 -0.1875
 1006SOD     NA14489   0.168   3.795  12.216  0.1806 -0.1730  0.1982
 1007SOD     NA14490   1.106   0.436  15.413  0.1251  0.2477 -0.2382
 1008SOD     NA14491   0.359   1.885  10.988 -0.5318 -0.0118 -0.5806
 1009SOD     NA14492   2.258   3.602  10.865  0.0388 -0.6260  0.1294
 1010SOD     NA14493   1.028   4.470  13.320  0.7037 -0.1708  0.2578
 1011SOL     OW14494   2.546   1.527   5.131 -0.6956 -0.3793 -0.1443
 1011SOL    HW114495   2.480   1.518   5.200  0.9644  0.1333  1.5046
 1011SOL    HW214496   2.504   1.486   5.055 -1.3758 -0.6984  0.3966
 1012SOL     OW14497   2.313   1.856  17.679 -0.2344  0.2274  0.0970
 1012SOL    HW114498   2.236   1.808  17.648 -0.0039  0.3920 -0.7414
 1012SOL    HW214499   2.273   1.937   0.026  0.6356  0.7298 -0.0895
 1013SOL     OW14500   2.107   2.279   3.373 -0.4143  0.3676  0.1813
 1013SOL    HW114501   2.047   2.329   3.319  0.0643 -0.2413 -0.9058
 1013SOL    HW214502   2.132   2.215   3.307 -1.0320  0.3677 -0.0545
 1014SOL     OW14503   2.688   4.325   7.048 -0.1399  0.0066  0.4112
 1014SOL    HW114504   2.659   4.413   7.072 -3.4393 -1.6234  2.3158
 1014SOL    HW214505   2.639   4.259   7.097  2.5310 -1.6235  0.9292
 1015SOL     OW14506   2.633   1.591  13.051  0.2669 -0.1251 -0.1834
 1015SOL    HW114507   2.689   1.669  13.048 -1.3227  1.0840  1.9499
 1015SOL    HW214508   2.546   1.630  13.058  1.2309  2.1638 -0.8119
 1016SOL     OW14509   1.786   3.924   4.315 -0.0845  0.5504 -0.6440
 1016SOL    HW114510   1.740   3.872   4.249  0.1832 -0.9166  0.3480
 1016SOL    HW214511   1.751   4.013   4.304 -1.5792 -0.1029 -1.2521
 1017SOL     OW14512   2.428   3.170   7.059  0.1156  0.0407  0.2122
 1017SOL    HW114513   2.438   3.148   6.967  1.0983 -0.8550  0.5364
 1017SOL    HW214514   2.355   3.232   7.062 -0.4512 -0.6740  1.2348
 1018SOL     OW14515   2.363   1.822  16.336  0.0943  0.2979 -0.3996
 1018SOL    HW114516   2.365   1.808  16.241 -1.5859  0.5960 -0.4694
 1018SOL    HW214517   2.290   1.879  16.359  0.2509  0.1439  0.4791
 1019SOL     OW14518   1.192   1.536   7.760 -0.0889  0.0697  0.1164
 1019SOL    HW114519   1.213   1.569   7.673 -0.7075 -0.0307 -0.0744
 1019SOL    HW214520   1.157   1.449   7.740 -0.8866  0.1996  0.9418
 1020SOL     OW14521   0.145   1.371   2.566  0.3948  0.0020  0.6952
 1020SOL    HW114522   0.183   1.295   2.610 -1.9792 -0.8667  1.2396
 1020SOL    HW214523   0.066   1.377   2.620  0.2464  1.0388  0.3601
 1021SOL     OW14524   0.184   2.689   4.567  0.4217 -0.3709  0.3276
 1021SOL    HW114525   0.173   2.594   4.562  1.6154 -0.3913 -2.2420
 1021SOL    HW214526   0.268   2.707   4.525  0.5669  0.4346  0.9492
 1022SOL     OW14527   3.747   0.645   3.843  0.3657 -0.4950  0.2737
 1022SOL    HW114528   3.784   0.689   3.767 -1.7528 -1.3078 -1.2315
 1022SOL    HW214529   3.687   0.714   3.874  2.3355  1.5952 -0.5546
 1023SOL     OW14530   0.656   0.035   1.505 -0.3803 -0.3657  0.1022
 1023SOL    HW114531   0.715   4.682   1.518  1.3941  0.9519 -0.5550
 1023SOL    HW214532   0.640   0.023   1.412  1.5155  0.5775 -0.3446
 1024SOL     OW14533   2.309   0.944   0.926 -0.0057  0.0384  0.0857
 1024SOL    HW114534   2.229   0.965   0.974 -1.0822 -1.2227 -1.1394
 1024SOL    HW214535   2.317   1.023   0.873  0.0351  0.2339  0.3845
 1025SOL     OW14536   3.393   3.416   2.763 -0.0615  0.7458 -0.1605
 1025SOL    HW114537   3.323   3.375   2.814  1.5069  0.1103  1.4829
 1025SOL    HW214538   3.412   3.337   2.713 -1.1203  0.9074 -0.8111
 1026SOL     OW14539   4.438   0.302  14.040  1.1432  0.5052  0.1973
 1026SOL    HW114540   4.514   0.249  14.064  0.8562  0.3617  0.8106
 1026SOL    HW214541   4.454   0.383  14.089 -0.1969 -0.1299  1.6971
 1027SOL     OW14542   0.226   0.453   8.905  0.0225  0.0381 -0.0825
 1027SOL    HW114543   0.322   0.459   8.901 -0.1493  2.0213 -1.3721
 1027SOL    HW214544   0.209   0.428   8.814 -3.2119 -0.6022  0.7223
 1028SOL     OW14545   4.352   2.386  17.593 -0.5575  0.0297 -0.2306
 1028SOL    HW114546   4.391   2.300  17.609 -1.0581 -0.2553 -0.5702
 1028SOL    HW214547   4.436   2.432  17.599 -1.2074  1.4120 -1.9115
 1029SOL     OW14548   2.515   1.214   3.046  0.5096 -0.7089 -0.0281
 1029SOL    HW114549   2.482   1.168   3.124 -1.0194 -1.0416 -0.8803
 1029SOL    HW214550   2.609   1.195   3.052  0.1980 -2.1178  0.3148
 1030SOL     OW14551   0.434   1.480   5.995  0.7104  0.1524 -0.3524
 1030SOL    HW114552   0.439   1.385   6.000  1.9573  0.2541  0.1863
 1030SOL    HW214553   0.514   1.501   5.948 -0.1144  0.9712 -1.3901
 1031SOL     OW14554   3.648   3.053  17.460  0.4991  0.3471  0.4242
 1031SOL    HW114555   3.674   3.016  17.545  1.1153 -0.7246 -0.2365
 1031SOL    HW214556   3.704   3.131  17.457  0.5668  0.2876  0.1428
 1032SOL     OW14557   0.300   1.324   4.294  0.1779 -0.2103 -0.7956
 1032SOL    HW114558   0.355   1.262   4.246  1.4683 -1.6947  2.6133
 1032SOL    HW214559   0.356   1.402   4.294 -0.6504  0.3852  1.5784
 1033SOL     OW14560   4.186   0.993   6.781 -0.1641  1.1691  0.2090
 1033SOL    HW114561   4.121   0.999   6.852  0.7023 -0.5824  1.1369
 1033SOL    HW214562   4.131   0.964   6.708 -0.2217  0.1576  0.6567
 1034SOL     OW14563   0.058   2.363  15.059 -0.1134  0.2104  0.0160
 1034SOL    HW114564   0.037   2.326  15.145  0.2556  0.5268  0.2418
 1034SOL    HW214565   0.134   2.310  15.035  0.4770  1.0498  0.0270
 1035SOL     OW14566   4.325   4.011   4.246 -0.2298 -0.3711 -0.2324
 1035SOL    HW114567   4.237   4.048   4.248 -0.2397 -0.4492  0.5456
 1035SOL    HW214568   4.337   3.988   4.338  3.0497  1.4078 -0.1919
 1036SOL     OW14569   3.473   4.474   8.247  0.2590 -0.2348 -0.1454
 1036SOL    HW114570   3.393   4.504   8.290  0.2668 -0.0151 -0.2842
 1036SOL    HW214571   3.476   4.379   8.262  0.7617 -0.0605  0.8719
 1037SOL     OW14572   1.283   2.971  14.935  0.3098 -0.1201 -0.2924
 1037SOL    HW114573   1.276   3.059  14.972 -0.4903  0.4411 -1.7713
 1037SOL    HW214574   1.273   2.993  14.843 -0.7412  0.0249 -0.1471
 1038SOL     OW14575   2.045   3.153  14.023  0.3858  0.0820  0.0907
 1038SOL    HW114576   1.982   3.081  14.019 -0.0537  0.3825  1.5070
 1038SOL    HW214577   2.078   3.149  14.112 -2.2211  1.7846  1.1502
 1039SOL     OW14578   3.300   1.653  12.468 -0.2241 -0.5732  0.3291
 1039SOL    HW114579   3.326   1.701  12.546 -2.9442 -1.5191  1.7992
 1039SOL    HW214580   3.206   1.643  12.479 -0.5371 -1.9481 -3.4375
 1040SOL     OW14581   2.842   1.771   2.676 -0.1126 -0.2395  0.0821
 1040SOL    HW114582   2.927   1.728   2.690 -1.2539 -2.3686  0.5110
 1040SOL    HW214583   2.827   1.764   2.582  0.6406 -1.1399  0.0329
 1041SOL     OW14584   0.080   1.172  16.332  0.5700 -0.6344  0.6314
 1041SOL    HW114585   0.026   1.224  16.273  0.4300 -0.5290  0.8490
 1041SOL    HW214586   0.056   1.210  16.417  0.7309 -0.2562  0.5077
 1042SOL     OW14587   0.887   0.871   0.271 -0.0869 -0.0728  0.3012
 1042SOL    HW114588   0.801   0.912   0.268  0.2060  0.4744 -0.8104
 1042SOL    HW214589   0.886   0.810   0.196  0.0715 -2.4482  2.2210
 1043SOL     OW14590   0.467   0.936   4.199 -0.0917  0.4774  0.2566
 1043SOL    HW114591   0.501   1.023   4.179  2.2357 -0.2121  1.2460
 1043SOL    HW214592   0.380   0.954   4.162 -0.2087 -1.0518 -0.2150
 1044SOL     OW14593   3.036   4.299   1.755  0.0256 -0.4203 -0.5468
 1044SOL    HW114594   3.074   4.370   1.705 -1.8897  0.2493 -1.0673
 1044SOL    HW214595   3.101   4.231   1.736 -0.1936 -1.6161  2.9519
 1045SOL     OW14596   0.534   4.061   3.042  0.3151  0.4822  0.3936
 1045SOL    HW114597   0.441   4.069   3.063 -0.3746 -0.3097 -2.4568
 1045SOL    HW214598   0.554   3.967   3.040 -2.2945 -0.0899  0.7183
 1046SOL     OW14599   1.601   3.301  15.875  0.9479 -0.2438  0.5573
 1046SOL    HW114600   1.686   3.298  15.918  1.8934 -0.2716 -1.3228
 1046SOL    HW214601   1.622   3.325  15.785 -0.9970 -0.0280  0.1519
 1047SOL     OW14602   3.072   3.661  14.799  0.0646 -0.0396  0.1806
 1047SOL    HW114603   2.997   3.682  14.854 -0.2800 -2.0142  0.4602
 1047SOL    HW214604   3.122   3.607  14.860  0.6565 -1.0382 -1.1834
 1048SOL     OW14605   3.685   2.128  10.007 -0.0771 -0.6134 -0.2000
 1048SOL    HW114606   3.616   2.067  10.032  0.1912 -0.1073  1.8071
 1048SOL    HW214607   3.758   2.072  10.036  0.9896  1.1077  0.4602
 1049SOL     OW14608   1.150   0.571   8.656  0.4581  0.2763 -0.0886
 1049SOL    HW114609   1.176   0.516   8.582  1.2750  1.7587 -0.8979
 1049SOL    HW214610   1.228   0.570   8.711  0.2997  0.4527  0.1371
 1050SOL     OW14611   2.292   3.528   8.929 -0.7091  0.8961 -0.5897
 1050SOL    HW114612   2.207   3.490   8.951 -0.8919  1.6205 -0.0605
 1050SOL    HW214613   2.280   3.617   8.961  1.8461 -0.0709  3.0676
 1051SOL     OW14614   2.344   3.779  17.189 -0.1230 -0.0500  0.0730
 1051SOL    HW114615   2.277   3.794  17.256  0.9313  1.1641  0.8673
 1051SOL    HW214616   2.375   3.869  17.177 -1.6701  0.6784  1.6319
 1052SOL     OW14617   2.085   0.581   4.531 -0.1123 -0.3038 -0.2903
 1052SOL    HW114618   2.022   0.509   4.523 -1.0187  0.3893  0.6889
 1052SOL    HW214619   2.044   0.633   4.461 -0.1943  0.9294  0.6762
 1053SOL     OW14620   3.159   3.499  15.024 -0.7864 -0.0812 -0.5331
 1053SOL    HW114621   3.075   3.490  15.069 -2.3311 -1.5749 -3.7245
 1053SOL    HW214622   3.209   3.430  15.068  0.9124  1.5012  0.0398
 1054SOL     OW14623   1.064   1.345  12.138 -0.4502 -1.0710  0.4029
 1054SOL    HW114624   1.013   1.420  12.170  0.5502 -0.5762  0.8147
 1054SOL    HW214625   1.124   1.334  12.211 -0.8885 -0.3152  0.8860
 1055SOL     OW14626   3.046   2.443   0.677 -0.3790 -0.3710 -0.0411
 1055SOL    HW114627   3.084   2.427   0.763  0.6564  2.0582 -0.0496
 1055SOL    HW214628   3.067   2.535   0.661 -0.7482 -0.0692  1.1932
 1056SOL     OW14629   0.232   1.605   9.989 -0.2329  0.1912 -0.2259
 1056SOL    HW114630   0.237   1.650   9.904 -3.6624  2.0621  0.5818
 1056SOL    HW214631   0.172   1.666  10.031  0.1285  0.0649  0.4693
 1057SOL     OW14632   3.928   2.223   0.843  0.0529  0.3165  0.3190
 1057SOL    HW114633   3.852   2.165   0.840  0.2923 -0.0541  1.6311
 1057SOL    HW214634   4.001   2.165   0.861 -0.0967 -0.2047 -0.7321
 1058SOL     OW14635   0.560   4.584   0.569 -0.0525  0.4071 -0.4450
 1058SOL    HW114636   0.530   4.673   0.587 -0.5505  0.8688 -3.4621
 1058SOL    HW214637   0.561   4.588   0.473  1.6797  0.6544 -0.4305
 1059SOL     OW14638   0.583   3.884   4.293  0.0881 -0.1464 -0.5801
 1059SOL    HW114639   0.558   3.952   4.231  0.0667  0.8105  0.4883
 1059SOL    HW214640   0.674   3.906   4.312  0.4295 -0.2257 -2.0883
 1060SOL     OW14641   0.171   1.855   2.431 -0.5622  0.1704  0.2986
 1060SOL    HW114642   0.077   1.851   2.414 -0.4671 -2.1187  0.2678
 1060SOL    HW214643   0.183   1.791   2.502  0.7862 -1.0353 -1.0024
 1061SOL     OW14644   1.709   0.582  10.405 -0.3064 -0.0153  0.3324
 1061SOL    HW114645   1.622   0.546  10.386  0.4161 -1.2503 -0.5777
 1061SOL    HW214646   1.698   0.617  10.494  0.6036 -0.9856  0.8221
 1062SOL     OW14647   4.373   1.992   2.698 -0.3321  0.0836 -0.0705
 1062SOL    HW114648   4.349   2.077   2.660 -1.9826 -0.4383 -0.1881
 1062SOL    HW214649   4.324   1.984   2.780 -0.6892  1.4455 -0.1540
 1063SOL     OW14650   2.358   3.217   1.895  0.2652 -0.2315  0.1773
 1063SOL    HW114651   2.351   3.302   1.852 -2.3361 -0.6446 -0.2241
 1063SOL    HW214652   2.452   3.198   1.890  0.3373 -0.1519  1.2928
 1064SOL     OW14653   4.391   2.917   8.855  0.1901 -0.4232  0.0962
 1064SOL    HW114654   4.301   2.895   8.829 -0.6051  0.7865  1.8170
 1064SOL    HW214655   4.378   3.008   8.881  2.5056 -0.2026  0.4495
 1065SOL     OW14656   3.126   3.685   3.109  0.7611  0.0780  0.1330
 1065SOL    HW114657   3.220   3.687   3.128  0.6943  3.3174  0.0771
 1065SOL    HW214658   3.130   3.718   3.019 -0.2709 -0.2690 -0.0392
 1066SOL     OW14659   2.427   0.955   0.259 -0.2401 -0.0433 -0.0531
 1066SOL    HW114660   2.338   0.940   0.290 -0.2156 -0.0558  0.0124
 1066SOL    HW214661   2.432   1.050   0.269 -0.2449  0.1303 -1.7539
 1067SOL     OW14662   4.083   0.692   1.702 -0.1962  0.1445 -0.1360
 1067SOL    HW114663   4.061   0.784   1.717  0.0611  0.2132 -0.1779
 1067SOL    HW214664   4.176   0.702   1.682 -0.2001  2.0451  0.7815
 1068SOL     OW14665   2.685   4.664   2.206 -0.4778  0.3651  0.3532
 1068SOL    HW114666   2.723   4.712   2.279 -2.2762 -0.7006  1.9612
 1068SOL    HW214667   2.662   4.586   2.255 -1.7934  0.2124 -0.5274
 1069SOL     OW14668   4.620   4.387   9.516 -0.0689 -0.0637 -0.4715
 1069SOL    HW114669   4.704   4.354   9.547 -0.7013 -0.0605  1.2122
 1069SOL    HW214670   4.558   4.320   9.544  0.8188 -0.6676  0.0241
 1070SOL     OW14671   2.659   1.696   7.075 -0.4502 -0.4566 -0.3250
 1070SOL    HW114672   2.700   1.660   7.154  1.8343 -0.0744 -1.3282
 1070SOL    HW214673   2.714   1.649   7.011  1.3588 -0.1921  1.0355
 1071SOL     OW14674   1.386   1.844  12.578  0.1832 -0.0164  0.1249
 1071SOL    HW114675   1.331   1.800  12.513  0.1099  0.5330 -0.1950
 1071SOL    HW214676   1.471   1.805  12.558  0.9021  0.8227  1.5422
 1072SOL     OW14677   3.326   2.504   7.713 -0.1555  0.6032  0.4071
 1072SOL    HW114678   3.312   2.503   7.618  2.1639 -3.0767  0.1282
 1072SOL    HW214679   3.370   2.588   7.727  0.4510  0.6689 -1.7511
 1073SOL     OW14680   2.116   3.310   6.018  0.1978  0.0209 -0.2087
 1073SOL    HW114681   2.101   3.399   5.986  1.2158  0.9238  1.8356
 1073SOL    HW214682   2.069   3.257   5.953 -0.5559 -0.4224  0.6970
 1074SOL     OW14683   3.444   4.674   4.148 -0.0366  0.3627  0.9911
 1074SOL    HW114684   3.380   4.611   4.115  1.6406 -0.3614 -0.8955
 1074SOL    HW214685   3.494   4.626   4.214 -0.4230 -2.0284 -0.4252
 1075SOL     OW14686   3.065   1.584   1.759 -0.2442  0.0259  0.5977
 1075SOL    HW114687   3.006   1.658   1.776 -1.2533 -0.7982  0.6801
 1075SOL    HW214688   3.113   1.587   1.841  1.4434  2.3973 -0.4866
 1076SOL     OW14689   4.496   0.905   6.287 -0.5282  0.5666  0.0120
 1076SOL    HW114690   4.432   0.840   6.261 -0.8702  0.9244 -0.0390
 1076SOL    HW214691   4.569   0.854   6.323 -0.9546 -0.3652 -0.4508
 1077SOL     OW14692   2.977   1.570   6.499  0.0833  0.3315  0.0680
 1077SOL    HW114693   2.883   1.586   6.493 -0.1753 -0.6076  1.5315
 1077SOL    HW214694   3.007   1.564   6.408  0.7185 -0.7684  0.3486
 1078SOL     OW14695   1.383   4.346   4.663  0.5550 -0.0574 -0.2431
 1078SOL    HW114696   1.382   4.328   4.757 -3.0250  0.6348 -0.1324
 1078SOL    HW214697   1.472   4.380   4.659  0.6954 -0.3074  0.7742
 1079SOL     OW14698   4.381   1.943   5.922 -0.7278  0.7674  0.1009
 1079SOL    HW114699   4.470   1.908   5.917 -1.3502 -0.7722 -0.1741
 1079SOL    HW214700   4.328   1.883   5.870 -1.9417  1.4863  0.4960
 1080SOL     OW14701   0.654   3.417   5.638  0.0422  0.2071  0.4725
 1080SOL    HW114702   0.694   3.417   5.551 -0.1585 -1.1264  0.3824
 1080SOL    HW214703   0.574   3.370   5.616  0.3064  0.3900 -0.8976
 1081SOL     OW14704   3.769   4.146   3.727  0.0567  0.9458  0.0107
 1081SOL    HW114705   3.792   4.208   3.658 -1.0226 -2.3490 -3.3138
 1081SOL    HW214706   3.701   4.089   3.691  1.1521 -0.2941 -0.0752
 1082SOL     OW14707   1.797   3.209  17.060 -0.5369 -0.6176  0.4847
 1082SOL    HW114708   1.738   3.134  17.050 -1.8621  0.4854  0.0645
 1082SOL    HW214709   1.879   3.191  17.014  0.3151 -3.0892  2.9313
 1083SOL     OW14710   4.704   3.943   5.934 -0.2876  0.1255  0.2435
 1083SOL    HW114711   4.612   3.945   5.907  0.7027  0.2310 -3.1559
 1083SOL    HW214712   4.699   3.905   6.021  0.5165  1.8570  1.0381
 1084SOL     OW14713   4.075   4.074   4.567  0.8002  0.3121  0.2094
 1084SOL    HW114714   4.043   4.163   4.550 -2.3824 -0.7033  1.0601
 1084SOL    HW214715   4.023   4.011   4.518  1.0912  0.1720  0.0821
 1085SOL     OW14716   2.802   4.203   5.915 -0.1059  0.4619  1.1297
 1085SOL    HW114717   2.764   4.289   5.935  0.5448  1.5860 -2.4401
 1085SOL    HW214718   2.755   4.146   5.975  0.4876 -0.2539  0.9152
 1086SOL     OW14719   0.691   3.487   9.147  0.2460  0.0129  0.0327
 1086SOL    HW114720   0.638   3.412   9.175  1.8705 -0.1454  2.6680
 1086SOL    HW214721   0.672   3.477   9.054 -0.5017  2.4783 -0.0889
 1087SOL     OW14722   0.710   1.567  15.460  0.0815 -0.3686 -0.1355
 1087SOL    HW114723   0.779   1.532  15.404  1.3222  0.7708  0.6773
 1087SOL    HW214724   0.741   1.514  15.534  1.1064 -0.7697 -0.8510
 1088SOL     OW14725   3.927   3.066   7.345 -0.0824 -0.1780 -0.1820
 1088SOL    HW114726   3.878   3.142   7.314  0.8702  0.7989  0.6745
 1088SOL    HW214727   3.985   3.110   7.408 -0.6095 -2.2748  1.7599
 1089SOL     OW14728   1.070   1.738   3.342 -0.0214  0.0536 -0.2989
 1089SOL    HW114729   1.137   1.670   3.348  0.8121  0.9950  1.0997
 1089SOL    HW214730   1.000   1.701   3.397  1.1229 -0.8851  0.5223
 1090SOL     OW14731   0.891   0.965   5.227  0.2269  0.2859 -0.0527
 1090SOL    HW114732   0.967   1.009   5.189 -0.1142  2.2768  1.6125
 1090SOL    HW214733   0.825   1.032   5.207 -0.5140 -0.2679  0.5188
 1091SOL     OW14734   1.633   2.924   3.310 -0.1611 -0.4978 -0.2744
 1091SOL    HW114735   1.547   2.956   3.283 -0.0876 -0.1256 -0.0713
 1091SOL    HW214736   1.670   3.008   3.336 -1.7861  0.2299 -0.3225
 1092SOL     OW14737   4.640   1.759   7.182  0.0959  0.4425  0.4082
 1092SOL    HW114738   0.012   1.750   7.162  0.6326  0.9502  2.7051
 1092SOL    HW214739   4.601   1.740   7.096 -0.0612 -0.0672  0.5920
 1093SOL     OW14740   0.846   4.718   3.628 -0.3214 -0.6946  0.3321
 1093SOL    HW114741   0.894   0.079   3.626 -1.6638  0.0670 -0.7306
 1093SOL    HW214742   0.788   0.006   3.552 -0.3355 -1.4497  0.2481
 1094SOL     OW14743   1.114   4.262   8.930 -0.3103  0.7660  0.5517
 1094SOL    HW114744   1.033   4.303   8.960 -2.4085 -1.6710 -1.7229
 1094SOL    HW214745   1.171   4.285   9.004 -0.0218  2.8923 -0.3478
 1095SOL     OW14746   0.744   2.077   5.389  0.2796 -0.0968  0.0848
 1095SOL    HW114747   0.686   2.001   5.393  0.1865  0.1002  2.7422
 1095SOL    HW214748   0.768   2.066   5.481 -1.1400 -3.0663  0.1072
 1096SOL     OW14749   0.549   0.899   7.948  0.2255 -0.6799  0.7311
 1096SOL    HW114750   0.545   0.984   7.904  0.1777 -1.1057 -0.0792
 1096SOL    HW214751   0.570   0.924   8.038  0.2497  1.5150  0.1124
 1097SOL     OW14752   3.843   4.429   6.658 -0.2701 -0.3836 -0.3718
 1097SOL    HW114753   3.811   4.444   6.569  1.9518  0.9796 -0.9299
 1097SOL    HW214754   3.911   4.366   6.632  0.6188  1.1954 -1.8659
 1098SOL     OW14755   0.712   0.254   6.719 -0.4734  0.3871 -0.2773
 1098SOL    HW114756   0.771   0.195   6.673 -0.8219  0.2311 -0.5250
 1098SOL    HW214757   0.770   0.329   6.734  0.9577 -0.1381 -3.1249
 1099SOL     OW14758   1.177   0.269   6.660  0.8232 -0.2778  0.0225
 1099SOL    HW114759   1.202   0.334   6.594 -0.4262  0.4173  0.2266
 1099SOL    HW214760   1.166   0.189   6.609 -0.3774 -1.5130  2.2383
 1100SOL     OW14761   3.091   1.761  10.747 -0.4304 -0.2559 -0.3692
 1100SOL    HW114762   3.181   1.771  10.717 -0.3908 -1.0947 -0.5085
 1100SOL    HW214763   3.059   1.673  10.728  0.6045 -0.8007  0.4926
 1101SOL     OW14764   1.252   4.032   6.990 -0.0118  0.6966 -0.0636
 1101SOL    HW114765   1.252   3.973   7.065  1.8055 -0.5485 -1.0272
 1101SOL    HW214766   1.340   4.071   6.992  0.0964  0.3233  2.4114
 1102SOL     OW14767   2.324   0.936   5.970  0.0286  0.6613  0.7970
 1102SOL    HW114768   2.276   0.973   6.044 -0.8249  0.6227  0.2626
 1102SOL    HW214769   2.306   1.004   5.905 -0.5980 -1.8615 -1.6766
 1103SOL     OW14770   4.160   3.453  11.540 -0.9413 -0.7584 -0.2358
 1103SOL    HW114771   4.080   3.478  11.494 -0.7271  0.8267  0.2322
 1103SOL    HW214772   4.194   3.540  11.562  0.2408 -0.9786 -1.1688
 1104SOL     OW14773   1.609   0.428   8.859 -0.1330 -0.7054  0.3294
 1104SOL    HW114774   1.678   0.432   8.793 -0.4054  1.2349  0.1564
 1104SOL    HW214775   1.644   0.482   8.931 -1.3223 -1.8130  1.7339
 1105SOL     OW14776   2.615   1.109   3.894 -0.4136 -0.4826 -0.9934
 1105SOL    HW114777   2.625   1.184   3.953 -0.2565  0.0465 -1.6962
 1105SOL    HW214778   2.565   1.052   3.952 -3.5068  0.6513 -2.5361
 1106SOL     OW14779   0.503   2.998   7.824  0.0525  0.8529 -0.6320
 1106SOL    HW114780   0.567   3.062   7.792  1.7364 -0.0657  0.9060
 1106SOL    HW214781   0.430   3.016   7.765 -1.8370 -0.1551  1.4094
 1107SOL     OW14782   1.540   2.689  15.081 -0.5204  0.1928  0.0473
 1107SOL    HW114783   1.605   2.748  15.120 -1.0462  1.5138 -1.0706
 1107SOL    HW214784   1.558   2.695  14.987 -0.6109 -1.6343 -0.0863
 1108SOL     OW14785   0.546   2.959   5.941  0.2643  0.3388  0.1237
 1108SOL    HW114786   0.504   2.926   6.020 -1.1504 -0.0549 -0.7722
 1108SOL    HW214787   0.532   3.053   5.949  2.2839  0.6386  0.1442
 1109SOL     OW14788   1.047   4.643   6.369  0.4347  0.3589 -0.1264
 1109SOL    HW114789   1.094   4.572   6.326 -0.8523 -1.2864  1.2072
 1109SOL    HW214790   1.031   4.710   6.301  0.9582  1.0757  0.4536
 1110SOL     OW14791   4.142   0.809  12.109 -0.0480 -0.3571  0.5805
 1110SOL    HW114792   4.142   0.714  12.115  0.3851 -0.4798 -1.5277
 1110SOL    HW214793   4.188   0.826  12.191  0.1493  0.8337  0.2293
 1111SOL     OW14794   3.025   3.974   4.197 -0.3822  0.2730 -0.1063
 1111SOL    HW114795   2.974   4.010   4.124 -2.1169 -1.3265  0.2948
 1111SOL    HW214796   3.112   4.005   4.172  0.4202 -0.6889  1.4673
 1112SOL     OW14797   4.586   3.522   8.327 -0.0239  0.2355 -0.1222
 1112SOL    HW114798   4.591   3.465   8.404 -1.0480  0.2976 -0.0062
 1112SOL    HW214799   4.495   3.548   8.339  0.8600  3.1509  0.4074
 1113SOL     OW14800   3.915   0.147  16.035  0.2444  0.2944 -0.5870
 1113SOL    HW114801   3.945   0.065  15.995 -0.6169 -0.1302 -0.3658
 1113SOL    HW214802   3.827   0.123  16.064  0.6019  1.3521  1.4337
 1114SOL     OW14803   2.711   2.172  15.728 -0.7198 -0.1278 -0.2300
 1114SOL    HW114804   2.708   2.103  15.662 -1.1027 -1.9261  1.6750
 1114SOL    HW214805   2.739   2.119  15.802  0.5727  0.5073 -0.2582
 1115SOL     OW14806   2.960   0.729   3.615 -0.1694  0.7338 -0.3260
 1115SOL    HW114807   3.020   0.760   3.684 -1.8294 -0.3057  1.5983
 1115SOL    HW214808   2.897   0.682   3.670  0.2833  1.6235  0.9623
 1116SOL     OW14809   2.112   2.975   2.546  0.0179  0.3001 -0.0555
 1116SOL    HW114810   2.193   2.970   2.497 -1.4888 -0.2033 -2.4996
 1116SOL    HW214811   2.153   2.977   2.632 -2.0900  0.2555  0.9466
 1117SOL     OW14812   2.678   0.130  11.422 -0.3134 -0.5321  0.1086
 1117SOL    HW114813   2.585   0.142  11.403 -0.2451 -0.3732 -0.1255
 1117SOL    HW214814   2.687   0.040  11.453  0.9640 -0.3293  0.3189
 1118SOL     OW14815   2.818   3.216   3.299 -0.3255 -0.4193  0.3692
 1118SOL    HW114816   2.820   3.183   3.210  0.4252  0.1704  0.1636
 1118SOL    HW214817   2.729   3.251   3.305  0.6520  2.1391 -0.1261
 1119SOL     OW14818   2.818   2.199  13.483  0.1085  0.3270  0.0516
 1119SOL    HW114819   2.895   2.180  13.537 -0.0591  0.1171  0.2194
 1119SOL    HW214820   2.800   2.114  13.443 -0.1667  0.4792 -0.1458
 1120SOL     OW14821   2.747   1.776   8.122 -0.0792 -0.0106  0.2504
 1120SOL    HW114822   2.755   1.816   8.208 -2.5413  2.7278 -0.7803
 1120SOL    HW214823   2.679   1.713   8.145  0.1622 -0.1686  0.5310
 1121SOL     OW14824   3.353   4.243   5.068 -0.1134  0.4593  0.0150
 1121SOL    HW114825   3.424   4.280   5.016  0.3606  1.5654  1.4532
 1121SOL    HW214826   3.275   4.285   5.031 -1.8166 -2.5204  0.1983
 1122SOL     OW14827   4.027   1.727  13.463  0.5966 -0.3440 -0.1518
 1122SOL    HW114828   3.980   1.685  13.390 -1.4846  1.2774  0.2312
 1122SOL    HW214829   4.090   1.661  13.491  2.4057 -0.0356 -3.3986
 1123SOL     OW14830   2.329   2.784   3.365  0.4236  0.0920 -0.2808
 1123SOL    HW114831   2.332   2.870   3.406  0.5788  0.5432 -1.2489
 1123SOL    HW214832   2.235   2.768   3.378  0.6328 -0.2692  0.7992
 1124SOL     OW14833   2.579   2.880   4.401 -0.1020 -0.2269 -0.1347
 1124SOL    HW114834   2.569   2.882   4.496  1.6244 -2.9230  0.1267
 1124SOL    HW214835   2.511   2.819   4.372 -1.2858  0.0519  2.0348
 1125SOL     OW14836   2.036   4.704  16.700 -0.0569  0.0940 -0.4071
 1125SOL    HW114837   2.025   4.610  16.714 -2.5540  0.4903  0.2826
 1125SOL    HW214838   1.949   0.018  16.717  0.3654  0.3774  1.1303
 1126SOL     OW14839   3.005   3.429   2.962  0.4770  0.3870 -0.1857
 1126SOL    HW114840   3.040   3.500   3.016  0.3921  0.9741 -0.9098
 1126SOL    HW214841   2.941   3.390   3.021  0.7321  0.2802  0.0230
 1127SOL     OW14842   4.067   3.609  14.920  0.1174 -0.1002 -0.5107
 1127SOL    HW114843   4.003   3.624  14.850 -2.2858  1.5130  2.0199
 1127SOL    HW214844   4.050   3.685  14.976  2.0169  0.0813 -0.1607
 1128SOL     OW14845   4.062   0.277   0.195  0.0048  0.2839  0.7558
 1128SOL    HW114846   4.004   0.288   0.120  2.8239 -0.1829 -1.5370
 1128SOL    HW214847   4.001   0.256   0.265 -2.1479 -1.0685 -1.5387
 1129SOL     OW14848   0.605   0.411   9.966 -0.5714 -0.1045  0.4380
 1129SOL    HW114849   0.679   0.368  10.009  1.1888  2.4336 -0.0587
 1129SOL    HW214850   0.618   0.506   9.974  1.4729 -0.3433  0.0700
 1130SOL     OW14851   4.120   0.617   8.305  0.3096 -0.6337  0.0235
 1130SOL    HW114852   4.129   0.687   8.240  0.2297  1.3682  2.1772
 1130SOL    HW214853   4.044   0.640   8.358 -0.0270 -2.8237  0.4973
 1131SOL     OW14854   4.518   3.569   3.904  0.5873 -0.4121 -0.2475
 1131SOL    HW114855   4.456   3.519   3.957 -0.6385 -0.2727 -1.5479
 1131SOL    HW214856   4.499   3.550   3.812 -0.2612 -4.4509  0.7651
 1132SOL     OW14857   3.813   3.214   4.951 -0.8790  0.0693 -0.2524
 1132SOL    HW114858   3.745   3.226   5.017 -0.1427  1.3882  0.2817
 1132SOL    HW214859   3.829   3.302   4.917  0.5472 -1.0529 -2.4569
 1133SOL     OW14860   4.183   3.691   6.011  0.1026 -0.1018  0.5750
 1133SOL    HW114861   4.279   3.690   6.018  0.2500  1.6981 -1.0780
 1133SOL    HW214862   4.168   3.781   5.981 -0.8072 -0.1100  1.0322
 1134SOL     OW14863   0.649   0.710   6.157  0.0478  0.5490 -0.0690
 1134SOL    HW114864   0.666   0.795   6.118  0.1629  0.5969  0.0892
 1134SOL    HW214865   0.722   0.705   6.218  1.5818  2.6969 -1.7837
 1135SOL     OW14866   2.933   3.130   6.517  0.0416 -0.2351 -0.2976
 1135SOL    HW114867   2.947   3.150   6.425  1.4033  0.0318 -0.0386
 1135SOL    HW214868   3.000   3.178   6.566  0.6209 -0.7042 -0.6271
 1136SOL     OW14869   2.557   3.216   4.144  0.3931 -0.0319 -0.2801
 1136SOL    HW114870   2.540   3.306   4.118  2.4644  0.4483  0.0196
 1136SOL    HW214871   2.479   3.166   4.117 -0.1314  1.3937 -1.3772
 1137SOL     OW14872   1.826   3.321   5.369 -0.9023  0.1571 -0.3257
 1137SOL    HW114873   1.789   3.406   5.392 -0.4002  0.6099 -1.1838
 1137SOL    HW214874   1.901   3.351   5.318 -0.3932  2.3442  1.7208
 1138SOL     OW14875   4.066   0.450   4.575 -0.2625 -0.2216 -0.0703
 1138SOL    HW114876   4.010   0.482   4.645  1.4193  0.4580  0.9444
 1138SOL    HW214877   4.039   0.507   4.503  2.9239  1.3803  0.0119
 1139SOL     OW14878   0.905   3.492   4.959 -0.0529 -0.5646  0.3317
 1139SOL    HW114879   0.944   3.556   5.020  0.6173 -1.1544  0.5137
 1139SOL    HW214880   0.973   3.426   4.971 -0.2601 -0.4192  2.3545
 1140SOL     OW14881   3.497   3.974   3.710  0.8707 -0.5069 -0.6038
 1140SOL    HW114882   3.561   3.907   3.730  2.0402  0.2074 -1.9720
 1140SOL    HW214883   3.443   3.929   3.645  0.2143 -0.4061 -0.1301
 1141SOL     OW14884   1.124   2.748   3.123  0.1711 -0.1153 -0.1319
 1141SOL    HW114885   1.040   2.784   3.154  0.8374  1.6149 -0.3174
 1141SOL    HW214886   1.095   2.708   3.042  2.0072 -0.0817 -0.8101
 1142SOL     OW14887   1.612   4.298   2.973  0.2212 -0.4347  0.1861
 1142SOL    HW114888   1.684   4.311   3.035  0.4387  0.5068 -0.2625
 1142SOL    HW214889   1.644   4.221   2.926 -1.9895 -0.7079 -0.8804
 1143SOL     OW14890   0.037   2.159   9.793  0.0437  0.4246  0.1104
 1143SOL    HW114891   4.699   2.231   9.818  0.7416  0.9999  0.0909
 1143SOL    HW214892   0.094   2.201   9.729  2.0780 -0.1551  1.5382
 1144SOL     OW14893   4.240   2.177   9.434 -0.4852  0.2803 -0.4084
 1144SOL    HW114894   4.177   2.245   9.407  2.0648  1.3637 -3.5870
 1144SOL    HW214895   4.184   2.126   9.492 -0.7547  1.1368  0.0888
 1145SOL     OW14896   0.056   4.030   9.903 -0.6240  0.3366  0.4724
 1145SOL    HW114897   0.075   4.123   9.908  0.4345  0.1615 -0.3350
 1145SOL    HW214898   0.065   4.007   9.995 -2.1283 -0.6784  0.3631
 1146SOL     OW14899   2.026   3.501   6.889  0.1806  0.0811 -0.2785
 1146SOL    HW114900   2.007   3.583   6.844 -1.1554 -0.3791 -0.5336
 1146SOL    HW214901   1.980   3.530   6.968 -2.8313  2.1195 -2.8068
 1147SOL     OW14902   4.227   1.862  17.126  0.2241  0.6611  0.2221
 1147SOL    HW114903   4.195   1.795  17.065  0.9482 -0.3221  0.9155
 1147SOL    HW214904   4.198   1.941  17.081 -0.5804  1.3125  1.8867
 1148SOL     OW14905   3.000   2.615   5.551  0.2334  0.2378  0.2320
 1148SOL    HW114906   2.911   2.592   5.525  0.8425 -4.9685  2.7655
 1148SOL    HW214907   3.038   2.608   5.464  3.3131 -2.7661  1.8396
 1149SOL     OW14908   0.208   2.773   9.408 -0.2556 -1.0709 -0.2795
 1149SOL    HW114909   0.189   2.865   9.390 -1.7883 -1.3508 -0.1281
 1149SOL    HW214910   0.285   2.761   9.464 -0.3679  1.0755  0.3217
 1150SOL     OW14911   1.545   2.856   4.274  0.2221 -0.2941 -0.4758
 1150SOL    HW114912   1.518   2.784   4.218 -0.0670 -0.4451 -0.1387
 1150SOL    HW214913   1.640   2.850   4.258  0.6915  1.9437  1.3991
 1151SOL     OW14914   2.688   3.292   6.995 -0.1407  0.0351 -0.3023
 1151SOL    HW114915   2.650   3.227   6.936  0.4275 -1.7989  1.3584
 1151SOL    HW214916   2.620   3.356   6.974 -0.4389 -0.6674 -1.4843
 1152SOL     OW14917   1.592   2.383   3.555 -0.0105  0.6042 -0.4044
 1152SOL    HW114918   1.637   2.450   3.503  1.5474 -1.6536 -1.9162
 1152SOL    HW214919   1.653   2.310   3.556 -1.8391 -0.9249 -1.0964
 1153SOL     OW14920   3.091   4.400   4.943  0.1056  0.0635 -0.0216
 1153SOL    HW114921   3.040   4.377   4.865  0.0720 -0.2224  0.0838
 1153SOL    HW214922   3.034   4.458   4.994  0.0726  1.6054 -1.8320
 1154SOL     OW14923   2.444   2.107   4.292  0.2249  0.1997  0.1340
 1154SOL    HW114924   2.390   2.068   4.361 -1.1332  0.3395 -0.8557
 1154SOL    HW214925   2.407   2.056   4.219 -2.9428  1.5682  0.7935
 1155SOL     OW14926   0.888   4.271  12.570 -0.4056 -0.6678 -0.6387
 1155SOL    HW114927   0.959   4.218  12.606 -0.8582 -1.1849 -0.5091
 1155SOL    HW214928   0.908   4.356  12.610 -0.7543 -0.7559 -0.2726
 1156SOL     OW14929   2.416   0.975   7.533 -0.5388 -0.1376 -0.3928
 1156SOL    HW114930   2.419   1.048   7.595 -0.2087  1.0743 -1.8190
 1156SOL    HW214931   2.398   0.899   7.588 -0.2362  1.1351  1.4776
 1157SOL     OW14932   3.626   2.564   6.331  0.0318 -0.2853  0.8766
 1157SOL    HW114933   3.533   2.547   6.345 -0.0186 -0.4303  0.3845
 1157SOL    HW214934   3.632   2.648   6.286 -0.4195  0.0861  1.5075
 1158SOL     OW14935   3.264   1.008   4.663  0.4883 -0.2823  0.2657
 1158SOL    HW114936   3.310   1.091   4.673 -2.2594  1.5953 -2.5633
 1158SOL    HW214937   3.315   0.935   4.700 -0.1583 -1.0045 -0.2578
 1159SOL     OW14938   0.835   2.879  10.673 -0.8640  0.0788  0.5198
 1159SOL    HW114939   0.827   2.936  10.749  2.5316  1.1474  0.0506
 1159SOL    HW214940   0.863   2.798  10.716  0.7959  0.2866 -0.1912
 1160SOL     OW14941   2.605   2.509   2.324  0.2376 -0.4866  0.5051
 1160SOL    HW114942   2.576   2.599   2.332  2.0865  0.0006  1.6349
 1160SOL    HW214943   2.647   2.522   2.239 -2.2540 -1.4128 -0.8691
 1161SOL     OW14944   1.881   1.889   2.638 -0.3669 -0.2206 -0.6170
 1161SOL    HW114945   1.947   1.890   2.568  0.2877  3.1816  0.0532
 1161SOL    HW214946   1.936   1.869   2.714 -1.4802 -3.9298 -0.7907
 1162SOL     OW14947   1.472   1.861   3.334 -0.0952  0.1303 -0.3740
 1162SOL    HW114948   1.483   1.947   3.294  2.7113 -0.3157 -0.5642
 1162SOL    HW214949   1.472   1.815   3.250 -1.5798  0.7178 -0.6909
 1163SOL     OW14950   3.368   4.191   9.607 -0.2697  0.1314  0.0947
 1163SOL    HW114951   3.314   4.209   9.530  0.3644 -0.4137 -0.4857
 1163SOL    HW214952   3.443   4.246   9.585  0.2604 -0.5029  0.2931
 1164SOL     OW14953   4.521   0.579  14.152 -0.6382 -0.7700  0.1596
 1164SOL    HW114954   4.444   0.589  14.207 -1.3049  2.0432 -1.2868
 1164SOL    HW214955   4.557   0.667  14.160  1.2262 -1.3470 -1.7794
 1165SOL     OW14956   0.102   1.253   1.819 -0.1117  0.2243  0.1098
 1165SOL    HW114957   0.038   1.259   1.747  0.5592  1.5289 -0.3804
 1165SOL    HW214958   0.060   1.319   1.874 -2.6956  0.1974 -1.8204
 1166SOL     OW14959   1.180   4.101   2.320 -0.3442  0.1152 -0.3748
 1166SOL    HW114960   1.191   4.185   2.276 -0.7792  1.8440  2.7661
 1166SOL    HW214961   1.203   4.051   2.242  1.1868 -1.4258  1.0853
 1167SOL     OW14962   4.590   1.377   7.936  0.2571  0.0225 -0.2865
 1167SOL    HW114963   4.674   1.343   7.903 -1.2116 -0.8947 -3.0853
 1167SOL    HW214964   4.544   1.293   7.936  2.4270 -1.1892  3.5518
 1168SOL     OW14965   1.033   0.428  14.322  0.4761 -0.1292 -0.2264
 1168SOL    HW114966   1.037   0.443  14.228  0.0644 -2.3310 -0.5927
 1168SOL    HW214967   1.107   0.375  14.353  1.8590  1.6796 -0.4523
 1169SOL     OW14968   0.290   0.785   0.907  0.1295 -0.5726  0.1189
 1169SOL    HW114969   0.244   0.849   0.962  0.4611 -0.9263  0.8092
 1169SOL    HW214970   0.380   0.798   0.936 -0.2674  1.5020  0.4097
 1170SOL     OW14971   4.385   2.569   6.876  0.4650 -0.0212  0.2323
 1170SOL    HW114972   4.367   2.592   6.967  1.0343  1.0492  0.0765
 1170SOL    HW214973   4.370   2.474   6.882  1.8370 -0.4444 -2.9302
 1171SOL     OW14974   2.312   4.296   9.549 -0.5161 -0.0255  0.3040
 1171SOL    HW114975   2.226   4.326   9.519 -1.8266 -2.6177  1.5144
 1171SOL    HW214976   2.375   4.364   9.524  1.8799 -1.5026  2.2298
 1172SOL     OW14977   2.910   3.702   7.533 -0.2797  0.1142  0.0787
 1172SOL    HW114978   2.934   3.621   7.488  1.1478 -0.1082  1.2656
 1172SOL    HW214979   2.998   3.723   7.565  0.5404 -1.1084 -1.3505
 1173SOL     OW14980   3.769   2.342   6.336 -0.0437  0.2925 -0.5475
 1173SOL    HW114981   3.703   2.401   6.374  1.3117  1.5460 -0.1494
 1173SOL    HW214982   3.713   2.265   6.331 -1.4590  1.4025 -1.7380
 1174SOL     OW14983   0.517   0.310   3.855  0.1542 -0.1224  0.0306
 1174SOL    HW114984   0.495   0.382   3.914  0.4483  1.7051 -2.0979
 1174SOL    HW214985   0.605   0.327   3.820  0.5792 -1.3927  0.4572
 1175SOL     OW14986   4.103   0.413   8.137 -0.4956 -0.2774 -0.1852
 1175SOL    HW114987   4.039   0.344   8.157  0.1357 -1.1933 -1.3451
 1175SOL    HW214988   4.087   0.480   8.204  2.7779 -0.2579  0.5741
 1176SOL     OW14989   1.801   0.163   3.198  0.5182  0.4451 -0.3467
 1176SOL    HW114990   1.731   0.176   3.263 -0.8439  1.1563 -1.9614
 1176SOL    HW214991   1.768   0.187   3.112  1.9147 -1.1895 -1.3398
 1177SOL     OW14992   0.333   4.514   9.019  0.2481 -0.1812 -0.2737
 1177SOL    HW114993   0.320   4.588   9.078  0.5712 -0.5249  0.2206
 1177SOL    HW214994   0.296   4.436   9.061  1.7921 -0.0418  1.3137
 1178SOL     OW14995   1.290   2.860   1.850 -0.0226  0.4879  0.0673
 1178SOL    HW114996   1.294   2.877   1.944  2.6807 -1.2695  0.2785
 1178SOL    HW214997   1.206   2.894   1.818 -0.1257  1.4136  1.3495
 1179SOL     OW14998   1.398   3.757   6.428 -0.2804 -0.0622  0.9223
 1179SOL    HW114999   1.324   3.719   6.476 -1.8331 -0.0106 -1.4938
 1179SOL    HW215000   1.381   3.851   6.435 -1.0907 -0.1690  0.2375
 1180SOL     OW15001   4.646   2.200   7.948 -0.6244  0.3067 -0.2041
 1180SOL    HW115002   4.622   2.157   7.866  0.4498  0.6993 -0.7230
 1180SOL    HW215003   4.659   2.126   8.008  2.1353  1.1675  0.2420
 1181SOL     OW15004   1.758   2.914   5.422 -0.1808  0.6714 -0.3633
 1181SOL    HW115005   1.699   2.921   5.346 -0.3285  1.3610 -0.1846
 1181SOL    HW215006   1.794   2.826   5.415 -2.3382 -0.1910 -0.5327
 1182SOL     OW15007   2.495   4.145   2.310  0.4179  0.4865  0.3984
 1182SOL    HW115008   2.511   4.186   2.395 -1.0628  0.7446  0.5479
 1182SOL    HW215009   2.505   4.051   2.327 -1.3625  0.8127  3.2719
 1183SOL     OW15010   0.028   4.382  11.240 -0.1252 -0.0883 -0.2320
 1183SOL    HW115011   0.021   4.448  11.309 -1.2833 -1.0538  0.5791
 1183SOL    HW215012   4.678   4.328  11.274 -0.1508 -0.4568 -0.8752
 1184SOL     OW15013   2.191   2.463   3.977  0.0143 -0.3991 -0.2792
 1184SOL    HW115014   2.268   2.444   4.032 -2.5009 -1.9661  2.7135
 1184SOL    HW215015   2.219   2.427   3.893 -0.0391 -2.3091  0.5210
 1185SOL     OW15016   1.354   3.613  16.479  0.4359  0.2229 -0.5097
 1185SOL    HW115017   1.324   3.698  16.511 -2.2892 -2.0563  3.0394
 1185SOL    HW215018   1.379   3.623  16.387 -0.8248  0.9159 -0.7858
 1186SOL     OW15019   1.778   4.517   1.235 -0.1723 -0.6216 -0.0499
 1186SOL    HW115020   1.810   4.501   1.147  0.3743  0.7370 -0.0827
 1186SOL    HW215021   1.794   4.433   1.279 -0.0590 -0.5833 -0.0204
 1187SOL     OW15022   4.219   3.339   4.299  0.5410 -0.5162 -0.4448
 1187SOL    HW115023   4.264   3.261   4.266  0.2093 -0.7073 -0.4482
 1187SOL    HW215024   4.244   3.346   4.391 -2.1483 -2.0664  0.3988
 1188SOL     OW15025   0.294   1.417  10.162 -0.2330 -0.5402 -0.5448
 1188SOL    HW115026   0.277   1.504  10.127  0.9805 -0.1092 -0.0209
 1188SOL    HW215027   0.352   1.375  10.098  0.5224 -0.6937  0.2444
 1189SOL     OW15028   2.573   0.565   2.359 -0.2330  0.0089  0.2665
 1189SOL    HW115029   2.481   0.571   2.381 -0.5677 -0.7313 -0.9304
 1189SOL    HW215030   2.582   0.659   2.341  1.0127  0.0879  1.2943
 1190SOL     OW15031   3.214   0.693   8.857 -0.1984  0.6144 -0.4463
 1190SOL    HW115032   3.255   0.650   8.932 -3.5923  1.2786  1.7839
 1190SOL    HW215033   3.183   0.772   8.902 -0.6393 -1.9207  3.7393
 1191SOL     OW15034   0.860   1.432  13.977 -0.1629  0.4069  0.4950
 1191SOL    HW115035   0.843   1.390  13.893 -1.5209  0.5399  0.6936
 1191SOL    HW215036   0.869   1.519  13.937 -0.4214  0.9614  1.6191
 1192SOL     OW15037   4.395   3.164   3.907  0.0983  0.0519 -0.1110
 1192SOL    HW115038   4.313   3.172   3.956  0.6318  3.7799  0.1491
 1192SOL    HW215039   4.453   3.153   3.983 -2.3774  0.2756  1.8187
 1193SOL     OW15040   4.607   1.955   8.058  0.1180 -0.6621  0.0015
 1193SOL    HW115041   4.529   1.920   8.015  0.7950  0.2340 -1.9551
 1193SOL    HW215042   4.581   1.927   8.146 -0.9022  1.0584  0.2371
 1194SOL     OW15043   2.986   4.517   7.736  0.0761 -0.4762  0.7592
 1194SOL    HW115044   3.031   4.433   7.725  2.7101  1.1834 -1.3122
 1194SOL    HW215045   3.050   4.588   7.730 -0.3343 -0.1035  0.7738
 1195SOL     OW15046   1.040   1.050  14.348  0.1492 -0.6244 -0.1757
 1195SOL    HW115047   0.961   0.997  14.356 -1.6224  2.0339 -0.1659
 1195SOL    HW215048   1.029   1.103  14.269  2.2140 -0.5523 -0.4376
 1196SOL     OW15049   0.894   0.225  10.866 -0.3658  0.2718 -0.5491
 1196SOL    HW115050   0.932   0.178  10.940 -0.0955 -3.1388 -2.8302
 1196SOL    HW215051   0.963   0.226  10.800 -0.0554  1.6567 -0.2031
 1197SOL     OW15052   0.221   4.381  11.517  0.2844  0.6825  0.1890
 1197SOL    HW115053   0.156   4.318  11.487  1.1021 -0.7726  1.4944
 1197SOL    HW215054   0.295   4.327  11.547 -0.9081 -0.2929  1.3474
 1198SOL     OW15055   2.026   3.749  11.850  0.1099  0.1639 -0.4198
 1198SOL    HW115056   2.100   3.787  11.803  0.8447  1.1086  1.5260
 1198SOL    HW215057   1.982   3.833  11.866  0.5435 -0.2096  2.7393
 1199SOL     OW15058   3.481   2.925   6.467  0.3012  0.1514  0.2246
 1199SOL    HW115059   3.547   2.909   6.534  0.3377  0.0468  0.1644
 1199SOL    HW215060   3.402   2.882   6.501 -1.0134  2.5079  0.1185
 1200SOL     OW15061   1.567   4.658   5.316  0.2658  0.3118  0.6531
 1200SOL    HW115062   1.661   4.670   5.324  0.1703  1.2814  0.3488
 1200SOL    HW215063   1.548   0.028   5.293  0.7971  0.0183 -0.9580
 1201SOL     OW15064   4.593   2.725   3.366 -0.1532  0.1683 -0.4897
 1201SOL    HW115065   4.673   2.672   3.375 -0.9543 -1.2264 -1.6287
 1201SOL    HW215066   4.570   2.720   3.274  2.4066 -0.8303 -1.0845
 1202SOL     OW15067   0.027   4.592   7.300 -0.1840 -0.2344 -0.7055
 1202SOL    HW115068   0.034   4.672   7.248 -0.3464  0.4221  0.2940
 1202SOL    HW215069   0.043   4.528   7.231 -0.8040 -2.3167  1.0964
 1203SOL     OW15070   0.093   0.622   2.526  0.7094 -0.5539  0.2683
 1203SOL    HW115071   0.082   0.689   2.458  3.0753  1.2027  1.6287
 1203SOL    HW215072   0.153   0.675   2.577  0.2386  1.2171 -0.9959
 1204SOL     OW15073   1.335   0.011   8.866  0.3244  0.2365  0.2541
 1204SOL    HW115074   1.304   0.101   8.879  0.4931  0.2729  0.4083
 1204SOL    HW215075   1.424   0.037   8.842  0.0014  0.8801 -0.2441
 1205SOL     OW15076   1.602   1.029   3.268 -0.0325 -0.0583  0.6804
 1205SOL    HW115077   1.675   1.069   3.315  1.8857 -1.2905 -1.2876
 1205SOL    HW215078   1.605   0.934   3.279  1.0734 -0.3986 -2.5847
 1206SOL     OW15079   2.600   2.540   3.930 -0.0992 -0.4217 -0.4496
 1206SOL    HW115080   2.593   2.447   3.950  1.2524 -0.7988 -1.7108
 1206SOL    HW215081   2.525   2.565   3.876 -0.8649  0.7530  1.1640
 1207SOL     OW15082   1.011   4.660   5.384  0.0402 -0.1302 -0.3785
 1207SOL    HW115083   0.993   4.665   5.290  2.3569  0.6226 -0.7888
 1207SOL    HW215084   1.085   4.721   5.381 -0.2790  0.4152  2.9033
 1208SOL     OW15085   3.754   0.985   0.771  0.2690 -0.3772 -0.5506
 1208SOL    HW115086   3.660   0.999   0.772  0.5772  1.6565  0.9536
 1208SOL    HW215087   3.790   1.056   0.717  0.4239  0.0478  0.1026
 1209SOL     OW15088   2.528   4.391   8.474 -0.0024 -0.2236  0.2251
 1209SOL    HW115089   2.543   4.473   8.521 -0.8454 -0.6884  1.3037
 1209SOL    HW215090   2.433   4.404   8.468 -0.2611 -0.9607  2.5793
 1210SOL     OW15091   0.267   0.468  16.994 -0.1936  0.1528 -0.6482
 1210SOL    HW115092   0.250   0.442  16.904 -1.0167 -1.3011 -0.0642
 1210SOL    HW215093   0.363   0.466  16.996 -0.1048  3.2243 -1.2535
 1211SOL     OW15094   4.720   3.475  10.296  0.2391 -0.0318  0.2554
 1211SOL    HW115095   4.648   3.529  10.327  1.4937  0.0258  3.0290
 1211SOL    HW215096   0.003   3.485  10.201  1.1698 -0.3555  0.2631
 1212SOL     OW15097   3.178   2.311   1.883 -0.4172 -0.1664 -0.2491
 1212SOL    HW115098   3.255   2.255   1.894 -0.3772  0.3042  1.8112
 1212SOL    HW215099   3.127   2.270   1.953  2.4395 -0.2223  1.8083
 1213SOL     OW15100   3.619   1.083   1.035 -0.0740 -0.1011 -0.0905
 1213SOL    HW115101   3.595   1.086   0.942 -0.6788 -1.0134  0.0276
 1213SOL    HW215102   3.704   1.038   1.034 -0.3889 -0.6913 -0.8861
 1214SOL     OW15103   2.452   2.037   3.452  0.2689  0.7834 -0.3981
 1214SOL    HW115104   2.461   1.944   3.429  2.0454  1.0665 -0.8192
 1214SOL    HW215105   2.417   2.064   3.368 -0.4662  0.3613 -0.2294
 1215SOL     OW15106   4.169   0.221  15.589 -0.4215  0.7576  0.1424
 1215SOL    HW115107   4.174   0.199  15.682 -1.5575 -0.5405 -0.1069
 1215SOL    HW215108   4.114   0.299  15.587 -1.6912 -0.1228  0.1627
 1216SOL     OW15109   0.610   1.156  16.888 -0.0801 -0.5992 -0.6935
 1216SOL    HW115110   0.576   1.097  16.955  0.9033 -1.5683 -1.0322
 1216SOL    HW215111   0.675   1.199  16.943 -1.2921 -0.2841  0.4937
 1217SOL     OW15112   2.616   1.465   0.295 -0.0805 -0.6837  0.4169
 1217SOL    HW115113   2.607   1.376   0.262  0.4719  0.1800 -2.0788
 1217SOL    HW215114   2.545   1.508   0.247  0.7843 -3.4376 -3.3510
 1218SOL     OW15115   0.704   2.667   7.303  0.1237 -0.8759  0.3076
 1218SOL    HW115116   0.698   2.616   7.383 -0.7039  0.5643  1.1603
 1218SOL    HW215117   0.655   2.609   7.245 -1.1389  0.6561 -0.1426
 1219SOL     OW15118   1.545   1.645  16.211  0.6304 -0.0373  0.1832
 1219SOL    HW115119   1.550   1.713  16.144  0.5934 -1.0402 -0.8226
 1219SOL    HW215120   1.500   1.692  16.281 -1.3334 -1.0992 -0.3768
 1220SOL     OW15121   1.045   2.864  10.956 -0.0279  0.7955 -0.0629
 1220SOL    HW115122   0.986   2.930  10.918 -1.8885 -0.5263  0.4980
 1220SOL    HW215123   1.046   2.792  10.893 -1.5209 -0.0077  0.8204
 1221SOL     OW15124   4.160   3.824   6.698 -0.0698  0.4467 -0.4481
 1221SOL    HW115125   4.241   3.852   6.742  0.4750 -1.7531 -0.0608
 1221SOL    HW215126   4.185   3.732   6.701 -1.4841  0.0300 -2.0327
 1222SOL     OW15127   3.338   4.040   2.658 -0.1148 -0.3856 -0.0441
 1222SOL    HW115128   3.296   4.107   2.604 -1.2970 -1.0490  0.0554
 1222SOL    HW215129   3.379   3.997   2.583 -0.9194 -2.1494  0.5151
 1223SOL     OW15130   3.042   3.686   8.723  0.4799 -0.0968  0.5206
 1223SOL    HW115131   3.041   3.778   8.749  0.0040 -0.1836  0.8196
 1223SOL    HW215132   2.954   3.682   8.684  1.8239 -0.5915 -2.4443
 1224SOL     OW15133   1.504   2.690   2.731 -0.3872 -0.3246 -0.3030
 1224SOL    HW115134   1.440   2.755   2.702 -0.2148 -1.1233 -2.5033
 1224SOL    HW215135   1.499   2.622   2.664  0.5152 -1.3505  0.6652
 1225SOL     OW15136   0.170   2.978   1.684  0.5695  0.3599 -0.6100
 1225SOL    HW115137   0.241   3.038   1.707  2.5848 -2.2790  0.0305
 1225SOL    HW215138   0.215   2.928   1.616 -1.1803 -1.1920 -0.6409
 1226SOL     OW15139   1.111   4.092  13.703  0.0560  0.0963  0.0750
 1226SOL    HW115140   1.173   4.159  13.673  1.0143 -1.1018 -0.6102
 1226SOL    HW215141   1.061   4.151  13.760 -1.3090 -1.5044  0.5318
 1227SOL     OW15142   2.206   0.548   3.703 -0.0028 -0.0086  0.0102
 1227SOL    HW115143   2.170   0.460   3.695  0.2550 -0.0173 -1.0583
 1227SOL    HW215144   2.233   0.566   3.613  0.7960  0.3817  0.3261
 1228SOL     OW15145   3.834   4.365  12.918  0.2077  0.0397  0.0908
 1228SOL    HW115146   3.739   4.367  12.916  0.2543  1.7534 -0.3778
 1228SOL    HW215147   3.855   4.424  12.991 -3.3001  1.9180 -0.4571
 1229SOL     OW15148   0.261   1.524   2.338 -0.2426  0.2752  0.4354
 1229SOL    HW115149   0.239   1.481   2.420 -0.3029  3.9627  2.3652
 1229SOL    HW215150   0.286   1.609   2.374  1.5123  0.9958 -2.4807
 1230SOL     OW15151   3.728   0.700   4.766  0.1216  0.3252 -0.0412
 1230SOL    HW115152   3.819   0.718   4.789  0.7687 -1.0711 -1.4831
 1230SOL    HW215153   3.727   0.605   4.775 -0.5510  0.5390  2.0823
 1231SOL     OW15154   2.775   1.852   6.025  0.0782 -0.2965 -0.2023
 1231SOL    HW115155   2.710   1.846   6.095 -2.0707  0.1960 -2.1835
 1231SOL    HW215156   2.831   1.913   6.074 -0.5374  0.1256 -0.0215
 1232SOL     OW15157   1.511   3.498   9.833 -0.2836  0.5723  0.3273
 1232SOL    HW115158   1.456   3.512   9.756  0.1194 -0.6232 -0.1815
 1232SOL    HW215159   1.598   3.514   9.797  0.2573 -0.7033  1.0480
 1233SOL     OW15160   3.672   3.431   2.585  0.4892  0.1010 -0.1071
 1233SOL    HW115161   3.649   3.374   2.658  2.1009 -0.0501  0.2733
 1233SOL    HW215162   3.676   3.515   2.631 -1.5978  1.7763 -2.9352
 1234SOL     OW15163   2.402   2.780   8.795 -0.4904  0.4249  0.1072
 1234SOL    HW115164   2.464   2.830   8.847  2.5232 -1.0274 -2.1000
 1234SOL    HW215165   2.377   2.718   8.863  1.0103 -0.6598 -0.3279
 1235SOL     OW15166   1.333   1.379   6.855  0.4726 -0.1953 -0.2048
 1235SOL    HW115167   1.414   1.422   6.827  1.2743 -0.3369  1.8706
 1235SOL    HW215168   1.334   1.305   6.795  2.6151 -0.0148 -0.4013
 1236SOL     OW15169   4.240   0.360   0.758  0.0182 -0.3342  0.0008
 1236SOL    HW115170   4.180   0.360   0.684  2.6751  3.8210 -2.0795
 1236SOL    HW215171   4.183   0.351   0.835 -1.1602 -1.7938 -1.0442
 1237SOL     OW15172   0.073   3.042   2.937  0.3837  0.1759  0.0295
 1237SOL    HW115173   0.116   3.056   3.021  0.5839 -1.6837  0.2361
 1237SOL    HW215174   0.151   3.022   2.886  1.6438  1.8020  1.3103
 1238SOL     OW15175   2.552   3.311   9.554  0.3736  0.2261  0.5922
 1238SOL    HW115176   2.489   3.295   9.484  1.4591  0.5180 -0.4349
 1238SOL    HW215177   2.626   3.357   9.515  0.9247 -0.6321  0.6296
 1239SOL     OW15178   2.428   3.670   0.632  0.3536 -0.5204 -0.2628
 1239SOL    HW115179   2.418   3.758   0.596  0.9500 -0.4770 -0.3191
 1239SOL    HW215180   2.394   3.622   0.556 -1.4678  1.6562 -0.8209
 1240SOL     OW15181   1.657   1.600   6.081  0.1150  0.0610  0.2537
 1240SOL    HW115182   1.739   1.644   6.103 -0.1037 -0.5699  2.3471
 1240SOL    HW215183   1.602   1.673   6.052 -0.2807  0.3764  1.7730
 1241SOL     OW15184   1.572   0.542   9.426  0.7043 -0.3557  0.0507
 1241SOL    HW115185   1.664   0.541   9.400  0.4216 -0.3102 -0.9546
 1241SOL    HW215186   1.525   0.535   9.342 -0.7328 -0.2201  0.8485
 1242SOL     OW15187   0.951   1.007  11.434  0.9163  0.5886 -0.7099
 1242SOL    HW115188   1.000   1.072  11.485  2.2271  0.1679 -1.4275
 1242SOL    HW215189   0.889   1.055  11.379  1.8860  1.5681 -0.9454
 1243SOL     OW15190   2.717   0.526  15.248  0.4812  0.2564 -0.4639
 1243SOL    HW115191   2.633   0.568  15.233  0.5324  0.4393 -0.2405
 1243SOL    HW215192   2.689   0.482  15.329 -0.2148  0.7287 -0.4566
 1244SOL     OW15193   2.900   1.784   3.080  0.4065  0.1811 -0.4074
 1244SOL    HW115194   2.988   1.747   3.077  0.1092 -0.7293  2.4507
 1244SOL    HW215195   2.904   1.842   3.156  0.1015 -0.9466  0.4797
 1245SOL     OW15196   0.809   0.386  16.968 -0.1560  0.2962  0.3344
 1245SOL    HW115197   0.835   0.314  17.026  1.4395 -1.4420 -2.5230
 1245SOL    HW215198   0.900   0.412  16.955  0.0600  0.1423  1.5314
 1246SOL     OW15199   2.350   0.392   2.609 -0.0793  0.1485 -0.1441
 1246SOL    HW115200   2.380   0.475   2.573  1.0629  0.9628  2.7092
 1246SOL    HW215201   2.257   0.416   2.617 -0.1446 -0.7561  1.8820
 1247SOL     OW15202   2.532   4.082  12.119  0.0439 -0.0795  0.2199
 1247SOL    HW115203   2.570   4.045  12.040  1.1586  1.7110 -0.0779
 1247SOL    HW215204   2.463   4.135  12.078  0.0695 -0.8796 -0.8337
 1248SOL     OW15205   3.845   3.924   2.447  0.2868  0.0554 -0.9287
 1248SOL    HW115206   3.774   3.900   2.388  1.0049 -1.7886 -1.0528
 1248SOL    HW215207   3.925   3.917   2.395  1.6453 -2.7038  1.5451
 1249SOL     OW15208   2.658   0.865   2.812  0.1192 -0.7770  0.0873
 1249SOL    HW115209   2.742   0.830   2.843 -0.3261 -0.4322  1.6675
 1249SOL    HW215210   2.690   0.942   2.767  0.5937 -1.7601 -1.2543
 1250SOL     OW15211   0.100   2.511   3.019  0.4915 -0.3079  0.0268
 1250SOL    HW115212   0.038   2.563   3.070 -1.5371 -1.1097 -1.6722
 1250SOL    HW215213   0.176   2.568   3.005  1.2547 -1.5357 -0.8597
 1251SOL     OW15214   2.978   0.171  13.567 -0.1767 -0.6157 -0.1653
 1251SOL    HW115215   2.968   0.172  13.472  1.2807  0.8935 -0.3064
 1251SOL    HW215216   2.998   0.263  13.579  2.1056 -0.8695 -1.9932
 1252SOL     OW15217   3.301   3.506  10.519 -0.2568  0.1583 -0.2516
 1252SOL    HW115218   3.349   3.504  10.436 -0.0681  0.6215 -0.1557
 1252SOL    HW215219   3.226   3.448  10.505  0.4462  0.3053 -4.7541
 1253SOL     OW15220   4.591   3.124  13.999 -0.3351  0.2343 -0.0686
 1253SOL    HW115221   4.511   3.103  14.048  0.4008  0.3606  1.1713
 1253SOL    HW215222   4.558   3.096  13.913 -2.2886  0.1795  0.6837
 1254SOL     OW15223   0.037   4.376  15.904  0.3191  0.3131  0.8014
 1254SOL    HW115224   0.001   4.463  15.884 -0.4508 -0.4937 -1.3355
 1254SOL    HW215225   4.675   4.327  15.904  0.7379 -0.3989  1.0861
 1255SOL     OW15226   1.261   2.791  15.126 -0.3066  0.7247 -0.2069
 1255SOL    HW115227   1.354   2.774  15.129  0.0069  1.9868 -2.2855
 1255SOL    HW215228   1.262   2.867  15.068  1.6632 -0.2855 -1.4827
 1256SOL     OW15229   2.839   1.455   7.466 -0.1652  0.1895 -0.3433
 1256SOL    HW115230   2.780   1.452   7.541 -0.8394  2.6729 -0.7739
 1256SOL    HW215231   2.917   1.492   7.507 -0.7863  2.2796 -1.0238
 1257SOL     OW15232   3.629   0.452   8.187  0.0846  0.2334  0.0107
 1257SOL    HW115233   3.648   0.358   8.183 -2.1698 -0.2361  0.3737
 1257SOL    HW215234   3.535   0.450   8.172  0.5125 -0.0914 -2.5757
 1258SOL     OW15235   3.760   2.810   3.876 -0.0564  0.0588  0.8201
 1258SOL    HW115236   3.725   2.721   3.868  2.2456 -0.6045 -1.8320
 1258SOL    HW215237   3.765   2.833   3.784 -0.6635 -2.0406  0.2455
 1259SOL     OW15238   2.577   2.870  10.574 -0.8379  0.7323 -0.2061
 1259SOL    HW115239   2.579   2.948  10.630  0.3532  1.0710 -0.7017
 1259SOL    HW215240   2.514   2.905  10.511 -1.4168  1.0939  0.5638
 1260SOL     OW15241   0.926   2.480   6.857  0.2267 -0.5438  0.0310
 1260SOL    HW115242   1.000   2.425   6.832  0.4081  0.5810 -1.9046
 1260SOL    HW215243   0.963   2.513   6.939 -0.3998  0.0513  0.0773
 1261SOL     OW15244   1.159   1.697  12.180 -0.6194 -0.8088 -0.0653
 1261SOL    HW115245   1.066   1.718  12.186  0.1320  1.4065  3.8776
 1261SOL    HW215246   1.181   1.683  12.272 -1.1671 -2.6812 -0.2242
 1262SOL     OW15247   2.412   1.213   4.935 -0.1104 -0.1609  0.1194
 1262SOL    HW115248   2.420   1.123   4.968 -0.7877  0.3729  1.7388
 1262SOL    HW215249   2.354   1.251   5.000  0.7157 -0.7651  1.2187
 1263SOL     OW15250   1.919   0.040  10.919  0.3681  0.4210 -0.3040
 1263SOL    HW115251   1.852   0.035  10.987  0.2565  1.2680 -0.3616
 1263SOL    HW215252   1.984   0.104  10.949  1.5154 -0.3097 -1.2209
 1264SOL     OW15253   0.162   2.332   4.340 -0.3396 -0.0833 -0.3722
 1264SOL    HW115254   0.204   2.324   4.426 -2.3533 -0.9452  0.5379
 1264SOL    HW215255   0.152   2.242   4.310 -0.5589 -0.9818  2.3552
 1265SOL     OW15256   0.725   3.510  11.037  0.5324  0.2850  0.1732
 1265SOL    HW115257   0.747   3.551  10.953  0.4305 -1.8085 -0.8741
 1265SOL    HW215258   0.693   3.589  11.080 -0.9489  0.2788 -0.9017
 1266SOL     OW15259   1.162   2.240   7.842  0.5779  0.0978 -0.6923
 1266SOL    HW115260   1.139   2.156   7.883 -1.5761  0.3045 -1.4477
 1266SOL    HW215261   1.253   2.229   7.868  0.2591  0.4804  0.6001
 1267SOL     OW15262   1.546   0.962   0.112 -0.0040 -0.1591 -0.1260
 1267SOL    HW115263   1.533   0.994   0.201  0.1317  0.1372 -0.2121
 1267SOL    HW215264   1.640   0.982   0.111  0.3539 -1.8225  0.7760
 1268SOL     OW15265   1.557   4.638   1.368 -0.2302  0.5749  0.6641
 1268SOL    HW115266   1.634   4.621   1.314 -0.9098 -1.8640  0.4150
 1268SOL    HW215267   1.580   4.602   1.454  0.9389  2.1151  0.9865
 1269SOL     OW15268   2.139   2.664   2.362 -0.8921 -0.1775 -0.1375
 1269SOL    HW115269   2.102   2.601   2.301 -0.5644  0.5078 -1.0342
 1269SOL    HW215270   2.063   2.718   2.381 -1.3831 -0.1137 -2.3690
 1270SOL     OW15271   3.078   0.298   5.018 -0.4428  0.9044  0.1507
 1270SOL    HW115272   3.051   0.386   5.043 -1.2724  0.8996 -0.7026
 1270SOL    HW215273   3.089   0.313   4.924  0.1878  1.5019  0.3194
 1271SOL     OW15274   2.013   3.692   7.542 -0.0257 -0.4687  0.6080
 1271SOL    HW115275   2.097   3.654   7.566  0.7185 -1.0597 -2.9010
 1271SOL    HW215276   1.974   3.631   7.480 -0.6519  1.2415 -0.7064
 1272SOL     OW15277   3.204   3.761   9.032 -0.3062 -0.3030 -0.1123
 1272SOL    HW115278   3.260   3.719   9.096  1.3916 -0.0910 -1.4604
 1272SOL    HW215279   3.135   3.696   9.023 -0.7109  0.3506 -1.7552
 1273SOL     OW15280   0.211   0.976   3.908 -0.1908  0.1650 -0.9953
 1273SOL    HW115281   0.235   1.067   3.889 -1.1639  0.6803  0.2336
 1273SOL    HW215282   0.257   0.934   3.835  0.6394 -1.9838  0.7579
 1274SOL     OW15283   1.896   4.389   7.857  0.1698  0.1874  0.1947
 1274SOL    HW115284   1.978   4.355   7.820  0.6308 -0.8859  2.1463
 1274SOL    HW215285   1.882   4.338   7.937 -0.5355  1.4709  0.8889
 1275SOL     OW15286   0.497   2.733   7.908  0.3234  0.6198  0.4240
 1275SOL    HW115287   0.502   2.825   7.881 -1.1251  0.3298 -0.8235
 1275SOL    HW215288   0.455   2.732   7.994 -2.6224  1.7556 -0.9987
 1276SOL     OW15289   3.698   2.621  13.476  0.4622 -0.4465  0.0996
 1276SOL    HW115290   3.678   2.714  13.461  0.5729 -0.6272 -1.2090
 1276SOL    HW215291   3.659   2.606  13.562  1.4936  1.8688  0.9723
 1277SOL     OW15292   0.111   2.409   4.817 -0.4424  0.1564 -0.0518
 1277SOL    HW115293   0.065   2.326   4.830  2.0228 -1.0736  0.6722
 1277SOL    HW215294   0.037   2.464   4.790 -1.8589 -1.3561  0.7499
 1278SOL     OW15295   3.910   2.881   7.596  0.4306 -0.0479  0.0123
 1278SOL    HW115296   3.887   2.955   7.540  1.9967 -1.2450 -2.1782
 1278SOL    HW215297   4.003   2.901   7.604  0.4567 -0.0881 -0.2049
 1279SOL     OW15298   3.628   1.164   7.943 -0.1434  0.8713 -0.1399
 1279SOL    HW115299   3.534   1.149   7.934 -0.1734  0.7606  0.3680
 1279SOL    HW215300   3.665   1.084   7.906  1.1760  2.0039 -1.3071
 1280SOL     OW15301   3.924   2.271   7.209 -0.1013  0.3602 -0.0847
 1280SOL    HW115302   3.919   2.194   7.265  1.3793  0.6024  0.3857
 1280SOL    HW215303   4.003   2.316   7.236  1.3999 -0.8005 -2.4723
 1281SOL     OW15304   1.838   0.573   6.321 -0.7614 -0.1270  0.0167
 1281SOL    HW115305   1.903   0.508   6.349 -0.0014  0.0455 -1.3628
 1281SOL    HW215306   1.865   0.651   6.370 -1.0880 -0.0436  0.0634
 1282SOL     OW15307   0.240   4.609  11.757  0.2762  0.1083 -0.3036
 1282SOL    HW115308   0.331   4.630  11.739  0.4322  0.0720  0.4258
 1282SOL    HW215309   0.245   4.595  11.852  1.3072  2.2496 -0.0627
 1283SOL     OW15310   0.628   0.028   5.177  0.2946  0.3337 -0.5037
 1283SOL    HW115311   0.630   4.656   5.153  1.8505  0.4828 -0.9813
 1283SOL    HW215312   0.662   0.023   5.266 -3.5168  0.2376  0.9345
 1284SOL     OW15313   0.821   2.139   4.185  0.2745 -0.3888  0.2596
 1284SOL    HW115314   0.874   2.065   4.154  0.3241  0.1993 -1.0410
 1284SOL    HW215315   0.744   2.092   4.217  0.0622 -1.2182 -1.4858
 1285SOL     OW15316   3.341   0.319  11.371  0.3883  0.0138 -0.2701
 1285SOL    HW115317   3.338   0.365  11.287 -1.3606  0.6721  0.1594
 1285SOL    HW215318   3.432   0.344  11.390 -0.4561  2.3166  0.6829
 1286SOL     OW15319   3.439   2.778   9.340  0.0673 -0.3556  0.0961
 1286SOL    HW115320   3.422   2.688   9.369 -0.3205  0.4794  2.5141
 1286SOL    HW215321   3.400   2.836   9.406  0.0041 -0.1906 -0.0853
 1287SOL     OW15322   2.004   0.560   6.946  0.3554  0.2706 -0.1899
 1287SOL    HW115323   2.078   0.602   6.989  1.3343 -1.1714 -0.4532
 1287SOL    HW215324   2.052   0.501   6.888 -1.6065 -0.1735 -1.3379
 1288SOL     OW15325   2.359   2.086   6.434  0.4299  0.0659 -0.6853
 1288SOL    HW115326   2.327   2.173   6.409  2.6630  0.6419 -1.4555
 1288SOL    HW215327   2.452   2.095   6.414  0.5991  0.9719  0.4540
 1289SOL     OW15328   1.635   3.890   8.886 -0.2377 -0.3633  0.4285
 1289SOL    HW115329   1.621   3.907   8.793  2.6475 -1.3345 -0.1985
 1289SOL    HW215330   1.589   3.964   8.925 -0.9808 -0.2987 -0.5851
 1290SOL     OW15331   0.112   0.578  11.710  0.4301 -0.7057  0.3426
 1290SOL    HW115332   0.047   0.546  11.773 -0.3454 -0.7271 -0.4582
 1290SOL    HW215333   0.087   0.670  11.714  0.3076 -0.7462  0.5235
 1291SOL     OW15334   3.689   3.041   3.545  0.3048  0.2675  0.1389
 1291SOL    HW115335   3.751   3.050   3.617  0.0803  0.6835  0.2805
 1291SOL    HW215336   3.704   3.114   3.486 -0.5234 -1.2029 -1.8985
 1292SOL     OW15337   4.042   3.773  16.748  0.1211  0.6702  0.3138
 1292SOL    HW115338   3.965   3.792  16.694  0.4790  3.3541  0.7688
 1292SOL    HW215339   4.035   3.832  16.822 -4.3609 -0.1170  0.4783
 1293SOL     OW15340   0.250   1.886   8.108  0.4468 -0.0273 -0.2307
 1293SOL    HW115341   0.182   1.885   8.041  0.8686  2.3224 -0.6799
 1293SOL    HW215342   0.282   1.799   8.086  2.1553  0.4129  0.5687
 1294SOL     OW15343   0.164   4.202  17.475  0.2323  0.4260  1.2555
 1294SOL    HW115344   0.125   4.290  17.474 -2.0787 -0.6327 -1.9318
 1294SOL    HW215345   0.217   4.215  17.397  1.6757  2.8192  2.6145
 1295SOL     OW15346   3.948   2.850   3.028 -0.0615 -0.1479 -0.1721
 1295SOL    HW115347   3.933   2.945   3.026  1.7104  0.1285  0.1525
 1295SOL    HW215348   3.926   2.841   3.121 -0.1296 -0.0138 -0.1745
 1296SOL     OW15349   1.275   0.205   8.611  0.5016  0.5711 -0.2906
 1296SOL    HW115350   1.250   0.280   8.557 -1.0358 -1.3611 -2.3037
 1296SOL    HW215351   1.340   0.155   8.562 -0.0982 -1.3757  0.9143
 1297SOL     OW15352   2.169   3.788   8.901  0.4720  0.1095 -0.5245
 1297SOL    HW115353   2.155   3.737   8.981  0.3883  0.8698 -0.0631
 1297SOL    HW215354   2.075   3.803   8.892  1.0104  2.6016 -1.9747
 1298SOL     OW15355   1.871   0.729   8.529  0.3675  0.4877 -0.2478
 1298SOL    HW115356   1.940   0.673   8.496 -0.0808  0.2447 -0.7771
 1298SOL    HW215357   1.920   0.775   8.598  0.4569  0.5140 -0.3290
 1299SOL     OW15358   1.885   1.057   5.356 -0.0789  0.0956 -0.3433
 1299SOL    HW115359   1.811   1.095   5.309 -0.8069  0.6980  1.2968
 1299SOL    HW215360   1.911   1.136   5.403 -1.2670 -0.1427  0.7051
 1300SOL     OW15361   4.088   3.126   7.570 -0.5904  0.2325 -0.0160
 1300SOL    HW115362   4.127   3.084   7.647  1.3486  1.3319 -0.4074
 1300SOL    HW215363   4.162   3.182   7.547  1.8943 -2.5975  0.9889
 1301SOL     OW15364   2.488   0.923   4.047 -0.4595 -0.1695  0.0470
 1301SOL    HW115365   2.405   0.966   4.065  0.7935  1.3081  2.2935
 1301SOL    HW215366   2.482   0.851   4.111 -0.0934  1.0331  1.4328
 1302SOL     OW15367   2.697   1.153   4.371 -0.4058  0.5189  0.4035
 1302SOL    HW115368   2.720   1.156   4.278  0.8239  0.4861  0.7092
 1302SOL    HW215369   2.736   1.067   4.387 -1.2622  0.6350  3.1256
 1303SOL     OW15370   3.287   1.457  17.012 -0.1622  0.0154  0.0535
 1303SOL    HW115371   3.334   1.441  17.093 -0.2692  2.6612  0.6269
 1303SOL    HW215372   3.196   1.443  17.041 -0.2715 -0.5999 -0.5882
 1304SOL     OW15373   1.927   4.180   6.879  0.0706 -0.1202  0.0129
 1304SOL    HW115374   1.870   4.255   6.898 -0.4021 -0.9396  1.9217
 1304SOL    HW215375   1.987   4.223   6.819  0.3837  0.7880  0.9654
 1305SOL     OW15376   1.415   3.124   8.252  0.1078  0.5380 -0.0838
 1305SOL    HW115377   1.389   3.187   8.319  1.1317 -1.0973  1.8307
 1305SOL    HW215378   1.410   3.041   8.299  0.2432  0.0532 -0.9226
 1306SOL     OW15379   2.159   4.114   0.207  0.0897  0.1016  0.2796
 1306SOL    HW115380   2.170   4.181   0.139  1.5533  0.6062  0.9964
 1306SOL    HW215381   2.141   4.037   0.153 -0.9447 -0.4516  1.4131
 1307SOL     OW15382   0.296   2.418   4.575 -0.3181  0.4834 -0.0634
 1307SOL    HW115383   0.268   2.405   4.666 -0.1942 -2.9408 -0.5055
 1307SOL    HW215384   0.372   2.361   4.564 -0.0819  0.6541  0.6393
 1308SOL     OW15385   1.505   0.766   4.737  0.0511 -0.6343 -0.3460
 1308SOL    HW115386   1.571   0.832   4.757 -1.0964  1.5460 -3.7168
 1308SOL    HW215387   1.522   0.705   4.808  1.3351 -0.0254 -0.1334
 1309SOL     OW15388   4.156   2.488   4.368 -0.2197  0.6689 -0.6338
 1309SOL    HW115389   4.103   2.561   4.334 -3.0356 -1.2763 -0.4820
 1309SOL    HW215390   4.109   2.471   4.449 -0.3430  2.3971 -0.3401
 1310SOL     OW15391   3.038   1.300   1.619  0.2131  0.0682  0.0353
 1310SOL    HW115392   3.076   1.387   1.609 -3.0248  1.4848 -0.1156
 1310SOL    HW215393   2.998   1.300   1.532  0.1015 -1.6606  0.0855
 1311SOL     OW15394   2.444   1.337   7.212 -0.1802  0.1346 -0.8170
 1311SOL    HW115395   2.533   1.370   7.221 -0.1578  0.0850 -0.8529
 1311SOL    HW215396   2.416   1.306   7.298 -1.1733  1.0222 -0.8220
 1312SOL     OW15397   4.057   3.943  14.768 -0.1005  0.0140 -0.0707
 1312SOL    HW115398   4.114   3.932  14.844  0.6710 -0.8533 -0.7841
 1312SOL    HW215399   3.973   3.908  14.800 -0.4382  1.9369  1.1386
 1313SOL     OW15400   4.035   4.181  12.866 -0.3740  0.0796  0.0810
 1313SOL    HW115401   3.966   4.238  12.901 -1.0733 -0.4145 -0.4821
 1313SOL    HW215402   3.969   4.126  12.824  0.4872 -0.7040 -0.2404
 1314SOL     OW15403   3.788   1.631   7.747  0.1555  0.0685  0.2123
 1314SOL    HW115404   3.738   1.575   7.807 -0.9797  1.5264  0.6301
 1314SOL    HW215405   3.744   1.712   7.769 -1.3540 -1.5484  3.2622
 1315SOL     OW15406   0.636   2.215   5.800  0.5771 -0.0312  0.2943
 1315SOL    HW115407   0.612   2.182   5.714 -0.9242  3.2114 -0.5093
 1315SOL    HW215408   0.550   2.245   5.829  0.4670  0.9324 -1.0471
 1316SOL     OW15409   2.490   0.378   4.985  0.1698  0.3391  0.3544
 1316SOL    HW115410   2.403   0.399   5.019 -0.0472  0.3628 -0.2162
 1316SOL    HW215411   2.482   0.288   4.953  1.3686  1.0310 -1.8307
 1317SOL     OW15412   0.999   1.474   9.233  0.4498 -0.5522  0.2289
 1317SOL    HW115413   1.009   1.508   9.144  3.9040 -1.7715  0.1474
 1317SOL    HW215414   1.076   1.418   9.248 -1.6742 -3.1934  1.3275
 1318SOL     OW15415   2.503   2.049   5.428  0.2575 -0.0439  0.2286
 1318SOL    HW115416   2.499   2.136   5.469  4.7950 -0.5247  1.7194
 1318SOL    HW215417   2.538   2.001   5.503  0.5263 -0.1772  0.0184
 1319SOL     OW15418   4.160   4.657   2.584  0.1158  0.1871 -0.5351
 1319SOL    HW115419   4.181   4.566   2.564  0.7249  0.2699 -0.2615
 1319SOL    HW215420   4.081   4.672   2.532  0.8295  3.3447 -0.6760
 1320SOL     OW15421   2.996   1.571   0.464  0.9484 -0.0616  0.5883
 1320SOL    HW115422   3.087   1.586   0.441  0.6073  2.4004  0.9081
 1320SOL    HW215423   2.956   1.575   0.377  1.4465 -0.1110  0.3562
 1321SOL     OW15424   0.209   3.827   7.878  0.6335  0.9207  0.0476
 1321SOL    HW115425   0.223   3.921   7.891 -0.2464  0.9657  0.6870
 1321SOL    HW215426   0.200   3.836   7.784 -0.7929  1.0037  0.2023
 1322SOL     OW15427   0.025   1.805   4.639 -0.9880 -0.1824  0.3241
 1322SOL    HW115428   0.026   1.722   4.686  2.2816 -1.2505 -1.6385
 1322SOL    HW215429   4.654   1.813   4.616 -0.7635 -0.2194 -0.5901
 1323SOL     OW15430   1.774   0.584   2.158 -0.2554  0.0787 -0.0643
 1323SOL    HW115431   1.772   0.615   2.068  1.3604 -0.8775 -0.4238
 1323SOL    HW215432   1.703   0.520   2.161 -0.6933  0.6111  0.8654
 1324SOL     OW15433   0.938   3.930   4.664 -0.1952 -0.3257  0.3989
 1324SOL    HW115434   0.955   3.844   4.702  1.0121 -0.1162  0.3464
 1324SOL    HW215435   0.899   3.971   4.740 -0.8639  1.1413 -0.7379
 1325SOL     OW15436   3.700   1.447   4.113 -0.5450 -0.0264 -0.5764
 1325SOL    HW115437   3.700   1.474   4.205 -1.3254  0.7762 -0.8099
 1325SOL    HW215438   3.764   1.377   4.121  1.2711  1.6453 -0.4313
 1326SOL     OW15439   3.380   0.561   2.857  0.4284  0.2409  0.3584
 1326SOL    HW115440   3.454   0.520   2.901  0.4950 -0.5189 -0.4616
 1326SOL    HW215441   3.372   0.642   2.908 -3.7078 -1.2012  1.9987
 1327SOL     OW15442   3.908   1.973  10.004 -0.0486  0.1135 -0.5513
 1327SOL    HW115443   3.921   1.914  10.078  2.1259  1.1483 -0.1135
 1327SOL    HW215444   3.996   2.007   9.990  0.7452 -1.0211  1.6128
 1328SOL     OW15445   4.156   2.072   4.221  0.0825  0.2509 -0.0006
 1328SOL    HW115446   4.200   2.004   4.171 -0.3191 -1.0898  1.4977
 1328SOL    HW215447   4.213   2.139   4.183 -0.6664  0.8831 -0.0297
 1329SOL     OW15448   3.231   1.305   7.347  0.5281  0.0724 -0.1708
 1329SOL    HW115449   3.178   1.230   7.375 -0.8642  0.5628 -1.5212
 1329SOL    HW215450   3.314   1.260   7.361  1.3573  2.1559  1.6679
 1330SOL     OW15451   2.548   0.812  11.846 -0.3982  0.3384 -0.3410
 1330SOL    HW115452   2.472   0.870  11.861 -0.0885  0.4515  0.7697
 1330SOL    HW215453   2.530   0.759  11.769  2.0487 -3.0709  1.4824
 1331SOL     OW15454   1.706   0.948   4.754 -0.1070 -0.2051 -0.0306
 1331SOL    HW115455   1.747   0.989   4.829 -1.1464 -0.1085  0.4828
 1331SOL    HW215456   1.684   1.020   4.695  3.0982  1.0445  0.3007
 1332SOL     OW15457   1.924   0.689  16.748  0.1768  0.3241 -0.0972
 1332SOL    HW115458   1.925   0.720  16.658  0.2040  4.7669  1.4078
 1332SOL    HW215459   1.969   0.606  16.734  0.4460  0.9698 -2.9006
 1333SOL     OW15460   4.717   4.432  11.655  0.1018 -0.2635 -0.0203
 1333SOL    HW115461   0.013   4.401  11.743  2.3654 -1.3191 -0.8313
 1333SOL    HW215462   0.004   4.350  11.606 -3.6605 -0.8947  0.4117
 1334SOL     OW15463   2.876   2.471   4.164 -0.2698 -0.8720  0.4194
 1334SOL    HW115464   2.920   2.400   4.211  0.1997 -1.1203 -0.3952
 1334SOL    HW215465   2.946   2.534   4.150 -2.5022  1.2144 -1.3378
 1335SOL     OW15466   1.230   1.690   7.253 -0.5859  0.1394 -0.5105
 1335SOL    HW115467   1.171   1.755   7.213 -0.0964  0.6013 -0.4743
 1335SOL    HW215468   1.201   1.607   7.213 -0.3086  0.0303 -0.4864
 1336SOL     OW15469   0.932   2.408   6.477  0.5005  0.3467 -0.5843
 1336SOL    HW115470   0.948   2.426   6.385  2.2351  1.2077 -0.1075
 1336SOL    HW215471   0.877   2.484   6.498 -0.3915 -0.2629 -0.7192
 1337SOL     OW15472   1.754   3.751   7.655  0.3233 -0.1751  0.5024
 1337SOL    HW115473   1.711   3.666   7.661  0.1874 -0.1143  0.3983
 1337SOL    HW215474   1.840   3.730   7.619 -1.3223 -1.6429 -2.5667
 1338SOL     OW15475   1.668   4.545   6.072 -0.8319  0.1348  0.6961
 1338SOL    HW115476   1.648   4.623   6.123  0.6927  0.1774  1.2219
 1338SOL    HW215477   1.699   4.490   6.144  1.3755  0.4131 -0.0539
 1339SOL     OW15478   2.441   2.510  13.121  0.2706  0.4449 -0.0694
 1339SOL    HW115479   2.536   2.523  13.119  0.3575 -0.1851  0.0149
 1339SOL    HW215480   2.415   2.591  13.165  2.6174  1.5819 -0.7319
 1340SOL     OW15481   4.350   1.841   4.244  0.3504 -0.3662 -0.1655
 1340SOL    HW115482   4.296   1.766   4.269 -0.3184  0.3421  0.4928
 1340SOL    HW215483   4.332   1.851   4.150  1.0583 -0.4416 -0.3123
 1341SOL     OW15484   1.190   1.198   5.344 -0.2297  0.3954 -0.2814
 1341SOL    HW115485   1.140   1.275   5.316 -2.2621 -1.0069 -0.5942
 1341SOL    HW215486   1.131   1.168   5.413  2.5505  1.0738  2.3778
 1342SOL     OW15487   1.144   1.313  11.860 -0.9696  0.1143 -0.0607
 1342SOL    HW115488   1.134   1.294  11.953 -1.5444 -0.3423 -0.2154
 1342SOL    HW215489   1.185   1.234  11.826  1.4923  0.4349  2.1722
 1343SOL     OW15490   1.600   0.763   3.302 -0.2860 -0.2674 -0.0304
 1343SOL    HW115491   1.613   0.680   3.257  0.9200  0.5095 -1.1159
 1343SOL    HW215492   1.539   0.744   3.373 -2.2006  0.0633 -1.6208
 1344SOL     OW15493   3.454   3.169   8.302  0.6945 -0.3015 -0.1900
 1344SOL    HW115494   3.505   3.108   8.356 -0.6649 -1.0563  0.2398
 1344SOL    HW215495   3.377   3.183   8.357  0.8995 -0.2783  0.0864
 1345SOL     OW15496   1.268   0.906   4.831 -0.1314 -0.1205  0.0055
 1345SOL    HW115497   1.351   0.882   4.789 -0.7638  0.1601 -1.4006
 1345SOL    HW215498   1.304   0.923   4.918 -0.3921  0.1547  0.0601
 1346SOL     OW15499   1.492   1.790   7.939  0.6159 -0.0938  0.2565
 1346SOL    HW115500   1.583   1.816   7.951  0.5811  0.4963 -0.7829
 1346SOL    HW215501   1.513   1.712   7.889  3.5021  1.5668 -1.1394
 1347SOL     OW15502   1.046   4.224   4.342  0.0979 -0.4047 -0.5318
 1347SOL    HW115503   1.103   4.151   4.368  0.4636  0.3799  0.8686
 1347SOL    HW215504   1.088   4.271   4.271  0.0445  0.5558  0.0719
 1348SOL     OW15505   3.304   3.725   2.534  0.0200  0.1280 -0.3958
 1348SOL    HW115506   3.272   3.728   2.445 -2.1611 -0.6664  0.3732
 1348SOL    HW215507   3.255   3.651   2.570 -1.0883  1.4914  0.8857
 1349SOL     OW15508   1.504   3.497   6.172 -0.0165  0.3085 -0.1470
 1349SOL    HW115509   1.591   3.528   6.147  0.7579 -2.9435 -1.4167
 1349SOL    HW215510   1.446   3.524   6.100  0.7526 -1.3059 -1.3811
 1350SOL     OW15511   2.049   2.487   8.072 -0.4326 -0.3966  0.2435
 1350SOL    HW115512   2.054   2.392   8.065  0.8978 -0.0767 -3.3688
 1350SOL    HW215513   2.001   2.497   8.154  0.0403 -1.0735  0.5894
 1351SOL     OW15514   0.427   1.763   8.768  0.0744 -0.7182  0.4289
 1351SOL    HW115515   0.486   1.712   8.825  1.2841 -0.1944 -0.3771
 1351SOL    HW215516   0.431   1.844   8.819 -1.3751 -0.9340  0.8891
 1352SOL     OW15517   4.574   1.602   7.807 -0.3712  0.2753  0.1664
 1352SOL    HW115518   4.591   1.528   7.865  0.0243 -1.1506 -1.7968
 1352SOL    HW215519   4.498   1.558   7.768 -0.2577 -0.7656  1.1209
 1353SOL     OW15520   2.724   1.362   7.224  0.2684 -0.0867  0.4746
 1353SOL    HW115521   2.812   1.387   7.196 -0.3479 -0.9732 -2.2870
 1353SOL    HW215522   2.732   1.395   7.314 -0.7698  0.4293  0.3759
 1354SOL     OW15523   0.294   3.583   1.412 -0.1397 -0.1253 -0.5281
 1354SOL    HW115524   0.245   3.555   1.489 -0.4879 -0.0224 -0.7156
 1354SOL    HW215525   0.260   3.522   1.347 -1.1077  0.2079 -0.3392
 1355SOL     OW15526   4.505   0.442   4.263 -0.0661  0.4570 -0.1278
 1355SOL    HW115527   4.506   0.455   4.358  0.3832 -3.3775  0.3956
 1355SOL    HW215528   4.552   0.362   4.238  1.6193  1.2720  0.3817
 1356SOL     OW15529   4.043   4.716   4.829 -0.1612  0.1741 -0.3332
 1356SOL    HW115530   4.064   4.654   4.899 -0.4583 -1.8174 -1.9902
 1356SOL    HW215531   3.997   4.663   4.763  1.8564 -1.9324 -0.0353
 1357SOL     OW15532   2.085   0.034   6.325 -0.4558 -0.1007  0.0534
 1357SOL    HW115533   2.115   4.696   6.255  1.0157  3.0645 -1.9434
 1357SOL    HW215534   2.017   0.080   6.276  0.7541  1.2560 -0.3349
 1358SOL     OW15535   1.903   1.704  11.107  0.0817 -0.2930  0.3990
 1358SOL    HW115536   1.939   1.658  11.183  0.5655  1.6401  1.3468
 1358SOL    HW215537   1.904   1.632  11.045  0.5212 -0.8474  1.0563
 1359SOL     OW15538   1.657   3.395   2.760 -0.2252  0.1983  0.7282
 1359SOL    HW115539   1.651   3.330   2.830  0.5723 -1.0607 -0.3893
 1359SOL    HW215540   1.722   3.360   2.700 -0.7680  0.2042  0.1357
 1360SOL     OW15541   3.548   4.706  13.706  0.4406 -0.1416 -0.5679
 1360SOL    HW115542   3.580   0.024  13.787  1.6845  3.0204 -2.6005
 1360SOL    HW215543   3.587   4.619  13.714  0.1740 -0.1348  0.7782
 1361SOL     OW15544   1.747   1.192   6.047  0.1417 -0.0534  0.0358
 1361SOL    HW115545   1.666   1.176   5.999 -0.4582 -0.4783  1.1950
 1361SOL    HW215546   1.775   1.260   5.986  0.5041  1.1143  1.5060
 1362SOL     OW15547   4.442   3.961   7.202  0.0015  0.8836 -0.1676
 1362SOL    HW115548   4.358   3.990   7.237  1.0888  0.5143  2.7825
 1362SOL    HW215549   4.464   4.045   7.161 -0.2616  0.1102 -1.8754
 1363SOL     OW15550   3.714   2.436   7.098  0.0241  0.0411  0.0335
 1363SOL    HW115551   3.677   2.352   7.126 -1.0141  0.2685 -0.6403
 1363SOL    HW215552   3.801   2.425   7.137  0.0667 -0.4894 -0.2042
 1364SOL     OW15553   3.162   0.399   4.370 -1.0742  0.3349  0.4313
 1364SOL    HW115554   3.219   0.332   4.330 -1.3998  0.7616 -0.7346
 1364SOL    HW215555   3.179   0.470   4.308 -1.5523 -0.5490 -0.7076
 1365SOL     OW15556   3.933   1.021   9.790 -0.1720  0.3901 -0.0586
 1365SOL    HW115557   3.988   1.095   9.816 -0.7663  0.5480  0.7539
 1365SOL    HW215558   3.908   0.981   9.874  1.3745 -0.0453  0.1879
 1366SOL     OW15559   1.897   3.488   7.962  0.1231 -0.5301 -0.8112
 1366SOL    HW115560   1.854   3.554   7.907  0.2309  2.3767  2.5907
 1366SOL    HW215561   1.876   3.531   8.045  0.9891 -0.9055 -0.4063
 1367SOL     OW15562   3.081   1.451   5.116  0.4132 -0.8066 -0.3596
 1367SOL    HW115563   3.139   1.375   5.127  3.4950  1.5902 -0.2510
 1367SOL    HW215564   3.004   1.420   5.165  0.0382  0.4278 -0.1779
 1368SOL     OW15565   4.525   0.770   1.962 -0.1962  0.1991  0.5473
 1368SOL    HW115566   4.442   0.781   2.008 -1.4460 -1.9876 -1.1814
 1368SOL    HW215567   4.553   0.859   1.942 -2.2662  1.1727  1.9936
 1369SOL     OW15568   3.852   3.658   8.500  0.2971  0.1625 -0.0946
 1369SOL    HW115569   3.869   3.714   8.424 -0.2213  0.2428 -0.1513
 1369SOL    HW215570   3.782   3.704   8.547  0.0879  1.3530 -1.5414
 1370SOL     OW15571   2.883   4.000   6.542 -0.1843  0.2770 -0.3009
 1370SOL    HW115572   2.957   3.955   6.582 -1.8067 -0.3147  2.0518
 1370SOL    HW215573   2.869   3.963   6.454 -2.1308  1.8379 -0.6453
 1371SOL     OW15574   0.869   1.681   3.143 -0.0373 -0.4910 -0.2567
 1371SOL    HW115575   0.852   1.587   3.145  0.1552 -0.4850  1.3506
 1371SOL    HW215576   0.945   1.694   3.200  1.1227 -0.5918 -1.7819
 1372SOL     OW15577   1.954   1.451   8.371 -0.3651 -0.3257 -0.0929
 1372SOL    HW115578   1.864   1.431   8.399 -0.9073  0.3481 -1.3799
 1372SOL    HW215579   1.982   1.361   8.388  1.1711  0.1718  0.0434
 1373SOL     OW15580   4.596   0.460   3.920 -0.6078 -0.2658 -0.4873
 1373SOL    HW115581   4.530   0.528   3.929  1.1707  1.3080  0.8422
 1373SOL    HW215582   4.643   0.480   4.002  0.0704 -0.5935 -0.7957
 1374SOL     OW15583   1.802   0.267   9.201 -0.0723  0.0773 -0.0588
 1374SOL    HW115584   1.756   0.213   9.137 -0.8790  0.2825  0.3494
 1374SOL    HW215585   1.758   0.241   9.281  0.8763 -1.2033  0.0430
 1375SOL     OW15586   1.540   0.279   7.387  0.2008 -0.2382 -0.1006
 1375SOL    HW115587   1.587   0.253   7.307  2.0749  2.8256 -0.0029
 1375SOL    HW215588   1.452   0.274   7.349 -0.1753  1.8873  0.5160
 1376SOL     OW15589   2.295   1.243   0.866  0.0139 -0.8377  0.4394
 1376SOL    HW115590   2.243   1.319   0.841 -0.1410 -1.0664  0.0623
 1376SOL    HW215591   2.365   1.252   0.802 -1.4747  1.4834 -0.8538
 1377SOL     OW15592   4.055   4.233   6.540  0.2436  0.4722 -0.3888
 1377SOL    HW115593   4.129   4.174   6.524  1.3432  1.7209  0.0842
 1377SOL    HW215594   4.094   4.288   6.608  2.3750 -1.7277  0.1803
 1378SOL     OW15595   0.877   3.141  10.388  0.3092  0.1522 -0.4568
 1378SOL    HW115596   0.921   3.104  10.311 -0.7308 -0.3959 -0.7801
 1378SOL    HW215597   0.825   3.217  10.363  1.3499  1.0533  0.0767
 1379SOL     OW15598   1.991   0.204   8.884 -0.2309 -0.0907 -0.0701
 1379SOL    HW115599   2.011   0.286   8.929  1.1037 -1.3373  1.6182
 1379SOL    HW215600   2.073   0.174   8.845 -0.2279 -0.1211 -0.0405
 1380SOL     OW15601   1.888   0.763   4.740  0.0201  0.1383  0.5271
 1380SOL    HW115602   1.875   0.724   4.653 -2.1049  0.0640  0.8867
 1380SOL    HW215603   1.822   0.832   4.740 -1.1016 -0.9250 -0.5939
 1381SOL     OW15604   3.349   1.092   3.015  0.1647  0.4576 -0.3166
 1381SOL    HW115605   3.256   1.084   2.993  0.5096  0.9798 -1.9716
 1381SOL    HW215606   3.373   1.137   2.934 -3.0958  4.0689  0.7656
 1382SOL     OW15607   2.058   4.005   8.203  0.6903  0.4857  0.2162
 1382SOL    HW115608   2.143   3.974   8.235  0.5751  0.0699  0.1217
 1382SOL    HW215609   1.996   3.946   8.245  1.6828 -1.4787 -1.0687
 1383SOL     OW15610   3.754   3.765   3.156  0.6517  0.3276 -0.2762
 1383SOL    HW115611   3.768   3.857   3.131 -0.9986  0.0098 -2.3838
 1383SOL    HW215612   3.788   3.728   3.075 -1.0310 -2.5405  0.3258
 1384SOL     OW15613   3.299   1.842   6.946 -0.3859 -0.4527 -0.3165
 1384SOL    HW115614   3.207   1.836   6.918 -0.2573  1.6952 -1.1891
 1384SOL    HW215615   3.342   1.910   6.895 -0.6247  1.2446  1.7055
 1385SOL     OW15616   3.668   4.607  14.833  0.0104  0.2037 -0.4628
 1385SOL    HW115617   3.600   4.541  14.848  0.4201 -0.2063 -0.4229
 1385SOL    HW215618   3.719   4.586  14.911 -1.0289 -2.7397 -0.5726
 1386SOL     OW15619   0.029   0.971  17.168 -0.8011  0.2977 -0.0675
 1386SOL    HW115620   4.713   0.884  17.153 -0.2681 -0.1224  1.0413
 1386SOL    HW215621   4.719   0.984  17.258  1.8456  1.0481  0.7202
 1387SOL     OW15622   3.424   4.426   1.763  0.7969 -0.2043 -0.0593
 1387SOL    HW115623   3.399   4.439   1.672 -0.7801  1.1422  0.5529
 1387SOL    HW215624   3.394   4.511   1.796  0.1183 -0.4872  0.0666
 1388SOL     OW15625   4.231   2.754   5.627 -0.5248  0.3375 -0.2577
 1388SOL    HW115626   4.204   2.756   5.719  1.6928  0.5850  0.3967
 1388SOL    HW215627   4.164   2.693   5.597  1.1372 -1.5565 -0.1336
 1389SOL     OW15628   3.085   3.202  16.289  0.0922 -0.4687 -0.2602
 1389SOL    HW115629   3.021   3.139  16.256  0.8998 -0.9910 -0.8306
 1389SOL    HW215630   3.030   3.272  16.323  3.3351  0.9780  2.0233
 1390SOL     OW15631   3.428   0.293  16.843  0.2862 -0.2372  0.0136
 1390SOL    HW115632   3.445   0.326  16.754 -0.2326 -0.0989 -0.0328
 1390SOL    HW215633   3.520   0.279  16.862 -0.0645  0.2495  2.0368
 1391SOL     OW15634   0.386   1.318   0.328 -0.3913 -0.0579  0.3506
 1391SOL    HW115635   0.478   1.340   0.342 -0.3575  0.1318 -0.1637
 1391SOL    HW215636   0.395   1.269   0.247  0.9961  1.1736 -0.2415
 1392SOL     OW15637   4.433   4.220   1.276  0.0700 -0.2667 -0.0825
 1392SOL    HW115638   4.421   4.282   1.204  1.6926 -0.1784 -0.2683
 1392SOL    HW215639   4.341   4.195   1.290 -0.5670  2.1623  0.1661
 1393SOL     OW15640   2.027   4.153  11.819 -0.4213  0.8567  0.0146
 1393SOL    HW115641   2.008   4.231  11.872 -0.0242  0.6235  0.5043
 1393SOL    HW215642   2.035   4.086  11.887 -2.4446  1.7285  1.1227
 1394SOL     OW15643   0.102   0.587   5.770  0.0656  0.8136 -0.2473
 1394SOL    HW115644   0.133   0.661   5.823  3.6910  0.1919 -1.5110
 1394SOL    HW215645   0.035   0.626   5.714 -0.2120  0.1121 -0.4093
 1395SOL     OW15646   2.404   3.209   2.319  0.1810  0.3132 -0.2525
 1395SOL    HW115647   2.471   3.254   2.370 -0.1324 -0.5042  0.8853
 1395SOL    HW215648   2.387   3.270   2.247  0.7287  0.7534 -0.0025
 1396SOL     OW15649   2.075   1.367   3.515  0.4055 -0.1145  0.4246
 1396SOL    HW115650   2.087   1.336   3.425 -1.8985 -2.9115  1.0848
 1396SOL    HW215651   2.007   1.309   3.548 -0.2832  0.6275  0.3208
 1397SOL     OW15652   3.478   4.430   7.359  0.2405 -0.5804 -0.1600
 1397SOL    HW115653   3.539   4.497   7.389 -0.9538  0.0055  1.0102
 1397SOL    HW215654   3.438   4.491   7.298 -2.6177 -0.0861  2.1979
 1398SOL     OW15655   3.438   0.185  14.255 -0.3142  0.4240  0.2375
 1398SOL    HW115656   3.502   0.256  14.250 -0.3886  0.4744  0.0473
 1398SOL    HW215657   3.467   0.118  14.193 -1.0784  1.4661 -1.2053
 1399SOL     OW15658   2.931   4.560  10.770  0.9481 -0.8946 -1.0398
 1399SOL    HW115659   2.943   4.467  10.753 -2.6396 -1.7394  1.1030
 1399SOL    HW215660   2.991   4.561  10.845 -0.2065  1.6197 -0.1458
 1400SOL     OW15661   0.441   3.918   9.103 -0.1584  0.4499  0.4906
 1400SOL    HW115662   0.412   3.864   9.030  0.1216  3.8795 -2.1706
 1400SOL    HW215663   0.436   4.006   9.066  0.3962  0.9256  1.5381
 1401SOL     OW15664   4.509   2.941   1.136 -0.1299 -0.6096 -0.3530
 1401SOL    HW115665   4.558   2.973   1.212  0.4107  0.1004 -1.0005
 1401SOL    HW215666   4.422   2.942   1.176  0.8400 -1.0298  1.7338
 1402SOL     OW15667   1.776   3.762   8.642 -0.4012  0.0533  0.4209
 1402SOL    HW115668   1.738   3.715   8.568 -1.4484 -0.3890  1.2385
 1402SOL    HW215669   1.770   3.854   8.615 -0.5202 -0.5067 -1.4275
 1403SOL     OW15670   1.716   4.188   4.220  0.1704 -0.4906 -0.1452
 1403SOL    HW115671   1.728   4.282   4.233 -1.6895 -0.1954 -0.5590
 1403SOL    HW215672   1.679   4.173   4.133 -2.4782  0.3521  0.8542
 1404SOL     OW15673   3.577   1.792   9.693 -0.5587  0.3876 -0.4949
 1404SOL    HW115674   3.655   1.785   9.747  0.5700 -0.2700 -2.2047
 1404SOL    HW215675   3.607   1.852   9.624 -0.4987  0.5657 -0.3136
 1405SOL     OW15676   2.819   4.068   4.009  0.2339 -0.0816  0.4469
 1405SOL    HW115677   2.732   4.090   3.975  0.7451  1.0056 -0.1150
 1405SOL    HW215678   2.862   4.063   3.924 -2.3767  0.3326 -0.9039
 1406SOL     OW15679   1.216   0.399   6.400 -0.1973 -0.2017 -0.1128
 1406SOL    HW115680   1.226   0.413   6.306  0.7275 -1.4155 -0.1999
 1406SOL    HW215681   1.221   0.485   6.441  0.9695 -1.0277  1.4887
 1407SOL     OW15682   2.562   2.609   9.632 -0.1920 -0.4278  0.1154
 1407SOL    HW115683   2.600   2.658   9.559  2.0056 -1.5304  0.5165
 1407SOL    HW215684   2.626   2.547   9.667  0.4495  0.3408  0.3104
 1408SOL     OW15685   4.450   0.642   6.015 -0.5788  0.0568 -0.0103
 1408SOL    HW115686   4.454   0.686   5.930 -2.4235 -1.3267 -0.8063
 1408SOL    HW215687   4.471   0.550   5.999  1.0208  0.2713  0.8968
 1409SOL     OW15688   3.322   2.511   2.155  0.1318  0.3813  0.1102
 1409SOL    HW115689   3.310   2.416   2.165 -0.9908  0.1552 -3.2730
 1409SOL    HW215690   3.232   2.544   2.154 -0.4016 -1.1220 -1.6289
 1410SOL     OW15691   1.062   3.294   5.693  0.2592 -0.2327  0.4737
 1410SOL    HW115692   1.086   3.226   5.630  0.0929  1.2134 -1.1587
 1410SOL    HW215693   1.130   3.358   5.671 -0.4210 -0.4979 -2.4949
 1411SOL     OW15694   3.866   0.172   5.787 -0.2432  0.1218  0.4133
 1411SOL    HW115695   3.842   0.262   5.805 -2.4833 -0.4849  0.5199
 1411SOL    HW215696   3.949   0.158   5.833 -1.1429 -0.4488  1.8986
 1412SOL     OW15697   3.251   1.008   4.162  0.1041 -0.2603 -0.1503
 1412SOL    HW115698   3.283   1.032   4.075  0.9931 -0.3419  0.1505
 1412SOL    HW215699   3.333   1.001   4.211 -0.0203  2.3518  0.4026
 1413SOL     OW15700   3.929   4.678   6.704 -0.2081 -0.1565  0.4001
 1413SOL    HW115701   4.022   4.682   6.730  0.1081  4.0595 -1.4753
 1413SOL    HW215702   3.924   4.585   6.683 -1.6495  0.0470 -0.0947
 1414SOL     OW15703   2.733   0.179   3.120 -0.2636 -0.5296  0.6219
 1414SOL    HW115704   2.675   0.218   3.054  0.1461 -0.7445  0.1352
 1414SOL    HW215705   2.680   0.101   3.136 -1.3775 -0.4051 -2.4831
 1415SOL     OW15706   4.702   0.061  11.619  0.6196 -0.2382 -0.5802
 1415SOL    HW115707   4.655   0.009  11.684 -5.8688  2.8016 -2.8358
 1415SOL    HW215708   4.647   0.138  11.605  0.6220  0.3612  2.7958
 1416SOL     OW15709   1.795   3.963  13.318  0.5251 -0.0427  0.3291
 1416SOL    HW115710   1.855   3.910  13.265  0.8999  0.4667  0.2390
 1416SOL    HW215711   1.721   3.904  13.301  0.0440  1.1928 -1.9893
 1417SOL     OW15712   4.199   1.323   1.808 -0.0151  0.0242  0.2314
 1417SOL    HW115713   4.117   1.275   1.817 -1.1751  2.0011  0.1988
 1417SOL    HW215714   4.190   1.334   1.714  2.3527  0.8202  0.0984
 1418SOL     OW15715   2.327   2.848   7.953  0.1764 -0.2574  0.5041
 1418SOL    HW115716   2.315   2.836   7.859 -1.2582 -0.4714  0.7163
 1418SOL    HW215717   2.240   2.835   7.991  0.3787  0.0733  1.0809
 1419SOL     OW15718   0.206   2.382  14.750 -0.1477 -0.3874  0.3354
 1419SOL    HW115719   0.123   2.341  14.776 -0.2781 -0.7582 -0.6737
 1419SOL    HW215720   0.177   2.464  14.710  1.0530 -1.0438 -1.8919
 1420SOL     OW15721   4.610   1.708   0.627 -0.3234 -0.3262 -0.3693
 1420SOL    HW115722   4.516   1.714   0.645  0.0587  0.6329  1.3074
 1420SOL    HW215723   4.662   1.729   0.705 -1.6116  3.1155 -0.4269
 1421SOL     OW15724   2.749   3.664  16.562  0.5085 -0.2374 -0.3450
 1421SOL    HW115725   2.682   3.610  16.603 -1.5572  2.5054 -0.0649
 1421SOL    HW215726   2.709   3.670  16.475  0.4771  1.0061 -0.2415
 1422SOL     OW15727   2.287   1.162  14.646  0.0985 -0.4720 -0.6478
 1422SOL    HW115728   2.229   1.104  14.595  0.4708 -0.7909 -0.7099
 1422SOL    HW215729   2.355   1.096  14.662 -0.0963  0.5000  4.2078
 1423SOL     OW15730   0.279   4.549  12.018  0.2451 -0.0818 -0.7460
 1423SOL    HW115731   0.346   4.480  12.014 -0.7895 -1.1836  0.9080
 1423SOL    HW215732   0.335   4.624  12.036  0.6835 -0.3457 -0.9854
 1424SOL     OW15733   4.160   1.058   1.976 -0.0044  0.7543 -0.3170
 1424SOL    HW115734   4.238   1.022   1.933 -0.1298 -0.2443  0.2741
 1424SOL    HW215735   4.102   1.038   1.903  1.4902  1.2931 -1.6519
 1425SOL     OW15736   3.723   3.422   5.459 -0.4951  0.4230 -0.1778
 1425SOL    HW115737   3.669   3.344   5.470 -1.4946  1.2809  0.9832
 1425SOL    HW215738   3.797   3.392   5.406 -0.0688  0.2358  0.5350
 1426SOL     OW15739   1.366   1.779   8.487 -0.7313 -0.0661 -0.1949
 1426SOL    HW115740   1.392   1.708   8.546  2.5187  0.6369 -0.7904
 1426SOL    HW215741   1.367   1.855   8.545  1.5669  0.0740 -0.4068
 1427SOL     OW15742   1.283   0.679  10.463 -0.4024 -0.1982  0.3109
 1427SOL    HW115743   1.262   0.661  10.555  0.8196 -1.0569  0.4341
 1427SOL    HW215744   1.194   0.701  10.436  0.2454 -1.0173 -2.4640
 1428SOL     OW15745   2.664   1.384   3.294 -0.5908  0.2689 -0.6399
 1428SOL    HW115746   2.622   1.299   3.288  2.6219 -1.2253 -2.3199
 1428SOL    HW215747   2.665   1.421   3.206  0.3645  2.8453  0.4437
 1429SOL     OW15748   2.849   4.358   5.450  0.6971 -0.3264 -0.0614
 1429SOL    HW115749   2.820   4.397   5.532  4.5334  1.5133  0.4307
 1429SOL    HW215750   2.781   4.291   5.440  0.0520  0.7658 -3.0150
 1430SOL     OW15751   2.608   3.432  15.222  0.2012  0.0053  0.2140
 1430SOL    HW115752   2.567   3.418  15.136 -0.4073  1.7476  0.2235
 1430SOL    HW215753   2.666   3.356  15.227  1.3473  0.9778  1.3770
 1431SOL     OW15754   1.240   2.810   9.616  0.1446  0.1774  0.0840
 1431SOL    HW115755   1.332   2.800   9.641  0.5563  0.5344 -1.2580
 1431SOL    HW215756   1.230   2.762   9.533 -1.7905 -0.8885  0.9288
 1432SOL     OW15757   3.239   1.136   5.030  0.7416 -1.3298 -0.6487
 1432SOL    HW115758   3.146   1.137   5.053  1.2776 -0.0113  1.5464
 1432SOL    HW215759   3.269   1.051   5.061  0.1154 -0.9650  0.9633
 1433SOL     OW15760   4.499   2.175   5.749  0.1468  0.2539  0.0140
 1433SOL    HW115761   4.466   2.246   5.694  0.3725  0.2636 -0.1089
 1433SOL    HW215762   4.421   2.122   5.765  1.2073 -0.4284  2.9687
 1434SOL     OW15763   3.125   4.666   1.889  0.2151  0.2065 -0.3070
 1434SOL    HW115764   3.091   0.020   1.839  0.6915 -0.6045 -1.8524
 1434SOL    HW215765   3.054   4.602   1.879  1.6469 -1.6096  1.3383
 1435SOL     OW15766   3.315   0.776   0.886  0.0352  0.0673 -0.3015
 1435SOL    HW115767   3.288   0.763   0.795 -1.0543 -0.1682  0.0648
 1435SOL    HW215768   3.409   0.771   0.865 -0.1557  2.0841 -1.6682
 1436SOL     OW15769   1.226   1.679   1.409  0.7447  0.3078  0.3597
 1436SOL    HW115770   1.138   1.656   1.379  0.8723  1.4895 -0.9188
 1436SOL    HW215771   1.204   1.721   1.493  1.4833 -0.2565  0.8352
 1437SOL     OW15772   4.566   0.906  10.743  0.1246 -0.4629  0.4896
 1437SOL    HW115773   4.473   0.892  10.756  0.0413  0.1808  0.6205
 1437SOL    HW215774   4.599   0.818  10.763 -1.0917 -0.8475  0.7788
 1438SOL     OW15775   3.817   2.558   1.805  0.1141 -0.4549  0.4568
 1438SOL    HW115776   3.910   2.555   1.829  0.1128 -0.5826  0.4468
 1438SOL    HW215777   3.831   2.518   1.719  2.0235  2.7084 -0.7102
 1439SOL     OW15778   4.058   3.923   1.770  0.2891  0.1070  0.2242
 1439SOL    HW115779   4.015   3.935   1.686  0.9641  0.9470  0.0046
 1439SOL    HW215780   4.130   3.863   1.748 -0.0540  0.7438 -2.5769
 1440SOL     OW15781   1.287   4.669  17.048 -0.3917 -0.0912 -0.3071
 1440SOL    HW115782   1.246   4.584  17.066 -3.2713  1.0709 -1.2973
 1440SOL    HW215783   1.364   4.641  16.998  1.5348  3.4975  0.6249
 1441SOL     OW15784   4.055   2.960  15.361 -0.2123 -0.1764  0.3326
 1441SOL    HW115785   4.111   2.952  15.438  0.7933 -2.1392 -0.6022
 1441SOL    HW215786   4.017   2.872  15.359 -2.2533  0.6734  1.3928
 1442SOL     OW15787   0.270   3.980  11.833  0.1439 -0.1350  0.0080
 1442SOL    HW115788   0.360   3.983  11.864 -0.0510 -0.0322  0.5679
 1442SOL    HW215789   0.244   4.055  11.887 -1.4948 -0.5792 -0.1653
 1443SOL     OW15790   3.478   1.895  10.928 -0.4873 -0.1731  0.1056
 1443SOL    HW115791   3.438   1.870  11.011 -0.7628 -1.5509 -0.4404
 1443SOL    HW215792   3.530   1.972  10.953 -1.0224  1.0777 -2.6244
 1444SOL     OW15793   4.258   0.939   4.961  0.0601  0.1365 -0.5937
 1444SOL    HW115794   4.176   0.982   4.987  1.9624  0.6862  4.5765
 1444SOL    HW215795   4.319   1.013   4.951 -1.2043  1.0580 -1.5979
 1445SOL     OW15796   3.847   3.588  10.029  0.4358  0.0166  0.0643
 1445SOL    HW115797   3.926   3.556  10.071  1.0826  1.4228 -0.0578
 1445SOL    HW215798   3.851   3.682  10.047 -3.3117  0.3638 -0.9332
 1446SOL     OW15799   1.658   3.663   1.930  0.3898 -0.2019  0.1834
 1446SOL    HW115800   1.726   3.624   1.875 -1.1583  0.0153 -1.8664
 1446SOL    HW215801   1.709   3.719   1.990  1.6003  0.9854 -1.9573
 1447SOL     OW15802   4.049   1.799   3.691  0.5182  0.5148  0.2693
 1447SOL    HW115803   3.999   1.879   3.678  0.1846 -0.1467 -2.4655
 1447SOL    HW215804   3.992   1.744   3.745  0.6872 -0.5806 -0.6641
 1448SOL     OW15805   2.091   3.299   6.689 -0.2740 -0.0874 -0.2586
 1448SOL    HW115806   2.050   3.219   6.722  1.8515 -0.5356  1.2475
 1448SOL    HW215807   2.061   3.357   6.758  1.6960  0.1724  0.3652
 1449SOL     OW15808   0.436   1.642   5.210 -0.3047  0.4807 -0.0129
 1449SOL    HW115809   0.369   1.579   5.183 -1.6099  1.0365  1.9063
 1449SOL    HW215810   0.436   1.636   5.306 -0.7347  1.1895  0.0230
 1450SOL     OW15811   1.570   4.133   5.169  0.0149 -0.5087  0.0020
 1450SOL    HW115812   1.574   4.039   5.149  2.2390 -0.7914  1.7780
 1450SOL    HW215813   1.599   4.149   5.258  3.6614  1.4758 -1.5446
 1451SOL     OW15814   0.268   0.356   5.325 -0.0872 -0.4550 -0.3627
 1451SOL    HW115815   0.201   0.299   5.286 -1.1382 -0.2465  1.1358
 1451SOL    HW215816   0.236   0.380   5.412  0.1568  1.7677 -0.8981
 1452SOL     OW15817   2.252   3.251   9.465  0.1965 -0.1401  0.2544
 1452SOL    HW115818   2.313   3.187   9.427  0.2302 -0.5550  1.0193
 1452SOL    HW215819   2.224   3.304   9.390 -0.8533 -2.2086 -0.8399
 1453SOL     OW15820   2.293   4.133   5.828  0.1357 -0.1499 -0.3703
 1453SOL    HW115821   2.279   4.210   5.774  0.5136  0.3134  0.1881
 1453SOL    HW215822   2.320   4.066   5.765 -0.5180 -0.4458 -0.3305
 1454SOL     OW15823   3.148   0.864   6.938 -0.4108  0.4693  0.2718
 1454SOL    HW115824   3.184   0.815   6.864  0.1897  0.4893  0.5509
 1454SOL    HW215825   3.211   0.839   7.006  1.2935 -0.8582 -1.7866
 1455SOL     OW15826   2.282   3.856   8.305 -0.1538  0.3603 -0.1012
 1455SOL    HW115827   2.301   3.881   8.395  1.1667  0.0220 -0.2798
 1455SOL    HW215828   2.369   3.847   8.266  0.4984  0.8731  1.2314
 1456SOL     OW15829   1.686   0.982  12.335 -0.4310 -0.4022 -0.4960
 1456SOL    HW115830   1.757   0.917  12.331 -1.0541 -1.0957 -0.2431
 1456SOL    HW215831   1.634   0.951  12.409 -0.2515  1.3329  0.3812
 1457SOL     OW15832   2.481   4.202   4.823  0.1936  0.1505  0.3522
 1457SOL    HW115833   2.431   4.162   4.894 -1.2824  2.3855  0.5652
 1457SOL    HW215834   2.568   4.165   4.840  0.6007  0.7015 -0.5037
 1458SOL     OW15835   4.490   1.276   2.084 -0.1596  0.1507  0.7855
 1458SOL    HW115836   4.501   1.320   2.168  1.8983 -1.2287  1.2311
 1458SOL    HW215837   4.556   1.208   2.102 -0.1264  0.1214  0.5576
 1459SOL     OW15838   0.234   3.054   2.631  0.3071 -0.1080 -0.3090
 1459SOL    HW115839   0.248   3.131   2.686 -0.4134  0.7469 -1.2952
 1459SOL    HW215840   0.185   3.090   2.556  0.2940  3.4574  1.4023
 1460SOL     OW15841   1.431   1.368   5.138  0.2424 -0.0924 -0.2611
 1460SOL    HW115842   1.443   1.414   5.221  0.0435 -1.6704  0.6650
 1460SOL    HW215843   1.437   1.277   5.167 -1.5910 -0.5056 -1.1843
 1461SOL     OW15844   4.716   0.685   6.126  0.0276  0.3791  0.3666
 1461SOL    HW115845   4.633   0.647   6.097 -0.1459  3.2855 -2.9380
 1461SOL    HW215846   4.686   0.686   6.217  3.3447  0.2648  1.4403
 1462SOL     OW15847   2.000   4.264   3.736  0.6174 -0.3788  0.6793
 1462SOL    HW115848   1.926   4.223   3.691  0.5671  0.3074  0.1495
 1462SOL    HW215849   2.012   4.341   3.681 -0.3117 -0.9617 -0.3503
 1463SOL     OW15850   0.063   3.063  14.349 -0.1931  0.1492  0.3341
 1463SOL    HW115851   4.714   3.082  14.411 -0.7832 -0.4164 -0.1560
 1463SOL    HW215852   0.072   2.968  14.361 -0.8712  0.2135  1.3114
 1464SOL     OW15853   4.524   4.231   7.584  0.2783  0.2879  0.9865
 1464SOL    HW115854   4.533   4.310   7.530  1.1071 -1.6860 -1.7843
 1464SOL    HW215855   4.601   4.190   7.544  1.0789  0.4367  2.3740
 1465SOL     OW15856   0.565   2.673   6.766 -0.1322  0.0994 -0.0594
 1465SOL    HW115857   0.495   2.626   6.810 -1.0440  0.0317 -1.5878
 1465SOL    HW215858   0.576   2.735   6.838 -0.1279 -0.4963  0.4518
 1466SOL     OW15859   3.192   4.404   6.380  0.2788  0.3527 -0.0309
 1466SOL    HW115860   3.259   4.421   6.447  1.2031  1.2418 -1.1952
 1466SOL    HW215861   3.136   4.481   6.387  1.3474  1.1900 -0.7799
 1467SOL     OW15862   0.469   4.678  17.516 -0.0441  0.4479 -0.2475
 1467SOL    HW115863   0.549   4.626  17.517  1.3388  2.5384 -0.2940
 1467SOL    HW215864   0.506   0.026  17.460 -0.2178  1.1489  0.5031
 1468SOL     OW15865   3.548   1.527   4.848 -0.5849  0.2113  0.5054
 1468SOL    HW115866   3.514   1.601   4.899 -0.1738 -0.7115  2.1105
 1468SOL    HW215867   3.474   1.467   4.848 -1.8412  1.7310 -0.9459
 1469SOL     OW15868   1.575   0.643   8.652 -0.5209 -0.6979  0.1081
 1469SOL    HW115869   1.540   0.578   8.590 -0.6236 -0.5479  0.0088
 1469SOL    HW215870   1.526   0.629   8.733 -1.7259 -0.5922 -0.6087
 1470SOL     OW15871   0.669   2.670   5.745 -0.1108 -0.4158  0.4698
 1470SOL    HW115872   0.650   2.621   5.825  0.3875 -0.2110  0.7132
 1470SOL    HW215873   0.586   2.667   5.697  0.7983 -0.0772 -1.1233
 1471SOL     OW15874   1.139   4.481   1.353 -0.4118 -0.2828  0.2880
 1471SOL    HW115875   1.117   4.497   1.445  0.2969 -1.8671  0.7219
 1471SOL    HW215876   1.059   4.508   1.308  4.0000  5.4847 -4.2126
 1472SOL     OW15877   3.769   3.910   7.839 -0.8110 -0.3126 -0.9453
 1472SOL    HW115878   3.802   3.999   7.826  1.2657 -0.8004  0.9498
 1472SOL    HW215879   3.789   3.908   7.933 -0.0822 -1.4689 -1.1234
 1473SOL     OW15880   0.681   4.136  13.105  0.1911 -0.0901 -0.0858
 1473SOL    HW115881   0.663   4.223  13.141 -2.2914 -1.0361  0.9474
 1473SOL    HW215882   0.593   4.105  13.085  1.0070 -1.2195 -1.9834
 1474SOL     OW15883   3.494   0.569   7.371 -0.4329 -0.0258  0.2745
 1474SOL    HW115884   3.527   0.594   7.285  0.3753  0.0102  0.5959
 1474SOL    HW215885   3.443   0.648   7.387 -2.8502 -1.0778 -2.2797
 1475SOL     OW15886   2.315   4.369   9.154  0.1936 -0.7911 -0.3649
 1475SOL    HW115887   2.409   4.371   9.133  0.0486  2.1840 -0.7939
 1475SOL    HW215888   2.280   4.432   9.092 -1.8224  0.3506  1.9437
 1476SOL     OW15889   0.381   0.699   1.780  0.7649 -0.0508 -0.1405
 1476SOL    HW115890   0.455   0.760   1.779  0.3983  0.3583 -1.4529
 1476SOL    HW215891   0.388   0.671   1.871 -1.5386 -2.0825 -0.6017
 1477SOL     OW15892   0.474   1.973   3.919  0.2855  0.3858  0.1442
 1477SOL    HW115893   0.460   1.947   3.828  1.2566  2.7833 -0.6894
 1477SOL    HW215894   0.568   1.989   3.923  0.3319  0.1264  0.0941
 1478SOL     OW15895   4.455   1.891   0.406  0.1952 -0.3552 -0.1877
 1478SOL    HW115896   4.511   1.935   0.471 -0.1177  0.5888 -0.5510
 1478SOL    HW215897   4.421   1.818   0.457  1.4799 -1.2333 -0.5693
 1479SOL     OW15898   4.442   1.833   1.558 -0.6629 -0.5108  0.2069
 1479SOL    HW115899   4.498   1.901   1.596  0.0117 -0.3506 -1.0686
 1479SOL    HW215900   4.460   1.761   1.618 -0.0674  0.4673  1.1972
 1480SOL     OW15901   3.100   2.135   4.443 -0.3427  0.2866  0.5172
 1480SOL    HW115902   3.147   2.208   4.403 -0.9749  1.0085  1.0692
 1480SOL    HW215903   3.146   2.125   4.526  1.8042  2.0194 -0.4713
 1481SOL     OW15904   2.268   3.856  15.512  0.3173  0.0116 -0.6532
 1481SOL    HW115905   2.205   3.910  15.560 -0.1836  0.2363 -1.5643
 1481SOL    HW215906   2.339   3.839  15.574  0.6660  2.5320 -0.3356
 1482SOL     OW15907   1.071   3.844   6.298 -0.0435 -0.2331 -0.4496
 1482SOL    HW115908   1.116   3.847   6.383 -2.0786  1.7411  0.5692
 1482SOL    HW215909   0.989   3.814   6.337  1.6989 -1.8897  1.9291
 1483SOL     OW15910   1.804   0.131   8.197  0.4002  0.2510 -0.4219
 1483SOL    HW115911   1.781   0.222   8.219  1.1056  0.5747 -1.0393
 1483SOL    HW215912   1.842   0.141   8.110  1.7588  2.5432  0.4001
 1484SOL     OW15913   0.150   0.237   7.274  0.1974 -0.5015  0.2039
 1484SOL    HW115914   0.217   0.169   7.270 -0.1879 -0.7560 -1.7655
 1484SOL    HW215915   0.157   0.267   7.365  0.7153 -0.2805  0.0944
 1485SOL     OW15916   4.642   3.644  10.046  0.4483  0.2260 -0.0554
 1485SOL    HW115917   4.570   3.671  10.103  1.6434 -1.2678  2.1769
 1485SOL    HW215918   4.705   3.713  10.067 -0.7522  0.8373  1.5584
 1486SOL     OW15919   0.731   2.935   8.538 -0.0824  0.1795 -0.1244
 1486SOL    HW115920   0.784   2.908   8.463 -0.1694  0.5239 -0.3106
 1486SOL    HW215921   0.758   2.872   8.605  2.7145  1.9579  0.4644
 1487SOL     OW15922   0.322   2.870   3.259 -0.1256 -0.3150  0.8458
 1487SOL    HW115923   0.274   2.949   3.236  2.6873  0.9799 -0.4923
 1487SOL    HW215924   0.378   2.889   3.333  0.9327 -0.4708  0.0779
 1488SOL     OW15925   0.674   1.272   8.566  0.4239  0.3026 -0.3928
 1488SOL    HW115926   0.729   1.238   8.636  1.2699  1.6319 -0.4161
 1488SOL    HW215927   0.698   1.364   8.574  0.8047 -0.0217  2.1515
 1489SOL     OW15928   2.058   2.425   6.389 -0.4612  0.0729  0.1726
 1489SOL    HW115929   2.138   2.374   6.404 -1.8429 -2.2193 -0.2380
 1489SOL    HW215930   2.087   2.516   6.391  1.5547 -0.5385 -1.1439
 1490SOL     OW15931   2.203   0.603   7.135  0.4656  0.5363  0.1613
 1490SOL    HW115932   2.203   0.517   7.176  3.8370  0.3981 -0.1631
 1490SOL    HW215933   2.290   0.599   7.095 -0.3380 -0.0663 -1.5116
 1491SOL     OW15934   4.413   0.977   2.755  0.3695  0.2236 -0.3626
 1491SOL    HW115935   4.329   0.945   2.722 -0.5281  3.4336 -1.2028
 1491SOL    HW215936   4.476   0.966   2.684  2.6506  2.0564  1.3798
 1492SOL     OW15937   3.170   3.113   1.797 -0.3295 -0.2142  0.1475
 1492SOL    HW115938   3.196   3.026   1.828  1.3213  0.3225  0.2843
 1492SOL    HW215939   3.208   3.123   1.710 -2.3034 -2.1724 -0.9678
 1493SOL     OW15940   0.450   1.143   8.485 -0.0601  0.1434  0.0215
 1493SOL    HW115941   0.532   1.191   8.494  0.6491 -1.0164 -0.2191
 1493SOL    HW215942   0.431   1.165   8.394 -0.3438  2.4269  0.6268
 1494SOL     OW15943   1.924   3.278   2.180 -0.0071 -0.0799  0.1729
 1494SOL    HW115944   2.007   3.264   2.225  0.6958  0.4208 -0.9874
 1494SOL    HW215945   1.960   3.332   2.110 -0.3498 -0.7664 -0.5287
 1495SOL     OW15946   4.148   2.293  15.916 -0.1729 -0.4134  0.2556
 1495SOL    HW115947   4.073   2.347  15.891  0.8098  0.1473 -1.4543
 1495SOL    HW215948   4.174   2.329  16.002 -2.1908 -0.6906  0.9842
 1496SOL     OW15949   2.338   2.646   6.508 -0.3134 -0.5853 -0.3308
 1496SOL    HW115950   2.269   2.672   6.447 -1.8772  1.4538  2.3543
 1496SOL    HW215951   2.405   2.703   6.472 -0.0157  0.7256  2.3437
 1497SOL     OW15952   2.125   4.079  10.935 -0.7194  0.6232  0.1433
 1497SOL    HW115953   2.186   4.035  10.875 -1.3050 -0.4777  0.3607
 1497SOL    HW215954   2.136   4.173  10.918  3.1928  1.0567  5.0504
 1498SOL     OW15955   2.454   4.023   1.509 -0.6508  0.2979  0.0101
 1498SOL    HW115956   2.529   3.975   1.474  0.6521  1.0062  1.7998
 1498SOL    HW215957   2.471   4.115   1.489 -0.5931  0.0656 -1.0109
 1499SOL     OW15958   0.427   0.097   5.828  0.6272 -1.0231  0.0201
 1499SOL    HW115959   0.446   0.132   5.915  1.6987 -0.9149 -0.2556
 1499SOL    HW215960   0.444   0.172   5.771  0.2090  0.1066  1.3846
 1500SOL     OW15961   1.291   3.323  13.273  0.7252 -0.7346  0.0354
 1500SOL    HW115962   1.306   3.412  13.304  1.9243 -1.4835  1.6160
 1500SOL    HW215963   1.375   3.283  13.293 -0.2587 -1.1585  3.3642
 1501SOL     OW15964   1.146   0.395   8.402  0.3611 -0.5503  0.6017
 1501SOL    HW115965   1.205   0.384   8.327 -1.2247 -2.8964 -0.3161
 1501SOL    HW215966   1.057   0.384   8.368  0.5450 -0.6239  0.1430
 1502SOL     OW15967   2.562   3.022  15.223  0.3309  0.0197 -0.6382
 1502SOL    HW115968   2.503   3.035  15.297 -0.7332 -1.0569 -1.2970
 1502SOL    HW215969   2.505   3.071  15.163  0.3107  0.6305 -0.1156
 1503SOL     OW15970   2.077   3.964   7.527  0.6653  0.0198 -0.3591
 1503SOL    HW115971   2.041   4.007   7.605 -0.4467 -2.6606  0.6128
 1503SOL    HW215972   2.044   3.874   7.525  0.1064  0.1777  1.5241
 1504SOL     OW15973   0.264   2.588  11.824  0.7036 -0.8948  0.1244
 1504SOL    HW115974   0.263   2.496  11.797  2.6975 -0.6980 -0.6414
 1504SOL    HW215975   0.231   2.631  11.745 -2.3487 -0.4160  1.6755
 1505SOL     OW15976   0.493   0.469   2.247  0.0387 -0.4550 -0.2445
 1505SOL    HW115977   0.474   0.534   2.314  0.0878 -0.5536 -0.1338
 1505SOL    HW215978   0.410   0.422   2.247  0.4931 -1.2720 -1.9002
 1506SOL     OW15979   0.730   2.337   0.999  0.0502 -0.6191  0.2230
 1506SOL    HW115980   0.658   2.275   1.003  1.0742 -1.9717 -1.8221
 1506SOL    HW215981   0.678   2.415   0.982  0.5170 -0.7743 -1.9685
 1507SOL     OW15982   3.596   4.035   8.204 -0.5175  0.3301 -0.6069
 1507SOL    HW115983   3.633   3.967   8.148  0.3746 -0.9913  1.5835
 1507SOL    HW215984   3.608   4.006   8.294 -0.3730  1.8610 -0.1229
 1508SOL     OW15985   0.243   3.011  11.802  0.8941  0.3403  0.2285
 1508SOL    HW115986   0.301   2.981  11.732  3.1636  3.0903  0.9352
 1508SOL    HW215987   0.199   3.088  11.766 -0.6576 -0.5587  0.1750
 1509SOL     OW15988   0.273   1.093  17.377  0.5357  0.4241  0.1672
 1509SOL    HW115989   0.331   1.035  17.329  0.4250 -1.1769  1.9391
 1509SOL    HW215990   0.307   1.180  17.361 -0.2181  0.7247  0.1713
 1510SOL     OW15991   2.690   0.987   7.712 -0.2224 -0.3542 -0.3210
 1510SOL    HW115992   2.729   1.026   7.789  0.7938 -0.3901 -0.8230
 1510SOL    HW215993   2.623   1.055   7.702  0.9782  1.0019  0.9704
 1511SOL     OW15994   3.530   0.743   4.070 -0.3508 -0.4497  0.5022
 1511SOL    HW115995   3.486   0.684   4.008  2.9362  0.6011 -2.8867
 1511SOL    HW215996   3.503   0.701   4.151 -1.6506  1.9472  1.3242
 1512SOL     OW15997   4.010   3.686  11.641  0.0688  0.5100  0.3453
 1512SOL    HW115998   3.995   3.700  11.735  0.7807  0.2467  0.5031
 1512SOL    HW215999   4.081   3.746  11.619  0.1607 -0.1097 -1.0022
 1513SOL     OW16000   2.697   3.479   5.896 -0.0242 -0.0090  0.4531
 1513SOL    HW116001   2.776   3.523   5.926  0.1548 -0.6226  0.8870
 1513SOL    HW216002   2.681   3.515   5.809 -0.5640  1.4386  1.1530
 1514SOL     OW16003   0.424   1.203   6.031 -0.0485 -0.3932 -0.5393
 1514SOL    HW116004   0.455   1.134   5.974 -2.5970 -1.9054 -0.1042
 1514SOL    HW216005   0.425   1.158   6.116 -0.1753 -0.7027 -0.7016
 1515SOL     OW16006   1.095   0.029  13.813  0.3668 -0.0134 -0.3449
 1515SOL    HW116007   1.148   0.103  13.842  0.8685  0.0140 -1.3262
 1515SOL    HW216008   1.092   0.050  13.719  0.4390  2.5068  0.2202
 1516SOL     OW16009   2.840   3.800   2.343  0.1740  0.8955 -0.1924
 1516SOL    HW116010   2.859   3.733   2.278 -3.1142 -0.6271  0.4400
 1516SOL    HW216011   2.876   3.881   2.306  1.6393  0.8924  1.1949
 1517SOL     OW16012   0.643   4.488   3.490 -0.3528  0.0295 -0.1013
 1517SOL    HW116013   0.566   4.543   3.502  0.1785  0.5193  1.0164
 1517SOL    HW216014   0.609   4.399   3.475  1.3094 -0.5408 -0.5267
 1518SOL     OW16015   2.301   4.472   7.556 -0.5042 -0.0660  0.2463
 1518SOL    HW116016   2.374   4.523   7.522 -0.7007 -0.5070 -0.8334
 1518SOL    HW216017   2.246   4.533   7.605  0.1800  0.2776  0.5961
 1519SOL     OW16018   0.693   2.933   1.862  0.1795  0.7458  0.1686
 1519SOL    HW116019   0.758   2.959   1.927 -0.6187 -3.8091  2.7842
 1519SOL    HW216020   0.723   2.848   1.831 -0.2100  0.9940 -0.8969
 1520SOL     OW16021   1.984   0.975   7.878  0.4377 -0.0253  0.3188
 1520SOL    HW116022   1.915   1.014   7.932  0.6440  0.4012  0.2739
 1520SOL    HW216023   1.946   0.889   7.858  1.8016 -0.4508 -0.4272
 1521SOL     OW16024   1.941   1.831   3.190 -0.1449 -0.2021  0.1123
 1521SOL    HW116025   2.023   1.817   3.143 -0.2303  0.0212 -0.1036
 1521SOL    HW216026   1.969   1.866   3.275 -0.6707 -1.2652  0.7311
 1522SOL     OW16027   0.525   3.252   6.476 -0.0697  0.1309  0.3290
 1522SOL    HW116028   0.483   3.283   6.556  1.5430  1.6314  0.6117
 1522SOL    HW216029   0.484   3.166   6.476  2.0539 -0.8650  1.4891
 1523SOL     OW16030   2.380   4.698   2.087 -0.2983 -0.4602 -0.1588
 1523SOL    HW116031   2.419   0.063   2.105 -2.3650  0.9848 -2.4498
 1523SOL    HW216032   2.445   4.662   2.027 -0.9702 -0.2505 -1.0093
 1524SOL     OW16033   0.403   2.867   0.907 -0.2226 -0.1196  0.1935
 1524SOL    HW116034   0.447   2.854   0.992  2.1644 -0.9807 -1.1678
 1524SOL    HW216035   0.321   2.913   0.925 -1.1963 -1.2712 -1.2705
 1525SOL     OW16036   1.653   0.323   6.411  0.4680 -0.0478 -0.3003
 1525SOL    HW116037   1.571   0.285   6.379 -0.9747  1.5705  1.4750
 1525SOL    HW216038   1.706   0.272   6.350 -1.4376  0.5512 -2.4827
 1526SOL     OW16039   2.445   3.856   2.478 -0.0813 -0.0685 -0.2003
 1526SOL    HW116040   2.369   3.914   2.482  0.6782  0.8272  1.0627
 1526SOL    HW216041   2.410   3.775   2.515 -0.8134  0.2230 -0.2612
 1527SOL     OW16042   2.550   2.333   2.537 -0.3881 -0.0472  0.6214
 1527SOL    HW116043   2.563   2.389   2.461 -0.1648 -0.3511  0.4371
 1527SOL    HW216044   2.460   2.361   2.555 -0.7385 -0.4784 -0.4523
 1528SOL     OW16045   2.721   3.680   2.623  0.0766  0.0671  0.4399
 1528SOL    HW116046   2.755   3.720   2.543  1.7054  0.1623  1.1816
 1528SOL    HW216047   2.792   3.629   2.660  0.1611  1.5114  2.2826
 1529SOL     OW16048   0.064   3.770   7.079 -0.0635  0.3079  0.0459
 1529SOL    HW116049   0.136   3.711   7.058  0.1535  1.0444 -1.3419
 1529SOL    HW216050   0.024   3.792   6.994 -2.6608  0.8159  1.3982
 1530SOL     OW16051   3.937   2.161  11.190 -0.2114 -0.3974  0.1306
 1530SOL    HW116052   3.998   2.106  11.239  0.8393  2.2805  1.8081
 1530SOL    HW216053   3.869   2.099  11.165  0.8260 -1.3792 -0.2660
 1531SOL     OW16054   4.528   0.014  10.097  0.3011  0.3107 -0.1036
 1531SOL    HW116055   4.582   0.057  10.163  2.4495 -1.3882 -0.7394
 1531SOL    HW216056   4.451   0.069  10.083  0.5319  0.3704 -1.1544
 1532SOL     OW16057   2.186   2.460  12.426  0.6237  0.9993 -0.1747
 1532SOL    HW116058   2.105   2.473  12.476  1.2521  1.2108  0.7927
 1532SOL    HW216059   2.162   2.400  12.356 -2.8817  0.7065  1.2376
 1533SOL     OW16060   3.239   2.806   7.040  0.2550 -0.3787  0.2466
 1533SOL    HW116061   3.154   2.808   7.084 -0.1523  0.3716 -0.5696
 1533SOL    HW216062   3.282   2.749   7.104  1.2184  0.4114  0.3045
 1534SOL     OW16063   1.305   3.741   9.377 -0.2914  0.0771  0.1663
 1534SOL    HW116064   1.308   3.793   9.297 -0.1183 -1.0231 -0.5318
 1534SOL    HW216065   1.391   3.749   9.418 -1.2497  1.8877  1.8260
 1535SOL     OW16066   4.497   2.150   4.294  0.5508  0.0484 -0.1956
 1535SOL    HW116067   4.420   2.157   4.236  0.2387  2.0299  0.4492
 1535SOL    HW216068   4.451   2.122   4.373  0.5261 -2.0495 -0.9511
 1536SOL     OW16069   4.268   1.963   1.398  0.4615 -0.7353 -0.2889
 1536SOL    HW116070   4.192   1.906   1.382 -1.4388  1.6741  0.0781
 1536SOL    HW216071   4.315   1.912   1.464 -1.1103  0.5289  1.8205
 1537SOL     OW16072   3.983   0.040  16.833 -0.3327 -0.1671 -0.0020
 1537SOL    HW116073   3.924   0.038  16.908  0.6471  0.5902  0.7864
 1537SOL    HW216074   3.942   0.100  16.770  1.4542  0.0797 -0.9334
 1538SOL     OW16075   4.436   3.469   4.546  0.3742 -0.0720  0.2404
 1538SOL    HW116076   4.523   3.494   4.513 -0.5893 -0.7775 -2.8075
 1538SOL    HW216077   4.386   3.541   4.509 -0.5698 -0.9431 -0.1554
 1539SOL     OW16078   0.801   3.293  12.438 -0.0024 -0.3256 -0.2676
 1539SOL    HW116079   0.710   3.281  12.466  0.9034 -1.0629  2.3795
 1539SOL    HW216080   0.789   3.303  12.343 -2.1667  0.3795  0.0893
 1540SOL     OW16081   0.345   3.332   2.750  0.5056 -0.0621 -0.0426
 1540SOL    HW116082   0.256   3.340   2.785  0.0647 -3.6943 -0.3780
 1540SOL    HW216083   0.352   3.415   2.702 -1.7640 -0.1497 -0.5340
 1541SOL     OW16084   0.050   3.158   8.172  0.1810 -0.1629 -0.2356
 1541SOL    HW116085   0.036   3.231   8.111 -0.4814 -0.7946 -0.8334
 1541SOL    HW216086   4.712   3.092   8.136 -1.7705  1.1625  0.5294
 1542SOL     OW16087   3.489   1.422  15.188  0.3869  0.9028 -0.9110
 1542SOL    HW116088   3.547   1.460  15.254 -1.3171  1.3833  0.3112
 1542SOL    HW216089   3.421   1.489  15.186  0.0531  0.5318 -2.1166
 1543SOL     OW16090   0.917   0.473  16.314 -0.0671  0.0913  0.2579
 1543SOL    HW116091   0.894   0.508  16.400 -0.3243  1.0712 -0.2157
 1543SOL    HW216092   0.933   0.545  16.253 -1.6529 -0.1143 -0.4091
 1544SOL     OW16093   4.408   3.899   9.111  0.2916 -0.4573  0.5590
 1544SOL    HW116094   4.377   3.986   9.137  0.2024 -0.3516  0.0955
 1544SOL    HW216095   4.353   3.850   9.173  1.1380 -0.9602  0.9069
 1545SOL     OW16096   2.316   1.693  12.477  0.1265 -0.6109 -0.2468
 1545SOL    HW116097   2.234   1.661  12.515  0.6465 -1.1543  0.4182
 1545SOL    HW216098   2.283   1.727  12.394  0.8679  2.5526  0.7706
 1546SOL     OW16099   4.396   0.650   0.084  0.1732 -0.7591 -0.1745
 1546SOL    HW116100   4.467   0.674   0.143  1.3895 -1.5535 -1.3282
 1546SOL    HW216101   4.352   0.588   0.142 -2.3961  3.0612  2.0323
 1547SOL     OW16102   2.511   3.449   4.037 -0.2925  0.3834  0.4163
 1547SOL    HW116103   2.452   3.439   3.963  0.4602 -0.5926 -0.0461
 1547SOL    HW216104   2.459   3.502   4.098 -0.8185  1.9620 -1.4222
 1548SOL     OW16105   2.141   3.620   5.419  0.0694 -0.3245  0.2985
 1548SOL    HW116106   2.187   3.562   5.358  0.7172  1.6453 -1.0961
 1548SOL    HW216107   2.224   3.658   5.451  0.9329 -1.2805 -0.7941
 1549SOL     OW16108   1.008   4.396   8.362  0.7657 -0.4369 -0.1522
 1549SOL    HW116109   0.964   4.440   8.289  1.7729 -0.5016 -0.7972
 1549SOL    HW216110   0.937   4.341   8.395 -0.7219  0.9424 -0.9967
 1550SOL     OW16111   3.457   0.570   9.824  0.2138  0.2393  0.1515
 1550SOL    HW116112   3.428   0.518   9.749 -0.5348  1.3410 -0.3283
 1550SOL    HW216113   3.513   0.635   9.781 -1.0002 -0.0821 -1.9319
 1551SOL     OW16114   4.670   4.539  14.875 -0.0646 -0.2515 -0.9423
 1551SOL    HW116115   4.585   4.496  14.890 -1.1944  2.3051 -0.0586
 1551SOL    HW216116   4.648   4.591  14.798  0.6174  3.2923  1.2582
 1552SOL     OW16117   3.303   2.160   4.637 -0.1170 -0.1586  0.3091
 1552SOL    HW116118   3.319   2.128   4.726 -0.5435 -0.0096  0.4412
 1552SOL    HW216119   3.390   2.173   4.600  0.4744  1.8042  2.3591
 1553SOL     OW16120   2.732   3.102  16.522 -0.4515  0.0085  0.3779
 1553SOL    HW116121   2.790   3.177  16.534  0.0644 -0.2815 -0.3169
 1553SOL    HW216122   2.801   3.039  16.499  0.4567  0.5377  1.7118
 1554SOL     OW16123   1.543   4.088   8.381  0.0380  0.1757  0.3068
 1554SOL    HW116124   1.466   4.081   8.325  2.0839 -1.7568 -2.2822
 1554SOL    HW216125   1.539   4.177   8.416 -0.1777  0.2964 -0.0295
 1555SOL     OW16126   1.922   0.654  16.210  0.0554 -0.1452  0.5842
 1555SOL    HW116127   1.892   0.727  16.156 -0.5845 -3.5220 -3.6714
 1555SOL    HW216128   1.868   0.581  16.179  1.1066 -1.0067  0.7924
 1556SOL     OW16129   4.687   3.098  15.972 -0.4366  0.9695  0.0965
 1556SOL    HW116130   0.007   3.111  15.886  0.9672  0.3131  0.6499
 1556SOL    HW216131   4.677   3.003  15.983 -0.0356  1.0232  0.9093
 1557SOL     OW16132   1.328   2.666   6.716  0.0139  0.3543 -0.1762
 1557SOL    HW116133   1.385   2.669   6.793  1.2720  0.6565 -1.1378
 1557SOL    HW216134   1.398   2.689   6.655  0.8623 -0.9467  0.3128
 1558SOL     OW16135   1.442   1.862   7.258 -0.5386 -0.4162 -0.0880
 1558SOL    HW116136   1.370   1.801   7.243  1.5563 -2.8655 -0.3043
 1558SOL    HW216137   1.411   1.923   7.324  1.2253  1.3960 -0.9446
 1559SOL     OW16138   2.454   3.520   9.255 -0.4717  0.3642  1.0241
 1559SOL    HW116139   2.414   3.606   9.257 -1.5863 -0.1466  0.2853
 1559SOL    HW216140   2.383   3.459   9.238  0.4874 -0.2087 -0.8845
 1560SOL     OW16141   2.736   0.118   3.895 -0.0112 -0.0215  0.1098
 1560SOL    HW116142   2.705   0.062   3.825 -1.0006 -0.2121  0.7056
 1560SOL    HW216143   2.783   0.178   3.837  0.8181 -0.0972  0.6973
 1561SOL     OW16144   0.733   1.957   7.882 -0.3699 -0.4027  0.0892
 1561SOL    HW116145   0.709   2.048   7.866  0.0190 -0.1803  0.8020
 1561SOL    HW216146   0.794   1.950   7.955  1.6847  0.1729 -1.5775
 1562SOL     OW16147   3.302   1.920   6.504 -0.1163  0.2494 -0.1814
 1562SOL    HW116148   3.389   1.959   6.514  0.3262 -1.5424  3.0399
 1562SOL    HW216149   3.264   1.981   6.441 -2.3970 -0.8473  0.1375
 1563SOL     OW16150   1.407   0.316   3.107 -0.2220 -0.1443  0.0049
 1563SOL    HW116151   1.317   0.287   3.096  0.3831 -0.5447 -4.1853
 1563SOL    HW216152   1.429   0.344   3.018  0.0786  0.1861  0.1803
 1564SOL     OW16153   0.303   1.381   1.559 -0.4293  0.0071 -0.2028
 1564SOL    HW116154   0.337   1.464   1.595  0.0515 -0.5996  0.7433
 1564SOL    HW216155   0.335   1.384   1.469  0.5527  1.4485  0.1852
 1565SOL     OW16156   2.965   0.649   8.384 -0.4182  0.1148 -0.2752
 1565SOL    HW116157   3.019   0.727   8.373  0.1041 -0.3841 -1.2280
 1565SOL    HW216158   2.967   0.623   8.292 -4.5451 -1.1768 -0.0030
 1566SOL     OW16159   2.813   0.705  15.425 -0.3249  0.3772  0.1293
 1566SOL    HW116160   2.774   0.652  15.355  0.3062  0.0193  0.0395
 1566SOL    HW216161   2.889   0.742  15.380 -0.8431 -0.2116 -1.2088
 1567SOL     OW16162   3.519   0.130   6.754 -0.0287 -0.2470 -0.7355
 1567SOL    HW116163   3.605   0.172   6.755  0.5270 -1.4096  0.1858
 1567SOL    HW216164   3.447   0.193   6.753  1.3210  1.2854 -1.3089
 1568SOL     OW16165   2.863   0.429   6.477  0.4160 -0.5142 -0.0914
 1568SOL    HW116166   2.836   0.426   6.385 -0.8904 -0.2786  0.2837
 1568SOL    HW216167   2.953   0.395   6.480 -0.3954 -2.4694  1.4945
 1569SOL     OW16168   0.494   2.248   6.879 -0.0946  0.2994 -0.3690
 1569SOL    HW116169   0.523   2.159   6.898 -1.4676 -0.4719 -1.9219
 1569SOL    HW216170   0.565   2.274   6.821 -0.3921 -0.4968 -1.0840
 1570SOL     OW16171   2.028   0.329   6.764 -0.0558 -0.1184 -0.2946
 1570SOL    HW116172   2.073   0.289   6.690  2.2284  1.5523  0.2123
 1570SOL    HW216173   1.940   0.317   6.727 -0.3751 -1.4194  0.8792
 1571SOL     OW16174   0.919   1.730  14.108 -0.1174 -0.2492 -0.1010
 1571SOL    HW116175   0.925   1.753  14.015  1.3306 -2.4340 -0.5464
 1571SOL    HW216176   0.997   1.675  14.112 -1.0582 -1.7021 -1.4617
 1572SOL     OW16177   2.457   3.044   3.649  0.3353  0.2989 -0.3969
 1572SOL    HW116178   2.405   3.001   3.716 -0.9723 -1.2730 -2.4099
 1572SOL    HW216179   2.540   3.060   3.694 -1.7274  0.0541  3.4484
 1573SOL     OW16180   0.667   4.206   3.951  0.3144  0.3939  0.0096
 1573SOL    HW116181   0.579   4.221   3.915  1.0712  1.0155 -1.5737
 1573SOL    HW216182   0.674   4.284   4.006 -1.8463  0.4697  0.1947
 1574SOL     OW16183   2.126   4.321   2.830  0.3455 -0.0097  0.4909
 1574SOL    HW116184   2.083   4.271   2.761 -0.0687  1.2236 -0.1261
 1574SOL    HW216185   2.152   4.405   2.793 -0.4117 -0.5027 -1.1531
 1575SOL     OW16186   1.978   0.514   7.982  0.5133  0.1515 -0.0458
 1575SOL    HW116187   1.947   0.434   8.025 -1.2338  0.9624  0.2148
 1575SOL    HW216188   1.969   0.580   8.051 -1.0540  1.6765 -1.7190
 1576SOL     OW16189   4.671   0.319   5.301 -0.1403  0.1809 -0.8998
 1576SOL    HW116190   4.620   0.254   5.252 -0.8861 -0.9491  1.3609
 1576SOL    HW216191   4.605   0.360   5.357  1.5103  2.7339 -0.8557
 1577SOL     OW16192   1.467   0.982   8.434  0.2205  0.1653 -0.6913
 1577SOL    HW116193   1.473   0.893   8.400  1.4670  0.4106 -1.1119
 1577SOL    HW216194   1.461   0.959   8.526 -2.7457  0.9959 -0.6716
 1578SOL     OW16195   0.051   2.717  13.114 -0.0277 -0.1247 -0.5848
 1578SOL    HW116196   0.044   2.641  13.056  1.0550  0.9331 -2.0937
 1578SOL    HW216197   0.141   2.744  13.097 -0.2876  0.6537 -0.7424
 1579SOL     OW16198   4.693   2.736  13.708 -0.2068 -0.0655 -0.1568
 1579SOL    HW116199   0.014   2.776  13.784 -1.0899  1.4504 -0.4717
 1579SOL    HW216200   0.038   2.754  13.641  1.1815 -1.1582  0.9067
 1580SOL     OW16201   0.556   3.566   6.257  0.8359  0.1865 -0.0232
 1580SOL    HW116202   0.523   3.616   6.331  0.8380 -0.9754  0.7678
 1580SOL    HW216203   0.637   3.521   6.285  0.7489 -0.2603 -0.4863
 1581SOL     OW16204   1.218   3.855  14.997  0.5601 -0.1579  0.1644
 1581SOL    HW116205   1.223   3.892  14.910 -1.7216 -1.9877 -0.7545
 1581SOL    HW216206   1.290   3.907  15.033  0.6536 -1.6897  2.2353
 1582SOL     OW16207   4.296   0.729   6.242  0.0746  0.7345  0.2835
 1582SOL    HW116208   4.206   0.743   6.214  0.8741 -1.9250 -3.6519
 1582SOL    HW216209   4.317   0.653   6.188 -2.2527 -1.2954  2.2531
 1583SOL     OW16210   0.511   1.408   2.542  0.1013  0.4912  0.2473
 1583SOL    HW116211   0.422   1.422   2.574 -0.7670 -1.2059 -1.4862
 1583SOL    HW216212   0.560   1.437   2.620  2.0937  0.6294 -1.0509
 1584SOL     OW16213   2.885   1.893   5.202 -0.2594 -0.7022 -0.5002
 1584SOL    HW116214   2.904   1.814   5.252  1.0147  0.1835  0.4385
 1584SOL    HW216215   2.838   1.847   5.133 -1.5830 -2.0107  1.2741
 1585SOL     OW16216   3.569   3.730  12.453 -0.2173  0.2530 -0.8802
 1585SOL    HW116217   3.505   3.662  12.477 -1.4063  2.5158  2.3497
 1585SOL    HW216218   3.651   3.681  12.459  0.3574  0.9815 -2.9863
 1586SOL     OW16219   1.533   2.086  14.886 -0.1187 -0.1047  0.2085
 1586SOL    HW116220   1.594   2.087  14.960 -0.4717 -0.1530  0.5047
 1586SOL    HW216221   1.580   2.154  14.837 -0.8998 -0.0984 -0.5267
 1587SOL     OW16222   2.238   3.220   9.744 -0.0118  0.0722 -0.2902
 1587SOL    HW116223   2.228   3.235   9.650  2.1710 -0.8909 -0.6717
 1587SOL    HW216224   2.263   3.128   9.737  0.0166  0.2142 -2.0037
 1588SOL     OW16225   3.714   4.087   1.343  0.2608  0.2562 -0.4131
 1588SOL    HW116226   3.787   4.073   1.282  0.4120  0.9292 -0.3933
 1588SOL    HW216227   3.660   4.152   1.298 -0.1195  0.7840  0.8022
 1589SOL     OW16228   0.613   3.973   2.119 -0.5062  0.6278 -0.1600
 1589SOL    HW116229   0.656   3.988   2.035  3.0748  2.2603  1.9410
 1589SOL    HW216230   0.681   3.924   2.166 -0.2776  0.0557 -1.0995
 1590SOL     OW16231   3.322   0.871  12.493  0.6596 -0.5613 -0.4637
 1590SOL    HW116232   3.251   0.892  12.554  0.6103  0.2316 -0.7932
 1590SOL    HW216233   3.346   0.958  12.463 -2.4264 -0.0385 -1.3953
 1591SOL     OW16234   1.210   4.333   7.315  0.3156  0.2622  0.2200
 1591SOL    HW116235   1.127   4.344   7.361 -1.4014  0.4931 -2.9404
 1591SOL    HW216236   1.198   4.390   7.240 -1.4451  0.6789  0.8036
 1592SOL     OW16237   3.204   1.185  14.374 -0.4138  0.4550  0.1848
 1592SOL    HW116238   3.216   1.111  14.315 -0.0541  1.3326 -0.8395
 1592SOL    HW216239   3.214   1.262  14.318 -1.0637 -1.7443 -2.9624
 1593SOL     OW16240   0.524   4.678  10.084  0.1961  0.4183  0.2087
 1593SOL    HW116241   0.523   4.597  10.135 -1.7795 -0.5025 -1.3268
 1593SOL    HW216242   0.524   0.026  10.151  0.7862  0.8124 -0.2029
 1594SOL     OW16243   3.393   2.025  17.548 -0.1668 -0.2927  0.1517
 1594SOL    HW116244   3.413   2.118  17.534  3.2660 -1.1164 -0.2526
 1594SOL    HW216245   3.470   1.984  17.510 -0.7380 -0.5015 -0.7814
 1595SOL     OW16246   3.155   2.878   1.504  0.1779 -0.4121 -0.4305
 1595SOL    HW116247   3.078   2.934   1.492  0.0619 -0.6459 -0.7743
 1595SOL    HW216248   3.135   2.859   1.596  2.6023 -0.2491  0.1320
 1596SOL     OW16249   0.260   0.489   6.246  0.1190 -0.4653  0.6517
 1596SOL    HW116250   0.336   0.431   6.252 -0.1621 -0.9096 -0.0676
 1596SOL    HW216251   0.229   0.469   6.158  0.0125 -0.8343  0.7752
 1597SOL     OW16252   1.456   2.823   8.266  0.0690 -0.3733  0.1231
 1597SOL    HW116253   1.362   2.834   8.273 -0.0214 -0.9276 -0.2038
 1597SOL    HW216254   1.471   2.752   8.329  1.0525 -0.9508 -0.7584
 1598SOL     OW16255   3.627   3.111   2.427  0.2517  0.1335 -0.0098
 1598SOL    HW116256   3.632   3.023   2.388  0.1364 -0.1878  0.7122
 1598SOL    HW216257   3.644   3.174   2.357 -1.1279  1.9899  1.3184
 1599SOL     OW16258   3.144   3.892   1.104  0.1484  0.4065 -0.0102
 1599SOL    HW116259   3.091   3.861   1.177  0.3038 -0.4956 -0.2810
 1599SOL    HW216260   3.071   3.924   1.050 -0.4247 -0.0268  0.5134
 1600SOL     OW16261   3.744   0.607   9.298 -0.2884 -0.0456  0.5232
 1600SOL    HW116262   3.724   0.630   9.388 -0.4396  1.0710  0.2166
 1600SOL    HW216263   3.675   0.649   9.247 -0.4159 -0.7845  0.0829
 1601SOL     OW16264   4.425   1.336   5.441 -0.3260  0.8944  0.7422
 1601SOL    HW116265   4.373   1.415   5.458 -0.5048  0.4639  2.1232
 1601SOL    HW216266   4.408   1.309   5.350  2.4084  1.2391  0.1259
 1602SOL     OW16267   1.300   4.468   2.598 -0.3000  0.1393 -0.8724
 1602SOL    HW116268   1.357   4.478   2.674 -0.6123  1.1149 -0.7628
 1602SOL    HW216269   1.232   4.406   2.625 -1.0480  1.7011  0.8399
 1603SOL     OW16270   4.574   2.321   8.615  0.2960 -0.2291 -0.1588
 1603SOL    HW116271   4.636   2.252   8.591 -1.7361 -2.4408  0.9884
 1603SOL    HW216272   4.605   2.393   8.560  1.2500 -1.5767 -1.3769
 1604SOL     OW16273   2.340   1.398  16.232 -0.4333 -0.6040 -0.2200
 1604SOL    HW116274   2.283   1.433  16.164  1.0252  0.4962 -0.8988
 1604SOL    HW216275   2.338   1.466  16.299  1.2965 -1.3336  0.5846
 1605SOL     OW16276   1.903   1.981   9.059  0.1982 -0.3258 -0.2045
 1605SOL    HW116277   1.941   2.033   9.130  1.2581  0.0319 -1.0390
 1605SOL    HW216278   1.868   1.909   9.111  0.9505 -0.4529  0.1131
 1606SOL     OW16279   0.795   1.365   3.399  0.2579  0.0764  0.4443
 1606SOL    HW116280   0.841   1.319   3.470  0.5959 -2.8428 -1.6504
 1606SOL    HW216281   0.848   1.336   3.325 -0.0667  3.5972 -1.1669
 1607SOL     OW16282   1.351   3.439   1.815 -0.1127 -0.3900 -0.2555
 1607SOL    HW116283   1.301   3.482   1.884  0.4851 -1.4060  0.8087
 1607SOL    HW216284   1.431   3.429   1.866 -0.8314  0.3897  1.0102
 1608SOL     OW16285   4.131   3.107  10.821 -0.1127 -0.5331 -0.6294
 1608SOL    HW116286   4.205   3.054  10.793  0.3684 -0.1650 -0.0676
 1608SOL    HW216287   4.075   3.042  10.863 -0.9644  1.6734  1.6939
 1609SOL     OW16288   2.817   2.026   4.823 -0.1219  1.1818  0.0740
 1609SOL    HW116289   2.727   1.994   4.832  0.5444 -0.8545 -0.6716
 1609SOL    HW216290   2.874   1.950   4.834 -1.2047  0.4289  0.4519
 1610SOL     OW16291   3.756   4.576  15.096 -0.1245 -0.1490 -0.3895
 1610SOL    HW116292   3.684   4.522  15.131 -0.3422 -0.0204 -0.6408
 1610SOL    HW216293   3.837   4.526  15.103  0.2653  0.1946 -2.7179
 1611SOL     OW16294   3.284   1.638   6.299 -0.1396 -0.1083 -0.4902
 1611SOL    HW116295   3.339   1.684   6.236 -2.6482  1.1269 -1.7933
 1611SOL    HW216296   3.332   1.635   6.382  0.2304 -3.3522 -0.8348
 1612SOL     OW16297   3.119   1.906  10.987  0.3884 -0.1329  0.7737
 1612SOL    HW116298   3.116   1.866  10.900 -1.9917  0.5534  0.5411
 1612SOL    HW216299   3.175   1.848  11.040  0.8616  1.6965  2.2771
 1613SOL     OW16300   0.901   3.445   6.094 -0.0933  0.9588 -0.1685
 1613SOL    HW116301   0.880   3.435   6.002  0.5885 -0.7183 -0.1395
 1613SOL    HW216302   0.987   3.485   6.079  0.7801 -0.8002  0.1827
 1614SOL     OW16303   4.069   0.445   9.084 -0.0496 -0.5406  0.1468
 1614SOL    HW116304   4.042   0.355   9.066 -0.2070 -0.1717 -1.4534
 1614SOL    HW216305   4.001   0.490   9.135 -0.7608 -1.2346 -0.2020
 1615SOL     OW16306   1.767   1.199   3.386 -0.3673 -0.7726 -0.1634
 1615SOL    HW116307   1.710   1.275   3.394  0.2675 -0.4119  0.9098
 1615SOL    HW216308   1.813   1.211   3.469 -0.2654  0.6165 -0.4203
 1616SOL     OW16309   3.125   4.512  10.966  0.1781  0.2692 -0.0195
 1616SOL    HW116310   3.089   4.521  11.055 -1.6635 -0.8120 -0.6411
 1616SOL    HW216311   3.184   4.437  10.966 -1.4143 -0.9931  0.1442
 1617SOL     OW16312   3.849   3.755   6.129  0.1052  0.9071 -0.0672
 1617SOL    HW116313   3.815   3.763   6.218  0.9949  1.5499  0.2090
 1617SOL    HW216314   3.918   3.821   6.128  0.4505  0.5310 -1.7691
 1618SOL     OW16315   1.935   2.817   0.279  0.3450 -0.5043 -0.1205
 1618SOL    HW116316   1.850   2.806   0.235  0.3240  3.3010 -1.0140
 1618SOL    HW216317   1.994   2.794   0.207  0.7376 -0.2897  0.1345
 1619SOL     OW16318   2.500   0.215   2.155 -0.0559 -0.5561  0.2135
 1619SOL    HW116319   2.560   0.289   2.148 -0.7457 -0.0116  0.0842
 1619SOL    HW216320   2.495   0.192   2.248  0.5341 -3.7128 -0.5251
 1620SOL     OW16321   0.116   4.643   8.897  0.8295 -0.0629  0.3448
 1620SOL    HW116322   0.135   4.719   8.953  0.5354  1.0526 -1.0671
 1620SOL    HW216323   0.197   4.634   8.847  0.6314 -3.0434  0.6020
 1621SOL     OW16324   3.178   1.534   1.519 -0.5797 -0.8622 -0.2558
 1621SOL    HW116325   3.258   1.486   1.541 -0.2077 -0.1475 -0.0638
 1621SOL    HW216326   3.149   1.570   1.603  0.6552 -2.7442  0.9882
 1622SOL     OW16327   2.134   3.019  10.486  0.0336 -0.3083 -0.2063
 1622SOL    HW116328   2.167   2.929  10.495  0.3542  0.1083  2.9669
 1622SOL    HW216329   2.065   3.002  10.550 -0.3547  0.5663 -0.3916
 1623SOL     OW16330   0.253   3.228  13.218 -0.1524 -0.4921  0.2949
 1623SOL    HW116331   0.271   3.313  13.180 -3.5141  0.1035 -0.0350
 1623SOL    HW216332   0.169   3.211  13.174  0.6161 -2.3970 -0.4416
 1624SOL     OW16333   3.986   3.775  15.554 -0.1299  0.0636 -0.2753
 1624SOL    HW116334   4.075   3.763  15.589 -0.2091 -2.3958 -0.9133
 1624SOL    HW216335   3.980   3.869  15.537 -0.5992  0.0507 -0.1918
 1625SOL     OW16336   0.361   2.778   5.785  0.3813  0.5211  0.0397
 1625SOL    HW116337   0.398   2.750   5.702  0.4636 -1.4451  0.7383
 1625SOL    HW216338   0.415   2.850   5.818  0.4836 -0.3931  1.9219
 1626SOL     OW16339   2.468   4.531   0.892  0.2657  0.0100  0.6632
 1626SOL    HW116340   2.393   4.590   0.901  0.9585  0.9471  0.2214
 1626SOL    HW216341   2.458   4.482   0.811 -0.8811 -1.0569  1.4380
 1627SOL     OW16342   1.724   1.205   7.169  0.3211  0.2108  1.0239
 1627SOL    HW116343   1.662   1.133   7.164 -1.3229  1.8138 -1.9620
 1627SOL    HW216344   1.679   1.267   7.110 -0.1148 -1.6317 -0.5622
 1628SOL     OW16345   0.757   4.114  13.472  0.2351 -0.4214  0.1679
 1628SOL    HW116346   0.779   4.087  13.383  0.6710 -1.0028  0.4503
 1628SOL    HW216347   0.678   4.064  13.494 -0.1796  0.8507  1.5522
 1629SOL     OW16348   2.546   0.602  13.435  0.0411  0.2301 -0.2250
 1629SOL    HW116349   2.524   0.556  13.354  4.4929 -0.2270 -1.1597
 1629SOL    HW216350   2.547   0.692  13.402 -1.4672  0.1213 -0.6060
 1630SOL     OW16351   0.483   1.637   1.256 -0.0400  0.0233 -0.3325
 1630SOL    HW116352   0.529   1.704   1.205 -2.4826  0.9289 -1.3785
 1630SOL    HW216353   0.430   1.689   1.317  0.4623  0.2399 -0.0832
 1631SOL     OW16354   0.229   3.508  10.818 -0.7575 -0.1128  0.3712
 1631SOL    HW116355   0.141   3.544  10.832 -0.5248  0.1409  1.1813
 1631SOL    HW216356   0.222   3.469  10.731 -0.3036 -1.6043  1.0071
 1632SOL     OW16357   2.241   2.255   8.911  0.2960 -0.1025 -0.5523
 1632SOL    HW116358   2.299   2.234   8.838  0.1138 -1.5935 -0.2737
 1632SOL    HW216359   2.153   2.240   8.878 -0.2826 -1.5448  1.6261
 1633SOL     OW16360   1.621   2.425   4.204  0.5341 -0.6238  0.1023
 1633SOL    HW116361   1.631   2.346   4.151  0.7857  0.2330 -1.1429
 1633SOL    HW216362   1.631   2.389   4.292 -0.0875 -1.6508 -0.2493
 1634SOL     OW16363   0.178   0.542   1.713  0.3800 -0.1072 -0.1351
 1634SOL    HW116364   0.109   0.594   1.755  1.7717  2.7780 -1.4350
 1634SOL    HW216365   0.256   0.596   1.729 -0.0792  0.4527  0.2075
 1635SOL     OW16366   1.655   1.229  15.176  0.0428  0.9191  0.2852
 1635SOL    HW116367   1.608   1.165  15.230 -0.1874  2.9901  2.5064
 1635SOL    HW216368   1.666   1.296  15.244 -1.5920 -0.1186  1.5666
 1636SOL     OW16369   0.092   1.604   3.608  0.2460 -0.4944 -0.1241
 1636SOL    HW116370   0.074   1.698   3.620 -0.2547 -0.3772 -1.7739
 1636SOL    HW216371   0.184   1.599   3.631  0.0908  0.7524  0.7805
 1637SOL     OW16372   3.371   3.767   3.107 -0.3418  0.3332  0.1219
 1637SOL    HW116373   3.435   3.774   3.178 -0.0977 -1.5514  0.0801
 1637SOL    HW216374   3.400   3.841   3.053  3.4463 -0.9723  0.3999
 1638SOL     OW16375   0.738   1.987   0.899  0.0254  0.0240 -0.1048
 1638SOL    HW116376   0.724   1.915   0.838 -0.3428 -0.3722  0.4439
 1638SOL    HW216377   0.833   1.997   0.903  0.0645  0.6005 -2.7969
 1639SOL     OW16378   3.815   2.446   5.736 -0.2651 -0.7842 -0.3018
 1639SOL    HW116379   3.826   2.495   5.655  1.1664 -1.5258 -0.5485
 1639SOL    HW216380   3.777   2.364   5.703  1.4147 -1.7756  0.2736
 1640SOL     OW16381   3.652   1.905   4.166 -0.1867  0.7212 -0.0099
 1640SOL    HW116382   3.703   1.976   4.128  0.4889  0.5414  0.5593
 1640SOL    HW216383   3.615   1.866   4.087  0.8094  1.4443 -0.8309
 1641SOL     OW16384   4.644   1.083  17.478 -0.3475  0.3836  0.1259
 1641SOL    HW116385   4.631   1.102  17.571 -2.0603  1.0608 -0.2443
 1641SOL    HW216386   4.658   1.170  17.442  1.1676  0.9031  1.9772
 1642SOL     OW16387   4.439   0.660   6.746 -0.3418 -0.5620  0.1288
 1642SOL    HW116388   4.436   0.651   6.651  0.7576 -2.8993  0.3336
 1642SOL    HW216389   4.495   0.588   6.775 -0.7501 -1.0413 -0.2580
 1643SOL     OW16390   4.702   4.446   4.143 -0.1176 -0.4913  0.1718
 1643SOL    HW116391   4.674   4.371   4.196 -1.0352 -0.6946 -0.6005
 1643SOL    HW216392   4.648   4.436   4.065 -2.0863  0.6660  1.3985
 1644SOL     OW16393   0.846   1.174  15.047  0.1616  0.0460  0.4246
 1644SOL    HW116394   0.790   1.099  15.029  0.3131 -0.4192  1.8695
 1644SOL    HW216395   0.910   1.133  15.106 -1.3526 -1.4846  1.0015
 1645SOL     OW16396   4.298   4.394   8.753  0.0191 -0.2401  0.6353
 1645SOL    HW116397   4.307   4.414   8.846  1.9046  0.9442  0.1898
 1645SOL    HW216398   4.310   4.299   8.758  2.7063  0.1113  0.6579
 1646SOL     OW16399   0.144   3.980  16.690 -0.2335  0.2557  0.3758
 1646SOL    HW116400   0.082   4.044  16.725  1.3466 -0.0132  3.7053
 1646SOL    HW216401   0.137   3.910  16.755 -0.2264  0.2757  0.3982
 1647SOL     OW16402   1.735   4.291   3.904  0.6180 -0.2979 -0.9427
 1647SOL    HW116403   1.772   4.206   3.925 -4.1221 -1.8525  1.2211
 1647SOL    HW216404   1.808   4.351   3.923 -0.3893  0.9428 -0.9514
 1648SOL     OW16405   3.619   3.901  15.400 -0.4500 -0.5156 -0.0654
 1648SOL    HW116406   3.594   3.851  15.478  0.8917  1.7468  1.8261
 1648SOL    HW216407   3.679   3.967  15.435 -0.9469  0.3286 -0.8179
 1649SOL     OW16408   4.312   1.628   0.999 -0.4451 -0.2068  0.3771
 1649SOL    HW116409   4.295   1.536   1.018 -1.1686 -0.0487  0.5255
 1649SOL    HW216410   4.288   1.628   0.906 -0.1152 -1.0791  0.2946
 1650SOL     OW16411   0.217   1.038  12.689 -0.6264 -0.0495  0.6559
 1650SOL    HW116412   0.247   0.978  12.757 -0.0785 -0.0522  0.4076
 1650SOL    HW216413   0.295   1.023  12.635 -0.5719  1.0965  0.4189
 1651SOL     OW16414   1.656   0.523   4.611 -0.3784 -0.1754  0.8865
 1651SOL    HW116415   1.632   0.603   4.565 -1.6500 -2.0278 -1.6427
 1651SOL    HW216416   1.615   0.450   4.566 -0.4536  0.4846 -0.1200
 1652SOL     OW16417   0.951   1.908   4.137 -0.1070 -0.2388 -0.4185
 1652SOL    HW116418   0.945   1.821   4.098  1.6919 -0.4259 -0.3036
 1652SOL    HW216419   1.039   1.909   4.176  0.4546  3.0036 -1.7501
 1653SOL     OW16420   2.573   3.040   7.244 -0.1332 -0.1555  0.4950
 1653SOL    HW116421   2.497   3.027   7.301 -1.8936  0.4762 -1.7002
 1653SOL    HW216422   2.539   3.081   7.165  0.0055 -1.9145 -0.4774
 1654SOL     OW16423   0.064   0.212   2.048  0.3671 -0.4755  0.7589
 1654SOL    HW116424   4.701   0.190   2.090 -0.0004 -0.1365  0.2057
 1654SOL    HW216425   0.072   0.132   1.995 -1.8367  0.0649 -0.3945
 1655SOL     OW16426   4.001   1.662   3.253 -0.1221 -0.1781 -0.5207
 1655SOL    HW116427   4.067   1.678   3.320 -0.3985 -1.4505  0.0531
 1655SOL    HW216428   3.951   1.743   3.265  1.2228  0.7101 -0.9755
 1656SOL     OW16429   1.412   2.120  12.553 -0.5230  0.4540  0.2319
 1656SOL    HW116430   1.379   2.139  12.466 -0.4139  0.4131  0.1813
 1656SOL    HW216431   1.393   2.026  12.557  0.4874  0.2840  1.1305
 1657SOL     OW16432   2.669   0.866   5.730  0.4530  0.0315 -0.0472
 1657SOL    HW116433   2.587   0.869   5.681  1.0020  0.7381 -0.9194
 1657SOL    HW216434   2.635   0.876   5.819 -0.4274  1.4880 -0.5552
 1658SOL     OW16435   2.133   1.983   9.325  0.3336 -0.2273  0.1319
 1658SOL    HW116436   2.185   2.058   9.297 -1.3434 -0.0643 -2.5386
 1658SOL    HW216437   2.174   1.954   9.407 -1.9554 -1.0001  0.9994
 1659SOL     OW16438   0.642   2.209   8.967  0.1481 -0.1089  0.0032
 1659SOL    HW116439   0.652   2.207   8.872  3.0356  1.1918  0.2833
 1659SOL    HW216440   0.571   2.273   8.977 -0.2713 -0.6102  0.2392
 1660SOL     OW16441   0.822   3.653   3.645  0.1693  0.3478  0.2710
 1660SOL    HW116442   0.885   3.704   3.593 -0.6604  1.5782  0.4847
 1660SOL    HW216443   0.886   3.618   3.707 -0.3538 -0.3837  0.3941
 1661SOL     OW16444   1.481   1.150   5.939  0.1290  0.0916 -0.2490
 1661SOL    HW116445   1.439   1.212   5.879  1.8813  0.0994 -1.4614
 1661SOL    HW216446   1.440   1.071   5.905 -0.8452 -0.1611  1.5117
 1662SOL     OW16447   0.434   1.392   7.748 -0.2030  0.1557 -0.3798
 1662SOL    HW116448   0.476   1.394   7.835 -0.7318  1.0981 -0.1482
 1662SOL    HW216449   0.404   1.481   7.727  2.2091  1.0620 -0.0315
 1663SOL     OW16450   1.459   1.590   9.366  0.6451  0.4767  0.2162
 1663SOL    HW116451   1.520   1.617   9.297  1.4757  0.1747  0.8312
 1663SOL    HW216452   1.509   1.618   9.443  0.5043 -2.5144  1.4211
 1664SOL     OW16453   4.033   1.543   3.571 -0.3979  0.3328  0.6734
 1664SOL    HW116454   4.045   1.637   3.582 -1.2335  0.6785 -1.3750
 1664SOL    HW216455   4.012   1.513   3.659 -0.6511 -2.6700 -0.3832
 1665SOL     OW16456   2.545   3.983  17.327  0.2582  0.3673 -0.1474
 1665SOL    HW116457   2.583   3.928  17.396  0.2402  0.3795 -0.1279
 1665SOL    HW216458   2.598   3.965  17.250  1.3184  1.9367  0.1943
 1666SOL     OW16459   1.459   1.346   9.479  0.5006  0.1016 -0.1425
 1666SOL    HW116460   1.384   1.340   9.539  0.6641  0.3044  0.0812
 1666SOL    HW216461   1.442   1.424   9.426  2.7140 -1.2985 -2.8934
 1667SOL     OW16462   1.842   4.278  17.046 -0.5265  0.2458 -0.6768
 1667SOL    HW116463   1.884   4.312  17.125 -2.2146  1.0064 -0.1228
 1667SOL    HW216464   1.757   4.321  17.042 -0.4890  0.4542  0.7394
 1668SOL     OW16465   4.579   3.935   9.434 -0.6864 -0.1652 -0.1345
 1668SOL    HW116466   4.557   3.902   9.521 -2.3526  1.8006  0.1884
 1668SOL    HW216467   4.659   3.983   9.453 -0.7338 -0.3943  0.6330
 1669SOL     OW16468   1.218   1.928   6.023  0.1420  0.2488  0.0803
 1669SOL    HW116469   1.279   1.998   6.002 -0.6086  0.3370 -1.7975
 1669SOL    HW216470   1.132   1.963   6.000 -1.8112 -3.1276  2.1695
 1670SOL     OW16471   2.303   2.004   9.560 -0.4281  0.0532 -0.4142
 1670SOL    HW116472   2.249   2.004   9.639  0.0194 -3.2952 -0.0770
 1670SOL    HW216473   2.363   2.064   9.604 -0.7750 -0.6769  1.0681
 1671SOL     OW16474   2.875   1.558   1.522  0.0860 -0.1669  0.7723
 1671SOL    HW116475   2.952   1.506   1.497 -0.6966 -0.6406 -0.7092
 1671SOL    HW216476   2.850   1.544   1.613 -2.3177 -2.6164 -0.2635
 1672SOL     OW16477   4.302   0.307   7.759  0.5021 -0.1623  0.1905
 1672SOL    HW116478   4.209   0.289   7.746  0.2967  0.3086  1.0059
 1672SOL    HW216479   4.305   0.396   7.793  1.1391 -0.6510  1.4018
 1673SOL     OW16480   1.244   1.310   9.224  0.2911 -0.0368 -0.3582
 1673SOL    HW116481   1.254   1.246   9.153 -0.0288  0.4019 -0.7916
 1673SOL    HW216482   1.336   1.324   9.247  0.5879 -0.6199 -1.1878
 1674SOL     OW16483   2.701   0.475  14.976 -0.5674  0.0371  0.2215
 1674SOL    HW116484   2.782   0.467  14.926 -1.8264  1.2359 -1.9905
 1674SOL    HW216485   2.737   0.484  15.065  0.9038  1.8994 -0.5488
 1675SOL     OW16486   3.177   0.839   5.420  0.2329 -0.3599  0.3681
 1675SOL    HW116487   3.236   0.843   5.495  0.5840 -0.2703  0.0906
 1675SOL    HW216488   3.231   0.820   5.343  1.1188  0.1249  0.8737
 1676SOL     OW16489   4.209   3.944  10.000  0.2797 -0.1134 -0.7538
 1676SOL    HW116490   4.198   3.932   9.905  0.7162  0.0930 -0.8343
 1676SOL    HW216491   4.297   3.979  10.010  0.8641 -2.0619  0.8523
 1677SOL     OW16492   2.899   4.547   8.092  0.3222 -0.2078 -0.4407
 1677SOL    HW116493   2.992   4.571   8.103  0.0317  0.7713 -0.0660
 1677SOL    HW216494   2.870   4.619   8.036 -2.0188 -1.7055 -1.1394
 1678SOL     OW16495   3.806   1.178  14.363 -0.3690 -0.2112  0.1875
 1678SOL    HW116496   3.840   1.089  14.359 -1.9616 -0.8660  1.4419
 1678SOL    HW216497   3.768   1.182  14.450 -3.8017  1.3805 -1.3750
 1679SOL     OW16498   0.782   1.100   3.983  0.1596  0.3440  0.1944
 1679SOL    HW116499   0.824   1.059   4.059 -1.7625  0.2157  1.1717
 1679SOL    HW216500   0.712   1.038   3.966  2.3196 -1.3770 -2.6055
 1680SOL     OW16501   4.608   0.395   1.338 -0.1089  0.2150 -0.5261
 1680SOL    HW116502   4.646   0.311   1.365  0.6442  0.5502 -0.5327
 1680SOL    HW216503   4.590   0.434   1.424  0.0727 -0.0785 -0.3574
 1681SOL     OW16504   2.722   3.826   8.424  0.9048 -1.0708 -0.4982
 1681SOL    HW116505   2.780   3.898   8.398  2.6644 -1.9296  1.0560
 1681SOL    HW216506   2.778   3.759   8.462  1.4356  0.7606  1.9438
 1682SOL     OW16507   1.817   3.138   5.580  0.1301  0.1218 -0.4392
 1682SOL    HW116508   1.796   3.069   5.517 -1.1042 -1.5518  1.7729
 1682SOL    HW216509   1.853   3.201   5.518 -1.9945  1.8692  0.1124
 1683SOL     OW16510   0.162   3.001   4.863 -0.2997 -0.3189  0.7942
 1683SOL    HW116511   0.244   3.040   4.833 -0.3675  0.3606  1.4797
 1683SOL    HW216512   0.159   3.024   4.956  0.5404 -1.0101  0.9870
 1684SOL     OW16513   3.679   0.124  15.126 -0.3561  0.0268  0.2616
 1684SOL    HW116514   3.759   0.159  15.165  0.9059 -0.2047 -2.1589
 1684SOL    HW216515   3.699   0.031  15.124 -1.9568 -0.2942 -0.8619
 1685SOL     OW16516   1.252   3.166   7.900 -0.3474  0.1014 -0.1806
 1685SOL    HW116517   1.230   3.073   7.905  0.6558 -0.1447 -0.2734
 1685SOL    HW216518   1.294   3.170   7.814 -1.2728 -1.8643 -0.7288
 1686SOL     OW16519   0.911   2.794   9.734  0.2162  0.2724  1.0801
 1686SOL    HW116520   0.881   2.717   9.685 -0.5178  2.4689 -1.9557
 1686SOL    HW216521   0.899   2.768   9.825 -0.8178 -1.5117  0.4347
 1687SOL     OW16522   0.554   0.315   5.249 -0.1925  0.3481 -0.0370
 1687SOL    HW116523   0.531   0.224   5.231  2.8860 -0.2436 -0.9994
 1687SOL    HW216524   0.472   0.341   5.290 -0.0927  1.3332 -0.4747
 1688SOL     OW16525   2.159   2.620   4.632 -0.0797 -0.1650  0.1149
 1688SOL    HW116526   2.160   2.525   4.615 -0.7925  0.1171 -1.4844
 1688SOL    HW216527   2.144   2.647   4.542  1.9408  0.8400  0.0898
 1689SOL     OW16528   3.196   0.820  11.238  0.4651 -0.1918 -0.0355
 1689SOL    HW116529   3.117   0.766  11.237  1.7250 -2.0193 -1.7417
 1689SOL    HW216530   3.190   0.872  11.318 -0.4833 -0.5618  0.1285
 1690SOL     OW16531   3.953   0.441   2.991 -0.2207  0.1766 -0.1963
 1690SOL    HW116532   4.012   0.441   2.916 -1.7051 -0.8184 -1.3819
 1690SOL    HW216533   3.944   0.535   3.005  2.7424  0.5535 -0.8505
 1691SOL     OW16534   1.974   2.386  12.883 -0.2925  0.8707  0.4073
 1691SOL    HW116535   1.936   2.377  12.970  0.3959  2.5312  0.8899
 1691SOL    HW216536   2.064   2.398  12.915 -0.2211  2.7967 -0.5152
 1692SOL     OW16537   3.877   0.126   5.489  0.4476 -0.0208  0.5226
 1692SOL    HW116538   3.814   0.192   5.517  1.7639  1.6475 -0.4176
 1692SOL    HW216539   3.853   0.058   5.552 -0.0234 -1.0782 -0.7912
 1693SOL     OW16540   0.733   3.792   5.082  0.1409  0.0149  0.4342
 1693SOL    HW116541   0.783   3.871   5.065  0.4888 -0.2713  0.1357
 1693SOL    HW216542   0.651   3.804   5.034  0.4388 -0.4197 -0.1837
 1694SOL     OW16543   1.853   0.508   4.832 -0.5492 -0.2721  0.2821
 1694SOL    HW116544   1.895   0.591   4.807  0.0680 -0.8662 -0.6638
 1694SOL    HW216545   1.765   0.523   4.798 -1.3939 -0.6224  2.3369
 1695SOL     OW16546   0.036   2.481  12.956 -0.5721 -0.2034 -0.2919
 1695SOL    HW116547   0.123   2.474  12.915 -0.0939  0.2058  0.6572
 1695SOL    HW216548   4.711   2.452  12.877 -0.1593 -0.2409 -0.5230
 1696SOL     OW16549   0.239   2.085  16.504 -0.6563 -0.0909 -0.8219
 1696SOL    HW116550   0.197   2.171  16.502 -1.3833 -0.4603 -1.7682
 1696SOL    HW216551   0.264   2.068  16.413  0.9759 -1.9190 -0.0134
 1697SOL     OW16552   0.108   3.819   6.401  0.4050  0.1836 -0.3832
 1697SOL    HW116553   0.099   3.752   6.468  1.2522  0.7712  0.3170
 1697SOL    HW216554   0.193   3.857   6.423  0.6722  0.8280 -2.5159
 1698SOL     OW16555   3.342   1.013  11.397 -0.4468  0.5410  0.2307
 1698SOL    HW116556   3.277   1.040  11.462 -0.8262 -1.3834  0.6315
 1698SOL    HW216557   3.401   1.089  11.401  1.8861 -1.2153 -0.7952
 1699SOL     OW16558   3.935   3.152   3.005  0.3068  0.5241 -0.3310
 1699SOL    HW116559   3.943   3.164   3.100 -0.4718 -0.0625 -0.1920
 1699SOL    HW216560   4.019   3.187   2.976  0.1422  0.1185 -1.2862
 1700SOL     OW16561   1.006   1.028   5.486 -0.3977  0.0586 -0.2379
 1700SOL    HW116562   0.948   1.105   5.488 -0.4008  0.0718 -1.0750
 1700SOL    HW216563   0.955   0.975   5.426 -1.7375  0.8626  0.1728
 1701SOL     OW16564   4.451   4.357   4.914  0.1624 -0.5923 -0.0297
 1701SOL    HW116565   4.357   4.342   4.913  0.4116 -2.1631  0.9131
 1701SOL    HW216566   4.481   4.308   4.990  1.0680 -1.4787 -0.9676
 1702SOL     OW16567   3.667   3.306   5.150 -0.5863  0.2100 -0.6442
 1702SOL    HW116568   3.654   3.265   5.235 -1.3439 -0.2191 -0.9740
 1702SOL    HW216569   3.648   3.394   5.181  0.8687  0.5413 -0.6678
 1703SOL     OW16570   1.309   0.180  10.588 -0.8230  0.3445  0.0431
 1703SOL    HW116571   1.404   0.180  10.573 -0.6939 -0.0819  0.8899
 1703SOL    HW216572   1.281   0.221  10.506  0.9489  2.0150  0.2860
 1704SOL     OW16573   0.696   0.079   3.948  0.4090  0.5727 -0.2534
 1704SOL    HW116574   0.753   0.147   3.983  1.4330 -0.6076  0.3729
 1704SOL    HW216575   0.615   0.086   3.999 -0.5813  1.3224 -1.9168
 1705SOL     OW16576   3.520   2.192  12.304  0.1515  0.7138  0.0356
 1705SOL    HW116577   3.598   2.191  12.248  0.4946 -0.1534  0.5344
 1705SOL    HW216578   3.450   2.175  12.241  0.3271 -1.8595  0.5339
 1706SOL     OW16579   1.340   1.084   2.628 -0.1235 -0.3938  0.7798
 1706SOL    HW116580   1.297   1.011   2.672 -1.3699 -1.7060 -2.6534
 1706SOL    HW216581   1.366   1.139   2.702  0.4567 -0.0986  0.3608
 1707SOL     OW16582   2.364   4.530   4.342 -0.3489 -0.2191 -0.0139
 1707SOL    HW116583   2.413   4.585   4.280 -0.4706  1.2544  1.2102
 1707SOL    HW216584   2.411   4.447   4.338 -0.2972 -0.1373 -1.0790
 1708SOL     OW16585   0.442   3.319   7.937 -0.3378 -0.5564 -0.5635
 1708SOL    HW116586   0.357   3.323   7.894  0.3274  1.2781 -1.6973
 1708SOL    HW216587   0.405   3.360   8.015  2.8415  0.2627  0.5362
 1709SOL     OW16588   1.720   2.234   7.099  0.7809 -0.0781  0.7727
 1709SOL    HW116589   1.767   2.223   7.016 -1.2660  2.3333 -0.7054
 1709SOL    HW216590   1.649   2.171   7.091  0.1040  0.4750  2.3732
 1710SOL     OW16591   3.882   0.653   7.300  0.2381  1.1069 -0.2710
 1710SOL    HW116592   3.872   0.665   7.206  0.6835  1.1314 -0.3187
 1710SOL    HW216593   3.976   0.636   7.307 -0.2116 -1.2692 -0.0219
 1711SOL     OW16594   1.927   0.785   5.035  1.2286  0.5339 -0.1235
 1711SOL    HW116595   1.921   0.709   5.093  0.1701  1.0687  0.4731
 1711SOL    HW216596   1.944   0.741   4.951  2.3398  1.5643 -0.4260
 1712SOL     OW16597   2.230   4.684   0.470  0.4751  0.1383 -0.2671
 1712SOL    HW116598   2.315   4.669   0.511  0.3338  1.1401  0.3854
 1712SOL    HW216599   2.163   4.676   0.537  0.7078  0.4094 -0.0034
 1713SOL     OW16600   2.843   1.283   8.157  0.0859  0.5967  0.1809
 1713SOL    HW116601   2.906   1.354   8.163  3.3832 -2.3865  1.1421
 1713SOL    HW216602   2.904   1.211   8.142 -2.0965 -1.1005 -0.5774
 1714SOL     OW16603   3.229   2.848   1.827  0.1424  0.3299  0.7285
 1714SOL    HW116604   3.201   2.780   1.766  1.5238  0.3674  0.0687
 1714SOL    HW216605   3.316   2.824   1.858  0.7738  0.6847 -0.7644
 1715SOL     OW16606   0.897   3.551  12.443  0.3151  0.0295  0.3733
 1715SOL    HW116607   0.899   3.456  12.456 -1.0990 -0.1692 -0.8557
 1715SOL    HW216608   0.878   3.557  12.350  0.2431  0.3703  0.4125
 1716SOL     OW16609   4.409   1.907   8.322 -0.1519  0.0697  0.3270
 1716SOL    HW116610   4.406   2.003   8.330  0.9200  0.2193 -0.8715
 1716SOL    HW216611   4.355   1.897   8.243 -1.0840  0.0820  0.9681
 1717SOL     OW16612   3.040   4.590   1.537 -0.3440  0.1610  0.2414
 1717SOL    HW116613   3.004   4.638   1.462 -1.1956  1.7359  1.6486
 1717SOL    HW216614   2.967   4.588   1.599 -2.4191 -0.3666 -2.1942
 1718SOL     OW16615   1.634   0.239   0.010 -0.7506  0.3676 -0.5211
 1718SOL    HW116616   1.727   0.258   0.010 -1.2848  3.0186  0.9107
 1718SOL    HW216617   1.610   0.324   0.047 -0.5135  0.0389  0.3701
 1719SOL     OW16618   0.892   4.432   3.794  0.1355 -0.1357  0.0134
 1719SOL    HW116619   0.877   4.377   3.717  0.9277 -2.0247  1.1931
 1719SOL    HW216620   0.943   4.366   3.842 -1.3398 -0.8829  0.5615
 1720SOL     OW16621   2.217   1.106   5.342 -0.0381 -0.0938  0.4015
 1720SOL    HW116622   2.257   1.172   5.400 -1.0197 -0.6255  1.7005
 1720SOL    HW216623   2.243   1.026   5.388 -0.4944 -0.5727 -0.1892
 1721SOL     OW16624   1.972   1.980   9.578 -0.6643  0.4086 -0.2068
 1721SOL    HW116625   1.976   2.019   9.666  2.8829 -0.5286  0.0154
 1721SOL    HW216626   1.993   1.889   9.599  2.4133  1.1801  0.0631
 1722SOL     OW16627   3.860   1.905   2.976 -0.3867 -0.8634 -0.1820
 1722SOL    HW116628   3.830   1.830   3.027  0.7872 -0.5275  0.9913
 1722SOL    HW216629   3.796   1.966   3.013 -0.0420 -0.6538  0.0645
 1723SOL     OW16630   3.901   4.202   7.887 -0.1862  0.3190 -0.1775
 1723SOL    HW116631   3.870   4.217   7.976 -0.8449 -0.0143 -0.3486
 1723SOL    HW216632   3.889   4.290   7.852  1.3535  0.0766 -1.3219
 1724SOL     OW16633   1.995   1.561   2.948  0.2534  0.2505  0.3533
 1724SOL    HW116634   2.000   1.507   3.027  1.1620  1.8071  1.3402
 1724SOL    HW216635   2.014   1.492   2.884 -0.3826 -1.1793  1.7067
 1725SOL     OW16636   4.361   3.005   3.672 -0.2383 -0.4540  0.9786
 1725SOL    HW116637   4.412   2.926   3.690 -0.0098 -0.9667 -2.0391
 1725SOL    HW216638   4.382   3.045   3.757  0.0130  0.6452  0.3940
 1726SOL     OW16639   4.545   4.362   2.109 -0.5355  0.6232  0.1736
 1726SOL    HW116640   4.480   4.413   2.061 -1.2717 -0.8435 -0.3825
 1726SOL    HW216641   4.501   4.304   2.170  2.0450 -1.7887 -0.2478
 1727SOL     OW16642   1.862   0.837  10.904 -0.3481 -0.5183  0.5416
 1727SOL    HW116643   1.919   0.910  10.880  0.1184 -1.3367 -0.8585
 1727SOL    HW216644   1.775   0.875  10.887 -0.0641 -0.9662 -2.0178
 1728SOL     OW16645   2.142   4.571  10.341 -0.0232  0.3450  0.3235
 1728SOL    HW116646   2.063   4.527  10.309  1.4498 -0.5281 -2.2023
 1728SOL    HW216647   2.167   4.607  10.256 -1.4256  0.4927 -0.0164
 1729SOL     OW16648   1.758   2.600   3.469 -0.0063  1.2202 -0.5723
 1729SOL    HW116649   1.726   2.683   3.505 -2.8406 -0.9420  1.8727
 1729SOL    HW216650   1.771   2.624   3.378 -3.0150 -0.3795 -1.3902
 1730SOL     OW16651   4.391   1.578   8.569 -0.0531 -0.2413  0.3879
 1730SOL    HW116652   4.456   1.597   8.637 -0.7907 -1.2303  1.3862
 1730SOL    HW216653   4.369   1.486   8.587 -1.4277 -0.3267 -1.7437
 1731SOL     OW16654   4.556   4.375  15.134  0.3853 -0.3045  0.2102
 1731SOL    HW116655   4.486   4.367  15.198  1.5524 -0.5845  1.4436
 1731SOL    HW216656   4.505   4.390  15.054 -1.3822 -1.9681  1.0119
 1732SOL     OW16657   0.804   2.472  11.057  0.3004  0.3654 -0.6706
 1732SOL    HW116658   0.832   2.451  11.146 -0.4599  0.4569 -0.4121
 1732SOL    HW216659   0.756   2.553  11.069  0.4434  0.2268  0.7887
 1733SOL     OW16660   4.591   0.480   2.154  0.4820  0.5344 -0.2493
 1733SOL    HW116661   4.587   0.385   2.166  3.3957  0.5874  1.0433
 1733SOL    HW216662   4.608   0.473   2.060  0.7076 -0.0021 -0.1679
 1734SOL     OW16663   0.291   1.514  11.712 -0.0574  0.0430 -0.3147
 1734SOL    HW116664   0.316   1.606  11.718 -0.9478  0.3311 -0.9933
 1734SOL    HW216665   0.367   1.465  11.680  0.0357 -0.3065  0.4216
 1735SOL     OW16666   3.309   2.677   3.277  0.3655  0.3780 -0.2334
 1735SOL    HW116667   3.258   2.597   3.290  0.4812  0.5110  1.0178
 1735SOL    HW216668   3.396   2.639   3.268  0.3403  0.3981 -0.5603
 1736SOL     OW16669   2.097   3.779   0.611  0.0993  0.3865  0.2108
 1736SOL    HW116670   2.059   3.833   0.542 -1.3346 -0.4002  0.3745
 1736SOL    HW216671   2.099   3.830   0.692 -1.2098  2.0108 -0.7928
 1737SOL     OW16672   4.244   2.096   9.791 -1.0914  0.0078  0.2776
 1737SOL    HW116673   4.232   2.001   9.795  0.6485 -0.3222 -2.2632
 1737SOL    HW216674   4.210   2.131   9.873  0.4336  1.5569  0.2599
 1738SOL     OW16675   4.004   1.494   2.025 -0.1196  0.3395 -0.2003
 1738SOL    HW116676   3.979   1.523   2.112 -1.3552 -2.9412  0.5739
 1738SOL    HW216677   4.092   1.528   2.015  0.7380 -1.2158  2.0837
 1739SOL     OW16678   2.050   2.476   7.160 -0.1816 -1.2159 -0.7205
 1739SOL    HW116679   1.958   2.494   7.181  0.5564  0.1218  1.4543
 1739SOL    HW216680   2.029   2.390   7.124 -1.2551  0.5384 -4.2762
 1740SOL     OW16681   0.536   2.376   2.521  0.3797 -0.2601 -0.3270
 1740SOL    HW116682   0.516   2.397   2.612 -0.7922 -0.7649 -0.4586
 1740SOL    HW216683   0.456   2.332   2.491 -0.5752 -0.5809  2.6650
 1741SOL     OW16684   3.167   0.727   0.630 -0.2503 -0.1481 -0.0297
 1741SOL    HW116685   3.073   0.727   0.649 -0.2061 -0.2014  0.1781
 1741SOL    HW216686   3.200   0.638   0.633 -1.6632 -0.7278 -1.4667
 1742SOL     OW16687   0.434   1.245   3.917 -0.7579 -0.1556 -0.4379
 1742SOL    HW116688   0.477   1.175   3.966 -0.0117  0.8580  0.3554
 1742SOL    HW216689   0.494   1.250   3.842 -1.0494 -2.3275 -0.8228
 1743SOL     OW16690   4.232   2.022   9.107 -0.0617 -0.1694  0.7071
 1743SOL    HW116691   4.306   2.009   9.167  0.4726 -0.2968  0.0177
 1743SOL    HW216692   4.151   2.028   9.158  0.0096 -2.2750  1.0827
 1744SOL     OW16693   2.990   3.809   5.410 -0.2495  0.8212  0.4298
 1744SOL    HW116694   3.063   3.846   5.360 -1.6939  2.3820 -0.5343
 1744SOL    HW216695   3.034   3.786   5.492 -0.5791  1.2395  0.7228
 1745SOL     OW16696   1.710   3.179   1.981 -0.0824  0.4218  0.0839
 1745SOL    HW116697   1.669   3.136   2.055  0.4473  1.3776  0.9278
 1745SOL    HW216698   1.792   3.209   2.021 -1.2032  3.0650  0.4166
 1746SOL     OW16699   0.010   0.576   5.175  0.9986  0.3185 -0.1936
 1746SOL    HW116700   0.014   0.501   5.235  0.5227  0.8565  0.5172
 1746SOL    HW216701   4.667   0.534   5.118 -1.0220  1.4953  1.1953
 1747SOL     OW16702   3.074   3.380  10.219  0.2326  0.1245  0.4133
 1747SOL    HW116703   3.013   3.381  10.293  1.8362 -0.4595  1.7547
 1747SOL    HW216704   3.090   3.286  10.225  1.6245  0.3659  0.5129
 1748SOL     OW16705   0.860   4.564   4.285  0.2366  0.0431 -0.2776
 1748SOL    HW116706   0.921   4.542   4.355 -0.5374 -0.6305  0.1941
 1748SOL    HW216707   0.889   4.644   4.243 -0.4190  0.2274 -0.3850
 1749SOL     OW16708   0.142   0.033  10.010  0.3685 -0.1435 -0.4217
 1749SOL    HW116709   0.073   0.098  10.016 -0.6083 -0.9855 -2.4583
 1749SOL    HW216710   0.122   4.702  10.088  2.5353 -0.4285 -0.0310
 1750SOL     OW16711   1.522   3.474   7.108 -0.2451 -0.0501  0.1399
 1750SOL    HW116712   1.497   3.385   7.134  2.2331 -1.2248 -1.5083
 1750SOL    HW216713   1.516   3.465   7.013  0.6568 -1.8463  0.2592
 1751SOL     OW16714   1.306   2.353   3.521 -0.5192  0.3183 -0.2485
 1751SOL    HW116715   1.395   2.363   3.555 -1.1099  0.3810  1.2758
 1751SOL    HW216716   1.301   2.443   3.489  0.3740  0.5790  0.3342
 1752SOL     OW16717   1.495   2.530  17.670 -0.5219 -0.0964  0.3611
 1752SOL    HW116718   1.439   2.601  17.638 -0.9022  0.1501  1.5510
 1752SOL    HW216719   1.575   2.538  17.619  0.3138 -0.0446  1.6676
 1753SOL     OW16720   3.469   0.022   8.733  0.2859  0.3920  0.0788
 1753SOL    HW116721   3.458   4.678   8.802  1.0384 -0.6190 -0.7483
 1753SOL    HW216722   3.537   0.061   8.788 -0.7026  2.0068  0.1512
 1754SOL     OW16723   3.829   4.064   0.642  0.1064  0.0210  0.3095
 1754SOL    HW116724   3.906   4.010   0.624  1.1071  1.5092  0.1743
 1754SOL    HW216725   3.773   4.026   0.574  1.1715 -2.5350  0.8363
 1755SOL     OW16726   1.320   0.114   2.356 -0.0568 -0.1574  0.6107
 1755SOL    HW116727   1.364   0.128   2.272 -0.9531  1.0681  0.3504
 1755SOL    HW216728   1.380   0.074   2.419  1.3278 -0.6756 -1.0266
 1756SOL     OW16729   0.245   1.394   0.708  0.3323  0.5053 -0.2348
 1756SOL    HW116730   0.266   1.485   0.726 -0.7496  0.2725  2.1808
 1756SOL    HW216731   0.155   1.412   0.682  0.1375 -3.4406 -2.3494
 1757SOL     OW16732   1.309   0.890   8.725  0.3966  0.5455 -0.7896
 1757SOL    HW116733   1.394   0.911   8.763 -0.2994  3.9711 -1.1475
 1757SOL    HW216734   1.307   0.796   8.746 -0.0812  0.6917 -0.1526
 1758SOL     OW16735   2.561   2.391  10.506 -0.1828  0.0161  0.0633
 1758SOL    HW116736   2.532   2.352  10.589 -0.7595  1.3496  0.4875
 1758SOL    HW216737   2.586   2.317  10.450  0.7495 -0.5717  1.2391
 1759SOL     OW16738   0.306   3.621   5.266 -0.4294  0.4447 -0.5422
 1759SOL    HW116739   0.285   3.714   5.258 -0.5077  0.2518 -2.4336
 1759SOL    HW216740   0.283   3.600   5.176  0.1884 -0.8187 -0.4011
 1760SOL     OW16741   2.643   4.402  13.943  0.1084 -0.2935 -0.7699
 1760SOL    HW116742   2.642   4.310  13.971  0.2955 -0.0469  0.0405
 1760SOL    HW216743   2.731   4.413  13.907  0.5478 -1.2351 -0.0138
 1761SOL     OW16744   4.155   1.221   1.351  0.1269  1.0091 -0.1630
 1761SOL    HW116745   4.149   1.269   1.434  1.2000  1.1454 -0.1646
 1761SOL    HW216746   4.063   1.225   1.323  0.9634  1.1770 -2.8811
 1762SOL     OW16747   1.082   2.643   3.879  0.7329  0.0021  0.0328
 1762SOL    HW116748   1.009   2.585   3.859 -0.5499  1.6693 -0.1306
 1762SOL    HW216749   1.090   2.685   3.793  1.7853 -0.7966 -0.2649
 1763SOL     OW16750   0.289   4.575   6.014  0.1141 -0.1840  0.4294
 1763SOL    HW116751   0.332   4.628   5.947  0.2357 -0.7846  0.0354
 1763SOL    HW216752   0.266   4.648   6.072  0.1843  1.2289 -1.3249
 1764SOL     OW16753   0.726   2.463   9.964  0.8357 -0.1860 -0.3942
 1764SOL    HW116754   0.773   2.540   9.998 -0.6022  0.1578  0.8072
 1764SOL    HW216755   0.723   2.491   9.873  0.6452  0.2704 -0.2499
 1765SOL     OW16756   1.133   3.339   7.102 -0.2151  0.2799  0.5876
 1765SOL    HW116757   1.133   3.251   7.063  0.4753 -0.5348  2.4405
 1765SOL    HW216758   1.194   3.375   7.038 -0.5921 -2.3198 -1.2401
 1766SOL     OW16759   2.258   0.876   7.993  0.1150  0.3348 -0.2677
 1766SOL    HW116760   2.189   0.872   8.060  0.4755  1.0051  0.1488
 1766SOL    HW216761   2.259   0.970   7.974  1.0119  0.9084  2.4934
 1767SOL     OW16762   0.554   4.233   9.064 -0.1780 -0.1685  0.4856
 1767SOL    HW116763   0.592   4.321   9.074  0.4279 -0.6233  2.2759
 1767SOL    HW216764   0.474   4.249   9.015  0.6187 -0.1472 -0.8053
 1768SOL     OW16765   0.399   0.619   5.923  0.1244  0.4168  0.5236
 1768SOL    HW116766   0.379   0.528   5.942 -1.9380  1.8069  4.9223
 1768SOL    HW216767   0.325   0.672   5.954  0.7751  1.0736  0.9564
 1769SOL     OW16768   2.250   1.500   7.068  0.2038 -0.8284  0.8016
 1769SOL    HW116769   2.321   1.451   7.109 -1.3409 -2.9167  0.9909
 1769SOL    HW216770   2.214   1.432   7.009 -2.7316  0.0667  1.5523
 1770SOL     OW16771   2.647   3.385   6.422  0.2729 -0.1773  0.3055
 1770SOL    HW116772   2.732   3.342   6.425 -0.0904 -1.0110 -1.5437
 1770SOL    HW216773   2.638   3.386   6.327 -0.7856 -0.9507  0.3880
 1771SOL     OW16774   1.892   2.712   5.829 -0.3601  0.1460 -0.0152
 1771SOL    HW116775   1.846   2.792   5.806  0.0533  0.3300 -0.1927
 1771SOL    HW216776   1.875   2.653   5.756 -0.5262  1.6282 -1.1702
 1772SOL     OW16777   2.975   3.762   1.300 -0.1592 -0.4072  0.3625
 1772SOL    HW116778   3.017   3.698   1.358  1.2609  0.1191 -0.0865
 1772SOL    HW216779   2.892   3.721   1.276 -0.5804  0.9181 -0.4334
 1773SOL     OW16780   3.915   3.608   9.254  0.1742  0.1097 -0.6002
 1773SOL    HW116781   3.979   3.651   9.310 -0.4204 -0.2164  0.3190
 1773SOL    HW216782   3.967   3.622   9.175  1.1616 -1.2614 -0.1897
 1774SOL     OW16783   0.160   4.649   3.142  0.2780  0.1942 -0.0496
 1774SOL    HW116784   0.125   4.708   3.208 -0.4113  1.6978 -1.7575
 1774SOL    HW216785   0.217   4.588   3.188  0.8034  0.2658 -0.6048
 1775SOL     OW16786   0.732   2.772   6.270  1.0208 -0.4038 -0.0619
 1775SOL    HW116787   0.761   2.851   6.316 -0.0839 -0.1472  0.1779
 1775SOL    HW216788   0.727   2.703   6.336 -0.2487 -1.1147 -0.9027
 1776SOL     OW16789   1.756   1.706   8.253  0.2202  0.2501  0.1425
 1776SOL    HW116790   1.671   1.677   8.287  1.1277 -1.0306  1.3017
 1776SOL    HW216791   1.752   1.801   8.243  0.8982 -0.0837 -3.2358
 1777SOL     OW16792   0.032   4.277   2.478 -0.9706  0.5365  0.0046
 1777SOL    HW116793   0.126   4.272   2.461 -1.5362  0.2366 -3.0418
 1777SOL    HW216794   0.012   4.188   2.509 -1.4471  0.1689 -1.3511
 1778SOL     OW16795   0.352   3.892   5.757 -0.6810 -0.7464 -0.3070
 1778SOL    HW116796   0.373   3.913   5.666 -1.1214  1.9235  0.2134
 1778SOL    HW216797   0.408   3.814   5.757 -0.2115 -0.4077 -0.6617
 1779SOL     OW16798   1.197   3.198   3.757  0.0436  0.1029 -0.2399
 1779SOL    HW116799   1.223   3.289   3.771  1.7163 -0.2583 -1.0597
 1779SOL    HW216800   1.246   3.160   3.830 -0.6254 -2.3607 -1.0965
 1780SOL     OW16801   0.724   0.050   1.878  0.0054  0.2600 -0.2271
 1780SOL    HW116802   0.771   4.691   1.901  1.4172  1.2625  0.3445
 1780SOL    HW216803   0.636   0.019   1.856  0.5017 -1.6643  0.4837
 1781SOL     OW16804   2.850   0.937   4.434 -0.5128  0.4531  0.0603
 1781SOL    HW116805   2.903   0.941   4.514 -0.4419 -1.2977  0.1049
 1781SOL    HW216806   2.920   0.925   4.370  0.7520  2.5584  1.0576
 1782SOL     OW16807   2.631   2.908   2.540 -0.4110  0.7187  0.1605
 1782SOL    HW116808   2.591   2.834   2.585 -0.9773  0.0440 -1.4575
 1782SOL    HW216809   2.652   2.968   2.612 -1.1939  1.1818  0.0052
 1783SOL     OW16810   1.843   0.525   5.320 -0.4736 -0.0786  0.3537
 1783SOL    HW116811   1.874   0.605   5.363 -0.3606  0.0735 -0.0172
 1783SOL    HW216812   1.917   0.464   5.330 -0.9177 -0.3345  2.2028
 1784SOL     OW16813   3.065   0.414   8.489 -0.2848  0.3768  0.5160
 1784SOL    HW116814   3.045   0.503   8.460 -0.5631  0.1540  0.0223
 1784SOL    HW216815   3.154   0.405   8.454 -0.7022 -2.3702  0.2037
 1785SOL     OW16816   2.762   1.937  13.505 -0.0658 -0.8745  0.0868
 1785SOL    HW116817   2.695   1.874  13.480  0.3962 -0.8895 -1.0936
 1785SOL    HW216818   2.821   1.876  13.548 -0.8259 -2.0933 -0.6095
 1786SOL     OW16819   0.955   1.776   9.455 -0.2075  0.0144 -0.4453
 1786SOL    HW116820   1.050   1.783   9.450 -0.1718  0.4544  0.8313
 1786SOL    HW216821   0.945   1.691   9.498  1.5569  0.7017  1.3460
 1787SOL     OW16822   1.329   0.906   7.302  0.2075 -0.0170  0.1400
 1787SOL    HW116823   1.345   0.962   7.377  0.3845  1.0137 -0.6718
 1787SOL    HW216824   1.269   0.841   7.339 -2.4757  2.3077 -0.1541
 1788SOL     OW16825   4.648   3.156   0.207  0.1180  0.1651  0.1232
 1788SOL    HW116826   4.704   3.171   0.131  1.0520 -1.2017  0.5275
 1788SOL    HW216827   4.714   3.110   0.261 -1.1391 -0.6259  0.9889
 1789SOL     OW16828   2.377   3.521   8.317 -0.3854  0.4687  0.4001
 1789SOL    HW116829   2.395   3.500   8.225  1.6442 -4.2504  1.8724
 1789SOL    HW216830   2.293   3.567   8.318 -0.1707  0.9067 -3.2529
 1790SOL     OW16831   3.603   4.299   8.863  0.0917 -0.2199 -0.5394
 1790SOL    HW116832   3.607   4.255   8.778  0.7800 -0.0123 -0.6171
 1790SOL    HW216833   3.695   4.323   8.871  0.3338 -0.9758 -1.0703
 1791SOL     OW16834   2.487   1.737   5.547  0.2657 -0.2864 -0.6460
 1791SOL    HW116835   2.573   1.734   5.505 -0.0113  0.0331 -1.2375
 1791SOL    HW216836   2.521   1.742   5.636 -1.1331  0.1321 -0.1379
 1792SOL     OW16837   3.462   2.956   3.714 -0.1302 -0.0284  0.2840
 1792SOL    HW116838   3.556   2.937   3.719 -0.1859 -0.8056 -1.9048
 1792SOL    HW216839   3.468   3.052   3.710 -2.8713  0.1759  1.4599
 1793SOL     OW16840   4.273   0.769   2.994  0.1315  0.2081 -0.1962
 1793SOL    HW116841   4.300   0.678   3.006 -1.4015 -0.3747 -1.1682
 1793SOL    HW216842   4.184   0.756   2.962 -0.3283 -1.3374  1.7624
 1794SOL     OW16843   3.434   0.347   8.433 -0.0535  0.5042  0.1120
 1794SOL    HW116844   3.461   0.301   8.353  0.2649  1.6668 -0.4492
 1794SOL    HW216845   3.513   0.382   8.475 -0.3109  1.5052 -0.2484
 1795SOL     OW16846   3.722   0.442   2.828  0.9849  0.3676 -0.1919
 1795SOL    HW116847   3.805   0.448   2.876 -0.5736  0.3120  2.5610
 1795SOL    HW216848   3.707   0.536   2.819  0.4259  0.4334  1.4507
 1796SOL     OW16849   2.368   0.190  10.692 -0.3438  0.4101  0.3634
 1796SOL    HW116850   2.362   0.218  10.600  1.1751 -1.7361 -0.3752
 1796SOL    HW216851   2.458   0.212  10.716  0.5304 -3.4981  0.6199
 1797SOL     OW16852   0.512   2.714   4.232 -0.1733  0.3592  0.3776
 1797SOL    HW116853   0.516   2.791   4.176 -1.9123  0.2535  0.1175
 1797SOL    HW216854   0.435   2.735   4.285 -2.1680 -1.8202 -1.6570
 1798SOL     OW16855   3.455   3.428   8.478 -0.1758  0.0855 -0.9154
 1798SOL    HW116856   3.377   3.424   8.423 -0.9882  0.2452  0.2363
 1798SOL    HW216857   3.425   3.503   8.529 -1.7108 -1.6290  0.6853
 1799SOL     OW16858   1.642   2.071   7.574  0.3228  0.4928  0.1296
 1799SOL    HW116859   1.569   2.027   7.530  0.4793 -1.5097  1.8395
 1799SOL    HW216860   1.671   1.997   7.628 -1.4259 -0.9214 -0.8317
 1800SOL     OW16861   4.625   3.441   0.526 -0.4629 -0.4259 -0.2780
 1800SOL    HW116862   4.566   3.451   0.601 -0.8167 -3.3578 -0.1424
 1800SOL    HW216863   4.644   3.347   0.534 -2.4809 -0.9477 -1.6151
 1801SOL     OW16864   0.190   0.242   3.568 -0.3191  0.1861 -0.6908
 1801SOL    HW116865   0.114   0.257   3.625 -0.7256 -4.2590 -0.0454
 1801SOL    HW216866   0.205   0.325   3.524  1.5664  0.6205  0.8099
 1802SOL     OW16867   3.347   2.518   8.682  0.1007  0.3456  0.9578
 1802SOL    HW116868   3.297   2.566   8.748 -0.6600 -1.6042  1.8132
 1802SOL    HW216869   3.276   2.474   8.636  0.0367  1.2380  0.2104
 1803SOL     OW16870   1.678   1.108   0.681 -0.4955  0.5238 -0.0501
 1803SOL    HW116871   1.616   1.157   0.735  0.6991  3.3512 -1.2616
 1803SOL    HW216872   1.741   1.084   0.749 -1.5184 -2.7013 -0.2197
 1804SOL     OW16873   1.681   3.946   3.006  0.5577 -0.1212 -0.2375
 1804SOL    HW116874   1.762   3.902   2.983 -0.2946 -1.8529  0.1171
 1804SOL    HW216875   1.706   3.972   3.095 -1.7505 -0.0803  0.4026
 1805SOL     OW16876   1.171   2.475  17.340  0.2525 -0.2810  0.5915
 1805SOL    HW116877   1.257   2.436  17.355  1.8263  2.8144 -0.3995
 1805SOL    HW216878   1.137   2.401  17.290  0.5023  0.0399 -0.0509
 1806SOL     OW16879   2.853   0.183   5.226 -0.5820  0.2596 -0.4904
 1806SOL    HW116880   2.925   0.169   5.165  1.2188  0.6465  1.5756
 1806SOL    HW216881   2.833   0.275   5.208  1.4722  1.5592  3.7811
 1807SOL     OW16882   4.172   3.362   9.558  0.0035 -0.0047  0.1452
 1807SOL    HW116883   4.258   3.347   9.596  0.0747  1.1390  0.4308
 1807SOL    HW216884   4.201   3.436   9.506  1.1434 -0.5049  0.0704
 1808SOL     OW16885   0.132   4.302   6.638 -0.0225  0.7710 -0.0215
 1808SOL    HW116886   0.146   4.381   6.690 -0.3606  0.7631  0.0803
 1808SOL    HW216887   0.220   4.301   6.601 -0.0937  2.3375 -0.2380
 1809SOL     OW16888   0.255   0.351   7.036  0.0724 -0.0595  0.4713
 1809SOL    HW116889   0.306   0.432   7.043  0.2645 -0.2803  1.7124
 1809SOL    HW216890   0.205   0.362   7.117  1.6438  1.0358  1.2850
 1810SOL     OW16891   0.069   1.661   1.384  0.0196  0.2831  0.3219
 1810SOL    HW116892   0.037   1.589   1.438  0.3281 -0.1011 -0.0096
 1810SOL    HW216893   4.713   1.717   1.368  1.4003  2.2081  0.4250
 1811SOL     OW16894   0.316   3.235   1.548  0.1300  0.2544  0.1636
 1811SOL    HW116895   0.365   3.306   1.506  0.1276 -0.4154 -0.9828
 1811SOL    HW216896   0.372   3.209   1.621 -1.6477 -1.5879  0.8741
 1812SOL     OW16897   1.470   0.475   8.458 -0.4605  0.2854 -0.0570
 1812SOL    HW116898   1.497   0.384   8.446 -0.7403  0.3968 -1.5496
 1812SOL    HW216899   1.426   0.499   8.376 -1.3030  1.5700  0.7755
 1813SOL     OW16900   3.527   3.158   9.347 -0.2505  0.1448 -0.1161
 1813SOL    HW116901   3.519   3.096   9.420 -1.0980  2.0178  1.3800
 1813SOL    HW216902   3.568   3.232   9.391 -1.2876  1.7368 -1.8783
 1814SOL     OW16903   3.995   3.382   6.854 -0.0615 -0.1963 -0.1094
 1814SOL    HW116904   4.008   3.385   6.759  1.0342  0.7933  0.0679
 1814SOL    HW216905   4.027   3.292   6.864  0.5710  0.0889  0.4494
 1815SOL     OW16906   0.166   3.510   1.648  0.2476  0.3488 -0.4385
 1815SOL    HW116907   0.130   3.453   1.716  1.0685  0.4024  0.0519
 1815SOL    HW216908   0.228   3.557   1.705  1.7908  0.7422 -2.4448
 1816SOL     OW16909   4.295   0.145   1.494 -0.0070 -0.0322  0.0795
 1816SOL    HW116910   4.351   0.077   1.532  1.0011  1.3280  1.0383
 1816SOL    HW216911   4.205   0.115   1.505 -0.3510  1.2442  0.7385
 1817SOL     OW16912   1.472   3.376   5.418 -0.0161  0.2722  0.4490
 1817SOL    HW116913   1.459   3.433   5.342  1.6611 -0.7691 -0.6136
 1817SOL    HW216914   1.541   3.425   5.463  0.0648 -0.0948  0.7243
 1818SOL     OW16915   2.444   0.234   5.878  0.3480  0.3519  0.4446
 1818SOL    HW116916   2.496   0.256   5.801  1.1349 -2.0706  0.2964
 1818SOL    HW216917   2.386   0.172   5.835 -0.4446  0.7758  0.9047
 1819SOL     OW16918   1.017   1.237  11.599  0.0486  0.0154 -0.2859
 1819SOL    HW116919   1.097   1.251  11.650  0.2700 -1.8241 -0.1443
 1819SOL    HW216920   0.993   1.329  11.583  0.3488  0.3414  1.1446
 1820SOL     OW16921   0.450   2.289  15.126 -0.0998  0.1986 -0.2204
 1820SOL    HW116922   0.448   2.317  15.034 -0.1145  0.1824 -0.2249
 1820SOL    HW216923   0.369   2.239  15.129 -0.0871  0.1157 -1.1415
 1821SOL     OW16924   2.520   4.239  15.574  0.0319 -0.2232  0.6902
 1821SOL    HW116925   2.466   4.239  15.495 -0.1203  3.7772  0.7933
 1821SOL    HW216926   2.597   4.205  15.529  0.4304 -2.3748  2.9497
 1822SOL     OW16927   0.674   4.459   9.097 -0.4398  0.3452  0.1048
 1822SOL    HW116928   0.624   4.496   9.170  2.5911  0.0107  2.3255
 1822SOL    HW216929   0.730   4.536   9.082  2.2303 -1.3879  1.2362
 1823SOL     OW16930   4.184   1.979   5.345  0.6221 -0.3001 -0.3616
 1823SOL    HW116931   4.273   2.009   5.364  0.9535 -0.9516 -0.8796
 1823SOL    HW216932   4.182   1.973   5.249  1.5868  0.8160 -0.4518
 1824SOL     OW16933   1.910   3.927  10.777 -0.6540  0.3093  0.1312
 1824SOL    HW116934   1.911   4.004  10.834 -2.8516 -0.4821  1.2618
 1824SOL    HW216935   1.840   3.942  10.714 -0.8125 -2.2757 -0.3255
 1825SOL     OW16936   1.007   3.811  12.721 -0.1828 -0.0484 -0.4176
 1825SOL    HW116937   1.000   3.767  12.805 -0.0877 -1.5690 -1.1957
 1825SOL    HW216938   1.100   3.812  12.701 -0.1569  1.4228 -0.2039
 1826SOL     OW16939   1.459   3.239   4.939  0.1016  0.1001  0.3500
 1826SOL    HW116940   1.431   3.219   4.850 -0.0386  0.3646  0.3358
 1826SOL    HW216941   1.423   3.164   4.987  0.1056 -0.5278 -0.6208
 1827SOL     OW16942   0.399   0.918  15.526 -0.0134  0.5085  0.0219
 1827SOL    HW116943   0.446   0.835  15.524 -0.4941  0.3451 -3.9563
 1827SOL    HW216944   0.443   0.953  15.604  1.8156 -0.9067 -0.3692
 1828SOL     OW16945   1.486   4.468   5.159  0.6293 -0.1070  0.2927
 1828SOL    HW116946   1.458   4.401   5.222 -1.3067 -0.3353 -0.8354
 1828SOL    HW216947   1.523   4.538   5.213  0.3470  0.4164 -0.1953
 1829SOL     OW16948   2.469   3.186   8.758  0.1025  0.4558  0.5112
 1829SOL    HW116949   2.555   3.167   8.795  0.9493  0.8297 -1.2857
 1829SOL    HW216950   2.464   3.128   8.683  2.3812 -2.0216  2.2851
 1830SOL     OW16951   3.333   3.985   6.222  0.1470  0.2238 -0.0324
 1830SOL    HW116952   3.350   3.986   6.316  4.9081  2.2534 -0.9162
 1830SOL    HW216953   3.238   3.999   6.221  0.0513 -0.5739 -1.5995
 1831SOL     OW16954   3.696   0.861   6.725  0.2089 -0.7625  0.0964
 1831SOL    HW116955   3.790   0.877   6.729  0.2490 -0.6855 -1.1707
 1831SOL    HW216956   3.680   0.934   6.784  0.7141 -1.2021  0.7842
 1832SOL     OW16957   0.574   2.752   8.365  0.2531  0.0257 -0.1009
 1832SOL    HW116958   0.636   2.681   8.350  1.4573  1.4117 -1.7358
 1832SOL    HW216959   0.626   2.801   8.429 -0.0261  1.7676 -1.2093
 1833SOL     OW16960   3.480   2.114   5.447  0.1606 -0.0254  0.0583
 1833SOL    HW116961   3.424   2.039   5.468  2.5613 -2.1161 -1.0219
 1833SOL    HW216962   3.468   2.165   5.527  1.2968 -0.6812  0.6379
 1834SOL     OW16963   2.718   2.609   5.752  0.7231  0.1280  0.0411
 1834SOL    HW116964   2.749   2.519   5.759  2.1402  0.6319  0.3554
 1834SOL    HW216965   2.649   2.619   5.817  1.0854 -1.3786  0.6623
 1835SOL     OW16966   1.626   3.512   7.656 -0.7692  0.1398 -0.0065
 1835SOL    HW116967   1.631   3.451   7.729  1.1110 -0.9194 -1.0221
 1835SOL    HW216968   1.626   3.460   7.576  1.6528 -0.3683  0.3232
 1836SOL     OW16969   4.177   3.406   4.747  0.1426 -0.2195 -0.0516
 1836SOL    HW116970   4.112   3.433   4.683  1.0019 -0.0716 -0.8674
 1836SOL    HW216971   4.222   3.338   4.698  1.4038 -0.5966  1.6075
 1837SOL     OW16972   3.231   1.989   7.204 -0.1335 -0.1528  0.3341
 1837SOL    HW116973   3.243   1.967   7.112 -0.6858  1.7973 -0.2171
 1837SOL    HW216974   3.215   2.084   7.198  3.4678  0.4295  0.1695
 1838SOL     OW16975   4.022   1.316  13.591 -0.0677 -0.3718  0.1496
 1838SOL    HW116976   3.969   1.264  13.652  1.3429 -1.4637  0.4665
 1838SOL    HW216977   4.009   1.265  13.512 -1.3416 -0.1667  0.2348
 1839SOL     OW16978   4.213   2.718   4.619 -0.0219 -0.0522 -0.1483
 1839SOL    HW116979   4.174   2.786   4.564 -0.5210  1.2580  1.8249
 1839SOL    HW216980   4.307   2.727   4.604 -0.0280  0.5197  0.1593
 1840SOL     OW16981   1.650   3.536   0.446  0.4839 -0.1175  0.9136
 1840SOL    HW116982   1.617   3.493   0.368 -2.0321  0.6727  1.5238
 1840SOL    HW216983   1.704   3.463   0.476  1.5544  0.3902  0.1917
 1841SOL     OW16984   4.293   1.565  11.501  0.2393  0.0383  0.3198
 1841SOL    HW116985   4.284   1.641  11.559 -0.2124  2.3303 -2.7726
 1841SOL    HW216986   4.389   1.568  11.497  0.2835 -0.2955  1.1290
 1842SOL     OW16987   0.940   4.569   5.071 -0.5439  0.0605 -0.2232
 1842SOL    HW116988   0.948   4.612   4.986  0.2085 -0.0050 -0.1913
 1842SOL    HW216989   1.031   4.540   5.077 -0.3929  0.9054  1.6428
 1843SOL     OW16990   2.421   1.998  10.445 -0.0049 -0.7047  0.0402
 1843SOL    HW116991   2.440   1.911  10.479 -1.3504 -0.8173  0.4932
 1843SOL    HW216992   2.425   2.045  10.529  1.3476 -1.8956  0.6440
 1844SOL     OW16993   4.679   1.126   3.977  0.6513 -0.0779 -0.8010
 1844SOL    HW116994   4.704   1.171   4.058 -1.1099 -0.6348  0.0672
 1844SOL    HW216995   0.023   1.171   3.923 -0.7929  1.9920 -0.7899
 1845SOL     OW16996   3.216   4.161   1.278  0.5626 -0.4429 -0.1950
 1845SOL    HW116997   3.262   4.101   1.337  0.4430 -0.5735 -0.2370
 1845SOL    HW216998   3.128   4.134   1.304  1.1132 -1.5517  0.5128
 1846SOL     OW16999   2.532   0.840   9.483  0.1189  0.2041 -0.2797
 1846SOL    HW117000   2.620   0.849   9.519 -0.2155  0.8246  0.3865
 1846SOL    HW217001   2.543   0.766   9.423  0.7787  0.3335 -0.3182
 1847SOL     OW17002   3.533   3.560  15.399 -0.0761  0.0628  0.1452
 1847SOL    HW117003   3.536   3.515  15.484 -0.7489  2.4973  1.4633
 1847SOL    HW217004   3.624   3.589  15.401  0.1649 -0.6695 -0.3741
 1848SOL     OW17005   1.392   0.191   6.798  0.2646 -0.3902  0.4952
 1848SOL    HW117006   1.299   0.193   6.774 -0.3780  2.2654  3.1897
 1848SOL    HW217007   1.418   0.273   6.755 -0.0387 -0.9828 -0.8198
 1849SOL     OW17008   3.481   3.360   4.013  0.2544 -0.0678  0.3208
 1849SOL    HW117009   3.544   3.334   4.080 -0.8695 -0.8750  1.0618
 1849SOL    HW217010   3.403   3.385   4.061 -0.2908  3.7885 -2.6344
 1850SOL     OW17011   3.438   2.598  12.967  0.7954 -0.0602  0.2016
 1850SOL    HW117012   3.454   2.646  12.885  2.2691 -0.9887 -0.0419
 1850SOL    HW217013   3.351   2.561  12.950 -0.2001  1.9252  0.9794
 1851SOL     OW17014   2.209   3.784   6.372 -0.3893 -0.1747  0.0369
 1851SOL    HW117015   2.158   3.715   6.329 -1.3140  0.7826 -0.4184
 1851SOL    HW217016   2.288   3.731   6.385 -1.7193 -1.9118  1.0961
 1852SOL     OW17017   0.171   0.502   9.157  0.3900  0.0329 -0.1441
 1852SOL    HW117018   0.166   0.477   9.065 -0.9415  0.9481 -0.3342
 1852SOL    HW217019   0.256   0.463   9.177  1.3137  2.1340 -0.0034
 1853SOL     OW17020   1.596   2.635   2.988  0.2394 -0.4081 -0.3194
 1853SOL    HW117021   1.550   2.642   2.904  0.1442  1.6734 -0.0860
 1853SOL    HW217022   1.540   2.689   3.043  0.2026  0.5298 -1.2796
 1854SOL     OW17023   0.133   4.256   3.693  0.3432 -0.1794  0.2999
 1854SOL    HW117024   0.111   4.171   3.730 -2.0063 -0.8248 -2.5932
 1854SOL    HW217025   0.043   4.287   3.691  0.4888  0.2329  0.0572
 1855SOL     OW17026   0.360   2.886   8.831 -0.3593 -0.0323  0.3332
 1855SOL    HW117027   0.303   2.912   8.904  1.2173  0.8807  1.2426
 1855SOL    HW217028   0.450   2.901   8.859  0.2018  1.7099 -2.3539
 1856SOL     OW17029   3.732   0.247  10.582 -0.1718 -0.2686 -0.3805
 1856SOL    HW117030   3.815   0.245  10.535  0.5263  0.9821  0.8229
 1856SOL    HW217031   3.721   0.341  10.599  1.6679 -0.1905  0.4043
 1857SOL     OW17032   3.108   0.067  16.910  0.1483  0.0030  0.0158
 1857SOL    HW117033   3.050   0.114  16.969 -0.9684 -0.5674 -0.6223
 1857SOL    HW217034   3.059   0.080  16.828 -2.2184  0.3653  1.4989
 1858SOL     OW17035   4.344   1.227   5.194  0.6327 -0.3520  0.0039
 1858SOL    HW117036   4.281   1.289   5.156  1.8531  0.2990 -0.9494
 1858SOL    HW217037   4.412   1.246   5.129 -0.4961  0.5644 -0.9246
 1859SOL     OW17038   0.901   0.444   6.750  0.2826  0.4770 -0.5194
 1859SOL    HW117039   0.906   0.492   6.668  1.4060  1.4306  0.1132
 1859SOL    HW217040   0.947   0.508   6.805 -2.3435  1.6241  0.3230
 1860SOL     OW17041   3.752   3.620   7.231  0.3204  0.0114 -0.7638
 1860SOL    HW117042   3.806   3.561   7.284  0.4810  0.2609 -0.6532
 1860SOL    HW217043   3.661   3.606   7.259  0.7706  0.9437  1.1236
 1861SOL     OW17044   2.378   0.996   5.545 -0.3071  0.1025  0.2289
 1861SOL    HW117045   2.450   1.052   5.572  1.2650 -0.4171 -2.8909
 1861SOL    HW217046   2.417   0.909   5.542 -0.5962 -0.0615  1.1317
 1862SOL     OW17047   3.468   2.965   2.756  0.3929 -0.0032 -0.1711
 1862SOL    HW117048   3.546   2.914   2.777 -1.0707 -3.1313 -2.3158
 1862SOL    HW217049   3.497   3.054   2.774  0.2012  0.3938 -1.8561
 1863SOL     OW17050   3.402   0.378   1.592 -0.1401  0.2135  0.4444
 1863SOL    HW117051   3.455   0.301   1.614 -0.1113  0.5411  1.5312
 1863SOL    HW217052   3.461   0.444   1.556 -1.0735  0.7297 -0.1446
 1864SOL     OW17053   2.564   3.330  10.566  0.0953  0.1428  0.4857
 1864SOL    HW117054   2.608   3.406  10.604  0.6748 -1.0803  2.2488
 1864SOL    HW217055   2.500   3.369  10.507  2.3067 -0.7168 -2.4803
 1865SOL     OW17056   3.392   2.514   5.063 -0.3392  0.7558  0.5048
 1865SOL    HW117057   3.417   2.589   5.010  0.9168  0.4447  0.6620
 1865SOL    HW217058   3.401   2.436   5.008 -2.1926  0.3163  0.8092
 1866SOL     OW17059   2.059   3.562  16.323 -0.2843 -0.0645  0.4972
 1866SOL    HW117060   1.993   3.629  16.313 -0.6889 -0.5895 -0.3600
 1866SOL    HW217061   2.135   3.598  16.276  0.8914  0.5767  2.8871
 1867SOL     OW17062   4.563   4.418  17.231  0.4348  0.4171  0.3018
 1867SOL    HW117063   4.603   4.504  17.246  0.0750  0.8182 -0.9994
 1867SOL    HW217064   4.475   4.437  17.262  0.8682  1.6617  0.8038
 1868SOL     OW17065   4.318   3.845   3.994  0.4752  0.0429 -0.4102
 1868SOL    HW117066   4.328   3.923   4.049 -0.8053 -0.0403 -0.0680
 1868SOL    HW217067   4.394   3.792   4.019 -0.5081 -0.6752  1.0663
 1869SOL     OW17068   3.225   1.070   3.385  0.1151  0.3839 -0.3154
 1869SOL    HW117069   3.156   1.103   3.328 -0.5696  1.1009  0.9264
 1869SOL    HW217070   3.172   1.015   3.443  0.4782 -0.2717 -0.6002
 1870SOL     OW17071   1.690   2.473  11.327 -0.0169  0.1556  0.0061
 1870SOL    HW117072   1.601   2.494  11.356  0.0694  1.4417 -0.6930
 1870SOL    HW217073   1.704   2.384  11.362  0.4261  0.6706  1.1407
 1871SOL     OW17074   4.030   1.599   9.884 -0.3079 -0.4858 -0.4512
 1871SOL    HW117075   4.061   1.576   9.972 -1.9838 -0.2591  0.1923
 1871SOL    HW217076   3.956   1.539   9.879 -0.4682 -0.2992 -0.2856
 1872SOL     OW17077   1.688   1.200   7.766 -0.4495 -0.3288  0.2687
 1872SOL    HW117078   1.700   1.261   7.839  1.5031 -0.8423  0.3869
 1872SOL    HW217079   1.596   1.218   7.747  0.0942  1.4417 -0.6882
 1873SOL     OW17080   4.482   4.271  16.445 -0.0416  0.4314  0.0644
 1873SOL    HW117081   4.396   4.309  16.461  0.0547 -0.1654  2.0675
 1873SOL    HW217082   4.479   4.282  16.350  0.2822 -0.4526 -0.0481
 1874SOL     OW17083   3.240   2.747   5.372  0.0858  0.5028 -0.2908
 1874SOL    HW117084   3.302   2.752   5.445 -0.1100 -2.3415  0.0810
 1874SOL    HW217085   3.167   2.804   5.395 -2.0953 -1.7586 -1.6136
 1875SOL     OW17086   2.400   4.144  12.849 -0.3511  0.4282  0.4632
 1875SOL    HW117087   2.439   4.167  12.765 -1.5801  2.1048  0.3459
 1875SOL    HW217088   2.307   4.143  12.824  0.2345 -1.7233 -1.6460
 1876SOL     OW17089   1.962   1.378   9.239 -0.1234 -0.0868 -0.0890
 1876SOL    HW117090   2.014   1.455   9.216  0.3204 -0.9376 -1.8952
 1876SOL    HW217091   1.914   1.407   9.317  1.4714  0.8528  0.5307
 1877SOL     OW17092   3.467   0.928   1.220 -0.2026  0.1191 -0.5278
 1877SOL    HW117093   3.492   1.005   1.169  1.0753  0.1297  0.1036
 1877SOL    HW217094   3.380   0.906   1.187 -0.0667 -0.8421 -0.2385
 1878SOL     OW17095   1.958   0.211   2.720 -0.0581 -0.0118 -0.0048
 1878SOL    HW117096   1.907   0.157   2.780  1.1935 -0.0749  0.9926
 1878SOL    HW217097   1.892   0.275   2.692  0.0105  0.1443  0.1918
 1879SOL     OW17098   0.022   4.219   5.471 -0.2690  0.6015 -0.6987
 1879SOL    HW117099   0.067   4.304   5.478  1.0335 -0.1256 -0.2824
 1879SOL    HW217100   4.656   4.243   5.502  0.0920  2.0853 -0.8157
 1880SOL     OW17101   0.910   3.283  11.303  0.6940  0.2925  0.1853
 1880SOL    HW117102   0.994   3.247  11.275  0.4233  1.5478 -2.2065
 1880SOL    HW217103   0.925   3.373  11.332  2.1633 -0.6967  2.4801
 1881SOL     OW17104   3.873   0.631   9.078 -0.1712 -0.2784 -0.5631
 1881SOL    HW117105   3.827   0.643   9.161 -0.7752  0.0018 -0.9338
 1881SOL    HW217106   3.936   0.703   9.081  0.1965 -0.7120  2.7198
 1882SOL     OW17107   2.806   3.657   2.967 -0.3783 -0.1181 -0.2504
 1882SOL    HW117108   2.808   3.566   2.937  0.8378 -1.5048  4.1060
 1882SOL    HW217109   2.866   3.693   2.902 -0.1208 -1.1616 -0.5869
 1883SOL     OW17110   0.403   1.180   3.541  0.1083  0.2467 -0.6730
 1883SOL    HW117111   0.308   1.166   3.539  0.3096 -1.0887 -0.1844
 1883SOL    HW217112   0.406   1.246   3.472 -0.7490  2.6190  1.5330
 1884SOL     OW17113   0.842   1.749   6.776  0.2147  0.3651  0.0482
 1884SOL    HW117114   0.863   1.711   6.861 -1.0534  1.1121  0.6935
 1884SOL    HW217115   0.914   1.810   6.760 -1.4231  2.3827  0.3041
 1885SOL     OW17116   4.181   4.577   6.517  0.3550  0.1645 -0.8117
 1885SOL    HW117117   4.165   4.636   6.591  0.8243 -0.1682 -0.4404
 1885SOL    HW217118   4.274   4.553   6.523  0.2592  0.4849  2.1365
 1886SOL     OW17119   1.080   3.519  12.664  0.3970  0.3881  0.5367
 1886SOL    HW117120   1.146   3.582  12.637 -0.4218  0.2914 -1.7433
 1886SOL    HW217121   1.001   3.554  12.621  0.4773  0.7657  0.6971
 1887SOL     OW17122   4.635   0.091  12.024  0.0935 -0.3776  0.2768
 1887SOL    HW117123   4.695   0.032  12.069 -1.8124 -2.5058  0.0310
 1887SOL    HW217124   4.624   0.046  11.940  0.0018 -1.8051  1.0623
 1888SOL     OW17125   3.242   3.536  12.790  0.3532 -0.4358 -0.2111
 1888SOL    HW117126   3.252   3.563  12.699 -1.9716 -0.4365 -0.4704
 1888SOL    HW217127   3.323   3.576  12.822 -0.9843  2.3384 -0.2892
 1889SOL     OW17128   4.023   0.662   9.333  0.4171 -0.2632 -0.1069
 1889SOL    HW117129   4.071   0.635   9.411 -0.9762 -1.3727  0.3634
 1889SOL    HW217130   3.946   0.605   9.326  0.9565 -0.8141 -1.6191
 1890SOL     OW17131   2.904   1.356  13.480 -0.5348  0.0622  0.2351
 1890SOL    HW117132   2.872   1.289  13.420  0.4346 -1.5200  1.5080
 1890SOL    HW217133   2.840   1.357  13.551 -1.1182 -1.8623 -0.2720
 1891SOL     OW17134   3.165   4.498   2.257 -0.3583 -0.2789  0.1835
 1891SOL    HW117135   3.217   4.500   2.337 -0.3299  0.2870  0.1484
 1891SOL    HW217136   3.176   4.590   2.234  0.6694 -0.5979 -0.6100
 1892SOL     OW17137   3.287   1.438  13.279 -0.1643 -0.6454 -0.3313
 1892SOL    HW117138   3.199   1.459  13.311  0.0481  0.1943 -0.3073
 1892SOL    HW217139   3.274   1.351  13.242  0.2065  0.2056 -2.4291
 1893SOL     OW17140   4.710   1.023   1.274 -0.1575  0.2876 -0.2553
 1893SOL    HW117141   4.620   1.054   1.274  0.1855  1.3041  1.0610
 1893SOL    HW217142   4.709   0.950   1.337 -0.1417 -0.5951 -1.2787
 1894SOL     OW17143   3.561   3.347  13.847 -0.2066 -0.4659 -0.0896
 1894SOL    HW117144   3.609   3.399  13.782  1.1130  1.2196  2.2483
 1894SOL    HW217145   3.470   3.376  13.839 -0.7682 -1.7101  1.8920
 1895SOL     OW17146   3.691   2.473   2.059 -0.1963 -0.7369 -0.6140
 1895SOL    HW117147   3.724   2.393   2.099 -0.9593 -0.7923 -0.0986
 1895SOL    HW217148   3.715   2.462   1.967 -0.3992 -0.7974 -0.6606
 1896SOL     OW17149   2.414   2.905   2.968  0.1391 -0.3840 -0.8127
 1896SOL    HW117150   2.437   2.973   3.032 -0.0402  0.4760 -1.6688
 1896SOL    HW217151   2.394   2.830   3.024  1.2667  1.9062  2.6969
 1897SOL     OW17152   1.118   0.048   2.163 -0.1457 -0.1905  0.2315
 1897SOL    HW117153   1.173   0.116   2.201 -0.9935  1.0915 -0.8235
 1897SOL    HW217154   1.116   0.083   2.074 -2.1958 -0.4812  0.1546
 1898SOL     OW17155   1.665   0.218  10.262 -0.2058 -0.8891  0.8064
 1898SOL    HW117156   1.723   0.265  10.203 -0.3267 -0.3202  1.1437
 1898SOL    HW217157   1.724   0.162  10.312  2.2497 -1.5480 -2.8121
 1899SOL     OW17158   2.113   3.790  17.348 -0.0267  0.3897  0.5924
 1899SOL    HW117159   2.090   3.876  17.314  0.5165 -0.3523 -1.6354
 1899SOL    HW217160   2.027   3.748  17.351  0.7459 -1.1880  0.4031
 1900SOL     OW17161   3.772   0.618   4.364  0.1864  0.2550 -0.1427
 1900SOL    HW117162   3.682   0.605   4.394  0.5399 -2.4009 -0.2561
 1900SOL    HW217163   3.772   0.588   4.273 -1.6764  2.3381 -0.8244
 1901SOL     OW17164   2.452   0.213   2.435 -0.7245 -0.0917  0.2376
 1901SOL    HW117165   2.537   0.256   2.436 -0.5404 -0.4233 -2.5056
 1901SOL    HW217166   2.396   0.273   2.485 -1.6490 -1.4413  0.8314
 1902SOL     OW17167   4.200   1.639   4.559 -0.0433 -0.6293  0.0971
 1902SOL    HW117168   4.225   1.596   4.477 -1.2985 -1.0413 -0.0738
 1902SOL    HW217169   4.259   1.714   4.563 -4.2278  2.5356  3.3153
 1903SOL     OW17170   3.312   0.801   3.060 -0.1972 -0.4760 -0.5927
 1903SOL    HW117171   3.267   0.801   3.145 -0.3290  1.0779 -0.6680
 1903SOL    HW217172   3.393   0.848   3.079  0.2349 -1.2648 -0.4856
 1904SOL     OW17173   1.862   4.656   9.132 -0.2703  0.1354  0.1023
 1904SOL    HW117174   1.922   4.628   9.062 -1.8587  1.2744 -1.6747
 1904SOL    HW217175   1.930   4.672   9.197  0.3920 -0.0049 -0.5484
 1905SOL     OW17176   4.398   2.903  17.058  0.3980  0.0383  0.4424
 1905SOL    HW117177   4.395   2.816  17.099 -2.3443 -0.4405 -0.7991
 1905SOL    HW217178   4.376   2.876  16.969  2.7412 -0.2013 -0.0697
 1906SOL     OW17179   2.881   1.999  12.223  0.1194 -0.0116 -0.0128
 1906SOL    HW117180   2.945   2.009  12.294 -0.2574  0.8354  0.2040
 1906SOL    HW217181   2.900   2.084  12.184  1.0511  0.6904  1.9382
 1907SOL     OW17182   2.006   3.358  11.407  0.8706  0.2804 -0.2692
 1907SOL    HW117183   2.036   3.369  11.498 -1.1535  2.7238  0.1154
 1907SOL    HW217184   1.974   3.447  11.390 -0.5552 -0.1368  0.2623
 1908SOL     OW17185   1.411   4.123   3.856  0.0732  0.5485 -0.2037
 1908SOL    HW117186   1.340   4.179   3.890 -0.8743  0.3390 -1.8484
 1908SOL    HW217187   1.474   4.133   3.928  1.2458  0.9038 -1.2904
 1909SOL     OW17188   0.408   2.541   2.769 -0.1426 -0.4024 -0.6623
 1909SOL    HW117189   0.416   2.630   2.804 -1.3750  0.3331 -2.2850
 1909SOL    HW217190   0.323   2.548   2.726 -0.4282 -0.1198 -0.0585
 1910SOL     OW17191   1.659   1.139   1.177 -0.3570 -0.1540 -0.7149
 1910SOL    HW117192   1.717   1.092   1.237 -0.9810 -0.8800 -0.6834
 1910SOL    HW217193   1.598   1.069   1.154 -0.3711  0.0489 -1.2764
 1911SOL     OW17194   2.347   1.254  17.145 -0.3216 -0.1016 -0.0782
 1911SOL    HW117195   2.329   1.311  17.219  1.7260  0.1510  0.2297
 1911SOL    HW217196   2.372   1.313  17.073 -1.8331  1.5218  0.7350
 1912SOL     OW17197   2.390   1.018   9.915 -0.4180  0.3672 -0.2250
 1912SOL    HW117198   2.390   1.111   9.939 -1.0960 -0.5126  3.1673
 1912SOL    HW217199   2.367   1.034   9.823 -0.6273 -3.1414 -0.7767
 1913SOL     OW17200   4.107   1.095   2.906  0.0298  0.6971  0.2542
 1913SOL    HW117201   4.175   1.160   2.887  1.6082 -1.1660 -0.4782
 1913SOL    HW217202   4.134   1.040   2.980 -0.6136 -1.6874 -1.3077
 1914SOL     OW17203   0.427   2.362   4.064  0.5769 -0.3609 -0.5771
 1914SOL    HW117204   0.484   2.396   4.133 -1.0969  1.3906 -0.0497
 1914SOL    HW217205   0.393   2.285   4.110 -1.9694  0.6343 -0.7641
 1915SOL     OW17206   0.078   0.478   4.772 -0.2434 -0.2722 -0.3273
 1915SOL    HW117207   0.046   0.427   4.697 -1.7521  1.7812 -1.0682
 1915SOL    HW217208   0.123   0.552   4.733  0.8906  0.1917  1.8736
 1916SOL     OW17209   1.402   0.050   2.741  0.1875  0.0462  0.0173
 1916SOL    HW117210   1.422   4.679   2.758  0.7836  0.3394  0.9114
 1916SOL    HW217211   1.486   0.093   2.723 -0.0341  0.0448 -1.0110
 1917SOL     OW17212   0.595   1.673   4.744  0.0299 -1.0555  0.8949
 1917SOL    HW117213   0.600   1.695   4.837 -0.4469 -0.0572  0.6822
 1917SOL    HW217214   0.515   1.619   4.742 -1.7647  1.6944 -0.6777
 1918SOL     OW17215   2.284   2.463   9.426  0.0295 -0.1837  0.1318
 1918SOL    HW117216   2.247   2.426   9.346 -0.4145 -1.0761  0.7456
 1918SOL    HW217217   2.232   2.426   9.498  1.0041 -1.1664  0.3344
 1919SOL     OW17218   1.572   3.307   8.116 -0.2787  0.1171 -0.2052
 1919SOL    HW117219   1.646   3.295   8.175  0.2972 -0.2533 -1.0149
 1919SOL    HW217220   1.505   3.242   8.138  1.0272  0.1017  3.6742
 1920SOL     OW17221   3.229   1.395   3.846  0.3676 -0.4532  0.0891
 1920SOL    HW117222   3.202   1.344   3.770 -3.0859  0.4736  0.6554
 1920SOL    HW217223   3.177   1.473   3.830  1.8607  0.5932  0.3816
 1921SOL     OW17224   3.525   3.204   8.650 -0.2203  0.5787 -0.0727
 1921SOL    HW117225   3.473   3.271   8.604 -1.3011 -0.7629 -0.7923
 1921SOL    HW217226   3.524   3.120   8.604  1.6987  0.8688 -0.6640
 1922SOL     OW17227   3.609   2.705  17.478 -0.0798 -0.0895 -0.4515
 1922SOL    HW117228   3.673   2.709  17.549 -1.6202  1.0740  0.8923
 1922SOL    HW217229   3.648   2.753  17.405 -1.1959  0.3902 -0.7373
 1923SOL     OW17230   4.326   4.380   1.719  0.0832  0.3188 -0.6308
 1923SOL    HW117231   4.261   4.315   1.748 -0.3367  2.1104  2.4300
 1923SOL    HW217232   4.348   4.421   1.803  3.2635 -0.3218 -1.1817
 1924SOL     OW17233   2.309   0.092   6.760 -0.5105  0.3299  1.0338
 1924SOL    HW117234   2.286   0.154   6.690  0.4684 -1.5186 -0.9180
 1924SOL    HW217235   2.391   0.058   6.726 -0.8286 -1.5770  2.1755
 1925SOL     OW17236   4.269   2.702  10.268 -0.1249 -0.0306  0.1103
 1925SOL    HW117237   4.221   2.762  10.210 -0.4333 -0.4934 -0.1139
 1925SOL    HW217238   4.199   2.642  10.293  1.1100 -1.9339 -0.9979
 1926SOL     OW17239   4.102   1.258   0.110 -0.2783 -0.0734 -0.1837
 1926SOL    HW117240   4.080   1.182   0.057 -1.5462  0.4174 -0.3392
 1926SOL    HW217241   4.114   1.215   0.195 -1.5437 -0.3502 -0.1519
 1927SOL     OW17242   0.516   3.152   6.880  0.0790 -0.1169  0.1293
 1927SOL    HW117243   0.600   3.194   6.899  1.0543 -2.1460  0.2751
 1927SOL    HW217244   0.532   3.063   6.911 -0.7650 -0.7926 -1.3662
 1928SOL     OW17245   0.755   1.377   3.974  0.1067  0.2800  0.2834
 1928SOL    HW117246   0.836   1.395   3.926  0.8555 -0.5291  1.2520
 1928SOL    HW217247   0.742   1.284   3.960 -1.4795  0.3812  1.1455
 1929SOL     OW17248   0.861   4.641  14.995 -0.3881  0.2091 -0.2788
 1929SOL    HW117249   0.865   4.627  14.900 -2.6768 -3.1448  0.1191
 1929SOL    HW217250   0.844   0.014  14.999 -0.8088  0.1737 -1.3125
 1930SOL     OW17251   2.011   2.747  13.595  0.1249 -0.1457 -0.0806
 1930SOL    HW117252   1.963   2.827  13.577 -0.6258 -0.5447  0.1443
 1930SOL    HW217253   2.066   2.758  13.517  0.3586 -1.9162 -0.1803
 1931SOL     OW17254   0.593   3.832   8.287 -1.2239 -0.1661 -0.2459
 1931SOL    HW117255   0.588   3.927   8.294  3.8138  0.1016 -0.4289
 1931SOL    HW217256   0.551   3.820   8.202 -0.2953 -2.1220 -0.4280
 1932SOL     OW17257   2.421   1.406   5.752  0.1964  0.1295  0.1473
 1932SOL    HW117258   2.415   1.451   5.836 -0.1823 -1.8473  1.1572
 1932SOL    HW217259   2.513   1.427   5.734  0.0109  0.2356 -0.6826
 1933SOL     OW17260   4.086   3.289   9.837 -0.0225  0.1511  0.2762
 1933SOL    HW117261   4.142   3.311   9.763  1.0283 -0.3770  0.9074
 1933SOL    HW217262   4.106   3.359   9.899  0.7011 -0.9349  1.2758
 1934SOL     OW17263   4.337   0.944   1.804 -0.2971 -0.1819 -0.1795
 1934SOL    HW117264   4.314   0.891   1.728 -0.8392 -1.3265  0.7832
 1934SOL    HW217265   4.404   0.993   1.756  1.4837 -0.8324  1.6033
 1935SOL     OW17266   4.602   2.952  13.138 -0.0345 -0.5119  0.4000
 1935SOL    HW117267   4.644   2.870  13.112  2.1386  0.1993  1.6730
 1935SOL    HW217268   4.649   3.023  13.095 -1.8465  0.2830 -0.2437
 1936SOL     OW17269   1.625   2.086   8.775  1.0396  0.3670 -0.0615
 1936SOL    HW117270   1.675   2.012   8.742  0.7221 -0.1422  0.5911
 1936SOL    HW217271   1.690   2.152   8.795  1.4592  0.2094 -0.9245
 1937SOL     OW17272   3.846   4.571   1.443 -0.1230 -0.1109 -0.5808
 1937SOL    HW117273   3.760   4.536   1.421 -0.8144  0.6102  0.9827
 1937SOL    HW217274   3.856   4.567   1.538  0.5098 -1.1069 -0.6843
 1938SOL     OW17275   1.044   2.683   5.271  0.3622  0.5027 -0.6190
 1938SOL    HW117276   0.970   2.726   5.314 -0.3213 -1.9233  0.6919
 1938SOL    HW217277   1.092   2.670   5.353  1.4292  1.8625 -1.0456
 1939SOL     OW17278   2.493   1.746  10.505  0.7393 -0.5243  0.4176
 1939SOL    HW117279   2.573   1.695  10.507  0.6727 -0.6435 -0.1422
 1939SOL    HW217280   2.444   1.684  10.559  1.2143 -0.0415  1.3991
 1940SOL     OW17281   0.879   1.613   7.265  0.2179 -0.4028 -0.2008
 1940SOL    HW117282   0.793   1.577   7.287  0.5405 -0.4619  0.9948
 1940SOL    HW217283   0.910   1.647   7.350 -0.2852  0.8380 -0.5175
 1941SOL     OW17284   4.594   0.775   7.266 -0.6613  0.0306 -0.0567
 1941SOL    HW117285   4.638   0.690   7.267 -1.8776 -0.6350 -1.8961
 1941SOL    HW217286   4.580   0.782   7.360  2.2083  1.8079  0.2532
 1942SOL     OW17287   2.217   3.942   4.465  0.0625 -0.7597 -0.3046
 1942SOL    HW117288   2.163   3.905   4.395  0.1932  1.8398 -1.7781
 1942SOL    HW217289   2.150   3.966   4.529  1.1962  0.1912  0.5306
 1943SOL     OW17290   0.918   2.018   5.188 -0.4184 -0.3929  0.6109
 1943SOL    HW117291   0.871   2.039   5.268 -0.9810 -1.7936  0.6564
 1943SOL    HW217292   0.872   2.068   5.120 -2.3333 -1.6198  0.9913
 1944SOL     OW17293   1.063   3.463   0.735 -0.4601  0.7502 -0.4090
 1944SOL    HW117294   1.136   3.488   0.792  1.3987 -2.1342 -1.5121
 1944SOL    HW217295   1.110   3.410   0.672 -2.4717 -0.2764 -1.0612
 1945SOL     OW17296   2.109   0.476  11.110  0.0439  0.1159  0.1264
 1945SOL    HW117297   2.156   0.495  11.028  0.0333  1.3872  0.4110
 1945SOL    HW217298   2.022   0.515  11.095 -1.2673 -3.1244 -0.7199
 1946SOL     OW17299   0.829   0.993   4.473  0.1539 -0.3362  0.2674
 1946SOL    HW117300   0.798   0.903   4.481 -1.2184 -0.1280 -2.6212
 1946SOL    HW217301   0.761   1.037   4.524  0.3093  1.0434 -0.7306
 1947SOL     OW17302   3.157   4.288   2.937  0.4986  0.2263  0.0023
 1947SOL    HW117303   3.133   4.296   2.845 -1.5184 -0.0425  0.4986
 1947SOL    HW217304   3.115   4.206   2.963  1.4508  0.4001  2.0663
 1948SOL     OW17305   3.697   2.613   5.899  0.1982 -0.2836  0.9971
 1948SOL    HW117306   3.738   2.613   5.986 -0.4800 -3.5290  1.3502
 1948SOL    HW217307   3.743   2.544   5.850  2.0672  0.8187  1.1880
 1949SOL     OW17308   4.622   1.213   3.006  0.3872 -1.0589 -0.5387
 1949SOL    HW117309   4.636   1.241   3.096 -0.4550 -2.4107  0.0267
 1949SOL    HW217310   4.567   1.135   3.012  1.6672 -1.9520 -0.4584
 1950SOL     OW17311   2.802   2.557  13.675 -0.0761 -0.5216 -0.5583
 1950SOL    HW117312   2.855   2.620  13.723 -0.9728 -1.8749  2.1956
 1950SOL    HW217313   2.834   2.479  13.721  2.8717  0.0761 -1.5657
 1951SOL     OW17314   0.268   4.442   7.893  0.1459 -0.0044  0.1509
 1951SOL    HW117315   0.176   4.435   7.871 -0.6249  1.1401  2.9165
 1951SOL    HW217316   0.259   4.485   7.978  2.0773 -1.9181  1.3447
 1952SOL     OW17317   2.368   3.573   0.918  0.0437 -0.0221  0.5137
 1952SOL    HW117318   2.396   3.619   0.839 -1.2157 -1.4926 -0.7896
 1952SOL    HW217319   2.427   3.623   0.975  3.1371 -1.8721 -1.0634
 1953SOL     OW17320   1.181   1.801   4.252  0.4604 -0.1572 -0.4393
 1953SOL    HW117321   1.248   1.794   4.321  1.0648  0.0074 -1.0065
 1953SOL    HW217322   1.130   1.723   4.270  0.3424  0.4270  1.7888
 1954SOL     OW17323   0.023   3.575   8.682  0.2771 -0.0914 -0.6039
 1954SOL    HW117324   0.090   3.633   8.717  0.4017  0.4172 -1.6726
 1954SOL    HW217325   4.667   3.619   8.720  0.9449 -1.1743  2.0051
 1955SOL     OW17326   2.096   4.000  15.647  0.7653 -0.8380  0.2231
 1955SOL    HW117327   2.023   4.007  15.707  0.5874 -2.7496  0.2473
 1955SOL    HW217328   2.161   4.056  15.689 -0.4554  0.9145 -0.2177
 1956SOL     OW17329   2.495   3.050  12.662 -0.3894 -0.3792 -0.0239
 1956SOL    HW117330   2.465   2.988  12.729  0.2647 -0.6312  0.0406
 1956SOL    HW217331   2.590   3.051  12.673 -0.4249 -0.0791  0.2597
 1957SOL     OW17332   2.863   1.742  14.969 -0.2950  0.0072  0.6125
 1957SOL    HW117333   2.935   1.692  14.931 -0.6319 -0.5047  0.6493
 1957SOL    HW217334   2.893   1.757  15.059 -0.5869 -1.9398  1.0262
 1958SOL     OW17335   2.789   1.627  13.346 -0.2226 -0.1419  0.0183
 1958SOL    HW117336   2.699   1.659  13.354  0.6063  1.5016  2.5632
 1958SOL    HW217337   2.815   1.629  13.438  1.6120 -1.8759 -0.4601
 1959SOL     OW17338   2.107   0.266   1.948 -0.3515  0.0024 -0.5683
 1959SOL    HW117339   2.108   0.248   2.042  0.9300  1.6444 -0.2782
 1959SOL    HW217340   2.017   0.299   1.947 -0.0237  0.8977 -1.3342
 1960SOL     OW17341   3.279   2.110   8.224  0.8432 -0.0516  0.5666
 1960SOL    HW117342   3.295   2.029   8.273  0.9901 -0.4276 -0.1104
 1960SOL    HW217343   3.285   2.168   8.300  1.1624  0.9774 -0.2503
 1961SOL     OW17344   0.061   4.002   1.494  0.4137 -0.2485 -0.9251
 1961SOL    HW117345   4.686   3.995   1.495  0.5202 -1.6087 -0.6858
 1961SOL    HW217346   0.087   3.921   1.538 -2.2138 -0.3040  0.5180
 1962SOL     OW17347   1.475   3.573   3.849 -0.6400  0.5060 -0.3236
 1962SOL    HW117348   1.503   3.613   3.766 -0.0430  0.2677 -0.2353
 1962SOL    HW217349   1.380   3.568   3.842 -0.5454  0.4412 -1.6057
 1963SOL     OW17350   2.148   1.618  12.846  0.0848 -0.0389  0.3231
 1963SOL    HW117351   2.105   1.599  12.930  2.4791  0.8370  1.7376
 1963SOL    HW217352   2.230   1.647  12.887  1.1731 -0.2785 -1.6702
 1964SOL     OW17353   4.667   3.495   4.183 -0.5669  0.0236 -0.0811
 1964SOL    HW117354   0.018   3.549   4.215 -0.3311 -0.3603  0.0304
 1964SOL    HW217355   4.606   3.563   4.155 -1.3028 -0.0663  1.3422
 1965SOL     OW17356   0.454   2.820   9.120  0.2477 -0.5517 -0.1523
 1965SOL    HW117357   0.363   2.848   9.110 -0.2824 -2.3718 -0.3594
 1965SOL    HW217358   0.493   2.908   9.120 -0.1818 -0.3683  0.7265
 1966SOL     OW17359   3.766   1.959  11.148 -0.6460  0.3972  0.3015
 1966SOL    HW117360   3.752   1.918  11.234  0.3191 -1.3058 -0.3746
 1966SOL    HW217361   3.742   1.889  11.087 -1.8561  0.4153  0.7505
 1967SOL     OW17362   1.916   2.288  10.553 -0.2458  0.2859 -0.6268
 1967SOL    HW117363   1.981   2.301  10.484 -0.2930 -0.9150 -0.8902
 1967SOL    HW217364   1.964   2.317  10.631  0.0930  1.4440 -1.2642
 1968SOL     OW17365   3.906   2.558   5.216 -0.2333  0.0806  0.3005
 1968SOL    HW117366   3.954   2.476   5.224 -1.4664 -0.6564  0.0923
 1968SOL    HW217367   3.849   2.535   5.289 -0.8552  3.7705  0.9607
 1969SOL     OW17368   0.848   3.394   5.844 -0.6909  0.1885 -0.2890
 1969SOL    HW117369   0.930   3.368   5.803 -1.7283 -4.4132  0.4929
 1969SOL    HW217370   0.777   3.382   5.781 -1.1293 -0.2409  0.2825
 1970SOL     OW17371   1.059   1.590   4.495 -0.3160  0.1465  0.2289
 1970SOL    HW117372   1.148   1.570   4.523 -0.5480 -1.2586 -0.0130
 1970SOL    HW217373   1.022   1.558   4.577 -0.2982  0.3291  0.3086
 1971SOL     OW17374   4.474   3.991   5.280  0.2799 -0.5914  0.2918
 1971SOL    HW117375   4.428   3.913   5.313  1.8852 -2.3832 -1.6851
 1971SOL    HW217376   4.538   4.004   5.350 -2.6761  1.4945  2.5857
 1972SOL     OW17377   3.913   0.544  12.341  0.2871  0.4763 -0.1867
 1972SOL    HW117378   3.992   0.556  12.288  0.5354 -0.5222 -0.0438
 1972SOL    HW217379   3.851   0.605  12.301  1.8930  1.5181 -1.0536
 1973SOL     OW17380   1.190   0.608   7.201  0.2389 -0.2566  0.9725
 1973SOL    HW117381   1.146   0.667   7.262 -1.7102 -0.8016  0.0693
 1973SOL    HW217382   1.111   0.566   7.169  0.8271 -0.4676 -0.2205
 1974SOL     OW17383   1.362   1.242   0.014  0.5708 -0.2566 -0.4295
 1974SOL    HW117384   1.411   1.246   0.096 -1.7573 -0.1680  0.9636
 1974SOL    HW217385   1.320   1.327   0.007 -2.5254 -1.8205 -0.7185
 1975SOL     OW17386   2.960   2.973  16.127 -0.5613  0.1863  0.1990
 1975SOL    HW117387   2.909   2.908  16.079  0.1136 -2.0906  2.5937
 1975SOL    HW217388   2.920   3.050  16.086  1.4502  0.7941 -0.6151
 1976SOL     OW17389   2.196   2.394   2.939 -0.0819 -0.1460 -0.5049
 1976SOL    HW117390   2.153   2.309   2.942 -2.0194  0.8772  0.7583
 1976SOL    HW217391   2.142   2.462   2.981  3.2711  2.4417 -0.3048
 1977SOL     OW17392   4.716   4.292   6.380  0.0846  0.5448  0.2471
 1977SOL    HW117393   0.033   4.303   6.467  2.2131 -0.0739 -0.6007
 1977SOL    HW217394   4.721   4.377   6.336 -1.8521  0.6898  0.3275
 1978SOL     OW17395   3.196   3.748   7.553  0.4042 -0.0684 -0.0328
 1978SOL    HW117396   3.182   3.841   7.573  0.2689 -0.4380  1.6011
 1978SOL    HW217397   3.244   3.710   7.627  0.8025  0.5322  0.0178
 1979SOL     OW17398   0.561   4.134   1.682 -0.0146  0.4193 -0.2709
 1979SOL    HW117399   0.477   4.111   1.723  0.7529  0.6311  1.3976
 1979SOL    HW217400   0.616   4.058   1.702  0.2192  1.0166  1.3665
 1980SOL     OW17401   0.287   2.405   6.509  0.1778  0.0099  0.6565
 1980SOL    HW117402   0.382   2.390   6.513  0.1947  0.2482  1.3388
 1980SOL    HW217403   0.244   2.321   6.494  0.6763 -0.0626 -0.3157
 1981SOL     OW17404   3.459   3.363   6.087 -0.0228  0.1732  0.1659
 1981SOL    HW117405   3.540   3.408   6.063  0.3551 -0.2990  0.5683
 1981SOL    HW217406   3.500   3.278   6.099  2.6296  1.6019  1.2369
 1982SOL     OW17407   1.159   1.338   7.300  0.0902 -0.6009 -0.3790
 1982SOL    HW117408   1.176   1.391   7.222 -2.0534 -1.4274 -1.4173
 1982SOL    HW217409   1.246   1.300   7.307 -0.3135 -1.0182  2.4473
 1983SOL     OW17410   2.243   2.163   4.075 -0.2570 -0.3277  0.3506
 1983SOL    HW117411   2.234   2.085   4.131 -0.3788  0.5310  1.5088
 1983SOL    HW217412   2.334   2.191   4.082  0.3025 -1.7106 -1.1807
 1984SOL     OW17413   2.528   0.451   3.562  0.3668 -0.1148 -0.1316
 1984SOL    HW117414   2.572   0.532   3.535 -1.8128  0.5331 -1.7732
 1984SOL    HW217415   2.440   0.489   3.555 -0.3633 -1.9249 -0.9730
 1985SOL     OW17416   0.452   2.380  14.863  0.4947  0.5966  0.0939
 1985SOL    HW117417   0.372   2.363  14.813  1.0714 -1.4920 -0.0901
 1985SOL    HW217418   0.502   2.417  14.791  0.1704 -0.8856 -0.9007
 1986SOL     OW17419   3.051   1.449   9.010  0.2035 -0.1570 -0.3300
 1986SOL    HW117420   2.966   1.493   9.012 -0.9837 -2.2999 -3.7779
 1986SOL    HW217421   3.094   1.480   9.089  1.5203 -2.8485  0.0147
 1987SOL     OW17422   3.499   2.366   6.748  0.2371  0.0077  0.2962
 1987SOL    HW117423   3.440   2.424   6.699 -0.7504  0.4997  2.0752
 1987SOL    HW217424   3.436   2.299   6.773  0.3850 -0.5575 -0.8557
 1988SOL     OW17425   2.437   0.666   6.300  0.4038  0.2182  0.4519
 1988SOL    HW117426   2.424   0.760   6.312  1.2369  0.3444  0.3693
 1988SOL    HW217427   2.350   0.627   6.304  0.7844 -0.7833 -1.2002
 1989SOL     OW17428   2.714   1.372   4.548 -0.0939  0.0476  0.1844
 1989SOL    HW117429   2.686   1.332   4.631  2.0391  1.8146  1.7766
 1989SOL    HW217430   2.701   1.301   4.486 -0.7575  0.7593 -0.4899
 1990SOL     OW17431   4.667   0.843   9.172 -0.0838  0.3151  0.0876
 1990SOL    HW117432   4.694   0.819   9.083  2.5720  2.8200  0.2126
 1990SOL    HW217433   4.641   0.760   9.211  1.8656 -1.6830 -2.8884
 1991SOL     OW17434   1.889   3.604  15.112  0.0649 -0.7575 -0.0473
 1991SOL    HW117435   1.961   3.542  15.125  0.1056 -0.7091 -0.0414
 1991SOL    HW217436   1.930   3.655  15.042 -2.0150 -0.0153 -0.7229
 1992SOL     OW17437   1.572   2.079   3.214 -0.5285  0.3421  0.1825
 1992SOL    HW117438   1.636   2.019   3.175  0.0915  0.4140  1.0844
 1992SOL    HW217439   1.624   2.153   3.245  0.1401 -0.7237  1.6085
 1993SOL     OW17440   4.350   2.594   3.447 -0.2104  0.0203 -0.4593
 1993SOL    HW117441   4.397   2.676   3.433 -1.7257  0.3558 -3.5740
 1993SOL    HW217442   4.361   2.554   3.360  1.2106  0.7246 -0.5982
 1994SOL     OW17443   3.208   3.250   2.889  0.4674  0.5592  0.3500
 1994SOL    HW117444   3.171   3.203   2.963 -2.3738  0.2758 -1.2641
 1994SOL    HW217445   3.163   3.334   2.893  1.3362  0.9177  2.3841
 1995SOL     OW17446   0.173   3.015   0.206 -0.1390 -0.9073 -0.0174
 1995SOL    HW117447   0.220   2.934   0.228  0.6886 -0.0809  1.2046
 1995SOL    HW217448   0.123   2.975   0.135  0.3938  0.8185 -1.3604
 1996SOL     OW17449   1.214   1.853   5.538 -0.6522 -0.3370  0.6103
 1996SOL    HW117450   1.252   1.853   5.450 -2.6160  0.4195 -0.2326
 1996SOL    HW217451   1.234   1.944   5.563  2.2766 -0.5318 -0.9934
 1997SOL     OW17452   0.636   3.537   5.005 -0.4427 -0.2700  0.3239
 1997SOL    HW117453   0.677   3.620   5.030 -0.0801  0.1589 -1.6788
 1997SOL    HW217454   0.712   3.505   4.956 -2.5416  1.1338 -3.9219
 1998SOL     OW17455   4.216   2.604   9.652  0.1689 -0.2847 -0.3737
 1998SOL    HW117456   4.186   2.691   9.627  0.7167  0.2110  0.6725
 1998SOL    HW217457   4.258   2.580   9.569  2.1000 -0.8300  0.7555
 1999SOL     OW17458   0.233   1.020   8.321  0.1986 -0.7489 -0.2793
 1999SOL    HW117459   0.239   0.932   8.283 -1.7451 -0.4083 -1.3698
 1999SOL    HW217460   0.242   1.006   8.415  0.7803 -0.1118 -0.2456
 2000SOL     OW17461   2.058   4.464   5.266 -0.3565  0.1084  0.3523
 2000SOL    HW117462   2.101   4.383   5.238  0.2928  0.4378  0.3821
 2000SOL    HW217463   2.052   4.512   5.184  2.0648 -0.3122 -0.0792
 2001SOL     OW17464   1.162   1.324   0.277 -0.4807  0.2926  0.3460
 2001SOL    HW117465   1.155   1.230   0.261 -2.3312  0.9581 -2.8415
 2001SOL    HW217466   1.255   1.335   0.294 -0.1015 -2.8648  0.3332
 2002SOL     OW17467   3.400   3.108   1.328 -0.5115 -1.0569 -0.4117
 2002SOL    HW117468   3.387   3.021   1.365 -0.6903 -1.0624 -0.4912
 2002SOL    HW217469   3.495   3.108   1.310 -0.5973 -1.1322 -0.8629
 2003SOL     OW17470   4.651   4.389   5.874  0.3811 -0.1395  0.5066
 2003SOL    HW117471   4.609   4.322   5.929  1.5371 -1.5381 -0.3244
 2003SOL    HW217472   4.589   4.457   5.899 -0.6918 -0.5547 -1.0191
 2004SOL     OW17473   0.566   1.858   5.403  0.2068  0.2939  0.3647
 2004SOL    HW117474   0.633   1.793   5.424  0.9139  0.0031 -2.7929
 2004SOL    HW217475   0.490   1.805   5.425  0.6038 -0.3667  0.1402
 2005SOL     OW17476   1.264   0.596   2.077  0.0745 -0.3296  0.0421
 2005SOL    HW117477   1.338   0.568   2.024 -0.9152 -0.8414 -1.0608
 2005SOL    HW217478   1.307   0.592   2.163  2.3242  1.5589 -1.0207
 2006SOL     OW17479   4.186   1.516   6.637 -0.3633  0.2858  0.0446
 2006SOL    HW117480   4.138   1.437   6.615  1.4087 -0.6161 -0.6347
 2006SOL    HW217481   4.118   1.574   6.671 -1.3995 -0.8549 -0.1273
 2007SOL     OW17482   4.492   1.132   8.045 -0.1334 -0.1670  0.2224
 2007SOL    HW117483   4.455   1.182   8.117 -0.7197 -0.0039 -0.1861
 2007SOL    HW217484   4.538   1.066   8.096 -0.5566 -0.7291 -0.1210
 2008SOL     OW17485   2.623   3.950   7.398  0.0309 -0.0762 -0.4762
 2008SOL    HW117486   2.544   3.916   7.440 -0.5266  1.3709 -0.3664
 2008SOL    HW217487   2.666   3.991   7.473 -1.8132 -0.3833  0.7458
 2009SOL     OW17488   4.540   4.090   4.060 -0.7315 -0.1778  0.7887
 2009SOL    HW117489   4.479   4.065   4.130  0.6057 -0.5406  1.8277
 2009SOL    HW217490   4.487   4.124   3.989 -1.4436 -2.3316  0.2945
 2010SOL     OW17491   0.978   4.329  15.443  0.1710 -0.1851 -0.7061
 2010SOL    HW117492   1.061   4.329  15.393  0.5559  2.2456 -0.0852
 2010SOL    HW217493   0.916   4.346  15.372  0.8029  1.1952 -0.9350
 2011SOL     OW17494   0.572   1.438   1.884 -0.0910  0.2186  0.5932
 2011SOL    HW117495   0.617   1.508   1.836 -0.1481  0.0863  0.3446
 2011SOL    HW217496   0.486   1.440   1.842 -0.2164  0.9414  0.8809
 2012SOL     OW17497   3.052   2.496   2.425 -0.4105  0.4202  0.1388
 2012SOL    HW117498   3.020   2.427   2.483  1.2666  1.3524  2.1657
 2012SOL    HW217499   2.983   2.562   2.435 -0.4937  0.6093 -1.6309
 2013SOL     OW17500   3.770   0.464   8.900  0.0387 -0.3981  0.2189
 2013SOL    HW117501   3.792   0.512   8.980 -0.7643 -0.8200  0.6873
 2013SOL    HW217502   3.682   0.437   8.925 -0.3977 -0.0246 -0.9335
 2014SOL     OW17503   2.101   4.699   6.919  0.0680  0.3285 -0.4470
 2014SOL    HW117504   2.154   4.623   6.946  0.7725  0.8354 -0.4160
 2014SOL    HW217505   2.159   0.028   6.863  2.2524  0.6896  2.1278
 2015SOL     OW17506   1.235   1.721   4.943 -0.6161 -0.2386 -0.1275
 2015SOL    HW117507   1.228   1.721   5.038 -1.3991 -2.4732 -0.1904
 2015SOL    HW217508   1.142   1.726   4.923 -0.6480  0.7792  0.3043
 2016SOL     OW17509   2.607   2.760  12.926 -0.8773 -0.5363 -0.5596
 2016SOL    HW117510   2.662   2.837  12.938 -0.5584 -0.7861 -0.4363
 2016SOL    HW217511   2.611   2.733  13.018 -1.0311  0.8359 -0.1536
 2017SOL     OW17512   3.237   3.399   2.349 -0.2087  0.2665  0.0442
 2017SOL    HW117513   3.143   3.405   2.330 -0.0051 -0.7335 -1.2951
 2017SOL    HW217514   3.255   3.493   2.343 -1.8886  0.6026  0.2680
 2018SOL     OW17515   1.281   3.139   2.413 -0.4583  0.0371  0.0995
 2018SOL    HW117516   1.312   3.182   2.493  1.3246  1.0758 -1.1585
 2018SOL    HW217517   1.328   3.187   2.344  0.1730  1.1701  1.3206
 2019SOL     OW17518   4.507   2.974  13.766  0.7441  0.1047  0.0185
 2019SOL    HW117519   4.585   2.929  13.734  1.0088  1.3942 -1.1400
 2019SOL    HW217520   4.448   2.899  13.769 -2.1731  2.3844 -0.4292
 2020SOL     OW17521   3.894   2.293  10.159  0.4967  0.5020 -0.0833
 2020SOL    HW117522   3.810   2.272  10.199 -0.4863  2.2102 -1.2586
 2020SOL    HW217523   3.895   2.386  10.182  0.1450  1.0551 -2.3245
 2021SOL     OW17524   0.958   1.109   1.012  0.2026 -0.2244  0.8534
 2021SOL    HW117525   0.972   1.019   0.984  2.3679  0.2220  0.4711
 2021SOL    HW217526   1.043   1.127   1.052 -0.2456  0.4644  1.4984
 2022SOL     OW17527   1.711   3.455  17.156 -1.0446  0.7908  0.3712
 2022SOL    HW117528   1.733   3.374  17.112 -1.2225  0.5823  0.6659
 2022SOL    HW217529   1.626   3.430  17.193 -1.6369  1.5473 -0.4503
 2023SOL     OW17530   4.060   1.455   0.908 -0.5741 -0.8868 -0.4497
 2023SOL    HW117531   3.969   1.478   0.891 -0.4639  0.5277  0.8866
 2023SOL    HW217532   4.112   1.468   0.829  0.3940 -2.0670 -0.0262
 2024SOL     OW17533   4.387   2.498   3.211 -0.4533 -0.0243 -0.1099
 2024SOL    HW117534   4.469   2.534   3.176  0.7989  0.7601  3.5719
 2024SOL    HW217535   4.348   2.459   3.133  0.3384 -2.7379  0.8731
 2025SOL     OW17536   3.121   2.675   0.930  0.5791  0.4655  0.1750
 2025SOL    HW117537   3.039   2.630   0.953  1.0104 -1.3629 -1.8376
 2025SOL    HW217538   3.100   2.708   0.843  0.0833 -1.4470 -0.4403
 2026SOL     OW17539   2.782   3.481  14.922  0.3196  0.5555 -0.8439
 2026SOL    HW117540   2.841   3.416  14.885  0.8886  0.1772  0.7116
 2026SOL    HW217541   2.703   3.431  14.943 -0.0957  0.9418 -1.4772
 2027SOL     OW17542   3.421   3.247   2.199 -0.9073  0.3322  0.1523
 2027SOL    HW117543   3.362   3.291   2.261 -3.1968 -0.7670 -1.2431
 2027SOL    HW217544   3.488   3.313   2.182 -0.9685  0.3775  0.0894
 2028SOL     OW17545   3.394   1.720  12.969 -0.1304 -0.1905  0.3327
 2028SOL    HW117546   3.407   1.697  12.877 -1.0114  0.6479 -0.0011
 2028SOL    HW217547   3.478   1.756  12.999  0.1623 -0.0389 -0.6793
 2029SOL     OW17548   4.522   0.595   2.561 -0.8829 -0.0821 -0.3988
 2029SOL    HW117549   4.491   0.665   2.504  2.7717  0.5970 -1.5391
 2029SOL    HW217550   4.615   0.591   2.541 -0.6035  2.8017  0.3252
 2030SOL     OW17551   1.698   0.598  17.555  0.4745  0.3342  0.4475
 2030SOL    HW117552   1.649   0.598  17.638 -1.6782 -1.1238 -0.8211
 2030SOL    HW217553   1.634   0.648  17.504  1.5250  0.1143 -1.0671
 2031SOL     OW17554   2.601   3.930   2.742 -0.3427  0.0742 -0.1468
 2031SOL    HW117555   2.627   3.958   2.654  0.3452  3.7516  1.2058
 2031SOL    HW217556   2.622   3.837   2.733  1.2352  0.4447 -0.3400
 2032SOL     OW17557   4.022   4.224   7.592  0.1775 -0.7898 -0.1954
 2032SOL    HW117558   4.074   4.252   7.516 -0.8773  0.5691 -0.4174
 2032SOL    HW217559   4.001   4.302   7.643  1.0864 -2.0848  2.1152
 2033SOL     OW17560   0.188   0.965   5.017  0.0113 -0.3599  0.7129
 2033SOL    HW117561   0.095   0.983   5.032  0.3274  2.1280 -0.3748
 2033SOL    HW217562   0.171   0.871   5.014 -0.7220 -0.2323  0.9112
 2034SOL     OW17563   3.895   4.529   8.576  0.4302 -0.2912 -0.2241
 2034SOL    HW117564   3.816   4.502   8.529  1.5121 -0.5026 -1.9283
 2034SOL    HW217565   3.871   4.581   8.653 -0.1289 -0.7653 -0.0760
 2035SOL     OW17566   0.395   1.216  13.042  0.2686  0.2238 -0.0385
 2035SOL    HW117567   0.469   1.277  13.048  2.9557 -2.7702 -3.0370
 2035SOL    HW217568   0.416   1.159  13.115 -0.7367 -0.5674 -0.3661
 2036SOL     OW17569   3.554   4.023   7.605 -0.1589 -0.1053 -0.0148
 2036SOL    HW117570   3.534   4.027   7.699  2.1576  0.6576  0.4449
 2036SOL    HW217571   3.634   4.073   7.595 -0.2379 -0.1234 -0.6859
 2037SOL     OW17572   4.394   0.568  11.038  0.1510 -0.1823  0.4225
 2037SOL    HW117573   4.300   0.586  11.048  0.1100  0.6986 -1.6423
 2037SOL    HW217574   4.406   0.502  11.106 -0.7121 -0.3224  0.4410
 2038SOL     OW17575   0.293   4.608   2.714  0.0593  0.2426  0.1781
 2038SOL    HW117576   0.309   4.589   2.622  0.0477 -1.4759  0.5365
 2038SOL    HW217577   0.259   4.697   2.702  1.8192  0.5231 -2.7799
 2039SOL     OW17578   4.467   2.422   7.592 -0.1891 -0.4607  0.0290
 2039SOL    HW117579   4.556   2.445   7.619 -0.7229 -0.2978  1.6342
 2039SOL    HW217580   4.432   2.489   7.650  1.7180 -0.4066  1.1115
 2040SOL     OW17581   4.591   0.866  12.717 -0.4933  0.0422  0.4106
 2040SOL    HW117582   4.589   0.952  12.758 -2.5313  0.4283 -0.5219
 2040SOL    HW217583   4.633   0.811  12.783  0.8113  0.4108 -0.0963
 2041SOL     OW17584   2.138   3.426   7.347 -0.2306  0.5825 -0.0268
 2041SOL    HW117585   2.187   3.426   7.429 -1.1731 -0.3222  0.5390
 2041SOL    HW217586   2.050   3.422   7.384  0.7947 -2.0039  2.1601
 2042SOL     OW17587   0.999   4.076   6.900 -0.3853  0.7521  0.1439
 2042SOL    HW117588   0.964   4.012   6.962  0.4566 -0.6372 -0.8049
 2042SOL    HW217589   1.095   4.067   6.900 -0.5608 -1.2747 -0.1156
 2043SOL     OW17590   2.603   2.205   6.029 -0.1720  0.1910  0.0979
 2043SOL    HW117591   2.683   2.180   6.077 -0.0576  1.2067  0.4332
 2043SOL    HW217592   2.588   2.272   6.096 -3.1462 -0.3328 -0.0375
 2044SOL     OW17593   4.264   2.019   8.829  0.4385 -0.1108  0.2972
 2044SOL    HW117594   4.257   2.033   8.924 -2.4705 -1.6428  0.2998
 2044SOL    HW217595   4.204   1.946   8.818 -0.4409  1.2457 -3.9779
 2045SOL     OW17596   2.077   1.513  14.070  0.1422 -0.3898  0.0136
 2045SOL    HW117597   2.027   1.433  14.058  2.5160 -1.9996  0.8020
 2045SOL    HW217598   2.036   1.552  13.993  2.5026 -0.3715 -1.2618
 2046SOL     OW17599   4.023   2.950   3.916  0.0527  0.1753  0.4721
 2046SOL    HW117600   3.946   2.910   3.958  0.9182 -0.0583  1.8480
 2046SOL    HW217601   4.078   2.901   3.978  0.1026 -1.6513 -1.0232
 2047SOL     OW17602   2.683   4.175   9.253  0.1340  0.2247  0.4864
 2047SOL    HW117603   2.762   4.218   9.220 -1.2360 -0.1589 -3.3123
 2047SOL    HW217604   2.615   4.236   9.225  0.0312  0.7653  1.9103
 2048SOL     OW17605   4.566   3.615   4.833 -0.2901  0.0017  0.0961
 2048SOL    HW117606   4.633   3.675   4.801 -0.1325 -0.1769  0.0867
 2048SOL    HW217607   4.487   3.655   4.796 -0.1480  0.5784  0.4289
 2049SOL     OW17608   3.828   3.187  11.411  0.0589  0.5563 -0.0484
 2049SOL    HW117609   3.862   3.257  11.467  2.8186  0.3947 -1.5022
 2049SOL    HW217610   3.894   3.184  11.342 -0.3246 -2.2180 -0.2962
 2050SOL     OW17611   3.514   4.600   4.614  0.0630  0.1478 -0.2546
 2050SOL    HW117612   3.524   4.520   4.666  0.6809 -0.4402 -1.2708
 2050SOL    HW217613   3.552   4.565   4.534 -1.0835  1.2932 -1.2896
 2051SOL     OW17614   0.868   0.777   0.778  0.2532 -0.0040  0.2089
 2051SOL    HW117615   0.888   0.764   0.685 -1.5862 -0.4271 -0.1200
 2051SOL    HW217616   0.774   0.791   0.782 -0.1539 -2.6698  0.3404
 2052SOL     OW17617   3.336   0.720   3.574  0.1878  0.7519  0.5705
 2052SOL    HW117618   3.321   0.663   3.650  1.3464  2.2031  1.8965
 2052SOL    HW217619   3.428   0.745   3.580  0.3067  0.5584 -0.4302
 2053SOL     OW17620   3.299   4.279   3.536  0.2816 -0.1002 -0.1588
 2053SOL    HW117621   3.349   4.270   3.455 -0.5047 -0.7991 -0.5706
 2053SOL    HW217622   3.345   4.345   3.587 -1.1197  0.0617  0.8965
 2054SOL     OW17623   4.439   2.242   4.864  0.4715 -0.1271 -0.0624
 2054SOL    HW117624   4.485   2.321   4.895 -0.0393  0.5237 -0.9669
 2054SOL    HW217625   4.359   2.273   4.821  1.2295 -0.1871 -1.5095
 2055SOL     OW17626   4.116   0.918   9.592  0.3559  0.2584  0.1958
 2055SOL    HW117627   4.130   0.837   9.641 -0.8424 -0.8674 -1.3327
 2055SOL    HW217628   4.048   0.966   9.638  2.4940  0.1552  3.4977
 2056SOL     OW17629   1.772   3.016   8.567  0.1015 -0.0537 -0.3588
 2056SOL    HW117630   1.866   3.005   8.552 -0.1195  0.6102 -2.1993
 2056SOL    HW217631   1.777   3.046   8.658  0.1972  0.4977 -0.5487
 2057SOL     OW17632   1.763   4.109   6.483 -0.5751  0.3704  0.1998
 2057SOL    HW117633   1.674   4.133   6.509 -0.5476  0.2026  0.4465
 2057SOL    HW217634   1.807   4.188   6.515 -0.0781  0.1944 -0.0454
 2058SOL     OW17635   1.671   0.229   7.174  0.0912  0.0298  0.4792
 2058SOL    HW117636   1.730   0.155   7.185  2.2099  2.2743  3.9981
 2058SOL    HW217637   1.719   0.297   7.127  1.2144 -0.7694  0.4650
 2059SOL     OW17638   0.044   1.319   4.944 -0.2236  0.6400 -0.3741
 2059SOL    HW117639   0.053   1.231   4.907 -0.5286 -0.0662  1.2592
 2059SOL    HW217640   0.066   1.295   5.034  0.0592 -0.7127 -0.8123
 2060SOL     OW17641   3.045   0.090  12.912  0.2750 -0.0736  0.2126
 2060SOL    HW117642   3.135   0.056  12.909  0.7016  1.2394 -1.8281
 2060SOL    HW217643   3.062   0.177  12.949  0.2867  0.3710 -0.8529
 2061SOL     OW17644   2.893   0.904  10.542 -0.7269  0.0136  0.2958
 2061SOL    HW117645   2.951   0.964  10.493 -1.8429  1.7503  1.0898
 2061SOL    HW217646   2.810   0.952  10.536  0.5073  2.1165 -0.1641
 2062SOL     OW17647   4.579   3.209   2.228  0.2069 -0.4659  0.1920
 2062SOL    HW117648   4.528   3.196   2.148  0.4716  0.3343 -0.1035
 2062SOL    HW217649   4.509   3.236   2.286  1.3499  3.1824 -0.1491
 2063SOL     OW17650   2.817   0.777  13.757  0.2478 -0.1331 -0.5254
 2063SOL    HW117651   2.868   0.730  13.823 -0.6322 -1.2680 -0.6538
 2063SOL    HW217652   2.888   0.792  13.694 -0.6079  1.4241 -1.1059
 2064SOL     OW17653   4.021   1.562   0.470 -0.1989 -0.1340 -0.0165
 2064SOL    HW117654   4.029   1.486   0.527 -0.0797  0.7913  1.2048
 2064SOL    HW217655   3.994   1.622   0.540 -0.0163 -1.4545  1.1885
 2065SOL     OW17656   2.530   2.833   6.437 -0.1318 -0.8763 -0.2092
 2065SOL    HW117657   2.488   2.914   6.408 -2.6705 -2.5218 -1.1702
 2065SOL    HW217658   2.621   2.862   6.441 -0.5382  0.3823 -0.2918
 2066SOL     OW17659   4.515   4.260   7.160 -0.1694 -0.4134  0.7632
 2066SOL    HW117660   4.606   4.234   7.142  0.8616  2.2390  2.1289
 2066SOL    HW217661   4.486   4.296   7.076  1.0143  0.9076  0.8998
 2067SOL     OW17662   4.076   3.321  17.153 -0.0394 -0.2497 -0.4604
 2067SOL    HW117663   4.091   3.312  17.059  0.3353  1.6134 -0.5848
 2067SOL    HW217664   4.139   3.385  17.185 -2.4792  1.8574  0.2208
 2068SOL     OW17665   4.089   3.939   2.309  0.1706  0.3288 -0.7512
 2068SOL    HW117666   4.063   3.959   2.219  1.2174  3.5009 -0.3683
 2068SOL    HW217667   4.159   3.876   2.294 -0.4993 -0.3303 -1.1015
 2069SOL     OW17668   1.354   0.663   3.869 -0.1806  0.7880  0.0031
 2069SOL    HW117669   1.270   0.685   3.909 -1.1306  0.2698 -1.6553
 2069SOL    HW217670   1.332   0.586   3.816  1.7261  0.3795 -0.1806
 2070SOL     OW17671   0.125   3.148  10.139  0.6701  0.2880 -0.0441
 2070SOL    HW117672   0.064   3.076  10.158  2.6946 -1.5621 -0.5289
 2070SOL    HW217673   0.058   3.207  10.105  0.0960 -0.5784 -0.4444
 2071SOL     OW17674   4.489   4.614   8.327  0.0269  0.0300 -0.3641
 2071SOL    HW117675   4.443   4.531   8.319 -2.0992  1.5264 -3.5412
 2071SOL    HW217676   4.524   4.609   8.415  0.5474  0.3883 -0.5512
 2072SOL     OW17677   4.041   2.791  14.372 -0.4835  0.4777 -0.0272
 2072SOL    HW117678   3.975   2.810  14.307  0.4192  2.1641 -0.4546
 2072SOL    HW217679   4.058   2.698  14.357 -3.0525 -0.2097  1.4080
 2073SOL     OW17680   0.043   3.390   9.295 -0.0097 -0.0633 -0.2869
 2073SOL    HW117681   0.131   3.407   9.260 -0.3847  2.2036 -0.1316
 2073SOL    HW217682   4.717   3.444   9.231 -0.9809  0.7332  1.0793
 2074SOL     OW17683   1.310   0.547  15.728  0.3622 -0.1369  0.0014
 2074SOL    HW117684   1.311   0.547  15.632 -0.0375 -1.7309 -0.0023
 2074SOL    HW217685   1.336   0.635  15.752 -1.5816  0.6469 -0.7220
 2075SOL     OW17686   0.676   2.278  10.171 -0.2759 -0.2430  0.0622
 2075SOL    HW117687   0.675   2.318  10.084  1.2346 -0.7648 -0.1990
 2075SOL    HW217688   0.647   2.353  10.222 -1.9916  2.0045 -4.2568
 2076SOL     OW17689   1.361   3.536  13.450  0.0663  0.2546  0.0851
 2076SOL    HW117690   1.288   3.581  13.492 -0.0093  0.2214 -0.0109
 2076SOL    HW217691   1.392   3.485  13.525  0.5304 -1.0031 -0.9666
 2077SOL     OW17692   0.621   0.268   7.599 -1.0341  0.0237  0.1028
 2077SOL    HW117693   0.657   0.342   7.647  2.1652 -1.6304  0.2267
 2077SOL    HW217694   0.702   0.220   7.585 -0.1112  1.5691  0.1552
 2078SOL     OW17695   3.821   4.451   5.882 -0.7168 -1.1887  0.0011
 2078SOL    HW117696   3.791   4.379   5.938 -1.7399 -0.8521 -0.1065
 2078SOL    HW217697   3.770   4.444   5.801 -1.5806 -0.9474  0.5186
 2079SOL     OW17698   2.638   2.251   6.803  0.5016  0.3962  0.7607
 2079SOL    HW117699   2.679   2.184   6.748  0.7273  1.2541 -0.1071
 2079SOL    HW217700   2.608   2.189   6.870  0.8844  1.7610  2.2058
 2080SOL     OW17701   0.614   0.929  11.205  0.1117  0.3883 -0.3279
 2080SOL    HW117702   0.563   0.853  11.178 -2.4118  1.1764  2.2774
 2080SOL    HW217703   0.549   0.990  11.240  1.3715  1.8213 -0.4673
 2081SOL     OW17704   1.786   2.146   1.092 -0.3231 -0.0703  0.1254
 2081SOL    HW117705   1.744   2.231   1.085 -0.5343 -0.2305 -0.5478
 2081SOL    HW217706   1.723   2.092   1.140  1.0886 -1.2422  0.6754
 2082SOL     OW17707   0.977   3.733   6.940 -0.1281 -0.3968 -0.0090
 2082SOL    HW117708   0.906   3.749   7.004 -0.1156  0.8537 -0.3155
 2082SOL    HW217709   0.923   3.736   6.861 -2.0823 -0.1075  1.3382
 2083SOL     OW17710   4.093   0.115   2.976  0.3860  0.0414  0.3273
 2083SOL    HW117711   4.042   0.046   2.933  1.3803  0.4196 -1.4699
 2083SOL    HW217712   4.173   0.135   2.927 -0.2838  0.0325 -0.7843
 2084SOL     OW17713   3.807   1.234   2.460 -0.2535  0.0409 -0.2727
 2084SOL    HW117714   3.822   1.232   2.366 -1.2171  1.0352 -0.4405
 2084SOL    HW217715   3.843   1.146   2.474 -0.3373 -0.2343 -1.7988
 2085SOL     OW17716   2.497   3.034   8.557  0.3952 -0.1791  0.2022
 2085SOL    HW117717   2.590   3.011   8.554  0.5723  0.7690 -1.4868
 2085SOL    HW217718   2.476   3.017   8.466  1.1242  0.7228 -0.1292
 2086SOL     OW17719   3.596   3.980   5.219  0.4898  0.2358 -0.1729
 2086SOL    HW117720   3.604   3.908   5.281  1.5544  0.1929 -0.3518
 2086SOL    HW217721   3.640   3.943   5.142  0.2072 -1.9672  0.7044
 2087SOL     OW17722   3.560   4.392   6.717 -0.6356  0.3957 -0.5966
 2087SOL    HW117723   3.647   4.427   6.739  0.2637 -1.1073 -1.7914
 2087SOL    HW217724   3.561   4.322   6.782 -1.0937  0.1543 -0.8576
 2088SOL     OW17725   3.053   0.330  13.041 -0.0961  0.3337 -0.0538
 2088SOL    HW117726   2.983   0.391  13.019  0.1683  0.3924 -0.7509
 2088SOL    HW217727   3.123   0.390  13.013  2.1796 -3.1974 -1.9701
 2089SOL     OW17728   2.216   3.052   5.552 -0.3470  0.5669  0.0457
 2089SOL    HW117729   2.302   3.033   5.592  0.4041 -2.6111 -3.1002
 2089SOL    HW217730   2.168   2.969   5.552  0.9067 -0.1827  3.0155
 2090SOL     OW17731   1.501   3.078   9.614 -0.3610 -0.0308  0.5170
 2090SOL    HW117732   1.417   3.104   9.576  0.8401 -1.0960 -2.8274
 2090SOL    HW217733   1.564   3.146   9.592 -1.8625  1.0480 -0.4602
 2091SOL     OW17734   3.646   0.377   2.581  0.3201  0.3984  0.2329
 2091SOL    HW117735   3.653   0.390   2.676 -0.2207 -0.7999  0.4359
 2091SOL    HW217736   3.577   0.440   2.558  0.9339  0.9404 -0.1036
 2092SOL     OW17737   3.026   3.997   9.387 -0.5780  0.7771 -0.4086
 2092SOL    HW117738   3.041   4.090   9.400 -0.5202  0.9055 -1.3747
 2092SOL    HW217739   2.974   4.006   9.307  1.3034 -1.1257 -1.8543
 2093SOL     OW17740   2.957   4.145   9.110  0.4007  0.4509  0.1896
 2093SOL    HW117741   3.031   4.093   9.078  1.3346  0.1355  2.8701
 2093SOL    HW217742   2.962   4.231   9.067 -0.3413 -0.1685 -1.0970
 2094SOL     OW17743   4.361   1.149   0.643 -0.8652  0.3990  0.1405
 2094SOL    HW117744   4.282   1.123   0.691 -1.4246 -0.4461 -1.2148
 2094SOL    HW217745   4.360   1.242   0.663  1.5943  0.7424 -1.2599
 2095SOL     OW17746   4.400   1.208   3.567  0.6521  0.0906  0.2434
 2095SOL    HW117747   4.387   1.198   3.661 -1.8870  2.4995  0.1314
 2095SOL    HW217748   4.354   1.291   3.555 -2.0884 -1.3359  0.9253
 2096SOL     OW17749   3.874   0.932   8.762  0.3596  0.1932 -0.5840
 2096SOL    HW117750   3.939   0.926   8.692  0.6134  0.8783 -0.4077
 2096SOL    HW217751   3.859   0.841   8.786  0.6551  0.3875  0.3438
 2097SOL     OW17752   0.862   3.377   2.111 -0.5598 -0.0936  0.3924
 2097SOL    HW117753   0.772   3.399   2.086 -0.3004 -0.0685 -0.5016
 2097SOL    HW217754   0.919   3.417   2.046  0.5504 -0.6689  1.0213
 2098SOL     OW17755   4.648   4.121   4.505 -0.2319  0.2192 -0.4021
 2098SOL    HW117756   4.619   4.029   4.501 -0.4065  0.1506  2.4364
 2098SOL    HW217757   4.571   4.157   4.549 -1.7409 -1.7140 -1.4243
 2099SOL     OW17758   4.309   4.089   6.775 -0.4129 -0.0700 -1.0703
 2099SOL    HW117759   4.304   4.035   6.854  0.3755  0.2385 -0.8053
 2099SOL    HW217760   4.361   4.024   6.729  0.6504  0.7060 -0.9783
 2100SOL     OW17761   0.836   0.382   5.179  0.3750  0.1713 -0.1994
 2100SOL    HW117762   0.836   0.287   5.166 -0.4348  0.0746  0.5761
 2100SOL    HW217763   0.744   0.392   5.202  0.3885 -0.5763  0.1551
 2101SOL     OW17764   3.567   2.659   1.740 -0.1180 -0.5172  0.2012
 2101SOL    HW117765   3.651   2.653   1.786  0.2370  1.4291 -0.2221
 2101SOL    HW217766   3.507   2.601   1.787 -0.5651  0.9861  1.4640
 2102SOL     OW17767   1.096   0.555  10.673 -0.5445  0.1369  0.6584
 2102SOL    HW117768   1.150   0.527  10.747  2.2824  0.3570 -1.3058
 2102SOL    HW217769   1.027   0.598  10.723 -0.3006  0.2536  0.8939
 2103SOL     OW17770   2.257   4.087  17.105  0.2800 -0.3809 -0.3187
 2103SOL    HW117771   2.178   4.089  17.158 -0.2678 -0.0936 -1.1407
 2103SOL    HW217772   2.240   4.165  17.052  2.4956 -0.1935 -0.7627
 2104SOL     OW17773   3.274   0.421  12.014  0.0736  0.2663  0.3984
 2104SOL    HW117774   3.234   0.336  12.034  2.0514 -0.2536  2.1946
 2104SOL    HW217775   3.316   0.444  12.097 -0.1638 -2.3334  1.2392
 2105SOL     OW17776   0.903   3.158  12.652 -0.3168  0.0486 -0.2229
 2105SOL    HW117777   0.882   3.218  12.580 -0.5476 -1.1937 -1.1814
 2105SOL    HW217778   0.875   3.198  12.734 -1.2983 -1.4473  0.1705
 2106SOL     OW17779   3.752   4.029   8.839  0.4551  0.2633 -0.1078
 2106SOL    HW117780   3.802   4.071   8.770 -0.8312 -0.6104 -1.5803
 2106SOL    HW217781   3.781   3.938   8.834 -1.1125 -0.3724  2.1420
 2107SOL     OW17782   1.403   1.591   2.806 -0.1025  0.3252 -0.1327
 2107SOL    HW117783   1.431   1.613   2.717  1.0275  2.3311  0.7005
 2107SOL    HW217784   1.486   1.552   2.833 -0.5036 -1.8923 -2.1159
 2108SOL     OW17785   2.804   2.771   7.710 -0.2064 -0.2419  0.3435
 2108SOL    HW117786   2.713   2.796   7.693  0.8241  1.2591 -3.0768
 2108SOL    HW217787   2.812   2.677   7.691  2.6798 -0.1223  1.0407
 2109SOL     OW17788   2.297   2.936  15.084 -0.1011  0.3957  0.3840
 2109SOL    HW117789   2.245   2.965  15.159 -1.0358 -0.0769 -0.0814
 2109SOL    HW217790   2.340   3.018  15.060  0.6229 -0.6424 -1.8523
 2110SOL     OW17791   1.542   3.669   7.364  0.1820 -0.3856 -0.0784
 2110SOL    HW117792   1.601   3.704   7.431 -1.1046 -0.6829  1.2096
 2110SOL    HW217793   1.559   3.575   7.374  0.2414 -0.0087  3.2566
 2111SOL     OW17794   0.991   3.111   8.233  0.0654 -0.0666 -0.0408
 2111SOL    HW117795   1.029   3.151   8.311 -0.7202  3.0448 -1.2804
 2111SOL    HW217796   1.060   3.052   8.202 -0.6175 -1.3295  0.8450
 2112SOL     OW17797   1.272   1.016   3.621 -0.1539  0.4175  0.5247
 2112SOL    HW117798   1.348   0.962   3.641  0.5550  0.9856 -0.6534
 2112SOL    HW217799   1.284   1.002   3.527 -0.2384 -1.8736  0.8451
 2113SOL     OW17800   0.916   4.553   1.238 -0.7049  0.0952 -0.2115
 2113SOL    HW117801   0.827   4.524   1.261 -1.2617  1.2064 -0.9436
 2113SOL    HW217802   0.894   4.630   1.186 -0.0576  0.0926 -0.4855
 2114SOL     OW17803   4.030   0.083   1.513  0.2425 -0.4523  0.5069
 2114SOL    HW117804   4.006   4.714   1.491 -3.9452  0.7799  0.0025
 2114SOL    HW217805   3.950   0.106   1.561 -0.7699 -0.3472 -1.2238
 2115SOL     OW17806   2.877   1.767   3.373  0.4879  0.3101 -0.5917
 2115SOL    HW117807   2.952   1.826   3.365 -0.4891  1.6186 -0.1720
 2115SOL    HW217808   2.830   1.813   3.443  2.3486  2.5803 -0.7933
 2116SOL     OW17809   4.442   0.047   6.727 -0.1649 -0.0176 -0.5501
 2116SOL    HW117810   4.454   0.142   6.729  1.2783 -0.2573  1.9251
 2116SOL    HW217811   4.529   0.013   6.704 -0.5961 -1.3968 -0.1617
 2117SOL     OW17812   3.378   1.321   5.208  0.7163  0.0125  0.4549
 2117SOL    HW117813   3.396   1.289   5.119 -0.7293 -2.6596  1.1598
 2117SOL    HW217814   3.417   1.249   5.257 -1.9314 -1.3238  0.5701
 2118SOL     OW17815   4.089   2.153   1.616  0.7412  0.4840 -0.0341
 2118SOL    HW117816   4.091   2.059   1.630  1.5582  0.5634  0.3770
 2118SOL    HW217817   4.137   2.162   1.534 -0.6804  1.6317 -0.7438
 2119SOL     OW17818   4.161   0.258   9.735 -0.1931 -0.3300 -0.2119
 2119SOL    HW117819   4.254   0.244   9.755 -0.4136  0.9729  1.7437
 2119SOL    HW217820   4.147   0.308   9.816  0.3113 -0.1542 -0.2291
 2120SOL     OW17821   0.309   4.011  17.120 -0.7063 -0.4306  0.1977
 2120SOL    HW117822   0.249   3.980  17.187  1.3504  1.0979  2.7335
 2120SOL    HW217823   0.282   3.940  17.061  0.1570 -1.5467  1.1401
 2121SOL     OW17824   2.421   2.100   5.855 -0.7120 -0.3922 -0.0186
 2121SOL    HW117825   2.473   2.149   5.919  0.8816 -2.0406 -0.0735
 2121SOL    HW217826   2.464   2.015   5.865  1.6022  0.4074 -3.1979
 2122SOL     OW17827   4.706   1.841   6.557  0.1330 -0.6432 -0.2428
 2122SOL    HW117828   0.008   1.748   6.557  1.5115 -0.3139 -1.8285
 2122SOL    HW217829   0.037   1.873   6.483 -1.7941 -0.8589 -1.6933
 2123SOL     OW17830   3.237   2.265   3.401 -0.2364 -0.1951  0.2844
 2123SOL    HW117831   3.323   2.273   3.360  0.2921  0.3338  1.4792
 2123SOL    HW217832   3.258   2.230   3.488 -1.2729  0.3090  0.7238
 2124SOL     OW17833   4.614   0.940   5.029 -0.1184  0.0990  0.1471
 2124SOL    HW117834   4.592   0.886   4.953  1.1757 -0.4419  0.1629
 2124SOL    HW217835   4.555   0.896   5.090 -1.3563  0.8611 -0.4934
 2125SOL     OW17836   3.052   1.844   6.174  0.0360  0.0227 -0.1629
 2125SOL    HW117837   3.143   1.844   6.144 -0.0057 -0.7699 -0.3088
 2125SOL    HW217838   3.020   1.767   6.127  0.3676 -1.2089  1.6339
 2126SOL     OW17839   1.995   2.923   7.861 -0.0496 -0.4086 -0.1801
 2126SOL    HW117840   1.927   2.941   7.796 -0.8371 -2.0043  0.2018
 2126SOL    HW217841   1.989   2.829   7.843 -0.3721 -0.4859  0.3548
 2127SOL     OW17842   0.412   4.292   8.787  0.1810 -0.5928  0.2702
 2127SOL    HW117843   0.355   4.338   8.726  0.9835  0.1233  0.0607
 2127SOL    HW217844   0.463   4.366   8.821 -0.0781  1.0126 -2.8470
 2128SOL     OW17845   2.122   3.485  12.722  0.3308 -0.3969  0.3413
 2128SOL    HW117846   2.056   3.417  12.736 -0.4242 -0.3610 -2.9819
 2128SOL    HW217847   2.073   3.560  12.756  4.0970  2.5122 -0.7551
 2129SOL     OW17848   0.899   4.136   8.726 -0.5310 -0.0966  0.1473
 2129SOL    HW117849   0.812   4.125   8.763 -0.0612 -0.8522  1.0097
 2129SOL    HW217850   0.935   4.063   8.775 -0.1466  0.8018  1.1934
 2130SOL     OW17851   1.873   3.522   3.907  0.0271  0.1113  0.1602
 2130SOL    HW117852   1.807   3.461   3.940 -0.0240  0.1413  0.1153
 2130SOL    HW217853   1.827   3.604   3.888  2.2402  1.3900  0.3910
 2131SOL     OW17854   3.551   1.269   7.585 -0.1933  0.4625  0.1917
 2131SOL    HW117855   3.636   1.306   7.561 -0.2426 -0.2751 -1.1251
 2131SOL    HW217856   3.566   1.175   7.585 -0.1439  0.4560 -1.3453
 2132SOL     OW17857   3.644   3.767   4.220 -0.0476  0.0364  0.5257
 2132SOL    HW117858   3.671   3.676   4.222  1.5490  0.6060  3.5464
 2132SOL    HW217859   3.549   3.773   4.209  0.1494 -0.6133 -1.6344
 2133SOL     OW17860   2.289   2.944   7.158 -0.4158 -0.0668  0.3106
 2133SOL    HW117861   2.351   2.877   7.130  1.0264  2.0993 -1.6672
 2133SOL    HW217862   2.343   3.022   7.144  0.1840 -1.0159 -2.6624
 2134SOL     OW17863   0.611   1.668   3.789  0.2191  0.2934  0.4612
 2134SOL    HW117864   0.650   1.732   3.729 -1.7467  1.0988  0.0415
 2134SOL    HW217865   0.652   1.693   3.872 -3.1669 -1.4562  2.6516
 2135SOL     OW17866   1.582   3.404   7.391  0.3616  0.4200  0.6002
 2135SOL    HW117867   1.666   3.366   7.363 -1.1695 -0.0152 -3.3122
 2135SOL    HW217868   1.522   3.346   7.344 -0.8689  2.9150 -0.8902
 2136SOL     OW17869   2.587   4.332   9.052  0.2605  0.3679 -0.0961
 2136SOL    HW117870   2.541   4.347   8.969 -1.4614 -0.7868  0.6333
 2136SOL    HW217871   2.673   4.310   9.018  0.0672  1.0402 -1.0229
 2137SOL     OW17872   0.865   0.902   4.216  0.3129 -0.2657 -0.0651
 2137SOL    HW117873   0.953   0.867   4.234  0.6743  1.7530  2.0838
 2137SOL    HW217874   0.840   0.944   4.298  3.6441  0.2144  0.7127
 2138SOL     OW17875   1.816   2.220   7.902  0.2810  0.0496  0.3873
 2138SOL    HW117876   1.804   2.261   7.988 -0.5510 -1.5223  1.0138
 2138SOL    HW217877   1.802   2.127   7.919  1.5537  0.1522  1.9303
 2139SOL     OW17878   1.479   1.736  17.615  0.5780  0.0248 -0.1125
 2139SOL    HW117879   1.395   1.763  17.653 -0.2224 -2.1043 -0.3829
 2139SOL    HW217880   1.472   1.644  17.591 -2.0536 -0.0896  1.1067
 2140SOL     OW17881   4.016   0.110   0.946  0.1493  0.4140  0.0208
 2140SOL    HW117882   3.979   0.026   0.921 -0.3456  0.1607  1.6822
 2140SOL    HW217883   4.025   0.081   1.036 -1.3499 -2.0785 -0.6391
 2141SOL     OW17884   1.732   1.259  17.014  0.1037  0.6409 -0.0333
 2141SOL    HW117885   1.698   1.191  17.072 -0.3164 -0.0383 -1.0731
 2141SOL    HW217886   1.672   1.331  17.034 -2.3372 -0.8462 -1.9213
 2142SOL     OW17887   3.769   3.833   5.869  0.2238  0.1722  0.3950
 2142SOL    HW117888   3.677   3.858   5.871  0.7128  2.1178 -1.2148
 2142SOL    HW217889   3.788   3.829   5.962 -4.0688  1.0290  1.3206
 2143SOL     OW17890   3.564   0.915   2.984 -0.5006 -0.0968  0.7701
 2143SOL    HW117891   3.483   0.963   3.001 -1.4431 -0.4481 -2.7785
 2143SOL    HW217892   3.603   0.957   2.907  0.3968 -1.0027  0.7242
 2144SOL     OW17893   2.069   1.653   3.582 -0.0345  0.3057  0.2706
 2144SOL    HW117894   2.002   1.652   3.650 -2.3554  1.1619 -2.0161
 2144SOL    HW217895   2.068   1.559   3.564 -0.6527  0.1684  1.0655
 2145SOL     OW17896   1.319   3.146   2.837  0.4069  0.4252 -0.2981
 2145SOL    HW117897   1.375   3.077   2.800 -0.1325 -1.0622  1.6660
 2145SOL    HW217898   1.236   3.140   2.792 -0.1337 -0.5552  0.8190
 2146SOL     OW17899   2.770   0.287  14.736 -0.1541  0.3597  0.1790
 2146SOL    HW117900   2.824   0.339  14.795  1.4485  0.1020 -1.0518
 2146SOL    HW217901   2.696   0.258  14.790  0.6412 -1.2071  0.4435
 2147SOL     OW17902   1.877   2.780   6.914 -0.0100 -0.1953  0.1958
 2147SOL    HW117903   1.853   2.732   6.835 -0.4950 -0.2686  0.3883
 2147SOL    HW217904   1.970   2.780   6.892  0.0802 -2.5852  0.5733
 2148SOL     OW17905   2.209   3.178   0.297 -0.0578 -0.3395 -0.2201
 2148SOL    HW117906   2.206   3.099   0.352  1.7569 -1.4205 -1.6606
 2148SOL    HW217907   2.295   3.161   0.257  0.7509  0.2199  1.2606
 2149SOL     OW17908   4.027   4.547  15.093 -0.2858 -0.7331 -0.0185
 2149SOL    HW117909   4.122   4.541  15.084 -0.0698  1.5135  0.7309
 2149SOL    HW217910   4.014   4.639  15.067  2.1871 -0.2635  0.4491
 2150SOL     OW17911   4.516   0.962   0.541  0.0305 -0.0994 -0.4794
 2150SOL    HW117912   4.582   0.944   0.609  1.1364 -0.2574 -1.5936
 2150SOL    HW217913   4.468   1.025   0.595  1.5189 -0.8326  1.7254
 2151SOL     OW17914   0.856   1.742   5.183  0.1797 -0.1834  0.1563
 2151SOL    HW117915   0.871   1.836   5.187 -0.6786  0.0113 -1.3432
 2151SOL    HW217916   0.919   1.708   5.120 -1.5447 -1.1761 -1.0232
 2152SOL     OW17917   0.447   1.574   1.679  0.3826  0.4732 -0.0395
 2152SOL    HW117918   0.403   1.641   1.730  0.3692  0.3051  0.1707
 2152SOL    HW217919   0.532   1.617   1.674  0.5477  0.4373  2.5210
 2153SOL     OW17920   2.064   3.239   4.373 -0.0040 -0.2312 -0.0109
 2153SOL    HW117921   2.090   3.147   4.373  0.0849 -0.2032 -0.4364
 2153SOL    HW217922   2.000   3.246   4.303 -1.5882 -0.8867  1.3580
 2154SOL     OW17923   4.434   0.892   6.882 -0.1868  0.0604 -0.4283
 2154SOL    HW117924   4.347   0.923   6.858 -0.0363  0.6493 -0.2204
 2154SOL    HW217925   4.442   0.810   6.833  1.0780 -0.6540  0.9666
 2155SOL     OW17926   0.322   2.497  12.828  0.3934  0.6270  0.4900
 2155SOL    HW117927   0.367   2.578  12.805 -1.1747  1.0656 -1.0774
 2155SOL    HW217928   0.395   2.449  12.867  0.4908  1.8915  1.8680
 2156SOL     OW17929   1.835   4.253   5.160 -0.2188 -0.0409  0.3133
 2156SOL    HW117930   1.859   4.224   5.248  0.8581  1.1191  0.4106
 2156SOL    HW217931   1.761   4.195   5.144  1.2319 -2.2202  1.4252
 2157SOL     OW17932   1.185   1.476   0.008  0.1514 -0.2955 -0.0109
 2157SOL    HW117933   1.120   1.524  17.641  1.8150  1.0030 -0.9110
 2157SOL    HW217934   1.129   1.408   0.043 -1.9458  1.0136 -0.7777
 2158SOL     OW17935   3.827   2.544   6.112  0.4396  0.9430 -0.2413
 2158SOL    HW117936   3.797   2.481   6.177 -1.1094  2.2832  0.3424
 2158SOL    HW217937   3.887   2.598   6.163  0.4517  0.6053  0.0932
 2159SOL     OW17938   0.569   2.324   2.102 -0.0363 -0.2060  0.9123
 2159SOL    HW117939   0.613   2.373   2.031 -2.3932 -1.0172 -1.0900
 2159SOL    HW217940   0.642   2.268   2.128 -0.1473  0.4232  2.5762
 2160SOL     OW17941   1.056   3.756   3.496 -0.1190 -0.0647 -0.1756
 2160SOL    HW117942   1.107   3.837   3.499  0.7820 -0.5861 -1.8429
 2160SOL    HW217943   1.135   3.703   3.504 -1.6621 -1.7951  3.4831
 2161SOL     OW17944   1.695   0.281   5.854  0.5226 -0.4649  0.8466
 2161SOL    HW117945   1.656   0.241   5.932  0.8392  0.0935  1.2901
 2161SOL    HW217946   1.780   0.242   5.836 -0.2479 -1.8735  0.2235
 2162SOL     OW17947   4.594   1.249  13.464  0.4709 -0.2075  0.0693
 2162SOL    HW117948   4.617   1.288  13.548 -0.8329  0.5102  0.0954
 2162SOL    HW217949   4.626   1.159  13.470  1.0263  0.0970  1.4816
 2163SOL     OW17950   0.265   0.191   4.508 -0.4496 -0.7504  0.3760
 2163SOL    HW117951   0.269   0.162   4.417 -1.9277  1.6108 -0.4374
 2163SOL    HW217952   0.317   0.125   4.555  0.7518 -0.6964 -0.8846
 2164SOL     OW17953   1.755   3.512  16.509 -0.0771 -0.1232 -0.1916
 2164SOL    HW117954   1.747   3.608  16.508 -0.0172 -0.1216 -0.4863
 2164SOL    HW217955   1.760   3.484  16.600 -1.3322 -0.3482 -0.1853
 2165SOL     OW17956   1.464   0.102   8.179  0.0969 -0.3533  0.2562
 2165SOL    HW117957   1.458   0.139   8.091 -1.0948  0.3644  0.6354
 2165SOL    HW217958   1.406   0.027   8.170 -0.1857 -0.0463 -0.4842
 2166SOL     OW17959   0.023   2.017   5.513 -0.1285 -0.1140 -0.4447
 2166SOL    HW117960   0.110   1.977   5.512  0.7393  1.8082 -1.8746
 2166SOL    HW217961   0.016   2.013   5.608 -0.0782  0.7934 -0.4116
 2167SOL     OW17962   1.287   0.526   6.168 -0.6562 -0.5815  0.3686
 2167SOL    HW117963   1.319   0.508   6.080 -2.2272  0.3958 -0.3960
 2167SOL    HW217964   1.350   0.589   6.204 -0.2261 -1.0800  0.4791
 2168SOL     OW17965   3.986   3.130   5.480 -0.2241 -0.0482 -0.1436
 2168SOL    HW117966   4.070   3.174   5.491 -0.6072  0.6785 -0.1311
 2168SOL    HW217967   3.955   3.138   5.570 -2.0113 -0.4947 -0.7154
 2169SOL     OW17968   2.400   2.401   3.327 -0.4115  0.5640 -0.3185
 2169SOL    HW117969   2.317   2.362   3.354  0.4047 -1.1449 -0.3097
 2169SOL    HW217970   2.401   2.365   3.238  0.1292 -2.3615  0.8959
 2170SOL     OW17971   4.084   1.111   4.218 -0.1137 -0.0138  0.1270
 2170SOL    HW117972   4.127   1.185   4.260  0.4751 -0.1776 -0.1865
 2170SOL    HW217973   4.086   1.042   4.284 -0.0354 -0.2586 -0.1335
 2171SOL     OW17974   3.469   3.269   7.894  0.3257 -0.4849 -0.0314
 2171SOL    HW117975   3.409   3.204   7.931 -0.0395  0.2971  0.7434
 2171SOL    HW217976   3.497   3.307   7.977  1.2361 -1.4429  0.0993
 2172SOL     OW17977   3.703   3.014  15.135 -0.6277  0.0540 -0.2365
 2172SOL    HW117978   3.766   3.075  15.175 -0.6809 -0.6443  0.9161
 2172SOL    HW217979   3.750   2.931  15.144 -1.4211 -0.3391  0.2802
 2173SOL     OW17980   2.259   4.418   8.514  0.1519  0.3289 -0.3627
 2173SOL    HW117981   2.178   4.444   8.468  1.7059 -0.6662 -3.7033
 2173SOL    HW217982   2.238   4.329   8.539 -0.7692  0.5723 -0.2539
 2174SOL     OW17983   4.103   2.351   5.706 -0.0917 -0.9089  0.2346
 2174SOL    HW117984   4.058   2.431   5.681  3.0650  1.4009  2.0150
 2174SOL    HW217985   4.183   2.348   5.654 -0.0927 -0.9161  0.2335
 2175SOL     OW17986   1.864   2.553   2.930 -0.2322 -0.5013  0.6404
 2175SOL    HW117987   1.930   2.588   2.990 -0.3582  1.1381 -0.1697
 2175SOL    HW217988   1.782   2.596   2.955  1.4546  2.5976  0.8278
 2176SOL     OW17989   2.086   4.147   9.070 -0.5959  0.4362 -0.0760
 2176SOL    HW117990   2.080   4.095   9.150 -1.7964 -0.1384 -0.5439
 2176SOL    HW217991   2.170   4.182   9.100  0.0336  0.5142 -1.9799
 2177SOL     OW17992   3.041   2.167   3.022  0.2291 -0.0004 -0.3010
 2177SOL    HW117993   2.953   2.152   2.986  0.5770 -1.0651 -0.6987
 2177SOL    HW217994   3.077   2.232   2.962 -1.9714  2.5874  1.1658
 2178SOL     OW17995   0.694   4.510  14.066  0.3923 -0.3563  0.4057
 2178SOL    HW117996   0.697   4.416  14.048 -3.7686 -0.6231  1.2215
 2178SOL    HW217997   0.787   4.530  14.078 -0.2388  2.6224  0.2881
 2179SOL     OW17998   3.116   2.812   3.464 -0.3516 -0.4121  0.1146
 2179SOL    HW117999   3.191   2.767   3.427 -0.3071 -1.0201  0.9539
 2179SOL    HW218000   3.143   2.820   3.555 -0.9259  0.2973  0.2252
 2180SOL     OW18001   2.421   1.309   4.150  0.7009 -0.1748  0.2230
 2180SOL    HW118002   2.485   1.366   4.192  1.1610 -0.6202  0.1320
 2180SOL    HW218003   2.335   1.331   4.186  0.0484  1.9738 -2.6472
 2181SOL     OW18004   2.085   0.622   3.972  0.3673 -0.7029  0.0766
 2181SOL    HW118005   2.036   0.695   4.009  0.7047 -1.3417  1.7832
 2181SOL    HW218006   2.092   0.625   3.876 -0.3157 -1.3633  0.0051
 2182SOL     OW18007   3.203   2.621   8.989  0.4171  0.1261 -0.4796
 2182SOL    HW118008   3.155   2.636   9.070 -2.1166 -1.2199 -1.7467
 2182SOL    HW218009   3.268   2.553   9.008 -0.2600 -0.4083 -0.0960
 2183SOL     OW18010   2.844   1.073  16.467 -0.2516  0.1697 -0.3693
 2183SOL    HW118011   2.843   1.013  16.392  1.2866  1.4022 -1.3877
 2183SOL    HW218012   2.872   1.009  16.532 -0.4278 -0.0091 -0.4675
 2184SOL     OW18013   4.643   2.798   2.841 -0.7621 -0.4062  0.7587
 2184SOL    HW118014   4.713   2.842   2.793 -1.3595 -0.7953 -0.4432
 2184SOL    HW218015   4.599   2.871   2.885  0.5281  0.8792 -0.0880
 2185SOL     OW18016   2.440   1.163   6.762  0.1119  0.0593 -0.1771
 2185SOL    HW118017   2.440   1.157   6.858  1.7228  3.3530  0.0531
 2185SOL    HW218018   2.482   1.079   6.746  1.1316  0.1751  1.8257
 2186SOL     OW18019   0.965   3.371   7.397 -0.6312 -0.9078 -0.7481
 2186SOL    HW118020   0.914   3.428   7.455  0.8847 -0.5156  0.2143
 2186SOL    HW218021   0.914   3.360   7.317 -0.4232 -1.8145 -0.7566
 2187SOL     OW18022   2.702   0.938   0.638 -0.0359 -0.3938 -0.3976
 2187SOL    HW118023   2.713   0.909   0.728 -0.7328 -0.0212 -0.1993
 2187SOL    HW218024   2.628   0.888   0.604 -0.0333 -0.8231  0.2258
 2188SOL     OW18025   1.869   0.567   5.618  0.0391  0.1964  0.4481
 2188SOL    HW118026   1.797   0.503   5.615  0.8112 -0.7119  1.0283
 2188SOL    HW218027   1.857   0.626   5.544 -1.6106 -2.8840 -1.7277
 2189SOL     OW18028   2.782   3.630   8.658  0.1043 -0.0458  0.7064
 2189SOL    HW118029   2.765   3.587   8.741 -0.0110  0.2901  0.8584
 2189SOL    HW218030   2.705   3.595   8.613  0.2713 -1.3080  1.3996
 2190SOL     OW18031   2.163   3.758   7.247 -0.3537  0.1615  0.0262
 2190SOL    HW118032   2.070   3.734   7.250  0.0765 -1.4183  1.1186
 2190SOL    HW218033   2.207   3.674   7.263  1.4250  0.7796 -1.7076
 2191SOL     OW18034   2.197   2.216   5.942  0.0815 -0.1830 -0.1662
 2191SOL    HW118035   2.250   2.163   5.882  0.7316  1.2367 -0.8528
 2191SOL    HW218036   2.265   2.265   5.989  0.3477 -0.1788 -0.5552
 2192SOL     OW18037   0.116   2.132   2.377 -0.6610 -0.5945  0.1553
 2192SOL    HW118038   0.146   2.043   2.395 -1.0784 -0.7801 -0.0685
 2192SOL    HW218039   0.021   2.125   2.369 -0.5282 -1.3210 -0.8327
 2193SOL     OW18040   1.324   0.973  12.408 -0.6077 -0.1388  0.2848
 2193SOL    HW118041   1.237   1.011  12.420 -1.4676 -1.9044 -0.3511
 2193SOL    HW218042   1.321   0.937  12.319  0.0078  0.4812  0.0043
 2194SOL     OW18043   0.061   1.654   8.632  0.2255  0.2081  0.0449
 2194SOL    HW118044   4.719   1.660   8.704 -0.6666 -2.9103 -0.5039
 2194SOL    HW218045   0.064   1.559   8.619  2.2171 -0.2020  3.4918
 2195SOL     OW18046   3.910   3.572   2.172  0.0458  0.1749 -0.1104
 2195SOL    HW118047   3.914   3.667   2.159 -1.8856  0.0327 -1.7258
 2195SOL    HW218048   3.967   3.539   2.103  1.4432 -0.0599  1.1617
 2196SOL     OW18049   0.104   4.360   3.374  0.2098 -0.5988  0.4491
 2196SOL    HW118050   0.081   4.327   3.461 -2.1596  1.6333  0.6583
 2196SOL    HW218051   0.019   4.373   3.332  0.2661  0.2301  0.6008
 2197SOL     OW18052   0.075   2.132  13.116  0.3890  0.2303 -0.2392
 2197SOL    HW118053   0.113   2.200  13.170 -0.6491  1.3152 -0.8900
 2197SOL    HW218054   0.047   2.065  13.179 -1.1616  1.6974  0.6202
 2198SOL     OW18055   0.307   2.165   2.090 -0.4400  0.0065 -0.0646
 2198SOL    HW118056   0.394   2.145   2.055  1.1094  1.0668  3.1232
 2198SOL    HW218057   0.322   2.192   2.181 -1.9176 -0.6156  0.3605
 2199SOL     OW18058   1.424   4.552   8.644 -0.3547 -0.2848 -0.2558
 2199SOL    HW118059   1.486   4.625   8.632 -0.8858  0.4867  1.7751
 2199SOL    HW218060   1.354   4.582   8.702 -1.1030 -1.3449 -0.6162
 2200SOL     OW18061   0.491   4.381  11.952  0.5644  0.1454  0.5202
 2200SOL    HW118062   0.495   4.391  11.857 -2.5355  1.5487  0.5237
 2200SOL    HW218063   0.540   4.459  11.978 -0.1206  0.0258  2.1504
 2201SOL     OW18064   3.993   0.477  11.549  0.5277 -0.2830  0.2635
 2201SOL    HW118065   3.931   0.454  11.618  0.5942  0.9183  0.7148
 2201SOL    HW218066   4.034   0.393  11.529  1.6143  0.5160 -0.8254
 2202SOL     OW18067   2.396   3.297  15.632 -0.3846  0.0352 -0.1522
 2202SOL    HW118068   2.397   3.261  15.721  1.6045  1.3437  0.3622
 2202SOL    HW218069   2.307   3.333  15.625 -0.7891 -1.1186 -1.0128
 2203SOL     OW18070   2.372   3.407   2.124 -0.3462  0.3159 -0.0097
 2203SOL    HW118071   2.290   3.450   2.101  0.5597  0.9721 -1.9703
 2203SOL    HW218072   2.381   3.369   2.037 -0.5357  1.6653 -0.6139
 2204SOL     OW18073   3.542   3.456   6.834  0.3111 -0.8292  0.2363
 2204SOL    HW118074   3.623   3.405   6.844  1.1932  0.2076 -1.6443
 2204SOL    HW218075   3.511   3.466   6.924 -1.2917  0.0585 -0.4149
 2205SOL     OW18076   1.633   2.297  10.179 -0.1562 -0.1161 -0.4103
 2205SOL    HW118077   1.624   2.299  10.274  1.2597 -0.9767 -0.2598
 2205SOL    HW218078   1.607   2.387  10.159  0.0243  0.4323  1.7892
 2206SOL     OW18079   4.632   4.662   3.594 -0.4007  0.3615  0.4893
 2206SOL    HW118080   4.560   4.631   3.648  0.4239 -1.8756  0.2766
 2206SOL    HW218081   4.701   4.661   3.660  0.4072 -0.2876 -0.3551
 2207SOL     OW18082   0.076   2.728   1.761  0.5714  0.0347  0.2410
 2207SOL    HW118083   0.072   2.695   1.671  3.5896 -0.0247  0.1486
 2207SOL    HW218084   0.112   2.817   1.752 -2.1905  1.3421  1.9386
 2208SOL     OW18085   4.389   3.961   1.861 -0.4277  0.0099 -0.0990
 2208SOL    HW118086   4.471   3.955   1.813  0.8516  0.1701  2.0337
 2208SOL    HW218087   4.337   3.898   1.810  0.8831 -1.5127  0.4361
 2209SOL     OW18088   3.878   1.917   2.708 -0.1427 -0.0956 -0.0488
 2209SOL    HW118089   3.870   1.933   2.802 -1.1029  0.0146 -0.1462
 2209SOL    HW218090   3.960   1.964   2.689 -1.8287  2.5658 -0.7188
 2210SOL     OW18091   2.771   2.870   7.322 -0.1364  0.2868 -0.6132
 2210SOL    HW118092   2.791   2.942   7.381 -1.5367  0.9924 -0.9948
 2210SOL    HW218093   2.714   2.918   7.262  0.1971  1.2192 -0.1770
 2211SOL     OW18094   0.598   1.002   1.568  0.1314  0.5311 -0.3065
 2211SOL    HW118095   0.631   0.973   1.483  0.9410 -0.0935  0.2333
 2211SOL    HW218096   0.639   1.089   1.568  0.7027  0.2560  1.7360
 2212SOL     OW18097   3.134   3.335   3.607  0.4110  0.4814 -0.3831
 2212SOL    HW118098   3.166   3.304   3.691 -0.5480  0.4995 -0.0143
 2212SOL    HW218099   3.201   3.306   3.545 -1.8413 -3.2124 -1.0788
 2213SOL     OW18100   1.238   0.271   8.884  0.0192 -0.3540  0.1459
 2213SOL    HW118101   1.159   0.312   8.921  0.1987  0.3934 -0.2918
 2213SOL    HW218102   1.235   0.293   8.791 -0.7854 -0.2001  0.2102
 2214SOL     OW18103   3.089   0.967  16.861  0.3436 -0.4397 -0.3583
 2214SOL    HW118104   3.055   1.047  16.820 -0.0143 -0.1701  0.4683
 2214SOL    HW218105   3.119   0.996  16.947 -0.5513 -3.4042  0.9605
 2215SOL     OW18106   1.701   3.426   8.789 -0.2133  0.5313 -0.0215
 2215SOL    HW118107   1.688   3.417   8.695  1.0338  1.0952 -0.2470
 2215SOL    HW218108   1.794   3.435   8.809 -0.4488 -0.3598  1.4775
 2216SOL     OW18109   4.252   2.619  17.533  0.4835  0.2750  0.8964
 2216SOL    HW118110   4.286   2.530  17.539  0.1010  0.0246 -0.6529
 2216SOL    HW218111   4.168   2.622  17.580  0.9558 -1.7205  1.8709
 2217SOL     OW18112   3.904   4.251   8.394 -0.0762  0.2700 -0.5766
 2217SOL    HW118113   3.878   4.341   8.414  0.5933  0.6028 -1.1947
 2217SOL    HW218114   3.985   4.241   8.445 -2.4567 -1.1321  2.8871
 2218SOL     OW18115   1.729   4.409   8.183 -0.1287 -0.1827 -0.1319
 2218SOL    HW118116   1.786   4.340   8.149  1.8209  1.8622 -0.9557
 2218SOL    HW218117   1.702   4.376   8.268 -0.4107  1.6670  0.4999
 2219SOL     OW18118   3.637   4.155   5.868  0.0674 -0.4433  0.0351
 2219SOL    HW118119   3.594   4.123   5.947  0.9586 -1.1330  0.2404
 2219SOL    HW218120   3.569   4.147   5.801  1.3786 -0.9060 -1.2327
 2220SOL     OW18121   4.653   2.064   6.114  0.1050 -0.2943 -0.1650
 2220SOL    HW118122   4.692   2.013   6.043  1.2262  0.7953 -0.3309
 2220SOL    HW218123   0.008   2.113   6.145 -1.4849  2.8786 -1.2779
 2221SOL     OW18124   1.976   4.300   6.451 -1.0204 -0.2403 -0.1079
 2221SOL    HW118125   1.983   4.292   6.546  1.2636 -0.4298 -0.2906
 2221SOL    HW218126   2.065   4.323   6.423 -0.8944  0.9520  1.2748
 2222SOL     OW18127   2.175   2.345  14.963 -0.6870 -0.3184 -0.4762
 2222SOL    HW118128   2.176   2.388  15.049  3.0630 -0.1364 -0.5978
 2222SOL    HW218129   2.139   2.415  14.910  0.3414  1.5029  1.2327
 2223SOL     OW18130   0.362   2.855  12.565  0.0698 -1.0937 -0.0182
 2223SOL    HW118131   0.444   2.892  12.534 -0.4642  1.2032  1.2959
 2223SOL    HW218132   0.391   2.765  12.580  0.6828 -0.5644  1.9984
 2224SOL     OW18133   2.293   0.341  12.479  0.6316  0.3251 -0.2701
 2224SOL    HW118134   2.366   0.285  12.506 -0.2952 -0.0430  1.5006
 2224SOL    HW218135   2.298   0.409  12.546 -1.1188  0.5195 -0.3529
 2225SOL     OW18136   0.033   0.038   4.993 -0.4244 -0.4672 -0.5639
 2225SOL    HW118137   0.040   4.719   5.081 -4.0565  1.7600  0.7082
 2225SOL    HW218138   4.682   0.100   5.003  0.9208  0.5754  2.9011
 2226SOL     OW18139   3.132   0.480   6.889 -0.6816 -0.2770 -0.0390
 2226SOL    HW118140   3.111   0.387   6.894 -1.8825 -0.1227 -2.3010
 2226SOL    HW218141   3.052   0.533   6.887 -0.2771  0.5148  4.6368
 2227SOL     OW18142   4.621   4.342  11.952  0.4613  0.4108 -0.2428
 2227SOL    HW118143   4.529   4.367  11.963  0.2477 -0.2009 -0.5925
 2227SOL    HW218144   4.620   4.279  12.025  0.4400  0.7205  0.0230
 2228SOL     OW18145   3.047   1.530  13.347 -0.3583 -0.3939 -0.2274
 2228SOL    HW118146   2.978   1.577  13.300 -0.7788 -1.8634 -1.0890
 2228SOL    HW218147   2.991   1.477  13.403 -1.3562 -1.3925 -2.1604
 2229SOL     OW18148   0.099   0.366   0.853  0.2847  0.1334 -0.0145
 2229SOL    HW118149   0.063   0.442   0.898  0.3947 -0.0058  0.3106
 2229SOL    HW218150   0.023   0.313   0.826 -0.1934  0.9455 -0.2469
 2230SOL     OW18151   0.171   1.983   7.102  0.4205 -0.4895 -0.3955
 2230SOL    HW118152   0.213   1.964   7.018  2.2410 -0.9964  0.6018
 2230SOL    HW218153   0.169   1.891   7.132 -0.6875 -0.3209  0.0360
 2231SOL     OW18154   0.645   3.145  13.849  0.0004 -0.1080  0.0091
 2231SOL    HW118155   0.644   3.188  13.763  0.0666 -0.5024 -0.1869
 2231SOL    HW218156   0.551   3.143  13.870  0.0781  1.1560  0.5033
 2232SOL     OW18157   3.643   4.451   1.304  0.6954 -0.5294 -0.0545
 2232SOL    HW118158   3.573   4.387   1.293  0.8995 -0.4599 -1.7533
 2232SOL    HW218159   3.702   4.424   1.234  0.5675 -1.4190  0.1788
 2233SOL     OW18160   4.708   0.554  14.877  0.1772 -0.0559 -0.6916
 2233SOL    HW118161   4.675   0.643  14.887  0.8687 -0.0900  1.8584
 2233SOL    HW218162   4.629   0.502  14.893  2.1919 -2.3913  1.7409
 2234SOL     OW18163   3.096   3.832   2.088 -1.0826  0.4131  0.0224
 2234SOL    HW118164   3.152   3.882   2.028 -2.6214  1.2486 -0.7032
 2234SOL    HW218165   3.080   3.748   2.046  0.9464  0.1180 -0.1843
 2235SOL     OW18166   2.738   1.851  14.374 -0.2104 -0.3439  0.1167
 2235SOL    HW118167   2.826   1.872  14.343 -0.6673 -1.2436 -1.7989
 2235SOL    HW218168   2.762   1.795  14.447  1.6829 -0.3572 -0.5199
 2236SOL     OW18169   4.350   1.400   1.129 -0.1017  0.7468 -0.8453
 2236SOL    HW118170   4.434   1.365   1.160 -1.1586 -1.8584 -0.8987
 2236SOL    HW218171   4.322   1.463   1.195 -1.5095  0.0605 -0.7814
 2237SOL     OW18172   3.413   4.123   7.157  0.2332  0.1230 -0.1972
 2237SOL    HW118173   3.334   4.151   7.203 -0.1189  1.0249 -1.3372
 2237SOL    HW218174   3.455   4.074   7.227  0.0273  0.6820  0.3137
 2238SOL     OW18175   2.064   1.946   5.114 -0.4039 -0.0984  0.7214
 2238SOL    HW118176   2.061   2.017   5.178  1.6333  0.0364  0.6608
 2238SOL    HW218177   2.159   1.937   5.113 -0.5072 -1.0754  0.1090
 2239SOL     OW18178   3.672   4.177   4.518 -0.1169  0.3829  0.1763
 2239SOL    HW118179   3.639   4.088   4.503  0.0513 -0.2488  3.5697
 2239SOL    HW218180   3.634   4.212   4.437 -0.1638 -1.5892 -0.6682
 2240SOL     OW18181   2.016   0.336   5.699  0.9318  0.7781  0.2218
 2240SOL    HW118182   2.096   0.376   5.732  0.4120  0.6132  1.6847
 2240SOL    HW218183   1.976   0.422   5.685  0.8705  0.2818 -2.5937
 2241SOL     OW18184   1.525   0.244   6.077  0.1416 -0.0814  0.4293
 2241SOL    HW118185   1.462   0.224   6.008  0.0063  0.4157  0.4069
 2241SOL    HW218186   1.547   0.335   6.055 -1.3115  0.5075  1.3747
 2242SOL     OW18187   0.662   3.024   5.674  0.4229  0.4745 -0.1714
 2242SOL    HW118188   0.607   3.099   5.697  0.1747  0.9152 -2.2285
 2242SOL    HW218189   0.658   2.976   5.757 -4.0167 -0.3535 -0.8739
 2243SOL     OW18190   0.925   3.451   2.626  0.0004  0.2631 -0.5835
 2243SOL    HW118191   0.963   3.537   2.605  0.2088 -0.6560 -3.9528
 2243SOL    HW218192   0.917   3.413   2.538  1.4792  0.3384 -0.7357
 2244SOL     OW18193   2.550   3.373   1.033  0.5665 -0.1845  0.0431
 2244SOL    HW118194   2.640   3.340   1.028  0.0385 -1.6680  0.1955
 2244SOL    HW218195   2.529   3.386   0.941  3.4244 -2.1107 -0.8859
 2245SOL     OW18196   3.520   3.615   7.359  0.2721 -0.1632  0.0442
 2245SOL    HW118197   3.503   3.546   7.423 -1.7059  0.9889  0.7934
 2245SOL    HW218198   3.430   3.648   7.352 -0.1363 -0.9987  1.3818
 2246SOL     OW18199   0.150   2.920   1.246  0.2339 -0.2201 -0.1217
 2246SOL    HW118200   0.185   2.991   1.193 -2.3642 -0.3808 -2.0771
 2246SOL    HW218201   0.109   2.963   1.321 -0.8893 -2.2963  0.4464
 2247SOL     OW18202   3.692   3.716   6.990 -0.0051 -0.4560 -0.3330
 2247SOL    HW118203   3.606   3.744   7.021  0.7437  0.1748  1.1884
 2247SOL    HW218204   3.751   3.704   7.065  2.2794  0.6024 -1.9405
 2248SOL     OW18205   4.352   1.478  12.378 -0.1114 -0.4546 -0.4788
 2248SOL    HW118206   4.435   1.525  12.382 -0.2346  0.0418 -3.2804
 2248SOL    HW218207   4.395   1.394  12.362  3.0725  1.1642 -0.3475
 2249SOL     OW18208   0.898   3.444   7.137  0.3360  0.5487 -0.1752
 2249SOL    HW118209   0.920   3.536   7.149  3.1973 -0.3810  1.6834
 2249SOL    HW218210   0.985   3.405   7.128 -0.0491 -0.5016  0.6135
 2250SOL     OW18211   0.871   0.376   9.347  0.1417  0.0794  0.2300
 2250SOL    HW118212   0.786   0.348   9.382  0.1160  2.0865  1.7969
 2250SOL    HW218213   0.920   0.317   9.405  1.0477  0.1696 -0.4534
 2251SOL     OW18214   3.760   2.202   4.674  0.1090  0.6025 -0.1109
 2251SOL    HW118215   3.715   2.155   4.744  2.2697 -0.7557  0.3735
 2251SOL    HW218216   3.815   2.261   4.725 -1.2000  1.0430  0.7818
 2252SOL     OW18217   0.580   4.370  13.198 -0.0265 -0.2191 -0.9991
 2252SOL    HW118218   0.578   4.457  13.239  2.9188  0.3357 -2.0209
 2252SOL    HW218219   0.519   4.385  13.126 -0.1249  1.3656 -0.5858
 2253SOL     OW18220   2.888   1.944   9.936  0.2688  0.4618 -0.1164
 2253SOL    HW118221   2.919   1.858   9.964  0.2044 -0.1864 -2.0596
 2253SOL    HW218222   2.793   1.940   9.951  0.2328 -0.2955 -0.5565
 2254SOL     OW18223   1.976   0.889   2.843  0.5500  0.0069 -0.1890
 2254SOL    HW118224   2.056   0.920   2.801  2.5898 -2.0361  2.2172
 2254SOL    HW218225   1.917   0.964   2.830  1.6504  0.1375 -4.3962
 2255SOL     OW18226   1.826   0.409   8.202 -0.0720  0.0159 -0.0211
 2255SOL    HW118227   1.775   0.489   8.187 -1.7971 -1.1685 -0.4735
 2255SOL    HW218228   1.883   0.436   8.274  0.5160  1.6340 -1.0885
 2256SOL     OW18229   2.209   0.840  16.547 -0.1053 -0.0435 -0.3199
 2256SOL    HW118230   2.227   0.902  16.618  1.6065 -1.9447  0.8889
 2256SOL    HW218231   2.269   0.873  16.480 -0.0178  1.9253  0.7143
 2257SOL     OW18232   3.232   2.570   0.370 -0.7238 -0.1425  0.5012
 2257SOL    HW118233   3.300   2.503   0.378  0.3289  0.3861 -4.5510
 2257SOL    HW218234   3.281   2.640   0.414 -0.3415  0.3654 -0.7312
 2258SOL     OW18235   3.974   2.930   8.856  0.0934 -0.6518 -0.9246
 2258SOL    HW118236   4.005   2.988   8.926 -1.8457 -0.3496 -0.2959
 2258SOL    HW218237   3.888   2.970   8.838 -0.0936 -0.6444 -0.0246
 2259SOL     OW18238   0.467   3.737   8.546 -0.0852 -0.5078 -0.0744
 2259SOL    HW118239   0.524   3.661   8.557 -1.9292 -1.8084  0.3985
 2259SOL    HW218240   0.478   3.780   8.461 -0.6687 -1.5772 -0.6861
 2260SOL     OW18241   2.783   3.113   3.054  0.0979  0.4878  0.4103
 2260SOL    HW118242   2.714   3.080   2.996  1.4746 -0.5006 -0.6338
 2260SOL    HW218243   2.852   3.101   2.989 -1.7472  1.0984 -1.6940
 2261SOL     OW18244   3.628   4.372   5.006  0.4444 -0.2463 -0.3790
 2261SOL    HW118245   3.662   4.462   5.006 -1.4829  0.4807  2.8522
 2261SOL    HW218246   3.669   4.341   5.087 -1.3490  0.6350  0.8691
 2262SOL     OW18247   0.734   2.898  12.682  0.2069  0.0142 -0.0160
 2262SOL    HW118248   0.757   2.830  12.745 -2.8508 -1.6477 -0.6895
 2262SOL    HW218249   0.813   2.940  12.648 -1.2415  1.5023 -1.5709
 2263SOL     OW18250   0.315   0.832   8.804  0.1980  0.1809  0.2156
 2263SOL    HW118251   0.296   0.924   8.789  1.1119  0.5536  1.3307
 2263SOL    HW218252   0.235   0.799   8.847 -0.1630  2.3517  1.1972
 2264SOL     OW18253   2.141   3.534   1.386  0.4828  0.7802 -0.5257
 2264SOL    HW118254   2.203   3.466   1.364  0.0917  0.4853 -0.7198
 2264SOL    HW218255   2.184   3.616   1.360  0.8704  0.3173 -1.3263
 2265SOL     OW18256   2.422   3.028  12.087 -0.0495 -0.0411 -0.3206
 2265SOL    HW118257   2.394   3.070  12.168  0.0411 -1.0911  0.2639
 2265SOL    HW218258   2.451   3.109  12.045 -0.4034 -0.0691 -0.6186
 2266SOL     OW18259   1.266   1.292   0.877  0.0472  0.3051  1.1324
 2266SOL    HW118260   1.251   1.280   0.971  1.0279 -0.8326  1.1474
 2266SOL    HW218261   1.235   1.209   0.840  0.1140 -0.3992  2.6402
 2267SOL     OW18262   1.516   0.135   9.273 -0.2326  0.3776 -0.8345
 2267SOL    HW118263   1.453   0.064   9.284  0.6932 -0.4518 -0.8616
 2267SOL    HW218264   1.497   0.159   9.182 -1.8049  0.9623 -0.3625
 2268SOL     OW18265   0.106   0.903   6.587  0.0064 -0.3304  0.3081
 2268SOL    HW118266   0.033   0.939   6.637  0.9968  3.0044 -0.6259
 2268SOL    HW218267   0.170   0.974   6.594 -1.6109  1.4735 -2.6875
 2269SOL     OW18268   0.776   4.238   6.559 -0.5116  0.8968 -0.5997
 2269SOL    HW118269   0.822   4.238   6.475 -0.2789 -0.7828 -0.4710
 2269SOL    HW218270   0.690   4.208   6.530  1.1521 -2.4001 -2.0567
 2270SOL     OW18271   4.221   1.517   1.403 -0.1544  0.3737  0.4047
 2270SOL    HW118272   4.173   1.495   1.323  1.2484  0.4815 -0.4626
 2270SOL    HW218273   4.164   1.473   1.466 -2.7841  0.8578 -1.6301
 2271SOL     OW18274   2.098   3.413   4.573 -0.0472  0.7149  0.2384
 2271SOL    HW118275   2.040   3.362   4.629  0.2786  1.3545  1.1489
 2271SOL    HW218276   2.088   3.365   4.490 -0.2682  0.3174  0.4961
 2272SOL     OW18277   0.758   0.560   0.269  0.5122 -0.4152  0.0741
 2272SOL    HW118278   0.790   0.617   0.199 -0.5314  0.4951  0.3233
 2272SOL    HW218279   0.683   0.605   0.309 -0.0250 -1.0987 -0.1693
 2273SOL     OW18280   2.456   3.200   2.672  0.1412 -0.3382 -0.0922
 2273SOL    HW118281   2.386   3.223   2.611 -0.0127  2.2449  1.0712
 2273SOL    HW218282   2.525   3.257   2.639  0.3234 -0.6310 -0.2194
 2274SOL     OW18283   0.855   1.438  10.844 -0.1004 -0.2579  0.0612
 2274SOL    HW118284   0.852   1.456  10.750 -0.7700  2.6309  0.6475
 2274SOL    HW218285   0.872   1.344  10.849 -1.5085 -0.5458 -0.6145
 2275SOL     OW18286   2.532   3.583   1.624  0.1653  0.0134  0.1117
 2275SOL    HW118287   2.609   3.550   1.671  1.8086  0.4443 -2.2785
 2275SOL    HW218288   2.558   3.561   1.534  0.0342  0.6894 -0.0875
 2276SOL     OW18289   2.819   2.890   6.469  0.0052 -0.3649  0.1342
 2276SOL    HW118290   2.899   2.849   6.439 -0.8597 -0.2844 -2.2402
 2276SOL    HW218291   2.857   2.971   6.503 -0.0030  1.0869 -3.3542
 2277SOL     OW18292   3.186   3.694   4.089 -0.2572  0.2622 -0.3541
 2277SOL    HW118293   3.171   3.745   4.010  1.7462  0.3255 -0.7158
 2277SOL    HW218294   3.103   3.698   4.135 -0.0657  1.1756 -0.0716
 2278SOL     OW18295   0.293   0.679  12.574  0.4102 -0.0867  0.3456
 2278SOL    HW118296   0.290   0.663  12.480  1.4771  0.3763  0.2384
 2278SOL    HW218297   0.293   0.589  12.607  0.0341 -0.6099 -1.1079
 2279SOL     OW18298   3.538   2.473   3.485  0.5629  0.3367  0.2821
 2279SOL    HW118299   3.560   2.389   3.524 -0.4399 -0.0870 -0.0788
 2279SOL    HW218300   3.563   2.468   3.393  1.6216 -0.4448  0.6143
 2280SOL     OW18301   4.475   4.369  13.278  0.1866 -0.3683 -0.2141
 2280SOL    HW118302   4.514   4.419  13.350 -0.6223  0.7798 -0.5554
 2280SOL    HW218303   4.558   4.334  13.244  0.9467  0.7259  0.5047
 2281SOL     OW18304   4.185   2.038  11.662 -0.1941 -0.0795 -0.2346
 2281SOL    HW118305   4.241   2.052  11.738  0.8341 -0.2758 -0.9533
 2281SOL    HW218306   4.168   2.127  11.632  2.5124  0.6520  0.3932
 2282SOL     OW18307   3.386   4.211   8.339 -0.4765  0.3731  0.2813
 2282SOL    HW118308   3.303   4.202   8.293 -0.0211  0.0898 -0.4774
 2282SOL    HW218309   3.439   4.138   8.308 -0.3087  0.7360 -0.2822
 2283SOL     OW18310   3.595   1.745   5.377 -0.6926 -0.2353 -0.0951
 2283SOL    HW118311   3.518   1.689   5.381 -1.0032  0.0057 -3.1973
 2283SOL    HW218312   3.670   1.688   5.359 -1.8231 -1.6115 -0.4491
 2284SOL     OW18313   0.919   0.248   3.286  0.5869  0.2767  0.1456
 2284SOL    HW118314   0.971   0.175   3.321  1.0109 -0.5801 -2.3048
 2284SOL    HW218315   0.841   0.197   3.264  0.6779 -0.3611  1.2642
 2285SOL     OW18316   1.554   3.076   0.258 -0.1227 -0.6539 -0.6149
 2285SOL    HW118317   1.543   2.993   0.212 -0.2167 -0.3848 -1.0849
 2285SOL    HW218318   1.609   3.051   0.332 -0.8437 -3.4816 -1.0174
 2286SOL     OW18319   4.161   2.018   8.561  0.3309 -0.0144  0.3893
 2286SOL    HW118320   4.231   2.083   8.549  1.1816 -0.6215  2.0298
 2286SOL    HW218321   4.113   2.071   8.625 -0.6050 -1.2234  0.6741
 2287SOL     OW18322   3.513   2.226   7.432  0.1355 -0.7013  0.4150
 2287SOL    HW118323   3.575   2.173   7.484 -1.4971 -1.3169  1.7331
 2287SOL    HW218324   3.439   2.226   7.492 -0.9981 -0.6883 -1.0043
 2288SOL     OW18325   2.164   1.553  15.735 -0.3344  0.2814  0.1573
 2288SOL    HW118326   2.134   1.561  15.825 -2.2945  3.1594 -0.7582
 2288SOL    HW218327   2.077   1.544  15.696 -0.7291  0.8451  0.9013
 2289SOL     OW18328   3.222   4.619   8.091  0.6535  0.0176  0.0666
 2289SOL    HW118329   3.249   4.697   8.043  0.5781 -0.3005 -0.4989
 2289SOL    HW218330   3.295   4.567   8.059 -0.3458 -1.2210 -0.2019
 2290SOL     OW18331   4.238   4.371  16.492 -0.1593 -0.8374 -0.0758
 2290SOL    HW118332   4.185   4.431  16.545  0.4140 -1.4733  1.2375
 2290SOL    HW218333   4.170   4.306  16.473 -3.1690  2.5377 -0.9173
 2291SOL     OW18334   3.726   2.068   5.738  0.3721 -0.4098  0.2222
 2291SOL    HW118335   3.655   2.124   5.706 -0.4666 -1.6092 -0.0290
 2291SOL    HW218336   3.693   1.985   5.704  1.0907 -0.9743  0.9063
 2292SOL     OW18337   2.069   3.916  14.510 -0.3965 -0.6176 -0.0925
 2292SOL    HW118338   2.074   3.874  14.424 -3.7431  0.7388 -0.9758
 2292SOL    HW218339   2.018   3.994  14.491  0.9792 -0.1134 -1.7238
 2293SOL     OW18340   3.170   3.573   5.002  0.4787  0.0480  0.4366
 2293SOL    HW118341   3.138   3.538   4.919  1.1527 -0.5172  0.4107
 2293SOL    HW218342   3.265   3.571   4.988  0.7899 -0.8727  2.7023
 2294SOL     OW18343   1.965   4.001  15.403 -0.0101 -0.3549  0.2043
 2294SOL    HW118344   2.016   3.987  15.484  4.0404 -0.8119 -2.4179
 2294SOL    HW218345   2.003   3.930  15.353  0.5126  1.3237 -1.7819
 2295SOL     OW18346   1.008   1.557   0.976 -0.4377  0.4382  0.3079
 2295SOL    HW118347   0.973   1.555   1.065 -0.3546  0.2104  0.3346
 2295SOL    HW218348   1.094   1.596   0.987  1.1651 -3.5746  1.8708
 2296SOL     OW18349   4.574   1.475   2.621  0.1269  1.4424 -0.3656
 2296SOL    HW118350   4.576   1.571   2.624 -0.0069  1.5335 -4.0857
 2296SOL    HW218351   4.621   1.449   2.700  0.5513  0.9311 -0.7905
 2297SOL     OW18352   1.235   3.295  16.648 -0.1413  0.2857 -0.1339
 2297SOL    HW118353   1.277   3.209  16.652  1.0615  0.9063  0.5761
 2297SOL    HW218354   1.313   3.343  16.620 -1.4270  2.7663  0.5528
 2298SOL     OW18355   2.150   2.111   8.063  0.0864 -0.3764  0.2536
 2298SOL    HW118356   2.091   2.040   8.089 -2.2154  1.6573  0.4635
 2298SOL    HW218357   2.204   2.120   8.142  0.8480  0.0015 -0.3153
 2299SOL     OW18358   4.131   2.276   8.092 -0.5675  0.1098 -0.4056
 2299SOL    HW118359   4.207   2.218   8.085  0.2903  1.3530 -1.3719
 2299SOL    HW218360   4.086   2.247   8.172 -0.3072 -0.1229 -0.3442
 2300SOL     OW18361   0.954   2.611   4.164 -0.1079  0.1043  0.0347
 2300SOL    HW118362   0.910   2.654   4.237  1.9737  0.7439  0.9126
 2300SOL    HW218363   0.886   2.546   4.147  0.1560 -0.4593  1.1825
 2301SOL     OW18364   3.905   1.685   4.551  0.1645 -0.3084  0.2944
 2301SOL    HW118365   4.001   1.678   4.546  0.0912 -0.4291 -0.8306
 2301SOL    HW218366   3.883   1.594   4.531  1.3224 -0.5383  0.0617
 2302SOL     OW18367   3.896   2.312   7.958  0.1484  0.1928 -0.0368
 2302SOL    HW118368   3.982   2.271   7.963  0.4826  0.9599  0.6292
 2302SOL    HW218369   3.869   2.326   8.049 -0.8491  4.0057 -0.9116
 2303SOL     OW18370   1.554   1.335   3.175  0.4168 -0.3543  0.3848
 2303SOL    HW118371   1.569   1.319   3.269  0.8258  0.9557  0.5399
 2303SOL    HW218372   1.570   1.429   3.171 -0.3544 -0.1615  1.9866
 2304SOL     OW18373   0.551   4.119  12.454 -0.3960 -0.7197  0.1801
 2304SOL    HW118374   0.534   4.194  12.397 -0.4348 -0.8047  0.0816
 2304SOL    HW218375   0.638   4.138  12.490 -0.4954 -0.0050  0.0424
 2305SOL     OW18376   4.068   2.217  11.903  0.0754 -0.0894  0.8202
 2305SOL    HW118377   4.133   2.148  11.917 -1.3446 -1.4936  0.4764
 2305SOL    HW218378   4.134   2.286  11.896 -1.4105  1.0802 -1.4743
 2306SOL     OW18379   4.016   0.908   3.904  0.1355 -0.7220  0.3374
 2306SOL    HW118380   3.965   0.939   3.979 -1.4231 -1.9044 -0.2302
 2306SOL    HW218381   4.050   0.990   3.868  1.1505 -1.2419  0.1121
 2307SOL     OW18382   1.059   1.447   3.999 -0.0002 -0.1067 -0.2128
 2307SOL    HW118383   1.116   1.371   4.011 -2.5397 -2.4633 -2.7726
 2307SOL    HW218384   1.061   1.501   4.078 -0.7736  0.0566 -0.3028
 2308SOL     OW18385   3.279   0.658   8.259  0.5197  0.3113  0.6064
 2308SOL    HW118386   3.229   0.739   8.252  0.6223  0.2912 -0.3503
 2308SOL    HW218387   3.284   0.649   8.354 -0.5333 -0.2238  0.6151
 2309SOL     OW18388   0.038   2.837  11.510  0.2153  0.6692 -0.3160
 2309SOL    HW118389   4.698   2.780  11.462 -0.2639  0.6043  0.3732
 2309SOL    HW218390   0.004   2.921  11.480 -1.9621 -1.2956 -3.2984
 2310SOL     OW18391   2.024   0.183   3.343  0.4179 -0.0357 -0.2638
 2310SOL    HW118392   2.091   0.231   3.294  0.0311 -1.2558 -1.9833
 2310SOL    HW218393   1.961   0.151   3.279  0.8781 -0.4012 -0.5421
 2311SOL     OW18394   0.290   2.112  16.217  0.9296  0.0265 -0.4051
 2311SOL    HW118395   0.300   2.204  16.194  0.0643  0.7330  2.0367
 2311SOL    HW218396   0.196   2.097  16.214  0.7427  1.3428 -1.0200
 2312SOL     OW18397   3.657   2.271   0.429 -0.4094 -0.1719  0.3004
 2312SOL    HW118398   3.700   2.352   0.403  1.5546 -0.6303  2.1013
 2312SOL    HW218399   3.691   2.204   0.369 -1.3204 -0.9065  0.6079
 2313SOL     OW18400   1.883   2.269   6.512 -0.3706 -0.2289  0.5841
 2313SOL    HW118401   1.940   2.331   6.466 -1.1506  1.2098  1.5703
 2313SOL    HW218402   1.953   2.207   6.533  1.5417  1.3700 -0.9704
 2314SOL     OW18403   3.570   2.526  13.215 -0.4102 -0.0877  0.3418
 2314SOL    HW118404   3.501   2.592  13.201 -1.2278 -1.0161 -0.0040
 2314SOL    HW218405   3.620   2.554  13.291  0.7031 -1.1158 -0.0223
 2315SOL     OW18406   3.246   2.821   7.931 -0.6693 -0.1521 -0.3482
 2315SOL    HW118407   3.293   2.797   8.010 -0.2707  0.1592 -0.4906
 2315SOL    HW218408   3.312   2.791   7.869 -0.6481 -3.2125  1.1727
 2316SOL     OW18409   0.846   4.229   6.286 -0.2638  0.6217 -0.3897
 2316SOL    HW118410   0.816   4.183   6.207 -1.8554  0.6225  0.2158
 2316SOL    HW218411   0.934   4.193   6.291 -0.7218 -0.4825 -0.1569
 2317SOL     OW18412   2.264   2.072   4.908 -0.0771 -0.4144 -0.1661
 2317SOL    HW118413   2.291   2.092   4.997  0.6882 -1.8141 -0.0850
 2317SOL    HW218414   2.196   2.138   4.894  0.0980 -0.8083 -2.9197
 2318SOL     OW18415   4.361   0.809   1.338 -0.2290 -0.1128 -0.2046
 2318SOL    HW118416   4.454   0.811   1.359 -0.2254 -0.3851 -0.1990
 2318SOL    HW218417   4.372   0.844   1.249 -0.2244  0.7313  0.1256
 2319SOL     OW18418   4.519   0.555   1.573  0.0644 -0.5024 -0.1341
 2319SOL    HW118419   4.446   0.578   1.630  0.2888  0.0849 -0.0811
 2319SOL    HW218420   4.581   0.625   1.591 -0.1189 -0.7329  1.3446
 2320SOL     OW18421   1.908   2.102   7.310  0.3393 -0.7850 -0.5868
 2320SOL    HW118422   1.981   2.138   7.259  1.5308 -2.1457  0.1385
 2320SOL    HW218423   1.876   2.030   7.257  1.5610 -3.1581  1.8680
 2321SOL     OW18424   0.412   2.770   4.489  0.4965 -0.1733 -0.3472
 2321SOL    HW118425   0.453   2.849   4.524 -0.8912  0.9168 -1.2093
 2321SOL    HW218426   0.473   2.714   4.538 -0.1546  0.6934  1.4477
 2322SOL     OW18427   2.559   0.999   2.475 -0.2518  0.4800 -0.0103
 2322SOL    HW118428   2.625   1.016   2.542  1.0581 -0.7263 -0.9968
 2322SOL    HW218429   2.480   1.010   2.528 -0.3948  0.8739 -0.3035
 2323SOL     OW18430   2.736   2.065   6.625  0.4806 -0.0018 -0.3868
 2323SOL    HW118431   2.825   2.053   6.592  0.3693 -4.1529  0.8988
 2323SOL    HW218432   2.718   1.989   6.681 -0.5007 -0.5846 -1.5038
 2324SOL     OW18433   2.636   4.168   3.733 -0.0030 -0.3817 -0.0910
 2324SOL    HW118434   2.631   4.073   3.742  0.2193 -0.4340 -0.4948
 2324SOL    HW218435   2.713   4.175   3.676  0.9117  3.3591  1.6481
 2325SOL     OW18436   0.232   1.625   2.587 -0.1814 -0.4982 -0.5945
 2325SOL    HW118437   0.250   1.615   2.680 -0.1609 -0.8840 -0.6406
 2325SOL    HW218438   0.153   1.572   2.576 -0.1433 -0.8249  0.7868
 2326SOL     OW18439   1.867   1.894   5.989  0.0981 -0.2654  0.8075
 2326SOL    HW118440   1.844   1.985   6.008  0.4554 -0.0620  0.2624
 2326SOL    HW218441   1.935   1.900   5.922  1.1251  0.2726  1.9189
 2327SOL     OW18442   3.768   3.850   5.514 -0.5869  0.1320  0.0121
 2327SOL    HW118443   3.726   3.778   5.561 -0.3704 -1.0062 -1.5491
 2327SOL    HW218444   3.849   3.848   5.565 -1.6473 -1.9521  1.6174
 2328SOL     OW18445   1.616   3.395   8.529  0.1472 -0.4723 -0.4392
 2328SOL    HW118446   1.621   3.486   8.500 -0.7797 -0.0984  0.5967
 2328SOL    HW218447   1.640   3.352   8.447 -0.0823  0.8807 -1.2004
 2329SOL     OW18448   4.258   3.171   5.576  0.1443  0.1068 -0.2031
 2329SOL    HW118449   4.292   3.089   5.541  1.3083 -0.0853  1.4045
 2329SOL    HW218450   4.341   3.218   5.564  0.7772 -1.0597 -0.3390
 2330SOL     OW18451   1.506   2.030   5.898  0.4655 -0.2671  0.0858
 2330SOL    HW118452   1.467   2.107   5.857 -0.8149 -1.6567 -1.3138
 2330SOL    HW218453   1.547   1.997   5.818  0.5246 -0.5533  0.2324
 2331SOL     OW18454   0.368   3.405   7.018  0.6465  0.4590  0.4012
 2331SOL    HW118455   0.357   3.333   6.956  1.8061 -0.2557  1.0262
 2331SOL    HW218456   0.375   3.354   7.099 -2.3566  0.4484  0.6453
 2332SOL     OW18457   1.202   0.381  11.761 -0.0001 -0.2236  0.3716
 2332SOL    HW118458   1.178   0.471  11.783 -1.9771 -1.1240  1.9598
 2332SOL    HW218459   1.137   0.326  11.807  1.2788 -1.1631  1.0548
 2333SOL     OW18460   0.157   4.391   1.332  0.4946  0.1273 -0.2954
 2333SOL    HW118461   0.073   4.401   1.377  1.5524 -0.8322  1.8845
 2333SOL    HW218462   0.160   4.303   1.293  0.3560 -0.9710  2.1587
 2334SOL     OW18463   1.173   0.403   2.475 -0.3111  0.5076 -0.2407
 2334SOL    HW118464   1.161   0.316   2.513  1.5329  0.2859 -0.1777
 2334SOL    HW218465   1.117   0.386   2.399 -1.2918 -2.7064  1.1659
 2335SOL     OW18466   4.459   0.801   5.210 -0.4609 -0.1886  0.0036
 2335SOL    HW118467   4.400   0.799   5.285 -2.9734  2.1918 -1.8820
 2335SOL    HW218468   4.542   0.804   5.257 -2.0614 -0.3615  2.8480
 2336SOL     OW18469   0.674   2.168   8.691 -0.0802 -0.0560 -0.6221
 2336SOL    HW118470   0.581   2.153   8.673  0.1632 -1.8273 -0.4568
 2336SOL    HW218471   0.712   2.080   8.688 -2.0759 -0.8515 -1.9175
 2337SOL     OW18472   3.417   2.652   9.791 -0.0525  0.0520  0.0580
 2337SOL    HW118473   3.422   2.649   9.886  2.4074  3.8022  0.0845
 2337SOL    HW218474   3.494   2.701   9.759 -0.1270  1.9545  2.7791
 2338SOL     OW18475   3.534   1.417  13.177  0.1862  0.1491 -0.6533
 2338SOL    HW118476   3.574   1.490  13.223 -1.3786  1.5831 -1.5878
 2338SOL    HW218477   3.446   1.427  13.214  0.3950  0.0867 -0.1439
 2339SOL     OW18478   1.627   0.636   3.686  0.2043 -0.5438  0.5772
 2339SOL    HW118479   1.717   0.616   3.712  0.6127 -1.4620 -1.5933
 2339SOL    HW218480   1.631   0.602   3.597 -1.1216 -0.0021  0.2989
 2340SOL     OW18481   1.700   2.591  10.483  0.4620  0.6649 -0.2996
 2340SOL    HW118482   1.645   2.658  10.443  1.8066  0.9096 -1.7427
 2340SOL    HW218483   1.650   2.516  10.450 -0.0669 -0.4578  2.9971
 2341SOL     OW18484   0.606   1.819   8.581  0.0247 -0.5985  0.4775
 2341SOL    HW118485   0.665   1.859   8.645 -0.0914  2.0485 -1.0266
 2341SOL    HW218486   0.545   1.778   8.642 -0.1842 -0.4883  0.3424
 2342SOL     OW18487   3.539   3.795   1.877  0.3998  0.0818 -0.7756
 2342SOL    HW118488   3.581   3.860   1.821  1.8796 -0.9875 -0.8915
 2342SOL    HW218489   3.539   3.718   1.820 -1.1875  0.4429 -1.2744
 2343SOL     OW18490   3.847   1.553  10.593 -0.8639 -0.0793 -0.2709
 2343SOL    HW118491   3.789   1.481  10.570  0.3190 -0.1476 -3.1849
 2343SOL    HW218492   3.797   1.593  10.663 -1.1598 -0.9210 -0.0087
 2344SOL     OW18493   2.199   2.821  11.440  0.4692 -0.1486  0.4508
 2344SOL    HW118494   2.198   2.796  11.532  0.1209 -1.5276  0.0744
 2344SOL    HW218495   2.289   2.831  11.410 -0.1105  0.0102 -1.2528
 2345SOL     OW18496   4.354   0.075  12.014  0.0986 -0.1825 -0.2720
 2345SOL    HW118497   4.388   0.036  11.934 -2.7946  1.0313 -2.0629
 2345SOL    HW218498   4.408   0.038  12.084  2.9384  1.9974 -1.3026
 2346SOL     OW18499   2.409   3.709  15.313  0.1006 -0.1236 -0.5605
 2346SOL    HW118500   2.402   3.753  15.397  1.9575  0.8155 -0.8955
 2346SOL    HW218501   2.391   3.785  15.257 -0.2981  0.8019  0.8206
 2347SOL     OW18502   1.173   3.478  16.268  0.1672  0.6421 -0.3990
 2347SOL    HW118503   1.252   3.431  16.246  0.2068  0.6420 -0.2597
 2347SOL    HW218504   1.209   3.516  16.349  0.9518  2.7288 -1.7093
 2348SOL     OW18505   1.189   2.567   9.438  0.0048 -0.4256  0.1521
 2348SOL    HW118506   1.265   2.509   9.440 -0.4759 -1.1343 -2.1718
 2348SOL    HW218507   1.123   2.518   9.488 -0.4668 -1.0935 -1.1400
 2349SOL     OW18508   2.600   3.147   7.582 -0.1935  0.6360  1.0179
 2349SOL    HW118509   2.652   3.200   7.643 -1.5476  2.3262  0.7009
 2349SOL    HW218510   2.587   3.075   7.644  0.6929  1.3838  2.0630
 2350SOL     OW18511   3.224   3.098   6.915  1.2131  0.1498 -0.1101
 2350SOL    HW118512   3.190   3.113   7.004  2.1063  0.7056  0.1319
 2350SOL    HW218513   3.199   3.007   6.897  1.0053  0.7585 -2.8442
 2351SOL     OW18514   4.701   1.146  12.525 -0.7346  0.1651  0.2009
 2351SOL    HW118515   0.034   1.075  12.559 -1.6816 -0.2120  0.9175
 2351SOL    HW218516   4.718   1.218  12.585 -0.3615  1.0995 -1.0217
 2352SOL     OW18517   3.452   3.665   9.444 -0.7705  0.3321 -0.0257
 2352SOL    HW118518   3.512   3.737   9.463 -1.9637  1.1101  0.7638
 2352SOL    HW218519   3.435   3.634   9.532  0.9853 -1.4105 -0.3081
 2353SOL     OW18520   3.501   2.928   1.742 -0.0678  0.2434  0.1174
 2353SOL    HW118521   3.537   2.840   1.733  0.9890  0.6923 -0.0881
 2353SOL    HW218522   3.538   2.943   1.829 -1.2995  3.8374  0.0380
 2354SOL     OW18523   0.403   3.109   3.856  0.2927  0.9188 -0.1675
 2354SOL    HW118524   0.477   3.070   3.811  0.2685  0.6629  0.0124
 2354SOL    HW218525   0.335   3.093   3.790  1.2296  0.2766 -0.9605
 2355SOL     OW18526   0.867   3.700   9.144  0.2048  0.1289 -0.4312
 2355SOL    HW118527   0.897   3.731   9.230  0.4338 -3.0816  0.6358
 2355SOL    HW218528   0.804   3.630   9.160 -1.8382  2.2127  0.6335
 2356SOL     OW18529   3.966   4.691   8.338  0.1385  0.1284  0.7703
 2356SOL    HW118530   4.041   0.000   8.390  0.9064  0.6297 -0.6257
 2356SOL    HW218531   3.904   4.663   8.405 -2.6620  1.0033 -1.4442
 2357SOL     OW18532   0.403   0.835   4.767  0.3248  0.3604  0.2205
 2357SOL    HW118533   0.413   0.873   4.854  0.5495 -2.2420  1.3022
 2357SOL    HW218534   0.497   0.829   4.748  0.1724 -1.8921  0.1893
 2358SOL     OW18535   2.052   2.790   5.158 -0.2144 -0.0357  0.1074
 2358SOL    HW118536   2.080   2.736   5.085 -0.5174  0.7296 -0.5834
 2358SOL    HW218537   2.114   2.764   5.226 -0.5428  1.0518  0.8249
 2359SOL     OW18538   3.740   3.255   4.667  0.5720  0.2199  0.3534
 2359SOL    HW118539   3.730   3.290   4.579  0.2620 -2.8293 -0.8176
 2359SOL    HW218540   3.703   3.318   4.729  0.7728 -1.0283  1.7556
 2360SOL     OW18541   1.293   2.190  14.643 -0.0625 -0.0540  0.1528
 2360SOL    HW118542   1.350   2.139  14.585  1.3807  0.5117  1.0934
 2360SOL    HW218543   1.302   2.272  14.594 -0.6008 -1.0681 -1.6756
 2361SOL     OW18544   4.442   2.528   4.978  0.4529  0.3245 -0.0303
 2361SOL    HW118545   4.381   2.595   4.947  0.4203  0.1558 -0.3362
 2361SOL    HW218546   4.523   2.576   4.995 -0.2599  2.0151 -1.3549
 2362SOL     OW18547   4.157   4.388   2.676 -0.2536 -0.1850 -0.7405
 2362SOL    HW118548   4.241   4.349   2.650  0.3051  0.0930  0.6207
 2362SOL    HW218549   4.165   4.379   2.771 -0.0534  2.5926 -0.4995
 2363SOL     OW18550   0.045   2.740   4.279  0.3511 -0.1806 -0.0757
 2363SOL    HW118551   0.025   2.685   4.355  0.5750 -0.8467 -0.5025
 2363SOL    HW218552   0.124   2.694   4.251  0.5932 -0.4198  0.9994
 2364SOL     OW18553   2.119   4.524   3.646 -0.2973  0.1471 -0.1466
 2364SOL    HW118554   2.154   4.563   3.726 -1.9021  0.9798  0.1420
 2364SOL    HW218555   2.078   4.598   3.602 -0.9662 -1.8553 -2.8865
 2365SOL     OW18556   2.578   3.918   3.817 -0.1197 -0.1858 -0.2717
 2365SOL    HW118557   2.518   3.940   3.888 -1.2639  0.1334 -1.3389
 2365SOL    HW218558   2.631   3.850   3.860  1.8950  1.7489  0.2930
 2366SOL     OW18559   1.109   3.181   4.830  0.5942 -0.4967  0.5709
 2366SOL    HW118560   1.118   3.240   4.904 -0.1753 -1.2233  1.2529
 2366SOL    HW218561   1.175   3.209   4.767 -0.6930 -0.9762 -1.0060
 2367SOL     OW18562   1.058   2.500  15.500  0.1966  0.4657  0.4382
 2367SOL    HW118563   1.108   2.568  15.456 -0.9159  0.4958 -0.7935
 2367SOL    HW218564   1.131   2.448  15.535 -1.9883 -1.5118  2.0522
 2368SOL     OW18565   2.576   2.721   4.810 -0.0741  0.8480 -0.6276
 2368SOL    HW118566   2.670   2.726   4.794  0.4411 -0.2403  2.0610
 2368SOL    HW218567   2.579   2.706   4.904  0.5895  0.9385 -0.6365
 2369SOL     OW18568   0.926   0.078   2.366  0.2454 -0.8468 -0.3562
 2369SOL    HW118569   0.947   0.023   2.290 -1.6816 -1.1855 -0.6414
 2369SOL    HW218570   0.980   0.156   2.356 -0.8996  0.1293  1.3186
 2370SOL     OW18571   2.300   3.835  15.050 -0.6056 -0.9621 -0.0005
 2370SOL    HW118572   2.274   3.869  14.964  0.6129 -0.9503 -0.3702
 2370SOL    HW218573   2.328   3.745  15.032  0.5271 -0.5840 -0.1269
 2371SOL     OW18574   1.028   3.909   4.207  0.2224 -0.2633 -0.0001
 2371SOL    HW118575   1.059   3.962   4.280  1.1939  1.9207 -1.9728
 2371SOL    HW218576   1.016   3.824   4.249 -0.7774  0.1345  0.5083
 2372SOL     OW18577   4.086   3.246   2.614 -0.4720 -0.5001 -0.2754
 2372SOL    HW118578   4.019   3.181   2.591  2.0858 -3.4444  0.5142
 2372SOL    HW218579   4.144   3.194   2.669  1.1942  1.7038  0.0445
 2373SOL     OW18580   2.833   2.322   0.826  0.5414 -0.0731  0.2644
 2373SOL    HW118581   2.901   2.258   0.848  0.1840 -0.3415  0.6023
 2373SOL    HW218582   2.865   2.379   0.757  1.2061 -0.5018  0.2198
 2374SOL     OW18583   3.071   1.263   6.100  0.8277 -0.4358 -0.1274
 2374SOL    HW118584   3.039   1.294   6.015  0.5915  1.5280  0.6859
 2374SOL    HW218585   3.126   1.191   6.070  1.9013  0.5545 -0.5001
 2375SOL     OW18586   1.635   4.656   8.361  0.3371  0.2369 -0.9692
 2375SOL    HW118587   1.659   0.009   8.305  1.6889 -1.4965 -2.6635
 2375SOL    HW218588   1.596   4.600   8.294  1.3093  1.4742 -2.5533
 2376SOL     OW18589   1.904   1.252   1.892 -0.0038  0.1527 -0.3802
 2376SOL    HW118590   1.886   1.331   1.943 -1.1388 -0.1903 -0.2521
 2376SOL    HW218591   1.845   1.264   1.818  0.0647  2.0191 -0.1176
 2377SOL     OW18592   3.395   2.481  17.267 -0.5625  0.1871 -0.2474
 2377SOL    HW118593   3.462   2.413  17.258  0.9457  1.5397  0.6808
 2377SOL    HW218594   3.434   2.561  17.233 -0.4763  0.6593  0.9516
 2378SOL     OW18595   1.031   0.887  17.341  0.2299  0.3868  0.7382
 2378SOL    HW118596   1.057   0.978  17.359  2.1131 -0.3586  1.6805
 2378SOL    HW218597   1.021   0.893  17.246  2.5234 -3.7112  0.2497
 2379SOL     OW18598   3.668   0.762   1.969 -0.6576 -0.3856 -0.9402
 2379SOL    HW118599   3.711   0.843   1.995 -0.4121  0.0233 -2.6198
 2379SOL    HW218600   3.749   0.711   1.963 -1.4091 -1.6390 -0.4666
 2380SOL     OW18601   0.909   1.782  12.146 -0.2008  0.4656 -1.0319
 2380SOL    HW118602   0.888   1.834  12.069  1.7842 -0.9478 -2.5465
 2380SOL    HW218603   0.831   1.808  12.194  0.3852  1.7904 -0.8079
 2381SOL     OW18604   4.681   4.078   3.331 -0.1488 -0.7097 -0.3026
 2381SOL    HW118605   4.700   4.171   3.317 -2.9303  0.2091  1.8985
 2381SOL    HW218606   4.585   4.076   3.323 -0.2267  0.0080  0.4229
 2382SOL     OW18607   1.790   1.685   4.054  0.0113 -0.3296  0.4481
 2382SOL    HW118608   1.816   1.747   4.122  2.2067 -0.6817 -0.0717
 2382SOL    HW218609   1.695   1.684   4.068 -0.1206 -1.0999 -0.4496
 2383SOL     OW18610   3.932   3.043   9.384 -0.4029  0.5054 -0.4445
 2383SOL    HW118611   3.898   2.955   9.373  0.0929 -0.0838  2.6183
 2383SOL    HW218612   4.025   3.029   9.367 -0.8699 -3.0309  0.0500
 2384SOL     OW18613   0.428   0.550   8.202  0.7247 -0.3601 -0.2722
 2384SOL    HW118614   0.460   0.472   8.248  2.8513  0.1892 -0.7880
 2384SOL    HW218615   0.461   0.530   8.115 -1.1826 -1.3639 -0.7410
 2385SOL     OW18616   3.834   1.862   9.398 -0.0204 -0.7917  0.1082
 2385SOL    HW118617   3.758   1.886   9.346 -1.4728  0.9893  3.0605
 2385SOL    HW218618   3.885   1.941   9.382 -0.2307 -0.3494  1.5421
 2386SOL     OW18619   0.132   2.661   2.382 -0.2748 -0.1578  0.0111
 2386SOL    HW118620   0.059   2.691   2.329 -0.5304 -2.1127 -0.7540
 2386SOL    HW218621   0.100   2.582   2.427 -0.7522 -0.2090 -0.4243
 2387SOL     OW18622   2.727   4.206   9.519  0.1716 -0.2136 -0.0342
 2387SOL    HW118623   2.786   4.282   9.521  0.8261 -0.7653  1.6557
 2387SOL    HW218624   2.705   4.181   9.429  0.7830  0.4996 -0.3859
 2388SOL     OW18625   2.231   4.199  14.470 -0.1842 -0.1014 -0.5061
 2388SOL    HW118626   2.235   4.269  14.536 -2.0723  0.8010 -1.3198
 2388SOL    HW218627   2.137   4.181  14.460  0.3711 -1.9262 -2.3466
 2389SOL     OW18628   2.079   3.517   0.560  0.0239 -0.5911  0.3199
 2389SOL    HW118629   2.108   3.608   0.568 -0.9261 -0.2551  0.0815
 2389SOL    HW218630   2.027   3.520   0.480  0.6815  1.1991 -0.0438
 2390SOL     OW18631   4.583   1.404  15.014 -0.2483 -0.3657 -0.1085
 2390SOL    HW118632   4.616   1.410  14.925  0.9425 -0.3954  0.3196
 2390SOL    HW218633   4.493   1.376  15.002 -0.3109 -0.6080  0.8683
 2391SOL     OW18634   4.427   1.911   8.627  0.0165 -0.0622  0.0874
 2391SOL    HW118635   4.385   1.927   8.542 -0.5864 -0.4904  0.3051
 2391SOL    HW218636   4.377   1.971   8.682  1.1311  1.6554 -0.7663
 2392SOL     OW18637   3.258   4.639   1.245 -0.2063  0.0082  0.7696
 2392SOL    HW118638   3.302   4.699   1.305 -0.4544 -0.1682  1.1334
 2392SOL    HW218639   3.212   4.695   1.182  0.5405 -1.1977 -0.8346
 2393SOL     OW18640   2.466   4.463   0.631 -0.2095 -0.2371 -0.5824
 2393SOL    HW118641   2.537   4.411   0.592 -0.4987 -1.3545  0.3596
 2393SOL    HW218642   2.482   4.549   0.593  1.1834 -1.1800 -2.1416
 2394SOL     OW18643   2.708   3.356   2.813  0.4115 -0.5645  0.4076
 2394SOL    HW118644   2.635   3.369   2.873  0.6797  3.2977 -0.0601
 2394SOL    HW218645   2.692   3.433   2.759 -1.5096 -1.8019 -0.7915
 2395SOL     OW18646   1.349   0.805   3.083  0.1762 -0.1197  0.0092
 2395SOL    HW118647   1.386   0.813   3.171  1.1780 -1.1370 -0.3149
 2395SOL    HW218648   1.291   0.735   3.113 -0.9495 -0.4391 -2.9304
 2396SOL     OW18649   0.282   0.305   9.803 -0.0077  0.6196 -0.6241
 2396SOL    HW118650   0.283   0.380   9.863  1.6311 -0.7608  1.0513
 2396SOL    HW218651   0.336   0.245   9.855  0.2081 -0.8865 -2.5864
 2397SOL     OW18652   1.240   4.585  13.558  0.1780  0.3487  0.5293
 2397SOL    HW118653   1.159   4.614  13.516  0.4305  1.3196  0.7239
 2397SOL    HW218654   1.294   4.658  13.587  1.4544  0.2269 -1.5325
 2398SOL     OW18655   3.319   0.817   2.215  0.1950  0.1903 -0.3620
 2398SOL    HW118656   3.262   0.784   2.146 -1.1645  0.3933  0.6540
 2398SOL    HW218657   3.321   0.746   2.279  1.6954  0.7339  0.1953
 2399SOL     OW18658   2.301   3.608   4.617  0.3948  0.3791  0.1678
 2399SOL    HW118659   2.217   3.566   4.600 -1.2247  2.5194  2.9389
 2399SOL    HW218660   2.360   3.534   4.623 -0.3269  0.0508  2.9345
 2400SOL     OW18661   4.632   3.797   8.253  0.0818  0.6998 -0.2108
 2400SOL    HW118662   4.637   3.702   8.263 -1.3811  0.4446 -1.8301
 2400SOL    HW218663   4.538   3.804   8.236  0.0126  0.7610  0.1791
 2401SOL     OW18664   0.994   0.810  11.251  0.6722  0.0350 -0.2857
 2401SOL    HW118665   0.959   0.861  11.179 -0.8698 -0.9625 -0.2460
 2401SOL    HW218666   0.986   0.869  11.326  0.8201  1.8061 -1.6756
 2402SOL     OW18667   4.395   3.964  15.820 -0.0700 -0.2221  0.8693
 2402SOL    HW118668   4.485   3.958  15.852  0.1991  0.2289  0.1932
 2402SOL    HW218669   4.360   3.891  15.872  0.5522 -0.0385  1.5485
 2403SOL     OW18670   0.419   4.357   7.078  0.8570  0.2451  0.3251
 2403SOL    HW118671   0.346   4.397   7.127 -0.1443 -0.5370 -0.5378
 2403SOL    HW218672   0.480   4.383   7.147  1.6988  0.3094 -0.4542
 2404SOL     OW18673   0.141   2.763  12.455  0.2749 -0.2676 -0.3288
 2404SOL    HW118674   0.136   2.805  12.369 -0.9079 -0.1097 -0.1885
 2404SOL    HW218675   0.222   2.802  12.489  0.6363 -0.6013 -0.8044
 2405SOL     OW18676   1.087   2.707   6.448  0.0633  0.0756 -0.0402
 2405SOL    HW118677   1.021   2.721   6.517 -0.0862  0.6930 -0.3086
 2405SOL    HW218678   1.134   2.791   6.453 -0.6955  0.6204 -2.3276
 2406SOL     OW18679   1.427   0.449   4.813  0.1302  0.2526  0.5544
 2406SOL    HW118680   1.422   0.396   4.734  0.3135  0.0316  0.6896
 2406SOL    HW218681   1.511   0.489   4.792  0.3371 -0.5844 -0.2116
 2407SOL     OW18682   3.950   3.333   5.922  0.0437 -0.3809  0.1071
 2407SOL    HW118683   3.989   3.353   6.007  1.8097 -0.2420 -0.7243
 2407SOL    HW218684   4.026   3.333   5.864  1.4266 -1.1072  1.9431
 2408SOL     OW18685   3.617   3.604   1.655  0.0669  0.2108  0.9867
 2408SOL    HW118686   3.695   3.599   1.710  0.6811  1.5410  0.2521
 2408SOL    HW218687   3.632   3.687   1.609  1.1881 -1.6396 -2.0540
 2409SOL     OW18688   0.946   0.838   7.873  0.5614  0.6366 -0.0259
 2409SOL    HW118689   0.940   0.904   7.804 -0.7237  0.2300 -0.3019
 2409SOL    HW218690   1.017   0.870   7.930  0.4871 -0.6906  0.8173
 2410SOL     OW18691   2.359   3.902  11.260 -0.1628  0.7011  0.1026
 2410SOL    HW118692   2.362   3.821  11.310 -0.4753 -0.1284 -1.2141
 2410SOL    HW218693   2.444   3.899  11.215 -0.4919 -2.0407 -0.3092
 2411SOL     OW18694   3.027   1.518   6.231 -0.3007 -0.5729 -0.5857
 2411SOL    HW118695   3.016   1.449   6.165  2.1140  0.7195 -2.3416
 2411SOL    HW218696   3.121   1.534   6.238 -0.7284  1.5258  0.5045
 2412SOL     OW18697   2.830   3.578   5.475 -0.1244  0.1147 -0.0518
 2412SOL    HW118698   2.783   3.540   5.401 -1.0211  1.3891 -0.1436
 2412SOL    HW218699   2.887   3.643   5.433  0.0066  1.1663  1.7854
 2413SOL     OW18700   2.667   1.886   4.425  0.7387  0.6625  0.4017
 2413SOL    HW118701   2.664   1.961   4.485 -0.0033 -0.0938  1.3061
 2413SOL    HW218702   2.653   1.923   4.338 -1.9997 -1.5377 -0.0996
 2414SOL     OW18703   0.076   1.589   4.852 -0.0722 -1.1630  0.3343
 2414SOL    HW118704   0.023   1.537   4.792 -0.4005 -0.5515  0.0834
 2414SOL    HW218705   0.093   1.525   4.920  3.9039  1.0817  1.4400
 2415SOL     OW18706   3.660   4.647   8.108 -0.6125  0.3572 -0.0616
 2415SOL    HW118707   3.750   4.615   8.096 -0.8660  0.1617 -1.3762
 2415SOL    HW218708   3.611   4.568   8.130  0.3446  0.0984  1.1544
 2416SOL     OW18709   2.287   1.921   4.185  0.0477 -0.1687 -0.2406
 2416SOL    HW118710   2.357   1.860   4.209  1.6464  1.4466 -0.7740
 2416SOL    HW218711   2.233   1.873   4.123  0.7035  0.0710 -1.0003
 2417SOL     OW18712   0.470   1.789  17.440  0.4841 -0.1147 -0.5497
 2417SOL    HW118713   0.457   1.873  17.485  0.2093 -0.7567  0.5783
 2417SOL    HW218714   0.523   1.814  17.365  0.9663  0.2628 -0.0890
 2418SOL     OW18715   1.601   2.931   6.513 -0.1687  0.3316  0.1513
 2418SOL    HW118716   1.536   2.966   6.453 -2.5106 -0.2563  2.3374
 2418SOL    HW218717   1.576   2.839   6.503 -0.1348  0.5079 -1.5350
 2419SOL     OW18718   4.650   2.350   7.136  0.5870  0.2415  0.3749
 2419SOL    HW118719   4.580   2.386   7.083  0.8105 -0.9158 -0.7252
 2419SOL    HW218720   4.669   2.261   7.105  1.6107  0.1091  1.3647
 2420SOL     OW18721   3.057   3.322  13.944 -0.2455  0.0630  0.3376
 2420SOL    HW118722   3.063   3.284  14.032 -2.1464  1.3602  1.0320
 2420SOL    HW218723   2.966   3.298  13.926 -0.2838 -0.1463  0.8028
 2421SOL     OW18724   2.537   0.329   8.621 -0.1147 -0.6787 -0.5346
 2421SOL    HW118725   2.608   0.369   8.571  0.9774 -1.8765  0.0431
 2421SOL    HW218726   2.545   0.360   8.711  0.5840  2.3915 -1.6599
 2422SOL     OW18727   4.394   0.043  15.611 -0.0098 -0.2555 -0.4354
 2422SOL    HW118728   4.488   0.032  15.601 -0.1060 -0.7742 -0.8060
 2422SOL    HW218729   4.380   4.686  15.665  0.3872  0.7020  1.0378
 2423SOL     OW18730   0.470   1.786   9.719  0.1352  0.2334 -1.0864
 2423SOL    HW118731   0.444   1.874   9.747  0.7691 -0.3385  1.3017
 2423SOL    HW218732   0.383   1.747   9.725  0.7264 -0.5819  1.9920
 2424SOL     OW18733   2.437   0.045   3.131  0.5303  0.4189 -0.2286
 2424SOL    HW118734   2.397   0.132   3.137  0.9081  0.5277  0.6774
 2424SOL    HW218735   2.450   0.004   3.216 -0.8217  1.2304  0.3743
 2425SOL     OW18736   1.362   1.489  17.475  0.1876  0.6632  0.2574
 2425SOL    HW118737   1.295   1.510  17.540  2.9924  2.8398  2.4352
 2425SOL    HW218738   1.301   1.486  17.401 -1.2648  0.6322  1.4364
 2426SOL     OW18739   0.512   0.405   6.293  0.1791  0.4306  0.2168
 2426SOL    HW118740   0.576   0.438   6.356 -0.1064  1.7492 -0.1942
 2426SOL    HW218741   0.560   0.333   6.252  2.8610  2.8575 -0.8741
 2427SOL     OW18742   1.178   1.001   3.909  0.5455  0.1660 -0.1104
 2427SOL    HW118743   1.134   0.923   3.944  0.8214  0.1937  0.3006
 2427SOL    HW218744   1.139   1.012   3.822  0.5981 -0.0438 -0.1604
 2428SOL     OW18745   1.902   3.662  13.317  0.3079  0.6826  0.6345
 2428SOL    HW118746   1.823   3.676  13.368 -0.5762 -1.9483 -0.0064
 2428SOL    HW218747   1.981   3.647  13.370  0.1772 -0.8760  0.3827
 2429SOL     OW18748   2.974   1.504   8.137  0.6462  0.0038 -0.2585
 2429SOL    HW118749   3.058   1.488   8.094 -0.2714 -0.4037 -1.8941
 2429SOL    HW218750   2.998   1.540   8.223 -0.2919  0.1806 -0.0711
 2430SOL     OW18751   2.190   1.889   7.506  0.4285 -0.3203  0.1838
 2430SOL    HW118752   2.222   1.807   7.470  1.2234  0.5926 -1.1767
 2430SOL    HW218753   2.174   1.932   7.422 -1.7798  0.8557  1.2150
 2431SOL     OW18754   1.194   0.914   0.536  0.6504  0.6668 -0.9405
 2431SOL    HW118755   1.107   0.873   0.540  0.5365  1.0399  0.3783
 2431SOL    HW218756   1.253   0.839   0.543 -1.4899 -1.0529 -1.1259
 2432SOL     OW18757   1.527   4.008   4.085  0.0014 -0.6976 -0.0482
 2432SOL    HW118758   1.459   3.948   4.054 -1.5066  0.4274  1.1192
 2432SOL    HW218759   1.503   3.999   4.177  1.1478  1.4105  0.4625
 2433SOL     OW18760   2.402   2.817   5.127 -0.5736  0.1978  0.0081
 2433SOL    HW118761   2.375   2.790   5.039  1.4129 -2.8320  0.3025
 2433SOL    HW218762   2.476   2.759   5.146 -1.5007 -1.2175 -0.6712
 2434SOL     OW18763   3.263   3.669   4.440 -0.2889 -0.2211 -0.0453
 2434SOL    HW118764   3.262   3.724   4.362 -2.0488  0.4165  0.4337
 2434SOL    HW218765   3.189   3.698   4.493 -1.4095 -1.2292 -1.0717
 2435SOL     OW18766   4.155   3.809   9.218  0.0892  0.4040 -0.4792
 2435SOL    HW118767   4.114   3.848   9.141 -0.7434  1.5545  0.5617
 2435SOL    HW218768   4.130   3.878   9.278 -0.7617  1.3154 -1.8821
 2436SOL     OW18769   1.159   1.173   2.912  0.4781  0.2165 -0.0428
 2436SOL    HW118770   1.165   1.083   2.880 -0.2203 -0.0543  0.5758
 2436SOL    HW218771   1.074   1.150   2.949  0.9793 -3.5762 -1.3112
 2437SOL     OW18772   0.486   4.333   8.428  0.3206  0.1719 -0.0116
 2437SOL    HW118773   0.562   4.379   8.463 -0.0779 -0.8951  2.2569
 2437SOL    HW218774   0.421   4.367   8.490  0.2430 -1.0341  0.5648
 2438SOL     OW18775   4.631   4.250   8.230 -0.3936  0.1065  0.7472
 2438SOL    HW118776   4.575   4.313   8.184 -0.4922  1.2875  2.4649
 2438SOL    HW218777   4.575   4.234   8.305  0.3545 -0.3786  1.1980
 2439SOL     OW18778   1.743   1.362   7.993 -0.7437 -0.2225  0.3638
 2439SOL    HW118779   1.819   1.409   7.960 -1.4253  0.4852 -0.1934
 2439SOL    HW218780   1.671   1.424   7.982  1.0449  1.2318 -3.0926
 2440SOL     OW18781   1.150   2.942   2.291  0.2021 -0.0169 -0.4927
 2440SOL    HW118782   1.112   2.921   2.376  0.2048 -1.2630 -0.7984
 2440SOL    HW218783   1.188   3.026   2.318 -0.0794 -0.8390  2.4853
 2441SOL     OW18784   0.810   0.269   4.905 -0.3101 -0.4185  0.6672
 2441SOL    HW118785   0.718   0.294   4.903 -0.0334  0.5958  0.8677
 2441SOL    HW218786   0.863   0.347   4.888  2.9523 -2.5125  1.1423
 2442SOL     OW18787   3.161   1.690   3.761 -0.3528 -0.4220  0.0155
 2442SOL    HW118788   3.078   1.698   3.714  0.6053  2.6724 -1.1499
 2442SOL    HW218789   3.183   1.783   3.760 -1.6916 -0.1369 -2.0949
 2443SOL     OW18790   2.432   0.702   2.670 -0.0012  0.4780  0.0634
 2443SOL    HW118791   2.427   0.738   2.582  0.5969 -0.5338 -0.3886
 2443SOL    HW218792   2.434   0.780   2.724 -2.1178  1.5939 -1.4629
 2444SOL     OW18793   0.029   1.754  16.014  0.6112 -0.6628 -0.2026
 2444SOL    HW118794   4.716   1.732  15.928  0.4858  1.5773 -0.7454
 2444SOL    HW218795   0.075   1.834  15.987 -1.8133  0.6709 -0.4440
 2445SOL     OW18796   1.605   0.503   3.167 -0.2802 -0.5213  0.5052
 2445SOL    HW118797   1.580   0.523   3.076  0.3426 -0.5274  0.3331
 2445SOL    HW218798   1.544   0.436   3.197  0.0663 -0.8844  0.4090
 2446SOL     OW18799   1.302   3.432   5.807  0.2461  0.3318  0.5653
 2446SOL    HW118800   1.387   3.395   5.830  1.2047  2.7363  0.9621
 2446SOL    HW218801   1.336   3.518   5.782  3.0997 -0.7054  0.8371
 2447SOL     OW18802   1.930   2.004   8.406  0.1285  0.0574 -0.1000
 2447SOL    HW118803   1.984   1.943   8.456 -0.0796  0.2295  0.3271
 2447SOL    HW218804   1.925   2.072   8.473  1.2455 -1.5353  1.5617
 2448SOL     OW18805   0.502   0.047   9.388  0.2335 -0.2148  0.2396
 2448SOL    HW118806   0.509   4.686   9.339  2.6765  1.1299 -1.6224
 2448SOL    HW218807   0.463   0.013   9.468 -2.4275  0.0469 -0.9282
 2449SOL     OW18808   2.143   3.344   5.577  0.3523  0.0047 -0.3124
 2449SOL    HW118809   2.183   3.257   5.578 -2.8005 -1.4410 -1.7453
 2449SOL    HW218810   2.223   3.396   5.568 -0.5338  1.5745  0.8702
 2450SOL     OW18811   3.776   3.845   8.129  0.1897  0.4447  0.6708
 2450SOL    HW118812   3.820   3.862   8.212 -1.1134 -0.3089  1.5056
 2450SOL    HW218813   3.788   3.753   8.106 -1.6433  0.8229 -1.8237
 2451SOL     OW18814   1.000   1.792   2.780  0.6707  0.5068  0.2184
 2451SOL    HW118815   0.994   1.746   2.696  2.2906 -1.8877  1.4211
 2451SOL    HW218816   0.960   1.876   2.755 -0.7830  0.4576  2.4395
 2452SOL     OW18817   2.262   3.175   5.315 -0.0782  0.1220  0.1508
 2452SOL    HW118818   2.342   3.124   5.325  0.6913  1.4193  0.5258
 2452SOL    HW218819   2.226   3.145   5.398  1.3736  0.6278  0.9533
 2453SOL     OW18820   2.881   3.268   5.270 -0.1671 -0.0695  0.0830
 2453SOL    HW118821   2.820   3.341   5.257 -0.8245 -0.2847  1.8778
 2453SOL    HW218822   2.834   3.200   5.221  1.2899 -0.7877 -0.3172
 2454SOL     OW18823   3.353   2.913   9.077  0.1593  0.1656  0.2430
 2454SOL    HW118824   3.412   2.887   9.007  2.3174  0.7880  1.8300
 2454SOL    HW218825   3.355   2.845   9.145  2.2200  1.5492  1.5335
 2455SOL     OW18826   3.927   2.051   4.981  0.6839 -0.5860 -0.5622
 2455SOL    HW118827   3.833   2.070   4.976  0.5185 -1.4530 -0.8774
 2455SOL    HW218828   3.954   2.063   4.890  3.3534 -4.3095 -0.2420
 2456SOL     OW18829   3.387   0.075   0.038 -0.2019 -1.2500  0.4564
 2456SOL    HW118830   3.307   0.129   0.039  0.8429  0.3320 -1.1426
 2456SOL    HW218831   3.358   4.709   0.064  1.6757 -1.3025  2.3550
 2457SOL     OW18832   1.502   2.591   4.591  0.1140 -0.0764  0.2205
 2457SOL    HW118833   1.458   2.561   4.512  2.2149 -1.0017 -0.5873
 2457SOL    HW218834   1.586   2.604   4.546  0.4656 -1.3374  0.5105
 2458SOL     OW18835   4.352   0.891  11.963  0.2620 -0.6040  0.3594
 2458SOL    HW118836   4.280   0.848  12.008 -2.3787  0.9840 -2.3147
 2458SOL    HW218837   4.324   0.983  11.960 -3.3589 -1.7124 -0.4525
 2459SOL     OW18838   1.023   3.931   5.267 -0.3097  0.5403  0.2559
 2459SOL    HW118839   0.979   4.016   5.261 -1.6239 -0.0499  1.5046
 2459SOL    HW218840   1.114   3.948   5.291 -1.0991  1.0249  2.8291
 2460SOL     OW18841   4.199   2.815   9.462 -0.0296  0.4853  0.1539
 2460SOL    HW118842   4.202   2.761   9.383  1.4521  2.3984 -1.1242
 2460SOL    HW218843   4.244   2.896   9.437 -1.1460  0.5718 -1.6042
 2461SOL     OW18844   0.801   3.426   0.789  0.9084 -0.1960  0.1761
 2461SOL    HW118845   0.781   3.399   0.699  0.2534  0.9007 -0.0076
 2461SOL    HW218846   0.892   3.447   0.772  0.3586  1.9657 -0.0214
 2462SOL     OW18847   3.792   3.672   4.773 -0.3606  0.1522  0.1489
 2462SOL    HW118848   3.857   3.733   4.808 -1.6089  0.2036  2.3595
 2462SOL    HW218849   3.804   3.598   4.831  0.1222 -1.0169 -1.4570
 2463SOL     OW18850   0.256   0.299  16.765  0.2015 -0.0489  0.0023
 2463SOL    HW118851   0.283   0.215  16.729  0.0527 -0.6559  1.3051
 2463SOL    HW218852   0.322   0.353  16.722  1.6722 -0.5486  1.6500
 2464SOL     OW18853   1.223   2.774   4.086 -0.4399 -0.3194 -0.3537
 2464SOL    HW118854   1.163   2.735   4.023  0.1548 -1.1521 -0.4027
 2464SOL    HW218855   1.292   2.707   4.088 -0.8466 -0.7259  0.1242
 2465SOL     OW18856   1.288   0.933   1.143  0.3266 -0.6247 -0.1258
 2465SOL    HW118857   1.219   0.872   1.118 -1.3532  0.3263  2.2189
 2465SOL    HW218858   1.232   0.993   1.192  1.5686  0.4302  0.0262
 2466SOL     OW18859   2.747   0.075   8.755 -0.5915  0.2467 -0.2219
 2466SOL    HW118860   2.806   0.027   8.697 -0.6336  2.7537 -2.3338
 2466SOL    HW218861   2.795   0.154   8.780  1.0343 -0.7823 -0.1667
 2467SOL     OW18862   2.524   3.324   3.286 -0.1563 -0.1392 -0.2135
 2467SOL    HW118863   2.435   3.305   3.318  0.8567 -3.5206  0.5619
 2467SOL    HW218864   2.541   3.410   3.324 -1.0816 -0.4936  1.0056
 2468SOL     OW18865   4.236   1.967   7.373  0.3439 -0.2393  0.0855
 2468SOL    HW118866   4.277   1.926   7.449  2.2828  0.8330 -0.3745
 2468SOL    HW218867   4.315   1.998   7.329  0.2133  2.2139  1.5496
 2469SOL     OW18868   4.590   2.552   2.479 -0.0435 -0.9923  0.3088
 2469SOL    HW118869   4.615   2.461   2.497 -1.2021 -1.2198  0.7408
 2469SOL    HW218870   4.521   2.545   2.413  1.1477  0.1727 -1.0619
 2470SOL     OW18871   2.892   0.409   7.772  0.5238  0.1965  0.0181
 2470SOL    HW118872   2.876   0.402   7.866 -1.7143  0.3830 -0.3489
 2470SOL    HW218873   2.870   0.500   7.751 -0.4549  0.5938  2.8845
 2471SOL     OW18874   0.450   3.279   8.941 -0.1822 -0.5643 -0.2552
 2471SOL    HW118875   0.423   3.369   8.927  1.1557 -0.3169 -1.1536
 2471SOL    HW218876   0.535   3.282   8.897  1.6260  0.7166  3.2701
 2472SOL     OW18877   2.074   1.904   3.465 -0.3427  0.2458  0.1281
 2472SOL    HW118878   2.006   1.945   3.518 -0.2409  1.7671 -0.9107
 2472SOL    HW218879   2.071   1.822   3.514 -2.0093  1.3448  1.8742
 2473SOL     OW18880   1.599   3.443   2.291 -0.0385  0.6597  0.5615
 2473SOL    HW118881   1.631   3.522   2.333 -1.4851  0.9610  1.0912
 2473SOL    HW218882   1.517   3.472   2.252  0.1310 -0.9971 -1.0476
 2474SOL     OW18883   3.040   3.638  17.433  0.0081  0.0826 -0.5648
 2474SOL    HW118884   3.000   3.555  17.409 -0.8596  0.6822 -1.1457
 2474SOL    HW218885   2.994   3.657  17.514 -1.2316  1.7761 -1.6787
 2475SOL     OW18886   0.306   1.603   7.414  0.2438  0.1253  0.4190
 2475SOL    HW118887   0.288   1.688   7.373  0.9623 -1.1183 -2.4538
 2475SOL    HW218888   0.320   1.621   7.507 -0.2816  1.3234  0.2676
 2476SOL     OW18889   2.080   0.945   8.497  0.1472 -0.4872 -0.1241
 2476SOL    HW118890   2.099   1.036   8.520  1.1939 -0.4434 -1.1727
 2476SOL    HW218891   1.986   0.951   8.479  0.0746 -1.2444  0.0095
 2477SOL     OW18892   2.908   3.338  16.637  0.3247 -0.2212 -0.1678
 2477SOL    HW118893   2.869   3.308  16.719  2.3532  0.5155  1.0524
 2477SOL    HW218894   3.000   3.333  16.664  0.5002  3.1146 -0.2002
 2478SOL     OW18895   4.482   1.668  16.974 -0.3592  0.2477  0.5016
 2478SOL    HW118896   4.391   1.681  16.945 -0.8978  0.2979  2.2127
 2478SOL    HW218897   4.497   1.574  16.975 -0.5540  0.1970 -0.7188
 2479SOL     OW18898   2.885   1.670  12.287  0.1957 -0.1970  0.6152
 2479SOL    HW118899   2.810   1.631  12.332 -1.0159 -0.4319 -1.6017
 2479SOL    HW218900   2.857   1.665  12.196  1.4681  0.6720  0.1734
 2480SOL     OW18901   4.208   4.268  13.228 -0.3885 -0.9405 -1.0330
 2480SOL    HW118902   4.301   4.278  13.251 -0.9767  0.2385  0.8197
 2480SOL    HW218903   4.192   4.336  13.162 -2.1748  1.4193  1.8214
 2481SOL     OW18904   2.167   1.574   7.959  0.4724  0.6416 -0.3900
 2481SOL    HW118905   2.137   1.552   7.870 -2.1537  0.4818  0.5139
 2481SOL    HW218906   2.082   1.580   8.003 -0.7779 -2.1353 -2.4020
 2482SOL     OW18907   3.190   4.285   7.976 -0.1419  0.3764  0.2492
 2482SOL    HW118908   3.178   4.296   7.881  0.1362  1.3540  0.3267
 2482SOL    HW218909   3.250   4.358   7.994  0.6834  0.0197 -1.0249
 2483SOL     OW18910   2.128   0.246  11.252  0.2825 -0.2918 -0.2060
 2483SOL    HW118911   2.110   0.337  11.228 -0.6191  0.5033  3.5094
 2483SOL    HW218912   2.180   0.209  11.181  0.0810  1.6592 -1.3759
 2484SOL     OW18913   2.926   0.611  15.897  0.1713  0.3086 -0.5086
 2484SOL    HW118914   2.891   0.579  15.814  3.5963 -3.2405 -0.5468
 2484SOL    HW218915   2.934   0.528  15.944 -1.5480  0.3856 -0.0735
 2485SOL     OW18916   1.416   2.803   3.110 -0.1730 -0.5992 -0.1862
 2485SOL    HW118917   1.411   2.878   3.051 -0.8823  0.6218  1.4028
 2485SOL    HW218918   1.322   2.805   3.126 -0.3784 -0.9701 -1.4328
 2486SOL     OW18919   4.113   3.806   3.026  0.2762  0.3466  0.0904
 2486SOL    HW118920   4.181   3.794   2.960  1.0870 -0.2417  1.0422
 2486SOL    HW218921   4.141   3.737   3.087 -1.2837 -1.0373 -0.7744
 2487SOL     OW18922   1.304   4.549   4.174 -0.0016  0.1228 -0.2603
 2487SOL    HW118923   1.299   4.454   4.170  1.1073  0.0186  0.8327
 2487SOL    HW218924   1.336   4.557   4.263 -0.3427  0.4356 -0.1690
 2488SOL     OW18925   4.664   1.636  15.178 -0.0206 -0.1072  1.0262
 2488SOL    HW118926   4.641   1.580  15.252  0.8120 -0.9696  0.6388
 2488SOL    HW218927   4.635   1.578  15.108 -1.7215 -0.5172  2.0926
 2489SOL     OW18928   0.997   2.982  12.202  0.2624 -0.2211  0.1936
 2489SOL    HW118929   0.976   2.996  12.294  1.3338 -2.2875  0.7530
 2489SOL    HW218930   1.093   2.978  12.202  0.3455  1.4334  0.7798
 2490SOL     OW18931   1.506   3.334   3.430 -0.1413 -0.4020 -0.1678
 2490SOL    HW118932   1.488   3.381   3.511 -1.1352 -1.5304  0.2481
 2490SOL    HW218933   1.418   3.301   3.414  0.6052 -3.0543  1.2663
 2491SOL     OW18934   1.174   0.014   3.664  0.7057  0.1179  0.4382
 2491SOL    HW118935   1.097   4.706   3.614 -0.6777  2.0363  1.4458
 2491SOL    HW218936   1.155   0.004   3.757 -1.1769 -2.4299 -0.2217
 2492SOL     OW18937   1.113   0.785   4.344  0.1209 -0.2099  0.4991
 2492SOL    HW118938   1.127   0.786   4.439  0.0795 -0.0704  0.5042
 2492SOL    HW218939   1.060   0.706   4.333 -1.1101  0.8008 -0.9199
 2493SOL     OW18940   2.023   2.126   5.293  1.0230  0.0940 -0.4010
 2493SOL    HW118941   2.031   2.088   5.380 -0.3752 -0.5812 -0.5499
 2493SOL    HW218942   1.943   2.080   5.266  0.8809  0.0620  0.0814
 2494SOL     OW18943   3.357   4.484   5.439 -0.2183  0.1727  0.1255
 2494SOL    HW118944   3.275   4.440   5.458  2.1627 -3.4244  2.1220
 2494SOL    HW218945   3.343   4.578   5.446  2.0413  0.4587  0.8448
 2495SOL     OW18946   4.441   0.443   3.363 -0.7258  0.0420  0.1578
 2495SOL    HW118947   4.368   0.500   3.341 -1.0422 -0.5745 -0.4033
 2495SOL    HW218948   4.464   0.474   3.451 -1.5935  0.6977  0.1518
 2496SOL     OW18949   0.579   0.231   7.885  0.0081 -0.1178 -0.3009
 2496SOL    HW118950   0.485   0.247   7.891 -0.4956 -2.9178 -0.4904
 2496SOL    HW218951   0.592   0.211   7.792  0.7034 -0.2692 -0.1746
 2497SOL     OW18952   4.075   4.468   2.061  0.1893  0.2669  0.2678
 2497SOL    HW118953   4.058   4.426   2.146  1.7073 -0.3023  0.2966
 2497SOL    HW218954   4.023   4.409   2.007  0.3934 -1.6714  2.1889
 2498SOL     OW18955   3.868   4.717   6.986 -0.0755 -0.0381  0.1956
 2498SOL    HW118956   3.875   4.706   6.891  0.6951 -1.6334  0.4307
 2498SOL    HW218957   3.828   4.631   7.000  0.8065 -0.5233 -0.2839
 2499SOL     OW18958   3.533   4.231   8.581 -0.1372 -0.5858 -1.2990
 2499SOL    HW118959   3.497   4.219   8.493 -0.1989  0.1487 -1.3743
 2499SOL    HW218960   3.462   4.289   8.609  0.5947 -0.5441  0.4438
 2500SOL     OW18961   1.179   0.152   2.594 -0.4544  0.0230  0.6225
 2500SOL    HW118962   1.220   0.125   2.512 -1.7379  1.2592 -0.4319
 2500SOL    HW218963   1.237   0.109   2.657  0.7956  1.3746  0.3740
 2501SOL     OW18964   3.740   0.711   7.755  0.1477  0.6429  0.3192
 2501SOL    HW118965   3.769   0.640   7.812  0.1230 -0.1196 -0.5996
 2501SOL    HW218966   3.754   0.680   7.665  0.5481 -0.4924  0.7721
 2502SOL     OW18967   2.150   0.291   5.453  0.2712 -0.2387 -0.4353
 2502SOL    HW118968   2.109   0.287   5.539 -0.9879 -0.6271 -1.0576
 2502SOL    HW218969   2.179   0.382   5.441 -1.2082  0.2894  0.0379
 2503SOL     OW18970   1.997   1.826   7.727 -0.4922  0.2345  0.3987
 2503SOL    HW118971   2.061   1.865   7.667 -1.3798  0.9553 -0.0617
 2503SOL    HW218972   2.037   1.742   7.752  0.1932  0.7895  1.1675
 2504SOL     OW18973   2.196   4.290   0.402 -0.3386  0.8804  0.3432
 2504SOL    HW118974   2.189   4.212   0.347  1.1992 -0.0860  1.5383
 2504SOL    HW218975   2.117   4.343   0.396 -0.1064  0.8168 -3.8231
 2505SOL     OW18976   3.882   4.236   2.019 -0.4273  0.2248  0.2225
 2505SOL    HW118977   3.881   4.234   1.924  1.0098  1.1046  0.1933
 2505SOL    HW218978   3.845   4.323   2.034 -1.6488 -0.1523 -0.6023
 2506SOL     OW18979   3.436   0.456   6.527 -0.3140  0.1729  0.2820
 2506SOL    HW118980   3.448   0.519   6.598  1.0202 -1.2891  1.3605
 2506SOL    HW218981   3.526   0.424   6.518 -0.5562 -1.1727  2.2853
 2507SOL     OW18982   1.586   4.091   6.707  0.3775  0.8156 -0.1593
 2507SOL    HW118983   1.681   4.099   6.711  0.2728  1.6652  0.6656
 2507SOL    HW218984   1.563   4.176   6.746 -0.4732 -0.6857  2.6693
 2508SOL     OW18985   0.143   1.705  12.205  0.4450  0.3382  0.1080
 2508SOL    HW118986   0.050   1.723  12.189  1.1008  3.0076 -0.7335
 2508SOL    HW218987   0.130   1.657  12.286  0.3805 -0.9480 -0.6599
 2509SOL     OW18988   3.511   4.003   4.819 -0.5546 -0.4259 -0.5571
 2509SOL    HW118989   3.598   4.030   4.788 -2.0762  3.5237 -1.2806
 2509SOL    HW218990   3.445   4.061   4.781  1.7385  1.7670 -1.1839
 2510SOL     OW18991   1.287   2.368   7.157 -0.3952  0.2109 -0.0872
 2510SOL    HW118992   1.348   2.366   7.084  0.4018  0.2694  0.5796
 2510SOL    HW218993   1.233   2.304   7.110 -2.0526  0.5198  1.3865
 2511SOL     OW18994   2.551   2.632   3.508  0.2415 -0.8248  0.0472
 2511SOL    HW118995   2.612   2.705   3.505  0.0296 -0.6912 -0.8764
 2511SOL    HW218996   2.473   2.680   3.483  0.5174 -0.0699  0.6543
 2512SOL     OW18997   4.357   1.573   0.410 -0.0993  0.4459 -0.2694
 2512SOL    HW118998   4.372   1.491   0.458  0.0515  0.6339  0.0034
 2512SOL    HW218999   4.366   1.630   0.486 -0.8820 -0.5760  0.5773
 2513SOL     OW19000   0.892   4.404   8.662 -0.1056 -0.7206 -0.0223
 2513SOL    HW119001   0.913   4.313   8.683  1.3183 -0.2731  0.5467
 2513SOL    HW219002   0.971   4.435   8.617 -2.7486 -0.2604 -4.2700
 2514SOL     OW19003   1.951   3.228   0.271  0.0491  0.3907  0.1106
 2514SOL    HW119004   2.043   3.214   0.295  0.3436 -0.2278 -1.3838
 2514SOL    HW219005   1.939   3.163   0.202  0.4266  1.6223 -1.1100
 2515SOL     OW19006   3.984   3.273   0.742  0.2663 -0.2602  0.2898
 2515SOL    HW119007   4.049   3.279   0.812  0.0195  1.1542  0.4076
 2515SOL    HW219008   4.010   3.188   0.707  1.3713  0.2691 -0.1687
 2516SOL     OW19009   3.408   1.257  11.654 -0.0704  0.0577  0.1811
 2516SOL    HW119010   3.443   1.272  11.566  0.6600 -0.2467  0.4227
 2516SOL    HW219011   3.492   1.262  11.699 -0.4672  2.9400  0.5816
 2517SOL     OW19012   3.628   4.381   6.166  0.1828  0.1284 -0.3728
 2517SOL    HW119013   3.564   4.389   6.095  1.2237 -0.9653 -1.4252
 2517SOL    HW219014   3.608   4.290   6.190  0.1906  0.8927  2.4481
 2518SOL     OW19015   2.948   2.908   0.545 -0.2023 -0.4181  0.1368
 2518SOL    HW119016   2.875   2.876   0.598 -1.6515 -0.0678 -1.6159
 2518SOL    HW219017   2.914   2.995   0.522  0.6107 -0.1760 -0.1501
 2519SOL     OW19018   3.153   0.723   6.663 -0.2890  0.0692 -0.3770
 2519SOL    HW119019   3.096   0.794   6.632 -0.2594  0.8345  1.3433
 2519SOL    HW219020   3.091   0.652   6.679 -0.8079  0.7895  0.7560
 2520SOL     OW19021   1.718   3.016   7.200  0.1780  0.3169  0.4339
 2520SOL    HW119022   1.702   2.924   7.180 -2.7858  0.7908  0.5606
 2520SOL    HW219023   1.743   3.044   7.112 -0.6468 -0.6439 -0.1059
 2521SOL     OW19024   4.003   4.672   9.075 -0.5738 -0.6882  0.7379
 2521SOL    HW119025   4.012   4.592   9.128  0.0372 -1.5263 -0.6094
 2521SOL    HW219026   4.076   0.003   9.108  0.5412 -1.6506 -0.2007
 2522SOL     OW19027   2.237   1.667   7.284  0.4437  0.9109 -0.1667
 2522SOL    HW119028   2.142   1.666   7.299  0.5562 -0.9484  0.4243
 2522SOL    HW219029   2.247   1.601   7.215 -1.0249  0.8598 -0.3275
 2523SOL     OW19030   4.652   1.797  14.895  0.3265 -0.0072 -0.1675
 2523SOL    HW119031   4.617   1.775  14.809 -0.9621 -2.0030  0.8419
 2523SOL    HW219032   4.565   1.801  14.937  1.4998  0.3128  2.2569
 2524SOL     OW19033   0.279   0.115   1.163  0.0357  0.2295 -0.1125
 2524SOL    HW119034   0.271   0.170   1.085 -1.9664 -0.9473 -0.7382
 2524SOL    HW219035   0.237   0.033   1.138 -1.7016  0.4121  2.2121
 2525SOL     OW19036   0.649   0.225   4.643  0.6839  0.2897 -0.0327
 2525SOL    HW119037   0.728   0.175   4.662  1.5106  0.7697 -2.2748
 2525SOL    HW219038   0.579   0.160   4.639 -0.4807  1.4155  1.9261
 2526SOL     OW19039   3.062   4.204   9.623  0.1332  0.0718 -0.0147
 2526SOL    HW119040   3.145   4.229   9.582  0.2543  1.4836  1.0613
 2526SOL    HW219041   3.008   4.261   9.568  1.6002 -0.4237 -1.9684
 2527SOL     OW19042   0.811   1.144  10.412 -0.3505 -0.2568  0.0306
 2527SOL    HW119043   0.854   1.059  10.411  0.5891  0.2029  1.5567
 2527SOL    HW219044   0.889   1.199  10.399 -1.1003  0.3227 -2.0192
 2528SOL     OW19045   0.488   0.440  12.395  0.3071 -0.2841 -0.5516
 2528SOL    HW119046   0.423   0.454  12.326 -0.4530  1.4908  0.5213
 2528SOL    HW219047   0.461   0.356  12.434 -1.6563 -0.6301 -2.6798
 2529SOL     OW19048   4.412   3.244  16.870 -0.2455 -0.3372 -0.5675
 2529SOL    HW119049   4.381   3.162  16.909  1.6008 -1.4910 -1.5113
 2529SOL    HW219050   4.434   3.298  16.946 -0.1674  0.6391 -1.2977
 2530SOL     OW19051   1.503   1.090   9.944 -0.6310 -0.2632  0.2025
 2530SOL    HW119052   1.504   1.090   9.848  1.5428 -0.7522  0.2407
 2530SOL    HW219053   1.431   1.029   9.962 -1.5600  0.5689 -0.7075
 2531SOL     OW19054   0.682   3.156   1.702 -0.5538 -0.2635  0.5604
 2531SOL    HW119055   0.681   3.068   1.741  0.4971  0.4009  2.0532
 2531SOL    HW219056   0.705   3.127   1.614 -0.3369 -0.9770  0.8475
 2532SOL     OW19057   4.067   1.180   3.951  0.3268  0.1203  0.2575
 2532SOL    HW119058   4.162   1.184   3.937  0.1026 -0.3413 -1.3513
 2532SOL    HW219059   4.051   1.145   4.039 -1.7635  1.2171  0.3037
 2533SOL     OW19060   2.356   4.604   7.895  0.3701 -0.0747 -0.6389
 2533SOL    HW119061   2.275   4.611   7.846 -0.5670 -0.3788  0.8793
 2533SOL    HW219062   2.405   4.559   7.826 -0.2182  1.8662 -2.3105
 2534SOL     OW19063   3.258   0.558   1.081  0.2019  0.4873  0.3014
 2534SOL    HW119064   3.284   0.611   1.005  1.2685  0.0286  0.3596
 2534SOL    HW219065   3.287   0.618   1.150 -0.1326  2.1116 -0.9437
 2535SOL     OW19066   4.196   1.751   8.487  0.3920 -0.4097 -0.0161
 2535SOL    HW119067   4.194   1.833   8.535  1.3681  1.3681 -2.9805
 2535SOL    HW219068   4.270   1.702   8.524 -0.9184 -0.4792  2.5200
 2536SOL     OW19069   3.174   3.494   2.607  0.4153 -0.0674 -0.8209
 2536SOL    HW119070   3.149   3.425   2.546  0.9155 -0.9920  0.0037
 2536SOL    HW219071   3.253   3.450   2.640  0.4535 -0.4715 -1.4382
 2537SOL     OW19072   1.496   3.337   1.310  0.5773 -0.0425  0.2026
 2537SOL    HW119073   1.466   3.346   1.400 -1.6659 -0.4176 -0.5158
 2537SOL    HW219074   1.591   3.329   1.322  0.5603 -0.2827  0.1794
 2538SOL     OW19075   2.710   4.146   4.998  0.3516  0.0112  0.1842
 2538SOL    HW119076   2.719   4.241   4.998  1.3091 -0.0830 -0.3813
 2538SOL    HW219077   2.781   4.133   5.061  1.0895  1.7209 -0.2874
 2539SOL     OW19078   0.277   0.777  12.835  0.1405  0.0087  0.3347
 2539SOL    HW119079   0.189   0.738  12.838  0.1323 -0.0258 -0.3124
 2539SOL    HW219080   0.300   0.747  12.747  0.5834  1.4622 -0.0298
 2540SOL     OW19081   3.482   2.534   8.011  0.7495  0.0858  0.5240
 2540SOL    HW119082   3.492   2.611   7.954 -1.1917  0.0599  0.1411
 2540SOL    HW219083   3.554   2.550   8.073  1.3466  3.2886 -0.9963
 2541SOL     OW19084   1.463   0.066   7.089 -0.3140  0.1098 -0.1996
 2541SOL    HW119085   1.526   0.129   7.125 -0.8911  1.6029 -1.8131
 2541SOL    HW219086   1.434   0.107   7.008  0.7325 -0.0508 -0.6604
 2542SOL     OW19087   0.158   3.123   7.895  0.1408  0.3332  0.1821
 2542SOL    HW119088   0.176   3.129   7.989  0.1706 -1.0408  0.2699
 2542SOL    HW219089   0.185   3.208   7.859 -1.0823  0.2589 -0.8821
 2543SOL     OW19090   0.213   3.465  12.822 -0.5827 -0.5063  0.1440
 2543SOL    HW119091   0.188   3.476  12.914 -0.8050 -0.5612  0.0903
 2543SOL    HW219092   0.246   3.376  12.828 -2.1303 -1.1505 -0.8358
 2544SOL     OW19093   4.436   2.796   7.509  0.2922 -0.0390 -0.2134
 2544SOL    HW119094   4.370   2.745   7.557 -0.3975 -0.7679 -1.9111
 2544SOL    HW219095   4.397   2.883   7.504  0.5003 -0.0022 -1.0565
 2545SOL     OW19096   0.177   1.945   2.080 -0.0396 -0.1150  0.9276
 2545SOL    HW119097   0.228   2.026   2.085  0.0994 -0.1711  0.3632
 2545SOL    HW219098   0.248   1.882   2.096 -0.6672 -0.3305  2.8964
 2546SOL     OW19099   2.731   3.555   7.683  0.1476 -0.8719 -0.5174
 2546SOL    HW119100   2.782   3.602   7.617 -2.9020  1.5459 -1.1439
 2546SOL    HW219101   2.654   3.553   7.626 -0.3270 -0.0960  0.0972
 2547SOL     OW19102   3.860   2.877   3.289  0.0529 -0.1457  0.2328
 2547SOL    HW119103   3.864   2.970   3.313 -2.0628 -0.3027  1.1905
 2547SOL    HW219104   3.905   2.828   3.357 -1.3401 -0.3312  1.0267
 2548SOL     OW19105   1.215   3.030   3.156  0.2354 -0.3601 -0.4226
 2548SOL    HW119106   1.160   3.108   3.142  0.0157 -0.3390  0.5545
 2548SOL    HW219107   1.166   2.963   3.109  2.3503 -0.9141 -1.7997
 2549SOL     OW19108   0.075   0.853   8.553 -0.5288 -0.4284  0.0350
 2549SOL    HW119109   4.716   0.802   8.562  1.1236 -2.6215  2.4178
 2549SOL    HW219110   0.141   0.785   8.537  0.7198  0.7317  0.2029
 2550SOL     OW19111   2.935   0.478   2.505  0.5890 -0.3990 -0.0921
 2550SOL    HW119112   2.944   0.564   2.463  2.0820 -0.7135 -0.4184
 2550SOL    HW219113   3.025   0.445   2.506  0.9624  0.6025 -0.4526
 2551SOL     OW19114   1.214   2.477   1.698 -0.1296 -0.2133 -0.4808
 2551SOL    HW119115   1.288   2.462   1.638  0.9483 -0.4031  0.8749
 2551SOL    HW219116   1.151   2.523   1.644  2.4105  1.5046 -2.0065
 2552SOL     OW19117   4.541   1.598   0.206 -0.4807 -0.5879  0.2311
 2552SOL    HW119118   4.487   1.636   0.276  0.2309 -0.5518  0.7565
 2552SOL    HW219119   4.482   1.528   0.177 -1.4975  0.2449  0.2873
 2553SOL     OW19120   0.479   3.026   2.540 -0.3965 -0.0494  0.1542
 2553SOL    HW119121   0.387   3.025   2.566 -0.0573 -2.1217  1.3479
 2553SOL    HW219122   0.484   2.931   2.525  0.0653  0.0200 -0.1391
 2554SOL     OW19123   2.411   3.459   1.242 -0.5811 -0.2082 -0.7384
 2554SOL    HW119124   2.484   3.501   1.288 -0.9581 -0.8705  0.4537
 2554SOL    HW219125   2.459   3.429   1.165  2.0338  0.3060  0.6634
 2555SOL     OW19126   0.817   0.393   1.005  0.6416 -0.7153 -0.4460
 2555SOL    HW119127   0.819   0.460   0.937  0.8146 -0.2907 -0.0256
 2555SOL    HW219128   0.755   0.327   0.975  0.4605 -1.0066  0.5673
 2556SOL     OW19129   2.039   2.931   8.616  0.2528  0.2210 -0.4109
 2556SOL    HW119130   2.112   2.870   8.611 -1.7608 -2.1079 -1.3814
 2556SOL    HW219131   2.087   2.990   8.675 -1.2478  1.0364 -0.0089
 2557SOL     OW19132   1.652   3.394   6.808 -0.7147 -0.6275 -0.5639
 2557SOL    HW119133   1.725   3.395   6.747  0.5769  1.0172  1.0166
 2557SOL    HW219134   1.581   3.435   6.759 -0.2393  1.2695  0.3521
 2558SOL     OW19135   4.710   2.673  10.528 -0.0101  0.2330  0.0574
 2558SOL    HW119136   4.642   2.737  10.507  0.7268  0.6473 -1.1464
 2558SOL    HW219137   0.065   2.730  10.511  0.2260 -0.6263 -1.7690
 2559SOL     OW19138   1.109   0.749   4.018 -0.6431 -0.2825 -0.0577
 2559SOL    HW119139   1.024   0.726   3.981  0.0428  1.5016 -2.7332
 2559SOL    HW219140   1.123   0.671   4.071 -0.1583 -0.2745 -0.1687
 2560SOL     OW19141   4.341   3.339   7.209  0.8618  0.0869 -0.1687
 2560SOL    HW119142   4.420   3.310   7.164  0.6030  0.3226 -0.7633
 2560SOL    HW219143   4.278   3.307   7.144  0.3075 -2.8825  1.8023
 2561SOL     OW19144   3.198   4.067   2.227  0.4770  0.6542 -0.0005
 2561SOL    HW119145   3.202   3.982   2.183 -2.6623  0.8744 -0.6868
 2561SOL    HW219146   3.211   4.128   2.154 -2.3399  2.5561  1.0867
 2562SOL     OW19147   3.293   3.930   8.542 -0.3435  0.4371 -0.2576
 2562SOL    HW119148   3.368   3.930   8.602 -0.4449 -1.0240 -0.1133
 2562SOL    HW219149   3.247   4.008   8.571 -1.2971 -0.1326 -0.2557
 2563SOL     OW19150   2.629   1.139  14.675  0.3930  0.1200  0.0786
 2563SOL    HW119151   2.582   1.167  14.596  0.0337  1.0785  0.6319
 2563SOL    HW219152   2.555   1.115  14.731  2.1672  0.9232  2.7702
 2564SOL     OW19153   1.858   2.236   6.849 -0.5997  0.1735 -0.3054
 2564SOL    HW119154   1.872   2.182   6.771 -0.1709 -0.0365 -0.0834
 2564SOL    HW219155   1.874   2.324   6.815  2.7001  0.7351  2.7004
 2565SOL     OW19156   2.161   2.521  15.163 -0.2530 -0.2611 -0.1801
 2565SOL    HW119157   2.251   2.551  15.174 -0.6199  0.7171  0.1856
 2565SOL    HW219158   2.113   2.603  15.156 -0.0859 -0.0919  0.6171
 2566SOL     OW19159   1.784   3.824   2.112  0.1037  0.4191  0.8203
 2566SOL    HW119160   1.750   3.886   2.047  0.6242  0.2214  0.3632
 2566SOL    HW219161   1.875   3.821   2.083  0.1759  1.0210  0.9835
 2567SOL     OW19162   0.967   0.757   0.508  0.4241  0.0686  0.1418
 2567SOL    HW119163   0.934   0.792   0.425  1.2282  2.6108  0.8848
 2567SOL    HW219164   1.006   0.677   0.473 -1.7352 -0.6648 -0.5855
 2568SOL     OW19165   3.148   4.137   8.178  0.0800  0.4805  1.0095
 2568SOL    HW119166   3.057   4.161   8.196  0.2046  0.3568  1.7895
 2568SOL    HW219167   3.149   4.164   8.086  1.7502  0.3965  1.0055
 2569SOL     OW19168   0.741   4.670  15.364 -0.5808  0.3271 -0.0877
 2569SOL    HW119169   0.807   0.002  15.409 -1.7455  0.0607  1.9191
 2569SOL    HW219170   0.676   0.009  15.328 -0.2007  0.0161 -1.2854
 2570SOL     OW19171   1.844   4.700   5.271 -0.3926  0.8595  0.4254
 2570SOL    HW119172   1.835   0.066   5.231  0.5687  0.4124 -0.7891
 2570SOL    HW219173   1.893   4.654   5.203 -0.4762 -0.4026  1.2323
 2571SOL     OW19174   1.793   2.121   2.333 -0.0268  0.3336  0.6517
 2571SOL    HW119175   1.754   2.056   2.273 -2.1916  0.8000  1.5543
 2571SOL    HW219176   1.873   2.139   2.284  1.5430 -0.2475  3.0151
 2572SOL     OW19177   0.640   1.681   0.653  0.0068  0.5282  0.1662
 2572SOL    HW119178   0.727   1.689   0.694 -0.8008 -1.1966  2.2396
 2572SOL    HW219179   0.655   1.717   0.566 -2.2715 -0.1771 -0.5077
 2573SOL     OW19180   1.299   2.780   4.413  1.1688 -0.1792  0.5261
 2573SOL    HW119181   1.337   2.703   4.371  2.6366  1.0823 -0.4322
 2573SOL    HW219182   1.321   2.852   4.354 -0.2773 -0.3194 -0.1844
 2574SOL     OW19183   4.467   2.643   2.692  0.2145 -0.0414  0.1202
 2574SOL    HW119184   4.507   2.614   2.610  0.5297 -1.2189  0.6849
 2574SOL    HW219185   4.541   2.686   2.736 -1.1036  1.6712  0.6123
 2575SOL     OW19186   2.767   1.084   7.106  0.2007 -0.7273 -0.0902
 2575SOL    HW119187   2.849   1.084   7.057 -0.4642 -1.2019 -1.2133
 2575SOL    HW219188   2.760   1.178   7.121 -1.3222 -0.8470 -0.0053
 2576SOL     OW19189   0.376   0.660  13.569 -0.1619 -0.7068 -0.1617
 2576SOL    HW119190   0.413   0.597  13.632  2.5906  2.2887  1.2376
 2576SOL    HW219191   0.390   0.620  13.483  1.4981  0.8533 -0.6375
 2577SOL     OW19192   0.772   3.133   7.686 -0.2046  0.4167 -0.3266
 2577SOL    HW119193   0.750   3.219   7.721 -0.2403  0.5063 -0.5704
 2577SOL    HW219194   0.738   3.137   7.596 -0.8065 -2.7995 -0.2401
 2578SOL     OW19195   2.408   2.965  10.353  0.0412  0.0878 -0.1393
 2578SOL    HW119196   2.417   2.888  10.297  1.0853 -1.2039  1.7662
 2578SOL    HW219197   2.343   3.024  10.317 -0.3785  0.2430  0.8615
 2579SOL     OW19198   2.233   3.353   7.090  0.0140  0.9572 -0.0310
 2579SOL    HW119199   2.152   3.367   7.040 -1.2807 -0.7253  1.6078
 2579SOL    HW219200   2.202   3.372   7.179  0.7175 -0.9822  0.6159
 2580SOL     OW19201   2.682   1.642  17.626  0.0431 -0.6485 -0.1072
 2580SOL    HW119202   2.757   1.657  17.684 -0.4304 -3.0722  1.1092
 2580SOL    HW219203   2.665   1.551  17.649 -0.7555 -0.6780 -0.8226
 2581SOL     OW19204   0.505   0.135   4.122  0.6601 -0.2436 -0.2874
 2581SOL    HW119205   0.504   0.230   4.115 -1.7668 -0.0145  2.8814
 2581SOL    HW219206   0.430   0.118   4.179  0.7504  0.1802 -0.0407
 2582SOL     OW19207   3.318   0.886   5.644 -0.5108  0.6192  0.3768
 2582SOL    HW119208   3.330   0.803   5.690 -0.2980 -0.7454 -2.1809
 2582SOL    HW219209   3.407   0.920   5.652  0.7559 -2.2749 -1.5989
 2583SOL     OW19210   2.137   4.302  17.004 -0.9647  0.0030  0.0728
 2583SOL    HW119211   2.126   4.354  16.924  0.8723  2.5551  1.5060
 2583SOL    HW219212   2.049   4.316  17.041 -1.8461 -1.0542 -1.6020
 2584SOL     OW19213   2.844   2.136   6.120 -0.0794 -0.2333  0.0380
 2584SOL    HW119214   2.897   2.203   6.076 -1.2677  0.8999  0.3524
 2584SOL    HW219215   2.848   2.149   6.214 -0.1130 -2.0149  0.2797
 2585SOL     OW19216   3.518   3.196   5.397 -0.6309 -0.1132  1.0403
 2585SOL    HW119217   3.453   3.172   5.331 -0.9804  2.2567  0.5274
 2585SOL    HW219218   3.462   3.192   5.475 -0.7014 -0.1106  0.9894
 2586SOL     OW19219   2.477   0.135   8.409  0.2975 -0.1024  0.3255
 2586SOL    HW119220   2.513   0.207   8.460  1.3441  0.8344 -1.7475
 2586SOL    HW219221   2.400   0.158   8.358 -0.9933 -1.5415  1.6214
 2587SOL     OW19222   2.752   4.137   1.662  0.1824 -0.3654 -0.2595
 2587SOL    HW119223   2.809   4.205   1.626 -0.2190 -0.4607 -1.0585
 2587SOL    HW219224   2.700   4.178   1.732 -0.4074 -1.8063  0.1559
 2588SOL     OW19225   4.509   1.734  14.662 -0.1712 -0.6161 -0.3488
 2588SOL    HW119226   4.467   1.651  14.641 -0.0639 -0.2416 -2.0808
 2588SOL    HW219227   4.496   1.783  14.581 -1.3701 -0.2569  0.0666
 2589SOL     OW19228   2.137   3.687   1.756 -0.7919  0.1826 -0.2019
 2589SOL    HW119229   2.088   3.681   1.674 -0.4352  0.1055 -0.4072
 2589SOL    HW219230   2.217   3.736   1.739 -0.0260 -0.8344  0.4810
 2590SOL     OW19231   3.638   2.069   6.944  0.2676 -0.2215 -0.2218
 2590SOL    HW119232   3.615   2.124   7.019  1.3205  1.5067 -1.1531
 2590SOL    HW219233   3.732   2.087   6.947  0.2822 -0.0235 -1.7162
 2591SOL     OW19234   0.284   2.027  15.374  0.5334 -0.3856 -0.1262
 2591SOL    HW119235   0.367   2.007  15.331  0.1987  0.3103 -1.1032
 2591SOL    HW219236   0.237   1.948  15.346  3.1049 -1.4491 -1.4913
 2592SOL     OW19237   0.698   4.311   7.288 -0.9044  0.0328 -0.2926
 2592SOL    HW119238   0.778   4.337   7.242  0.8314 -0.4890  2.4565
 2592SOL    HW219239   0.707   4.369   7.364  0.3230 -1.4903  0.7154
 2593SOL     OW19240   4.565   1.957   9.792  0.0029  0.7026  0.2947
 2593SOL    HW119241   4.579   2.051   9.779  1.0255  0.9211  2.8276
 2593SOL    HW219242   4.498   1.947   9.725  0.2544  0.4946  0.0771
 2594SOL     OW19243   4.110   0.288   9.466 -0.1196  0.3124 -0.0174
 2594SOL    HW119244   4.119   0.382   9.477 -0.7416  0.7997 -3.7464
 2594SOL    HW219245   4.111   0.262   9.558  1.0393  1.3529  0.2553
 2595SOL     OW19246   4.678   1.103   4.723 -0.6018 -0.4082  0.1094
 2595SOL    HW119247   0.049   1.077   4.731 -0.5110  0.4003  1.6319
 2595SOL    HW219248   4.645   1.021   4.686  0.4165 -1.3682  1.2953
 2596SOL     OW19249   1.462   0.097   2.126  0.2829 -0.1757 -0.0618
 2596SOL    HW119250   1.517   0.153   2.071  0.5577 -0.7457 -0.3642
 2596SOL    HW219251   1.467   0.012   2.082  0.4627 -1.6478  2.8654
 2597SOL     OW19252   1.199   1.769   7.938 -0.0355 -0.3101 -0.1969
 2597SOL    HW119253   1.218   1.696   7.879 -0.8528  0.2845 -1.1944
 2597SOL    HW219254   1.291   1.781   7.963 -0.1771 -1.2804  0.7624
 2598SOL     OW19255   2.868   0.393  16.208  0.0389  0.1896 -0.0397
 2598SOL    HW119256   2.806   0.351  16.268 -1.8968  0.0644 -2.1194
 2598SOL    HW219257   2.852   0.345  16.126  0.1006  1.0503 -0.5504
 2599SOL     OW19258   4.188   0.599   3.284 -0.3981  0.1772  0.2374
 2599SOL    HW119259   4.123   0.619   3.216 -0.4716  0.9147  0.5254
 2599SOL    HW219260   4.162   0.659   3.354  1.1236  1.3515 -0.2063
 2600SOL     OW19261   1.322   2.926   6.197 -0.3812  0.0068  0.1754
 2600SOL    HW119262   1.244   2.942   6.145  0.9391  1.8730 -1.2211
 2600SOL    HW219263   1.379   2.997   6.167 -1.9110  0.2279 -2.1562
 2601SOL     OW19264   4.567   2.737   8.276 -0.3173 -0.8344  0.5594
 2601SOL    HW119265   4.646   2.683   8.285  0.4087  0.0177 -0.5510
 2601SOL    HW219266   4.597   2.819   8.237 -1.0524 -0.6227  0.4437
 2602SOL     OW19267   0.695   0.316   1.504 -0.2388 -0.6679 -0.7548
 2602SOL    HW119268   0.675   0.222   1.512 -2.0245 -0.2372 -0.0735
 2602SOL    HW219269   0.677   0.334   1.412 -1.2035 -3.5671 -1.1562
 2603SOL     OW19270   2.019   1.159   5.719 -0.8706 -0.8511 -0.0507
 2603SOL    HW119271   1.980   1.225   5.776  2.2839  2.0890 -1.3045
 2603SOL    HW219272   1.995   1.201   5.637  0.8718  2.3282  1.0438
 2604SOL     OW19273   0.689   3.955   5.388  0.2905 -0.1364  0.2482
 2604SOL    HW119274   0.702   3.880   5.329 -0.5978  0.0433 -0.1752
 2604SOL    HW219275   0.755   3.939   5.455 -1.8403 -1.0848  2.1554
 2605SOL     OW19276   1.303   1.167   9.011 -0.7765 -0.5844  0.5490
 2605SOL    HW119277   1.331   1.201   8.926 -0.6587 -1.9078  0.0496
 2605SOL    HW219278   1.306   1.072   9.002 -1.9378 -0.6006  0.2479
 2606SOL     OW19279   3.818   1.780   4.821  0.1782 -0.0832  0.5094
 2606SOL    HW119280   3.887   1.846   4.828  0.2344 -0.0056 -0.8830
 2606SOL    HW219281   3.825   1.760   4.728  1.1550  0.5683  0.4376
 2607SOL     OW19282   1.734   3.161   2.921 -0.6102  0.2496 -0.1714
 2607SOL    HW119283   1.823   3.158   2.884 -0.0488 -0.6744  1.2573
 2607SOL    HW219284   1.715   3.069   2.906 -2.4142  0.5411  0.3452
 2608SOL     OW19285   4.603   1.729   8.249  0.3685 -0.1106  0.5798
 2608SOL    HW119286   4.541   1.768   8.312  0.8569  1.2760  0.1989
 2608SOL    HW219287   4.548   1.675   8.193  1.8878 -0.3576 -0.6583
 2609SOL     OW19288   2.550   0.728   3.088  0.0454 -0.6469  0.2077
 2609SOL    HW119289   2.591   0.808   3.120 -0.6159 -0.5293  0.7658
 2609SOL    HW219290   2.619   0.687   3.036  0.4326  0.4640 -0.1444
 2610SOL     OW19291   2.754   1.976   3.536  0.0148  0.0764 -0.9936
 2610SOL    HW119292   2.712   2.028   3.468  0.5293 -2.6001 -3.4070
 2610SOL    HW219293   2.776   2.044   3.600 -0.6439 -0.2067 -0.4729
 2611SOL     OW19294   3.352   0.192   6.491 -0.0832 -0.6602  0.0988
 2611SOL    HW119295   3.304   0.159   6.567 -0.4546 -2.2260 -0.7971
 2611SOL    HW219296   3.379   0.280   6.515 -0.8275  0.1621 -2.0536
 2612SOL     OW19297   0.417   4.423   2.865 -0.0724  0.0296 -0.6178
 2612SOL    HW119298   0.362   4.492   2.826  2.1012  2.3408  0.3744
 2612SOL    HW219299   0.371   4.406   2.947  0.7731 -0.5554 -0.2701
 2613SOL     OW19300   4.299   2.667   8.219  0.1239 -0.4746  0.1391
 2613SOL    HW119301   4.267   2.757   8.211  1.6576  0.0351 -0.2213
 2613SOL    HW219302   4.386   2.696   8.245  0.3889 -1.7294  0.6468
 2614SOL     OW19303   1.240   3.753   7.002 -0.3848 -0.3825  0.1668
 2614SOL    HW119304   1.237   3.842   6.967  1.0801 -0.7028 -0.7675
 2614SOL    HW219305   1.148   3.726   7.006 -0.3990 -0.2824  0.5108
 2615SOL     OW19306   2.908   4.657  11.851 -1.1436  0.0794 -0.5252
 2615SOL    HW119307   2.941   4.671  11.762  0.1788 -2.4250 -0.4028
 2615SOL    HW219308   2.817   4.628  11.842 -0.3425 -3.1997  2.0157
 2616SOL     OW19309   1.155   4.049   8.007 -0.0198 -0.1826  0.0286
 2616SOL    HW119310   1.180   3.957   7.994  0.2411 -0.5299  2.9308
 2616SOL    HW219311   1.064   4.057   7.979 -0.1133  2.5789  1.1929
 2617SOL     OW19312   4.529   2.976   3.009 -0.0540  0.1520  0.1566
 2617SOL    HW119313   4.488   3.054   3.046 -0.3473 -0.4442  1.1107
 2617SOL    HW219314   4.621   3.003   3.014 -0.8010  2.7685 -0.5826
 2618SOL     OW19315   2.641   0.531   2.781 -0.1081  0.3589  0.2379
 2618SOL    HW119316   2.559   0.574   2.754 -1.1297 -1.2014  0.8635
 2618SOL    HW219317   2.710   0.595   2.764 -0.2098 -0.0479 -1.6913
 2619SOL     OW19318   0.385   2.680   8.161 -0.4779 -0.4822 -0.9555
 2619SOL    HW119319   0.453   2.676   8.229 -3.3889 -1.8727  1.8567
 2619SOL    HW219320   0.341   2.764   8.170  0.6795 -0.0312  0.7225
 2620SOL     OW19321   4.112   1.141   0.792 -0.2134  0.5377 -0.2949
 2620SOL    HW119322   4.096   1.047   0.791 -0.6339  0.6184 -2.3981
 2620SOL    HW219323   4.135   1.162   0.883 -1.0464 -0.7270  0.1967
 2621SOL     OW19324   2.631   0.720   7.990  0.4719 -0.0840  0.4199
 2621SOL    HW119325   2.698   0.785   8.014  1.8989 -1.0115 -1.0541
 2621SOL    HW219326   2.674   0.687   7.911 -0.3081  1.1301 -0.4995
 2622SOL     OW19327   2.526   4.168   6.724 -0.6967 -0.0594  0.4027
 2622SOL    HW119328   2.465   4.201   6.790 -1.1381 -0.6475  0.2875
 2622SOL    HW219329   2.610   4.210   6.739 -0.2412 -0.1283 -1.8936
 2623SOL     OW19330   3.999   0.198  10.495 -0.6268 -0.2098  0.1080
 2623SOL    HW119331   4.028   0.179  10.406  0.1113 -2.6543  0.8443
 2623SOL    HW219332   4.071   0.167  10.551 -0.4222  0.5132  0.2366
 2624SOL     OW19333   2.981   0.200   4.250  0.0206  0.4627  0.0249
 2624SOL    HW119334   2.940   0.287   4.254  0.5312  0.6433  1.3076
 2624SOL    HW219335   3.045   0.203   4.179 -1.3890  1.1070 -1.2256
 2625SOL     OW19336   2.793   1.194   4.125  0.3736  0.3117 -0.0312
 2625SOL    HW119337   2.842   1.276   4.124  1.7639 -0.5019  1.9512
 2625SOL    HW219338   2.830   1.134   4.061 -0.3400 -0.8725  0.6589
 2626SOL     OW19339   2.327   1.685  11.854  0.3694 -0.3039  0.2645
 2626SOL    HW119340   2.287   1.727  11.930 -1.4894  1.2880 -1.6123
 2626SOL    HW219341   2.358   1.761  11.806  1.3482  0.5665  2.2939
 2627SOL     OW19342   4.229   2.946   6.399 -0.3105  0.2983  0.1648
 2627SOL    HW119343   4.213   3.031   6.360  1.4215  0.3723 -0.3843
 2627SOL    HW219344   4.144   2.920   6.436 -0.1438  2.0800  1.8108
 2628SOL     OW19345   1.647   3.697   0.761  0.0385  0.2851  0.0172
 2628SOL    HW119346   1.579   3.701   0.828  2.5129  0.1080  2.5066
 2628SOL    HW219347   1.717   3.638   0.790  2.5342  3.1435 -0.1854
 2629SOL     OW19348   4.635   3.026   5.706  0.8890 -0.3163 -0.3975
 2629SOL    HW119349   4.675   3.052   5.789 -3.2300  1.5830  0.9750
 2629SOL    HW219350   4.569   2.964   5.736  0.5258  1.4336  2.3987
 2630SOL     OW19351   1.401   0.734   4.436 -0.4514  0.0281 -0.3839
 2630SOL    HW119352   1.320   0.751   4.387  0.2487 -1.5077 -2.0653
 2630SOL    HW219353   1.370   0.729   4.526  0.5228  1.1396  0.0070
 2631SOL     OW19354   4.095   2.193   5.972  0.2135  0.1572  0.2784
 2631SOL    HW119355   4.087   2.263   5.906  1.6479  0.3808  0.3408
 2631SOL    HW219356   4.188   2.202   5.990  0.2266 -0.1492  0.3595
 2632SOL     OW19357   3.141   4.293   4.028 -0.5241 -0.0795 -0.5015
 2632SOL    HW119358   3.141   4.230   3.956  0.1073 -0.0456 -0.5275
 2632SOL    HW219359   3.049   4.316   4.042  0.4370  2.7105  1.2527
 2633SOL     OW19360   3.548   2.185   3.738 -0.1257 -0.0605 -0.6068
 2633SOL    HW119361   3.613   2.121   3.768  2.7455  1.2371 -4.1027
 2633SOL    HW219362   3.540   2.233   3.821  0.4068  0.2013 -0.7101
 2634SOL     OW19363   3.645   3.911   4.467 -0.6205  0.3132 -0.5122
 2634SOL    HW119364   3.640   3.871   4.380  0.5278  0.5618 -0.6921
 2634SOL    HW219365   3.563   3.881   4.506 -0.3308  1.3829  0.8992
 2635SOL     OW19366   2.156   0.629   6.312  0.0359  0.0829 -0.0065
 2635SOL    HW119367   2.153   0.602   6.404  1.7993 -0.2876 -0.0702
 2635SOL    HW219368   2.089   0.697   6.315 -0.6035 -0.4967 -1.2501
 2636SOL     OW19369   1.323   1.271   8.696 -0.0832  0.4277  0.5983
 2636SOL    HW119370   1.406   1.236   8.728 -0.7730 -1.3818  0.4081
 2636SOL    HW219371   1.327   1.262   8.601 -2.9793 -0.5959  0.5709
 2637SOL     OW19372   1.115   3.995   2.977 -0.2235 -0.0889  0.3354
 2637SOL    HW119373   1.139   3.902   2.971  0.5093  0.1175  0.1484
 2637SOL    HW219374   1.091   3.999   3.070  0.3327  1.1909  0.4134
 2638SOL     OW19375   0.071   2.581  11.647 -0.8987 -0.5471  0.4545
 2638SOL    HW119376   0.057   2.500  11.597  1.1360  0.0152 -1.0037
 2638SOL    HW219377   0.062   2.643  11.575  0.7760  1.7108  2.1675
 2639SOL     OW19378   0.003   4.563   0.834 -0.7865 -0.1276 -0.2935
 2639SOL    HW119379   0.069   4.502   0.799 -0.0359  0.6077 -0.1544
 2639SOL    HW219380   0.041   4.577   0.921  0.2824 -1.5941 -0.5105
 2640SOL     OW19381   1.932   0.399  11.398  0.0858  0.0970 -0.2441
 2640SOL    HW119382   1.997   0.333  11.373  1.2321  1.1512 -0.0281
 2640SOL    HW219383   1.980   0.480  11.417  1.5561 -1.3986  2.4625
 2641SOL     OW19384   2.384   0.376   9.895 -0.6095 -0.6859  0.3591
 2641SOL    HW119385   2.349   0.350   9.809 -1.3717 -0.9677  0.7555
 2641SOL    HW219386   2.336   0.311   9.944  0.9920 -0.5217  2.1275
 2642SOL     OW19387   3.481   4.330  15.856 -0.2017  0.1249  0.0494
 2642SOL    HW119388   3.505   4.308  15.766 -1.8451  0.1233 -0.3991
 2642SOL    HW219389   3.475   4.248  15.904 -0.3838  0.4291  0.5483
 2643SOL     OW19390   1.652   1.035   6.272 -0.2908 -0.3394 -0.5053
 2643SOL    HW119391   1.720   1.071   6.215  0.3715 -2.0698 -0.7929
 2643SOL    HW219392   1.573   1.089   6.269 -0.5841 -0.9111 -2.7643
 2644SOL     OW19393   1.330   2.047   8.142  0.4429 -0.0134  0.8015
 2644SOL    HW119394   1.236   2.030   8.137  0.5072 -0.2810  0.5330
 2644SOL    HW219395   1.345   2.097   8.061  0.3012 -0.2505  0.6297
 2645SOL     OW19396   3.789   1.154   5.528 -0.6599  0.2471 -0.6718
 2645SOL    HW119397   3.851   1.087   5.500 -1.4604  0.1634 -2.2655
 2645SOL    HW219398   3.837   1.226   5.487  0.7323 -0.9085 -1.0469
 2646SOL     OW19399   4.693   3.568   4.496 -0.0543  0.1159  0.2392
 2646SOL    HW119400   0.028   3.586   4.421 -2.9815  1.2309 -1.6554
 2646SOL    HW219401   0.035   3.543   4.564 -1.9774  0.3360  2.1115
 2647SOL     OW19402   3.709   0.212   2.080  0.3559  0.7707  0.6994
 2647SOL    HW119403   3.686   0.289   2.027 -1.9490 -0.5736 -0.2374
 2647SOL    HW219404   3.728   0.254   2.164  0.2648  0.8840  0.6638
 2648SOL     OW19405   4.558   1.723   4.892 -0.9840  0.0888  0.2498
 2648SOL    HW119406   4.653   1.719   4.881 -1.0257  1.5910 -0.6344
 2648SOL    HW219407   4.545   1.817   4.898 -0.3146  0.1806  0.1866
 2649SOL     OW19408   3.245   2.254   7.146  0.0403 -0.0110  0.4125
 2649SOL    HW119409   3.212   2.322   7.205 -1.4863 -0.9063  0.6100
 2649SOL    HW219410   3.227   2.298   7.063 -3.1756  0.4648  1.3356
 2650SOL     OW19411   1.124   0.044   5.728 -0.2801  0.6102 -0.3734
 2650SOL    HW119412   1.179   0.034   5.649  2.0696 -2.0048  1.5979
 2650SOL    HW219413   1.043   0.081   5.693  0.9229  2.0580 -1.6683
 2651SOL     OW19414   1.171   4.691   7.286 -0.1533 -0.2469  0.2111
 2651SOL    HW119415   1.145   4.650   7.203  1.4738 -0.7145 -0.0616
 2651SOL    HW219416   1.108   0.040   7.303  1.0041  1.1496 -1.1396
 2652SOL     OW19417   3.822   2.730   4.469 -0.5503 -0.0194  0.1807
 2652SOL    HW119418   3.730   2.719   4.495 -1.2515  5.5700  0.1511
 2652SOL    HW219419   3.824   2.729   4.373 -0.7216  1.3821  0.1603
 2653SOL     OW19420   1.378   0.730  11.854 -0.1903  0.0552  0.1085
 2653SOL    HW119421   1.411   0.679  11.928 -1.4305 -0.3103  0.4067
 2653SOL    HW219422   1.393   0.821  11.878 -1.0155 -0.1632  1.4614
 2654SOL     OW19423   1.864   2.185  17.301  0.6161 -0.1420 -0.1885
 2654SOL    HW119424   1.808   2.134  17.243  0.2650 -0.7392  0.6810
 2654SOL    HW219425   1.939   2.127  17.311  0.0169 -1.0618 -1.0905
 2655SOL     OW19426   1.634   2.402   8.746  0.5549  0.8157  0.4144
 2655SOL    HW119427   1.726   2.427   8.738  0.9404 -0.3520  1.3039
 2655SOL    HW219428   1.604   2.472   8.804 -0.8214  0.3605  0.2627
 2656SOL     OW19429   0.274   3.957   8.337  0.2891  0.6392 -0.2781
 2656SOL    HW119430   0.229   3.888   8.386 -0.1284  0.0419 -1.5166
 2656SOL    HW219431   0.206   3.982   8.274 -0.5335 -0.6593  0.0934
 2657SOL     OW19432   1.720   2.188  16.505 -0.1574  0.4127 -0.2237
 2657SOL    HW119433   1.642   2.154  16.460 -0.0619 -1.1837  0.8291
 2657SOL    HW219434   1.680   2.270  16.536 -0.7568  0.3754 -0.8991
 2658SOL     OW19435   0.796   2.977   4.510 -0.5314  0.3426 -0.2667
 2658SOL    HW119436   0.716   3.025   4.532  1.3508  2.4651  2.0245
 2658SOL    HW219437   0.804   2.985   4.415  1.1883  2.5106  0.0591
 2659SOL     OW19438   3.154   2.793   1.244  0.1201 -0.3112 -0.4162
 2659SOL    HW119439   3.154   2.827   1.333  1.1056 -0.4186 -0.3767
 2659SOL    HW219440   3.069   2.750   1.244  0.8497 -1.7327  2.1103
 2660SOL     OW19441   1.334   3.749   7.994  0.3846  0.3649  0.3813
 2660SOL    HW119442   1.411   3.700   8.025 -0.9549 -1.4158  0.8662
 2660SOL    HW219443   1.262   3.698   8.030  0.7472  0.0691  0.6862
 2661SOL     OW19444   3.809   2.101   4.056  0.1540  0.3130 -0.3539
 2661SOL    HW119445   3.772   2.155   3.986 -0.7356 -0.7636 -0.7024
 2661SOL    HW219446   3.853   2.036   4.001 -1.1322 -0.0345 -0.9635
 2662SOL     OW19447   1.623   0.338  16.834  0.2267  0.3439  0.1285
 2662SOL    HW119448   1.715   0.315  16.833  0.2087  0.4470 -2.2471
 2662SOL    HW219449   1.629   0.434  16.824 -0.1640  0.5012  1.3883
 2663SOL     OW19450   4.396   0.096   8.651  0.7284 -0.2438 -0.2642
 2663SOL    HW119451   4.355   0.014   8.679  1.4399 -1.0300 -1.4801
 2663SOL    HW219452   4.339   0.162   8.690  0.0728 -0.9938  0.0313
 2664SOL     OW19453   4.403   4.413   1.078 -0.6958 -0.5348  0.1961
 2664SOL    HW119454   4.419   4.496   1.124  0.0189 -0.3852 -0.3169
 2664SOL    HW219455   4.311   4.423   1.053 -0.3282  0.0683 -0.9160
 2665SOL     OW19456   2.698   1.184   5.838  0.0680  0.6080  0.6992
 2665SOL    HW119457   2.688   1.094   5.870 -0.0451  0.4747  0.2755
 2665SOL    HW219458   2.780   1.178   5.789  0.0379  1.6298  0.5252
 2666SOL     OW19459   2.351   3.252   6.602  0.5294  0.5427 -0.8990
 2666SOL    HW119460   2.257   3.256   6.623  0.6522  0.7923 -0.4132
 2666SOL    HW219461   2.383   3.339   6.622  0.9401  0.2818 -0.4446
 2667SOL     OW19462   4.579   0.965   3.801 -0.0240  0.0486 -0.9375
 2667SOL    HW119463   4.622   1.015   3.870 -2.2799 -0.0618  0.5547
 2667SOL    HW219464   4.486   0.976   3.824 -0.0471  0.1011 -1.0526
 2668SOL     OW19465   4.134   3.253  15.923  0.3727  0.2752 -0.6594
 2668SOL    HW119466   4.228   3.266  15.934  0.1654  0.9563  0.3140
 2668SOL    HW219467   4.124   3.184  15.857  3.7564 -2.0090  1.2069
 2669SOL     OW19468   3.744   2.452   6.680  0.0394  0.5204 -0.0370
 2669SOL    HW119469   3.801   2.380   6.653 -0.8518 -0.6445  1.1816
 2669SOL    HW219470   3.658   2.410   6.690  0.5937 -0.4773  0.5983
 2670SOL     OW19471   1.421   3.067  16.942  0.5558  0.1856  0.0396
 2670SOL    HW119472   1.485   3.031  16.880 -0.8391  0.6624 -1.6662
 2670SOL    HW219473   1.354   2.999  16.936  0.5299  0.0399  2.0660
 2671SOL     OW19474   1.836   4.335   1.647  0.2190  0.0705  0.5275
 2671SOL    HW119475   1.912   4.295   1.690 -0.8357 -2.0966  0.3577
 2671SOL    HW219476   1.874   4.397   1.585 -1.1865  0.0633 -0.3201
 2672SOL     OW19477   3.656   1.809   6.203 -0.3675  0.3127 -0.2882
 2672SOL    HW119478   3.660   1.715   6.190 -0.7947  0.2401  0.1091
 2672SOL    HW219479   3.664   1.837   6.112  1.6993 -2.2178 -0.8807
 2673SOL     OW19480   0.679   0.280  11.119  0.5271 -0.3863  0.0795
 2673SOL    HW119481   0.756   0.337  11.113  0.4879 -0.0842  2.4586
 2673SOL    HW219482   0.662   0.260  11.027 -1.6357  1.2618  0.1023
 2674SOL     OW19483   2.170   0.517   5.802  0.2079  0.4513 -0.0425
 2674SOL    HW119484   2.223   0.563   5.736  0.7510 -0.8810 -0.5454
 2674SOL    HW219485   2.195   0.567   5.879 -0.7974  0.1003  0.5078
 2675SOL     OW19486   1.355   3.806   5.501  0.3954  0.7919  0.2463
 2675SOL    HW119487   1.268   3.770   5.517  1.4243 -1.7244  0.1607
 2675SOL    HW219488   1.346   3.886   5.553 -0.3717  0.2085  1.0175
 2676SOL     OW19489   3.831   3.283   6.262 -0.6027 -0.0084  0.2664
 2676SOL    HW119490   3.918   3.297   6.225 -0.9436 -1.3959 -1.1184
 2676SOL    HW219491   3.823   3.187   6.255  0.0106  0.0829 -1.8748
 2677SOL     OW19492   0.351   2.393   7.984 -0.1218 -0.2798  0.1659
 2677SOL    HW119493   0.383   2.450   8.054 -0.6713 -0.5650  0.6528
 2677SOL    HW219494   0.360   2.306   8.023  1.1703  0.3250  1.2382
 2678SOL     OW19495   3.855   1.838   8.406 -0.2456  0.6517 -0.1401
 2678SOL    HW119496   3.767   1.802   8.399 -0.2759  0.6787  0.0876
 2678SOL    HW219497   3.842   1.915   8.461  0.0952  1.0267 -0.5819
 2679SOL     OW19498   2.548   1.912   7.178  0.0294 -0.3997  0.5981
 2679SOL    HW119499   2.551   1.843   7.112  0.9591 -2.3225  2.6455
 2679SOL    HW219500   2.589   1.866   7.252  0.1370  1.0243  1.4373
 2680SOL     OW19501   0.014   2.651  13.387  0.4436 -0.2875  0.1858
 2680SOL    HW119502   0.075   2.694  13.448  1.1091 -1.0052  0.0267
 2680SOL    HW219503   0.031   2.697  13.304  1.1533  0.7202  0.8789
 2681SOL     OW19504   2.540   4.168   3.329 -0.1641  0.3008 -0.3223
 2681SOL    HW119505   2.517   4.216   3.408 -0.0437  0.3611 -0.3231
 2681SOL    HW219506   2.607   4.225   3.291 -0.9153  0.4653 -1.4106
 2682SOL     OW19507   4.251   1.395   7.402 -0.1687  0.4843 -0.0492
 2682SOL    HW119508   4.327   1.339   7.383 -1.2685 -0.6337 -1.2212
 2682SOL    HW219509   4.225   1.404   7.310 -0.2242  1.5004  0.0653
 2683SOL     OW19510   0.459   3.448   5.416  0.1674  0.5469  0.0827
 2683SOL    HW119511   0.376   3.401   5.430  0.6682 -0.8717 -1.8621
 2683SOL    HW219512   0.425   3.525   5.371 -1.7342  0.6930  1.7152
 2684SOL     OW19513   0.128   1.197   8.883  0.2214 -0.9070  0.1660
 2684SOL    HW119514   0.188   1.135   8.841 -0.5880 -1.1763 -0.5976
 2684SOL    HW219515   0.176   1.236   8.956 -2.6183  0.3373  1.3628
 2685SOL     OW19516   4.141   4.075   7.919 -0.1247 -0.2739 -0.4259
 2685SOL    HW119517   4.168   4.013   7.852  3.5846 -0.7406  1.5236
 2685SOL    HW219518   4.063   4.118   7.884  0.2585 -0.1198 -1.0951
 2686SOL     OW19519   3.737   3.413   7.036 -0.6021 -0.3567 -0.2889
 2686SOL    HW119520   3.739   3.504   7.064 -0.4105  0.4290 -2.8751
 2686SOL    HW219521   3.820   3.410   6.988 -1.8326 -2.5564 -2.2488
 2687SOL     OW19522   2.977   4.405   5.228 -0.5731  0.2453 -0.4659
 2687SOL    HW119523   2.951   4.383   5.317 -1.3329 -1.1941 -1.0434
 2687SOL    HW219524   2.892   4.400   5.186 -0.0681 -3.2616 -1.1135
 2688SOL     OW19525   2.310   1.897  17.309  0.2452  0.2759 -0.1307
 2688SOL    HW119526   2.329   1.804  17.323 -0.2491  0.3507  0.9759
 2688SOL    HW219527   2.395   1.933  17.333  0.3662 -1.2310  1.7031
 2689SOL     OW19528   3.390   0.026  16.833  0.0710  0.3135  0.2006
 2689SOL    HW119529   3.299   0.019  16.863 -0.0730  0.0708 -0.2935
 2689SOL    HW219530   3.391   0.122  16.832  0.9582  0.2556 -3.1700
 2690SOL     OW19531   0.941   0.074  17.642 -0.4473 -0.2584 -0.2928
 2690SOL    HW119532   0.994   4.715  17.642 -2.1905 -1.3968  0.0849
 2690SOL    HW219533   1.002   0.146  17.656  1.9792 -2.9095  2.7456
 2691SOL     OW19534   3.678   0.196  14.467 -0.2761  0.4366 -0.3135
 2691SOL    HW119535   3.663   0.204  14.373  0.4132  1.6659 -0.3317
 2691SOL    HW219536   3.596   0.217  14.512  1.2861  2.7423  1.5055
 2692SOL     OW19537   3.793   0.904   7.434  0.0059 -0.4072 -0.0870
 2692SOL    HW119538   3.783   0.940   7.346 -0.5929 -1.5060 -0.4680
 2692SOL    HW219539   3.796   0.810   7.419  0.1650 -0.4714  0.3370
 2693SOL     OW19540   1.661   1.743   8.936 -0.0438  0.6483 -0.7208
 2693SOL    HW119541   1.571   1.715   8.924  1.0909 -3.2227 -0.2028
 2693SOL    HW219542   1.694   1.653   8.932 -0.8388  0.4154 -2.3423
 2694SOL     OW19543   0.231   3.528   4.762 -0.0667 -0.1005  0.1030
 2694SOL    HW119544   0.155   3.473   4.745  0.6327 -1.1181  0.3145
 2694SOL    HW219545   0.273   3.525   4.676  0.6389 -1.4733  0.5088
 2695SOL     OW19546   4.061   3.278  16.863 -0.3395  0.2484  0.5290
 2695SOL    HW119547   4.026   3.191  16.844  1.1771  0.2249 -2.0601
 2695SOL    HW219548   4.052   3.309  16.773 -1.0009  0.5778  0.7079
 2696SOL     OW19549   0.591   4.118   9.362  0.4323 -0.3072 -0.2282
 2696SOL    HW119550   0.624   4.180   9.427 -1.0544 -1.3571  1.5222
 2696SOL    HW219551   0.535   4.177   9.311 -0.6804  0.9139  2.3904
 2697SOL     OW19552   4.464   1.618   5.281  0.2037  0.1182  0.2454
 2697SOL    HW119553   4.488   1.706   5.311  0.8644 -0.1923  0.6290
 2697SOL    HW219554   4.380   1.603   5.325  0.1637 -0.4315 -0.0202
 2698SOL     OW19555   3.702   0.130   8.856  0.2279  0.0692 -0.2240
 2698SOL    HW119556   3.746   0.133   8.941 -0.4697 -3.2668  0.2799
 2698SOL    HW219557   3.670   0.220   8.851 -0.2000 -0.3426 -5.3716
 2699SOL     OW19558   3.900   2.349   4.869 -0.0352  0.3183  0.0327
 2699SOL    HW119559   3.820   2.356   4.922  0.5106 -1.5375  1.0896
 2699SOL    HW219560   3.962   2.414   4.902 -1.7674  1.9399  0.1455
 2700SOL     OW19561   1.245   4.291  13.622 -0.5103  0.3089  0.1983
 2700SOL    HW119562   1.321   4.298  13.564 -1.9427  0.8039 -1.6312
 2700SOL    HW219563   1.227   4.385  13.622 -1.6823  0.0771 -0.5360
 2701SOL     OW19564   2.208   4.633  16.304 -0.1124  0.2546 -0.4434
 2701SOL    HW119565   2.220   4.700  16.372 -1.5014  0.1689 -0.1334
 2701SOL    HW219566   2.163   4.568  16.357 -0.0537  2.6508  2.5513
 2702SOL     OW19567   4.685   1.567   2.201 -0.3439  0.1348  0.1054
 2702SOL    HW119568   4.646   1.640   2.250  0.8447  0.6102  0.3625
 2702SOL    HW219569   0.053   1.552   2.233  0.2246  2.9164 -0.1168
 2703SOL     OW19570   4.338   3.590   7.424 -0.2228 -0.1723  0.5401
 2703SOL    HW119571   4.369   3.669   7.469 -1.0330  0.3862  0.1217
 2703SOL    HW219572   4.283   3.637   7.361 -0.2221  0.0979  0.7406
 2704SOL     OW19573   4.423   0.193   2.835 -0.2419 -0.0794 -0.4308
 2704SOL    HW119574   4.480   0.267   2.811  1.6539 -0.9183  1.4520
 2704SOL    HW219575   4.486   0.126   2.809 -1.1941 -1.5828  1.1630
 2705SOL     OW19576   0.488   0.107  10.472  0.2788 -0.5358 -0.0227
 2705SOL    HW119577   0.529   0.131  10.389  0.1807 -3.8542 -1.0387
 2705SOL    HW219578   0.558   0.130  10.532  0.1274 -1.1181  0.3789
 2706SOL     OW19579   2.993   1.517  10.740  0.2007 -0.3174 -0.0102
 2706SOL    HW119580   3.048   1.440  10.726  0.1320  0.0899 -2.5799
 2706SOL    HW219581   2.909   1.477  10.763  1.0540 -1.1221  1.7050
 2707SOL     OW19582   1.911   0.874   8.786 -0.0395 -0.1298 -0.0124
 2707SOL    HW119583   1.903   0.958   8.741 -1.5593 -0.7356 -0.8609
 2707SOL    HW219584   1.886   0.890   8.877  0.8179  0.2985  0.1563
 2708SOL     OW19585   0.755   2.147   5.025  0.5954 -0.1635 -0.5650
 2708SOL    HW119586   0.768   2.233   4.986 -2.1694  0.1994 -0.7064
 2708SOL    HW219587   0.705   2.096   4.962 -3.2333  0.4187  1.9829
 2709SOL     OW19588   3.494   4.599   6.893  0.2389 -0.2020  0.2477
 2709SOL    HW119589   3.516   4.674   6.838 -1.1714 -0.0913 -0.1855
 2709SOL    HW219590   3.526   4.524   6.844  1.6764  0.1081  0.7142
 2710SOL     OW19591   0.386   4.442  14.705 -0.3504  0.3617  0.3147
 2710SOL    HW119592   0.334   4.380  14.755 -1.0969 -0.1557 -1.1093
 2710SOL    HW219593   0.462   4.396  14.669 -0.2853  1.0912 -0.4860
 2711SOL     OW19594   1.854   4.172   7.353  0.0124 -0.2539 -0.0482
 2711SOL    HW119595   1.809   4.214   7.426 -1.1923 -1.3758 -0.1356
 2711SOL    HW219596   1.931   4.228   7.345 -1.1192  1.0832 -1.5071
 2712SOL     OW19597   3.637   1.396  15.615  0.0297 -0.5269 -0.2642
 2712SOL    HW119598   3.547   1.430  15.616  0.5757  0.9584 -2.3389
 2712SOL    HW219599   3.678   1.467  15.663 -0.5749 -0.9433  0.8792
 2713SOL     OW19600   3.077   4.653   3.833  0.1938 -0.6029  0.1169
 2713SOL    HW119601   3.149   4.681   3.776  0.2221  1.3576  1.1167
 2713SOL    HW219602   3.012   4.655   3.763  1.5739  0.3914 -1.1339
 2714SOL     OW19603   1.805   2.305   8.154  0.4273 -0.1051 -0.3349
 2714SOL    HW119604   1.770   2.393   8.172  0.6669 -0.4030  1.6707
 2714SOL    HW219605   1.747   2.255   8.212  1.0941  1.6254  1.8758
 2715SOL     OW19606   0.453   4.657   7.487 -0.0841 -0.3030  0.2108
 2715SOL    HW119607   0.460   4.623   7.577  1.0020  0.7396  0.5247
 2715SOL    HW219608   0.540   4.693   7.470  0.3486 -1.4983 -0.0735
 2716SOL     OW19609   0.391   1.661   5.482 -0.1928  0.1832 -0.2139
 2716SOL    HW119610   0.439   1.643   5.562  0.5443 -1.0751 -0.9310
 2716SOL    HW219611   0.305   1.633   5.513  0.6765 -2.0429  0.1466
 2717SOL     OW19612   4.217   1.119   4.579  0.1555  0.2190 -0.3006
 2717SOL    HW119613   4.238   1.198   4.628 -1.0458  2.3851 -3.2911
 2717SOL    HW219614   4.125   1.137   4.560 -0.5612 -0.6839  2.3138
 2718SOL     OW19615   1.446   3.611   4.176  0.2446  0.1936  0.0135
 2718SOL    HW119616   1.398   3.557   4.238 -0.1333 -0.2525 -0.6697
 2718SOL    HW219617   1.453   3.541   4.110  0.2502  1.4795 -1.3554
 2719SOL     OW19618   3.484   2.256   8.775 -0.0424 -0.1434  0.2760
 2719SOL    HW119619   3.444   2.343   8.774 -1.0463 -0.5906  1.5635
 2719SOL    HW219620   3.577   2.273   8.793 -0.3935  1.5517  0.4795
 2720SOL     OW19621   2.353   0.942  14.029  0.5291 -0.0844  0.0992
 2720SOL    HW119622   2.448   0.942  14.039  0.5799 -2.1247 -0.2311
 2720SOL    HW219623   2.327   0.895  14.108 -0.9225  2.9537  1.4336
 2721SOL     OW19624   1.552   0.850   8.953 -0.1824 -0.4374 -0.6661
 2721SOL    HW119625   1.646   0.857   8.966 -0.1358 -0.1599 -1.1864
 2721SOL    HW219626   1.519   0.895   9.031  1.8971  1.5338 -0.9141
 2722SOL     OW19627   0.113   1.475   1.202  0.3780 -0.2925  0.1857
 2722SOL    HW119628   0.199   1.433   1.192  0.5584 -0.3902  2.0835
 2722SOL    HW219629   0.134   1.541   1.267  3.0753 -0.3728 -0.6032
 2723SOL     OW19630   0.871   0.035  11.326 -0.0093  0.3061 -0.3565
 2723SOL    HW119631   0.820   4.676  11.314  2.0956 -0.7477 -2.2943
 2723SOL    HW219632   0.799   0.098  11.325  1.2309  1.7136 -1.0391
 2724SOL     OW19633   0.965   0.555   4.288 -0.1220 -0.2577  0.0034
 2724SOL    HW119634   0.935   0.528   4.375 -1.9486  0.3885 -0.4243
 2724SOL    HW219635   0.884   0.577   4.242 -1.1643 -1.7405  1.1288
 2725SOL     OW19636   4.677   2.965  10.266  0.5385  0.4650 -0.2481
 2725SOL    HW119637   0.036   2.946  10.316  0.5632  1.4902  0.0946
 2725SOL    HW219638   4.615   2.932  10.331  0.2649 -0.4763 -0.9852
 2726SOL     OW19639   2.054   2.228   4.851 -0.1913 -0.4552  0.6764
 2726SOL    HW119640   1.976   2.174   4.843 -0.9103  0.3908  2.2413
 2726SOL    HW219641   2.068   2.273   4.767  1.5075  0.1921  1.2947
 2727SOL     OW19642   1.135   3.076   6.993  0.3739  0.1169  0.2186
 2727SOL    HW119643   1.117   3.009   7.059 -0.9505  0.6430  0.3881
 2727SOL    HW219644   1.165   3.035   6.912 -4.1816 -3.3954  0.3133
 2728SOL     OW19645   1.877   0.492   3.217 -0.2459  0.2820  0.4695
 2728SOL    HW119646   1.907   0.558   3.155  2.2853 -0.2834  1.0884
 2728SOL    HW219647   1.784   0.475   3.201  0.2705  1.9092 -4.1858
 2729SOL     OW19648   1.704   3.151  12.772  0.3339 -0.3879 -0.2976
 2729SOL    HW119649   1.791   3.183  12.750  0.8578 -1.2582  0.5227
 2729SOL    HW219650   1.719   3.061  12.799  0.4652 -0.5255 -0.8313
 2730SOL     OW19651   1.706   2.863   2.801 -0.5948 -0.1500 -0.2453
 2730SOL    HW119652   1.770   2.797   2.776  1.3462  1.7828 -0.3677
 2730SOL    HW219653   1.625   2.813   2.796 -1.3803  1.1865 -0.9769
 2731SOL     OW19654   2.525   1.090  10.892 -0.0434  0.0270 -0.0669
 2731SOL    HW119655   2.555   1.097  10.802 -3.8276  1.1932 -1.2349
 2731SOL    HW219656   2.599   1.056  10.942  0.7295  0.4923 -0.8959
 2732SOL     OW19657   2.303   2.539   8.364  0.4413 -0.2458  0.1179
 2732SOL    HW119658   2.280   2.599   8.293  1.0745  0.2583  0.3294
 2732SOL    HW219659   2.287   2.596   8.439  0.6109 -0.4494  0.3068
 2733SOL     OW19660   1.714   2.606   1.360  0.0771 -0.0665  0.0539
 2733SOL    HW119661   1.795   2.566   1.391  0.1548 -0.6778 -0.9587
 2733SOL    HW219662   1.728   2.696   1.391  1.4504 -0.1325 -0.3901
 2734SOL     OW19663   4.710   4.065   1.852 -0.0730 -0.3195  0.3335
 2734SOL    HW119664   4.697   4.150   1.810  0.7233 -0.2396  0.2410
 2734SOL    HW219665   0.018   4.009   1.780 -0.1863 -1.3271  1.0761
 2735SOL     OW19666   2.807   4.325   2.868 -0.1195 -0.1205  0.2190
 2735SOL    HW119667   2.736   4.358   2.923  0.3068 -1.7193  1.7212
 2735SOL    HW219668   2.800   4.231   2.884 -2.6513 -0.1807 -1.0976
 2736SOL     OW19669   3.012   2.328   6.000 -0.3891 -0.1097  0.4443
 2736SOL    HW119670   2.927   2.370   5.991 -0.7752 -1.0337 -0.2174
 2736SOL    HW219671   3.042   2.349   6.089 -0.4256 -1.3398  0.7576
 2737SOL     OW19672   2.471   0.753   9.974  0.1144  0.1969  0.2940
 2737SOL    HW119673   2.413   0.823   9.944 -1.3066 -0.9099  0.4310
 2737SOL    HW219674   2.546   0.775   9.919 -0.1153 -1.2707 -0.6101
 2738SOL     OW19675   2.741   2.004   8.670 -0.4443 -0.3062  0.5475
 2738SOL    HW119676   2.652   2.002   8.633 -0.5716 -2.4375  0.9809
 2738SOL    HW219677   2.766   2.096   8.669 -2.4957  0.2584  0.1617
 2739SOL     OW19678   0.835   1.415  15.280  0.8094 -0.1072 -0.0070
 2739SOL    HW119679   0.838   1.376  15.193  0.4354 -1.0153  0.3828
 2739SOL    HW219680   0.867   1.337  15.326  0.8651 -0.4394 -0.6080
 2740SOL     OW19681   0.869   4.316   9.047 -0.0270 -0.0849  0.1957
 2740SOL    HW119682   0.853   4.252   9.116  0.7808 -0.2999  0.1826
 2740SOL    HW219683   0.792   4.373   9.059 -0.6492 -0.7414 -0.7156
 2741SOL     OW19684   0.218   1.670  16.434  0.0922  0.3553  0.0319
 2741SOL    HW119685   0.190   1.725  16.361  0.7009  2.3586  1.3198
 2741SOL    HW219686   0.291   1.619  16.397  1.5271  3.0691 -0.8906
 2742SOL     OW19687   0.325   4.057   4.533  0.1860 -0.6089 -0.1881
 2742SOL    HW119688   0.326   4.149   4.504  0.8821 -0.5978 -0.1156
 2742SOL    HW219689   0.419   4.049   4.548  0.1992 -2.6814 -1.3477
 2743SOL     OW19690   1.794   3.537   5.115  0.4435 -0.2290 -0.1512
 2743SOL    HW119691   1.873   3.485   5.129  1.0670  1.4157  2.3489
 2743SOL    HW219692   1.831   3.616   5.078  0.2485 -0.9456 -1.8648
 2744SOL     OW19693   3.358   4.006  16.812 -0.1221 -0.3928  0.6480
 2744SOL    HW119694   3.347   3.937  16.878 -4.9108 -0.9917 -0.7397
 2744SOL    HW219695   3.270   4.013  16.774 -0.3877 -1.0429  1.1473
 2745SOL     OW19696   4.649   0.857   4.545  0.2284  0.8071  0.1099
 2745SOL    HW119697   4.702   0.798   4.492  1.6309  2.9100 -0.8493
 2745SOL    HW219698   4.568   0.842   4.496  1.1864 -0.3890 -1.1214
 2746SOL     OW19699   4.156   1.392   2.383  0.3281  0.1663 -0.2073
 2746SOL    HW119700   4.162   1.333   2.308 -1.4219 -0.3231  0.0349
 2746SOL    HW219701   4.188   1.327   2.445  0.4648  2.7154  2.4250
 2747SOL     OW19702   4.145   3.953   5.939 -0.1089 -0.4414  0.3671
 2747SOL    HW119703   4.106   4.019   5.881  0.8834 -0.7263 -0.6087
 2747SOL    HW219704   4.084   3.951   6.012  0.5353 -0.8059  0.8898
 2748SOL     OW19705   4.429   4.634  14.264 -0.1086  0.2500 -0.1780
 2748SOL    HW119706   4.375   4.618  14.341 -0.4048  1.6735 -0.0890
 2748SOL    HW219707   4.442   4.544  14.234 -3.3726 -0.8736  1.8240
 2749SOL     OW19708   3.529   3.044   9.597 -0.4217  0.1961  0.2556
 2749SOL    HW119709   3.504   3.080   9.681  1.2627 -1.0999  1.3373
 2749SOL    HW219710   3.624   3.042   9.608 -0.1343 -2.8855 -2.4705
 2750SOL     OW19711   4.463   4.343   3.073  0.1605 -0.2580  0.7497
 2750SOL    HW119712   4.431   4.253   3.068  0.8340 -0.3332 -1.8489
 2750SOL    HW219713   4.449   4.373   2.984  1.1878 -1.2683  0.2489
 2751SOL     OW19714   2.366   1.045   0.653 -0.4129 -0.4583 -0.4071
 2751SOL    HW119715   2.419   1.114   0.693 -0.0294 -0.5378 -0.7822
 2751SOL    HW219716   2.340   1.084   0.570 -2.5758 -2.2489 -0.5682
 2752SOL     OW19717   2.084   2.700   9.036  0.8716  0.6971  0.3850
 2752SOL    HW119718   2.103   2.794   9.041 -1.2465  1.1523  0.0070
 2752SOL    HW219719   2.171   2.664   9.025  0.4284  0.1321 -1.2791
 2753SOL     OW19720   4.612   2.661   4.018  0.1860 -0.2473 -0.2327
 2753SOL    HW119721   4.655   2.654   4.104 -0.3451 -0.7242 -0.0069
 2753SOL    HW219722   4.658   2.737   3.982 -0.8215  0.2121 -0.5606
 2754SOL     OW19723   3.957   3.793   1.100  0.1769 -0.2567  0.8548
 2754SOL    HW119724   3.866   3.770   1.119  0.3146 -0.8213  0.8367
 2754SOL    HW219725   3.951   3.796   1.004  2.6498 -2.4257  0.6487
 2755SOL     OW19726   1.637   2.523   5.321  0.1554  0.1343  0.1327
 2755SOL    HW119727   1.619   2.518   5.415  1.8898  2.9757  0.6199
 2755SOL    HW219728   1.733   2.527   5.314 -0.1976  2.1291 -3.7534
 2756SOL     OW19729   1.236   4.063   4.834 -0.1555 -0.7726 -0.0252
 2756SOL    HW119730   1.251   4.047   4.741 -1.4367 -1.3301 -0.1290
 2756SOL    HW219731   1.270   3.979   4.864 -0.7500 -1.3949 -1.1004
 2757SOL     OW19732   0.260   4.580   4.023  0.9000  0.3669  0.6734
 2757SOL    HW119733   0.222   4.582   3.935 -0.4419 -0.3471  1.2442
 2757SOL    HW219734   0.213   4.642   4.077 -1.3966  1.0639 -2.1517
 2758SOL     OW19735   3.224   4.566   0.073  0.1493 -0.0436  0.1789
 2758SOL    HW119736   3.164   4.588   0.144 -0.9218 -1.1994 -0.3863
 2758SOL    HW219737   3.247   4.473   0.080 -0.5716 -0.2494 -0.2010
 2759SOL     OW19738   3.838   3.908   4.085 -0.3151 -0.2354  0.4627
 2759SOL    HW119739   3.888   3.833   4.054  0.9186  1.5638 -1.8560
 2759SOL    HW219740   3.766   3.864   4.132 -0.9819  2.8945  2.3769
 2760SOL     OW19741   3.874   0.400  14.459  1.0371  0.4158 -0.0509
 2760SOL    HW119742   3.950   0.363  14.415  0.8262  0.0483 -0.1106
 2760SOL    HW219743   3.813   0.328  14.476 -2.0796  2.4806 -2.4275
 2761SOL     OW19744   2.331   2.150  10.221 -0.1387  0.5837  0.4279
 2761SOL    HW119745   2.241   2.122  10.238  0.6479 -1.2838  1.5845
 2761SOL    HW219746   2.373   2.101  10.291 -0.5507  2.9666  2.3401
 2762SOL     OW19747   0.284   4.352   5.306 -0.3464  0.3553  0.5786
 2762SOL    HW119748   0.360   4.410   5.310  0.4816 -0.6712 -0.2187
 2762SOL    HW219749   0.222   4.411   5.348 -0.3489 -0.6081  1.9454
 2763SOL     OW19750   4.661   2.299   6.415 -0.3177 -0.1248  0.1641
 2763SOL    HW119751   4.713   2.221   6.436  1.1683  1.5465  2.7283
 2763SOL    HW219752   4.657   2.342   6.500  0.7320 -0.0633  0.1871
 2764SOL     OW19753   0.109   1.467   0.236 -0.6146 -0.1701  0.2594
 2764SOL    HW119754   0.135   1.432   0.151 -0.4602  0.6491 -0.0302
 2764SOL    HW219755   0.015   1.482   0.225 -0.7066 -0.8368  0.1481
 2765SOL     OW19756   1.064   1.863   8.501  0.3352  0.4499  0.3857
 2765SOL    HW119757   0.996   1.837   8.563  0.9332 -2.3390 -0.1389
 2765SOL    HW219758   1.118   1.784   8.496 -0.9541 -0.3219 -1.5802
 2766SOL     OW19759   1.682   2.298  14.804  0.8522 -0.4139 -0.1159
 2766SOL    HW119760   1.760   2.307  14.859  0.2655 -0.3175  0.6961
 2766SOL    HW219761   1.722   2.325  14.721  1.0632  0.1298  0.1676
 2767SOL     OW19762   0.069   0.787   7.675 -0.3212  0.5189  0.2052
 2767SOL    HW119763   0.032   0.840   7.745 -2.3528 -1.5028  0.6887
 2767SOL    HW219764   0.117   0.851   7.624 -1.1005  0.2544 -0.8583
 2768SOL     OW19765   2.121   2.960   4.928 -0.6977 -0.1187 -0.3677
 2768SOL    HW119766   2.110   2.982   4.835 -2.2445 -0.1939 -0.2125
 2768SOL    HW219767   2.068   2.881   4.920  0.1684 -0.9124  1.8610
 2769SOL     OW19768   4.609   2.139   3.111  0.0452 -0.1703  0.0687
 2769SOL    HW119769   4.643   2.081   3.043 -0.9325  1.2761 -1.6763
 2769SOL    HW219770   4.691   2.165   3.154  0.6182 -0.7061 -0.6986
 2770SOL     OW19771   4.264   4.711   9.673 -0.2024 -0.0551  0.8906
 2770SOL    HW119772   4.348   4.699   9.628 -1.2262 -2.7315 -0.2892
 2770SOL    HW219773   4.287   0.051   9.743  0.9855  0.4708  0.0533
 2771SOL     OW19774   3.949   0.228  14.177 -0.1177 -0.2209 -0.1409
 2771SOL    HW119775   4.034   0.271  14.163  0.4683 -1.1855  0.5083
 2771SOL    HW219776   3.977   0.144  14.213  0.6131 -0.1310 -0.4935
 2772SOL     OW19777   2.328   4.668   5.922 -0.3006  0.7842 -0.6932
 2772SOL    HW119778   2.250   4.719   5.944 -0.1832  0.7730 -0.2405
 2772SOL    HW219779   2.302   4.645   5.833 -0.2694 -0.5075 -0.3776
 2773SOL     OW19780   1.363   3.288   8.499  0.1181  0.2347  0.7279
 2773SOL    HW119781   1.453   3.319   8.496 -0.1508  0.8387 -1.1143
 2773SOL    HW219782   1.347   3.290   8.593  0.6616 -0.4254  0.8333
 2774SOL     OW19783   4.679   1.248   9.849  0.3312  0.5072  0.3095
 2774SOL    HW119784   4.663   1.326   9.903 -0.0398 -0.0595  1.0210
 2774SOL    HW219785   0.010   1.193   9.907  1.1113  0.8705 -0.0424
 2775SOL     OW19786   2.975   3.812  15.145 -0.2176 -0.1632 -0.4768
 2775SOL    HW119787   2.929   3.893  15.123 -1.0905 -0.3579  0.6316
 2775SOL    HW219788   2.922   3.747  15.099 -1.2863  0.3425  0.0320
 2776SOL     OW19789   2.368   2.545  12.639 -0.6785 -0.2183 -0.1823
 2776SOL    HW119790   2.331   2.559  12.552 -0.2663  2.4109  0.0470
 2776SOL    HW219791   2.331   2.460  12.660 -1.9701  0.2282 -0.6154
 2777SOL     OW19792   4.074   3.797   3.751 -0.3973  0.4842  0.5533
 2777SOL    HW119793   4.077   3.741   3.673 -0.7670 -0.2385  1.0534
 2777SOL    HW219794   4.145   3.857   3.729  0.4951 -0.4811  0.8013
 2778SOL     OW19795   3.691   3.587   0.192 -0.0793 -0.1650 -0.4059
 2778SOL    HW119796   3.608   3.630   0.167 -1.2560 -1.6691  0.9202
 2778SOL    HW219797   3.748   3.661   0.174 -2.4636  1.5085 -1.1655
 2779SOL     OW19798   3.955   3.485   7.380  0.5254  0.0443 -0.2716
 2779SOL    HW119799   4.044   3.489   7.347  1.7036 -1.6545  2.7112
 2779SOL    HW219800   3.957   3.546   7.454 -1.7556  1.9085 -1.6973
 2780SOL     OW19801   1.835   1.046   1.621  0.2356  0.2114 -0.2273
 2780SOL    HW119802   1.883   0.964   1.625  0.3836  0.2898 -0.4236
 2780SOL    HW219803   1.894   1.107   1.665  1.1844 -0.9229  0.0837
 2781SOL     OW19804   3.944   1.551   3.006 -0.3570  0.3064 -0.2276
 2781SOL    HW119805   3.970   1.599   3.084  0.5327  0.0298 -0.3565
 2781SOL    HW219806   3.892   1.611   2.952 -2.4137 -0.4654  0.9186
 2782SOL     OW19807   4.604   0.317   7.966 -0.1521  0.3102 -0.0757
 2782SOL    HW119808   4.615   0.394   7.909 -1.9628 -0.2054 -1.1085
 2782SOL    HW219809   4.524   0.346   8.011 -0.2394  3.2462 -2.0990
 2783SOL     OW19810   3.707   2.748  11.437  0.5937 -0.0706 -0.4282
 2783SOL    HW119811   3.746   2.676  11.388 -0.0049 -0.8900  0.2871
 2783SOL    HW219812   3.649   2.702  11.498  0.8347  0.3676  0.1308
 2784SOL     OW19813   1.098   3.343   5.050  0.1187  0.0204  0.3254
 2784SOL    HW119814   1.174   3.400   5.064 -0.6142  0.5037  2.3375
 2784SOL    HW219815   1.091   3.300   5.135  1.8246 -1.0678 -0.0854
 2785SOL     OW19816   2.844   3.772  16.959  0.5716  1.0259  0.3201
 2785SOL    HW119817   2.939   3.784  16.955  0.5326  1.2356 -0.0069
 2785SOL    HW219818   2.836   3.688  16.914 -0.2298  0.3363  1.7641
 2786SOL     OW19819   4.620   4.371   1.410  0.0956  0.1899 -0.2673
 2786SOL    HW119820   4.556   4.429   1.451 -0.4595 -1.6235  1.4333
 2786SOL    HW219821   4.562   4.314   1.362 -0.3130  1.3000 -1.0890
 2787SOL     OW19822   4.174   1.775   2.746 -0.2797  0.6296 -0.1581
 2787SOL    HW119823   4.224   1.835   2.691  2.1639 -2.5805 -1.4217
 2787SOL    HW219824   4.161   1.705   2.682 -1.9071 -2.2726  3.3287
 2788SOL     OW19825   4.335   2.040   4.568 -0.2586 -0.1506 -0.8003
 2788SOL    HW119826   4.327   2.105   4.638 -1.1666 -0.1306 -0.9139
 2788SOL    HW219827   4.242   2.024   4.548 -0.5659  0.0680  0.4677
 2789SOL     OW19828   1.105   0.188   5.339 -0.7810 -0.2755  0.0619
 2789SOL    HW119829   1.084   0.174   5.247 -2.2193 -1.0102  0.5168
 2789SOL    HW219830   1.048   0.256   5.374  0.9365  1.4368 -0.4048
 2790SOL     OW19831   2.907   0.749   5.642 -0.4031  0.6406  0.5787
 2790SOL    HW119832   2.878   0.723   5.555 -1.2700  2.1118  0.4317
 2790SOL    HW219833   2.834   0.807   5.665 -1.0395 -0.5916  1.6488
 2791SOL     OW19834   1.182   1.557   6.276  0.1822  0.1125  0.1088
 2791SOL    HW119835   1.112   1.619   6.256 -0.9092 -1.9564 -2.4056
 2791SOL    HW219836   1.135   1.474   6.274 -1.8136  1.2544  0.0126
 2792SOL     OW19837   1.892   2.573   2.220 -0.0763  0.0041  0.2698
 2792SOL    HW119838   1.890   2.656   2.173  0.9359 -0.0562  0.1291
 2792SOL    HW219839   1.804   2.560   2.255 -0.2493  2.6917  0.8677
 2793SOL     OW19840   2.111   3.848   3.947 -0.0185  0.2622 -0.1839
 2793SOL    HW119841   2.135   3.788   4.018  0.0956  0.8522  0.2813
 2793SOL    HW219842   2.083   3.787   3.880  1.4403  0.2579 -0.7969
 2794SOL     OW19843   3.098   2.024  12.384  0.4529 -0.0328 -0.6004
 2794SOL    HW119844   3.138   2.107  12.358  0.6133 -0.1355 -0.6844
 2794SOL    HW219845   3.160   1.970  12.335 -0.3844 -0.0113 -1.6954
 2795SOL     OW19846   2.075   0.993   1.040 -0.0845 -0.0964 -0.2276
 2795SOL    HW119847   2.078   1.012   1.133  2.7088  1.2426 -0.5715
 2795SOL    HW219848   1.994   0.943   1.047 -0.7453  0.4974 -3.2440
 2796SOL     OW19849   2.490   2.703  15.946 -0.3101  0.0427  0.6099
 2796SOL    HW119850   2.478   2.663  15.860 -0.0309  1.5240 -0.1316
 2796SOL    HW219851   2.581   2.675  15.956 -0.2927  0.2131  0.9213
 2797SOL     OW19852   2.182   4.111   9.314  0.3702 -0.0668  0.2994
 2797SOL    HW119853   2.257   4.072   9.359  0.5301  1.2030  1.1327
 2797SOL    HW219854   2.181   4.195   9.360 -0.0971 -0.7475  1.5376
 2798SOL     OW19855   4.621   0.038   2.769 -0.6524 -0.4047 -0.7749
 2798SOL    HW119856   4.660   4.679   2.807 -1.6497 -0.1022  0.9060
 2798SOL    HW219857   4.699   0.074   2.727  0.4882 -1.0433  0.7734
 2799SOL     OW19858   1.343   0.038   5.493  0.0233 -1.1218 -0.1628
 2799SOL    HW119859   1.299   0.072   5.415 -0.5314  0.0935  0.6864
 2799SOL    HW219860   1.436   0.034   5.471  0.1840 -1.2853  0.5792
 2800SOL     OW19861   3.450   0.664  13.098  0.4498  0.4230  0.4202
 2800SOL    HW119862   3.531   0.676  13.049  0.1062  1.8694  0.1920
 2800SOL    HW219863   3.445   0.748  13.145 -1.3622 -1.1630  3.0374
 2801SOL     OW19864   1.056   0.683   4.878  0.7489 -0.1134 -0.2344
 2801SOL    HW119865   1.137   0.697   4.927 -0.3473  4.3547  0.3253
 2801SOL    HW219866   1.056   0.591   4.852  2.0734  0.0767 -0.9106
 2802SOL     OW19867   1.114   2.485  14.681  0.2692  0.0128  0.2129
 2802SOL    HW119868   1.201   2.463  14.647  0.0119 -0.9381  0.1463
 2802SOL    HW219869   1.134   2.554  14.744  1.4303 -0.4573  0.3760
 2803SOL     OW19870   0.968   0.326   7.548  0.0262  0.1265 -0.0616
 2803SOL    HW119871   0.963   0.304   7.641  0.0773 -0.7739 -0.2711
 2803SOL    HW219872   0.950   0.419   7.555 -2.5184 -0.3551 -0.1875
 2804SOL     OW19873   0.601   1.421   7.964  0.5782 -0.1623  0.2470
 2804SOL    HW119874   0.690   1.419   7.928  0.2644 -2.4627 -0.4318
 2804SOL    HW219875   0.607   1.352   8.031  1.1778 -0.0588  0.2990
 2805SOL     OW19876   3.408   3.624   7.759  0.2551  0.3129 -0.6135
 2805SOL    HW119877   3.436   3.681   7.830 -1.7087 -1.0989  1.2846
 2805SOL    HW219878   3.317   3.619   7.787 -0.3492 -1.3661 -2.7964
 2806SOL     OW19879   2.141   4.325   4.133  0.3309 -0.5390 -0.2742
 2806SOL    HW119880   2.228   4.287   4.125  0.2393 -0.6398 -0.7580
 2806SOL    HW219881   2.095   4.246   4.160 -0.9546 -0.0821 -1.1580
 2807SOL     OW19882   4.720   0.378  16.716  0.0304  0.5130  0.3741
 2807SOL    HW119883   0.009   0.412  16.628 -1.5546  0.9651  0.3694
 2807SOL    HW219884   0.078   0.327  16.734  0.7377  1.1036 -1.0995
 2808SOL     OW19885   0.251   3.307  11.064  0.2327 -0.3462  0.5295
 2808SOL    HW119886   0.279   3.361  11.137  1.0252 -0.5146  0.3541
 2808SOL    HW219887   0.282   3.224  11.102 -0.8994 -1.1569 -0.3206
 2809SOL     OW19888   2.447   3.930   7.021  0.0419 -0.4229  0.4491
 2809SOL    HW119889   2.372   3.918   6.963 -0.3576  2.6080  0.3126
 2809SOL    HW219890   2.449   3.846   7.066  0.0910 -1.1756 -0.9667
 2810SOL     OW19891   0.224   2.652   6.586  0.1228 -0.1257  0.1886
 2810SOL    HW119892   0.232   2.560   6.559 -0.0902 -0.7165  2.1354
 2810SOL    HW219893   0.128   2.651   6.593  0.2315  1.3508  1.7461
 2811SOL     OW19894   4.617   2.964   5.445  0.0849  0.2092 -0.4465
 2811SOL    HW119895   4.631   2.971   5.539 -0.9373  2.1758 -0.4309
 2811SOL    HW219896   4.522   2.954   5.446  0.3073 -1.7477  1.7675
 2812SOL     OW19897   1.953   1.522   7.084  0.1616 -0.2292 -0.0563
 2812SOL    HW119898   1.940   1.492   7.174  0.3488  0.4766  0.2018
 2812SOL    HW219899   2.046   1.545   7.094  0.9913 -3.3787 -0.2397
 2813SOL     OW19900   2.528   3.870   4.994 -0.0173 -0.0116  0.1534
 2813SOL    HW119901   2.482   3.850   4.912 -0.7308  0.5251  0.4139
 2813SOL    HW219902   2.603   3.812   4.988  0.0877  0.0109  1.3829
 2814SOL     OW19903   1.384   2.520   5.000  0.1242 -0.3485 -0.2476
 2814SOL    HW119904   1.295   2.553   4.991 -0.4310 -1.0399  2.6212
 2814SOL    HW219905   1.439   2.598   4.996 -0.1443 -0.1134  0.7349
 2815SOL     OW19906   0.797   0.295   4.128  1.2212 -0.0329 -0.3644
 2815SOL    HW119907   0.758   0.370   4.082  0.6581 -0.1040  0.0069
 2815SOL    HW219908   0.776   0.319   4.218  0.1943  0.0374 -0.6243
 2816SOL     OW19909   1.906   0.941   1.985  0.8577  0.2782 -0.2191
 2816SOL    HW119910   1.920   1.035   1.997  0.5710  0.3179 -0.1907
 2816SOL    HW219911   1.952   0.923   1.903 -0.3216 -3.1987 -0.1103
 2817SOL     OW19912   3.498   3.752  15.909 -0.7008  0.5098 -0.3617
 2817SOL    HW119913   3.538   3.710  15.833  0.9303  0.3547  0.5821
 2817SOL    HW219914   3.474   3.840  15.878 -0.2758  1.2546  1.4105
 2818SOL     OW19915   2.519   3.489   6.880  0.1703 -0.0703 -0.2763
 2818SOL    HW119916   2.572   3.525   6.810  0.0392 -0.1338 -0.4079
 2818SOL    HW219917   2.436   3.473   6.835  0.1655 -1.8210  0.3269
 2819SOL     OW19918   3.531   4.245   4.297 -0.6133  0.6234  0.6449
 2819SOL    HW119919   3.556   4.196   4.219  0.3350 -0.6593  1.7405
 2819SOL    HW219920   3.443   4.212   4.316 -0.2788 -2.9788 -3.9488
 2820SOL     OW19921   2.163   0.132   5.229  0.2517  0.2307 -0.5002
 2820SOL    HW119922   2.073   0.106   5.208  1.8113 -3.1385 -3.1948
 2820SOL    HW219923   2.145   0.191   5.302  2.1513  1.0501 -0.7198
 2821SOL     OW19924   1.656   2.862   3.580 -0.1244  0.7618  0.1857
 2821SOL    HW119925   1.650   2.877   3.485 -1.2679 -1.5351 -0.0936
 2821SOL    HW219926   1.568   2.870   3.617 -0.6594  2.2975 -1.3720
 2822SOL     OW19927   2.912   3.500   3.661 -0.3267  0.0881 -0.4309
 2822SOL    HW119928   2.988   3.459   3.618 -0.5857  0.1432 -0.9503
 2822SOL    HW219929   2.958   3.560   3.719  2.4728 -0.1377 -2.3842
 2823SOL     OW19930   2.620   0.703   5.175  0.4520 -0.1255 -0.2946
 2823SOL    HW119931   2.695   0.688   5.118  1.8256  0.8505  1.2599
 2823SOL    HW219932   2.546   0.648   5.148  0.5341 -0.1226 -0.5190
 2824SOL     OW19933   3.032   4.624   6.411 -0.0371 -0.0656  0.4133
 2824SOL    HW119934   2.961   4.597   6.469 -2.0881  1.7885 -1.2110
 2824SOL    HW219935   2.998   4.700   6.362  0.3353  0.6167  1.2236
 2825SOL     OW19936   1.718   1.329   6.306  0.3226  0.2852 -0.5481
 2825SOL    HW119937   1.789   1.381   6.268 -0.0210  1.2919  0.1818
 2825SOL    HW219938   1.641   1.351   6.255  1.0993  1.6537 -1.1253
 2826SOL     OW19939   2.431   4.431   5.147  0.0871  0.0160 -0.1169
 2826SOL    HW119940   2.523   4.441   5.124 -0.2509  0.9010 -1.0336
 2826SOL    HW219941   2.411   4.524   5.157  1.8687  0.4466 -0.6863
 2827SOL     OW19942   0.643   4.478   3.138 -0.1544  0.7074  0.1769
 2827SOL    HW119943   0.554   4.506   3.161 -0.7067 -0.8802 -0.0252
 2827SOL    HW219944   0.651   4.388   3.172 -0.9021  0.3957 -0.4630
 2828SOL     OW19945   3.570   0.011   0.546  0.6444  0.1387 -0.2319
 2828SOL    HW119946   3.522   0.030   0.627 -0.9470 -0.3506 -1.0631
 2828SOL    HW219947   3.494   4.714   0.491  0.6540 -0.1725 -0.1489
 2829SOL     OW19948   1.115   1.042   5.074  0.0348  0.5817  0.3064
 2829SOL    HW119949   1.202   1.003   5.085 -0.0160 -0.0194 -1.4728
 2829SOL    HW219950   1.123   1.126   5.120 -2.6001  1.6145 -1.1857
 2830SOL     OW19951   0.309   0.791   7.905 -0.0281  0.0519  0.2402
 2830SOL    HW119952   0.292   0.858   7.839  1.6060  2.0115  1.7916
 2830SOL    HW219953   0.401   0.802   7.927  0.4230 -0.6284 -1.2953
 2831SOL     OW19954   2.366   2.128   0.651  0.1674  0.0797 -0.1726
 2831SOL    HW119955   2.424   2.198   0.678  0.3756  0.2565 -1.0953
 2831SOL    HW219956   2.314   2.113   0.730 -0.9591  1.3273 -0.6821
 2832SOL     OW19957   1.856   2.596   4.090 -0.0415 -1.1639 -0.4887
 2832SOL    HW119958   1.851   2.540   4.013 -0.9398 -1.5304 -0.1548
 2832SOL    HW219959   1.765   2.607   4.117  0.3186  1.8224 -0.4268
 2833SOL     OW19960   2.013   1.388  14.589 -0.1980  0.1405  0.4863
 2833SOL    HW119961   2.044   1.378  14.499 -1.6783  2.8173 -0.3129
 2833SOL    HW219962   2.097   1.396  14.636 -0.8915  1.1091  1.5652
 2834SOL     OW19963   1.855   3.143   6.577 -0.4777  0.0710  0.0759
 2834SOL    HW119964   1.845   3.238   6.574 -1.7600  0.0325  2.8020
 2834SOL    HW219965   1.887   3.127   6.665 -0.9131 -2.3187 -0.2027
 2835SOL     OW19966   1.131   2.947   5.117  0.3069  0.1759 -0.2852
 2835SOL    HW119967   1.066   3.013   5.143  0.0686 -0.0313 -0.3499
 2835SOL    HW219968   1.120   2.862   5.159  0.4425  0.8098  1.0401
 2836SOL     OW19969   1.003   0.083  11.060  0.2817 -0.2722 -0.0897
 2836SOL    HW119970   0.967   0.093  11.148 -0.7283 -0.1018 -0.5242
 2836SOL    HW219971   1.004   4.710  11.042 -0.3843 -0.0540 -1.2113
 2837SOL     OW19972   1.352   3.664   0.648  0.4516 -0.5969 -0.9584
 2837SOL    HW119973   1.262   3.696   0.653  0.7725  0.1392  0.2847
 2837SOL    HW219974   1.348   3.600   0.719 -1.2059 -1.3476 -1.7217
 2838SOL     OW19975   3.065   0.800   7.316 -0.0996 -0.2490 -0.0140
 2838SOL    HW119976   3.045   0.752   7.236  0.3962 -1.4173  0.5699
 2838SOL    HW219977   2.976   0.824   7.343  0.0104 -0.5405  0.6117
 2839SOL     OW19978   4.480   3.168   0.454 -0.4387  0.0652 -0.1030
 2839SOL    HW119979   4.555   3.184   0.511  0.5112  1.1273 -1.6487
 2839SOL    HW219980   4.511   3.188   0.366 -1.5887 -0.7510 -0.6946
 2840SOL     OW19981   2.974   3.696   3.857 -0.7885  0.5704  0.1212
 2840SOL    HW119982   2.930   3.774   3.825  0.2805  2.2585  2.7215
 2840SOL    HW219983   2.931   3.685   3.943  2.0448  1.3319  1.6296
 2841SOL     OW19984   3.937   1.479   0.224 -0.5162 -0.0220  0.1350
 2841SOL    HW119985   3.977   1.507   0.307 -1.6327  0.8407  0.3869
 2841SOL    HW219986   4.000   1.416   0.188 -0.4394  1.0286 -1.5497
 2842SOL     OW19987   1.806   3.202   3.200  1.0454  0.4954  0.1058
 2842SOL    HW119988   1.900   3.191   3.184  0.4527 -0.2071 -2.9204
 2842SOL    HW219989   1.771   3.208   3.112  1.6322  0.7556 -0.1098
 2843SOL     OW19990   4.029   2.572   5.547  0.0848  0.2148 -0.0771
 2843SOL    HW119991   3.986   2.646   5.503  2.5595  0.9517 -1.2794
 2843SOL    HW219992   4.051   2.518   5.471  0.6142  0.4369 -0.0790
 2844SOL     OW19993   2.256   3.286  15.207  0.0800  0.0759  0.0403
 2844SOL    HW119994   2.284   3.241  15.287  0.8805 -0.7688 -0.7215
 2844SOL    HW219995   2.311   3.245  15.140  0.2571  1.5828 -0.7435
 2845SOL     OW19996   0.389   1.630   0.772 -0.3750 -0.0240  0.6594
 2845SOL    HW119997   0.477   1.653   0.744 -1.5552  2.4260 -1.0224
 2845SOL    HW219998   0.359   1.686   0.844  1.6025  1.1844  0.5383
 2846SOL     OW19999   0.609   4.079  12.820  0.2616 -0.7756 -0.2958
 2846SOL    HW120000   0.571   4.029  12.893  0.4930  0.3437  0.5823
 2846SOL    HW220001   0.657   4.142  12.874 -0.5042 -0.6626  0.2548
 2847SOL     OW20002   1.014   3.329  13.417  0.1932  0.0854  0.1351
 2847SOL    HW120003   1.007   3.338  13.322  1.4559 -1.6136 -0.1225
 2847SOL    HW220004   1.105   3.357  13.423 -0.0680  0.6158  1.5780
 2848SOL     OW20005   2.052   4.518   2.625  0.5391 -0.4460  0.1982
 2848SOL    HW120006   2.127   4.477   2.582 -0.8062 -1.1531 -1.4698
 2848SOL    HW220007   1.982   4.462   2.593  2.2940 -1.7499 -1.3714
 2849SOL     OW20008   0.784   1.224  14.587  0.8748 -0.1474  0.8289
 2849SOL    HW120009   0.728   1.214  14.510 -1.0283 -2.5932  2.5187
 2849SOL    HW220010   0.861   1.167  14.587  1.4645  0.6714 -1.0316
 2850SOL     OW20011   1.811   0.245  15.396  0.8338 -0.8038 -0.4441
 2850SOL    HW120012   1.768   0.222  15.479  2.3347 -1.7847  0.0453
 2850SOL    HW220013   1.898   0.267  15.429  0.3530 -0.3196  0.5145
 2851SOL     OW20014   0.506   3.733   2.923  0.2950  0.1109 -0.5390
 2851SOL    HW120015   0.580   3.681   2.892 -0.6928 -2.2175  0.9550
 2851SOL    HW220016   0.435   3.713   2.862  0.1558  0.6149 -0.5433
 2852SOL     OW20017   3.387   3.015  10.049 -0.3169 -0.3329 -0.5177
 2852SOL    HW120018   3.328   3.085  10.078  0.3618  0.2151 -0.4310
 2852SOL    HW220019   3.415   3.062   9.970 -1.2264  0.1534 -0.5517
 2853SOL     OW20020   0.797   2.078   8.117  0.5167 -0.0736  0.0582
 2853SOL    HW120021   0.790   2.017   8.190 -0.1466  1.4072  1.2406
 2853SOL    HW220022   0.810   2.157   8.170 -0.2707 -0.3008  0.5802
 2854SOL     OW20023   0.023   2.952   9.705 -0.1129  0.1509  0.0005
 2854SOL    HW120024   0.002   2.974   9.614  1.1809 -0.3864 -0.4321
 2854SOL    HW220025   0.117   2.931   9.704 -0.6028 -1.9950 -0.3790
 2855SOL     OW20026   0.415   3.260   7.284 -0.0835  0.3842 -0.2101
 2855SOL    HW120027   0.402   3.181   7.231 -0.4762 -1.1467  2.1945
 2855SOL    HW220028   0.507   3.280   7.266  0.9578  0.3686  5.1821
 2856SOL     OW20029   3.414   2.858   5.585  0.0829 -0.1832 -0.0199
 2856SOL    HW120030   3.414   2.953   5.570 -2.9519 -0.2858 -0.7077
 2856SOL    HW220031   3.504   2.843   5.614 -0.0638 -0.2258  0.4183
 2857SOL     OW20032   2.658   4.578  11.730  0.1205  1.1868 -0.4475
 2857SOL    HW120033   2.678   4.597  11.639  0.8315  0.1852 -0.5045
 2857SOL    HW220034   2.564   4.594  11.736 -0.0575 -0.5248  1.5762
 2858SOL     OW20035   2.667   3.079   5.177 -0.1143 -0.0513 -0.3774
 2858SOL    HW120036   2.612   3.112   5.247  0.9877  0.7836  0.0946
 2858SOL    HW220037   2.610   3.063   5.102  0.7694  0.0398 -1.0740
 2859SOL     OW20038   3.689   3.266  11.727  0.3560  0.0703  0.1688
 2859SOL    HW120039   3.682   3.359  11.750 -0.8405  0.3039 -1.1341
 2859SOL    HW220040   3.769   3.239  11.772  0.1253  1.9965  1.7328
 2860SOL     OW20041   3.975   3.993  11.667  0.4819 -0.4870  0.0659
 2860SOL    HW120042   4.011   4.007  11.755  1.0697  0.0853 -0.2613
 2860SOL    HW220043   4.053   3.962  11.621  0.0612 -0.4642 -0.6556
 2861SOL     OW20044   2.225   0.679   9.834 -0.5287  0.0794  0.0845
 2861SOL    HW120045   2.300   0.632   9.798 -1.1625  0.7706 -2.1321
 2861SOL    HW220046   2.225   0.762   9.787  1.6474 -1.1653 -2.1173
 2862SOL     OW20047   3.395   4.423   9.217  0.0167  0.3175  0.1519
 2862SOL    HW120048   3.438   4.337   9.212  1.2107  1.0843 -3.1161
 2862SOL    HW220049   3.465   4.487   9.204 -2.3358  2.8203 -0.1974
 2863SOL     OW20050   4.656   0.715   3.689  0.0307  0.3706 -0.3456
 2863SOL    HW120051   4.641   0.805   3.718  2.8875 -0.1014  2.5638
 2863SOL    HW220052   4.709   0.686   3.762 -0.5811  2.1253  0.8094
 2864SOL     OW20053   3.831   1.887  11.873  0.4747 -0.1849 -0.2809
 2864SOL    HW120054   3.859   1.861  11.785 -1.1462  1.5249 -1.3085
 2864SOL    HW220055   3.810   1.980  11.862 -3.2194 -1.3017 -2.7893
 2865SOL     OW20056   3.721   0.846  17.594  0.1182 -0.2545  0.6131
 2865SOL    HW120057   3.745   0.773  17.651 -0.8836  0.1569  1.5564
 2865SOL    HW220058   3.737   0.809  17.507  0.1101 -2.2822  1.4698
 2866SOL     OW20059   3.536   3.030   4.615  0.2462 -0.4870  0.3735
 2866SOL    HW120060   3.580   2.946   4.617  2.4947  0.7311  1.8069
 2866SOL    HW220061   3.611   3.088   4.629  1.4922 -1.7978 -0.9411
 2867SOL     OW20062   3.178   1.848   5.923 -0.0315  0.0970 -0.0811
 2867SOL    HW120063   3.273   1.843   5.933  0.1274  0.1874 -1.5110
 2867SOL    HW220064   3.158   1.942   5.920  3.5840  0.8546 -0.3858
 2868SOL     OW20065   3.465   2.645   4.232 -0.7226  0.6712  0.1944
 2868SOL    HW120066   3.449   2.735   4.205  2.2713  0.6389 -1.6498
 2868SOL    HW220067   3.507   2.658   4.317 -1.9946  2.3167  0.5781
 2869SOL     OW20068   4.391   0.224   1.250  0.3802 -0.1873 -0.0382
 2869SOL    HW120069   4.444   0.281   1.307  1.3742  1.7821 -2.9368
 2869SOL    HW220070   4.338   0.190   1.322  1.9276 -0.0245  1.1953
 2870SOL     OW20071   3.595   3.767   8.362 -0.2385  0.0689  0.9478
 2870SOL    HW120072   3.584   3.731   8.450 -1.2309  1.8995  1.5766
 2870SOL    HW220073   3.541   3.711   8.306  2.3699 -1.5497  0.0738
 2871SOL     OW20074   0.925   0.287   8.131  0.1162  0.3914 -0.3056
 2871SOL    HW120075   0.907   0.282   8.225  0.8103  0.4142 -0.1743
 2871SOL    HW220076   0.843   0.328   8.102 -0.0963 -0.3149 -0.7258
 2872SOL     OW20077   2.824   2.739   4.323  0.6732  0.1502 -0.1841
 2872SOL    HW120078   2.771   2.695   4.257 -2.1351 -0.0817  2.1945
 2872SOL    HW220079   2.755   2.782   4.374  1.2459  0.4708  0.3260
 2873SOL     OW20080   3.845   2.398  11.447 -0.2057 -1.0594 -0.1022
 2873SOL    HW120081   3.868   2.416  11.356 -0.8764  1.9979  0.3261
 2873SOL    HW220082   3.877   2.478  11.490 -1.8159 -0.4585 -0.0404
 2874SOL     OW20083   3.432   0.346   6.232 -0.6215 -0.0465 -0.3964
 2874SOL    HW120084   3.515   0.389   6.216 -0.5493 -0.3037 -0.7167
 2874SOL    HW220085   3.412   0.370   6.322 -1.5110 -0.8125 -0.3864
 2875SOL     OW20086   2.788   2.642  16.010  0.3644 -0.5358  0.8756
 2875SOL    HW120087   2.863   2.686  15.970 -2.0551  1.6192 -1.3846
 2875SOL    HW220088   2.774   2.564  15.956  0.1280 -0.6426  1.0914
 2876SOL     OW20089   2.488   3.360   2.990 -0.6888 -0.0849 -0.2152
 2876SOL    HW120090   2.479   3.453   3.011 -0.4318 -0.3938  1.2681
 2876SOL    HW220091   2.504   3.318   3.075  1.8768  1.3787  0.0458
 2877SOL     OW20092   3.911   1.157   9.094 -0.3434  0.9114  0.0483
 2877SOL    HW120093   3.966   1.079   9.087 -0.6042  0.7699 -0.4036
 2877SOL    HW220094   3.894   1.179   9.002 -0.1278  3.8498  0.7109
 2878SOL     OW20095   0.670   4.453   1.243  0.4639  0.1702  0.3210
 2878SOL    HW120096   0.594   4.441   1.186  0.6209  0.5150  0.0357
 2878SOL    HW220097   0.621   4.445   1.325  2.4385  1.8759  1.6698
 2879SOL     OW20098   2.816   4.608   8.347 -0.1016  0.3861 -0.1816
 2879SOL    HW120099   2.853   4.567   8.269  1.1598 -0.1779  0.7184
 2879SOL    HW220100   2.725   4.613   8.318 -0.2541 -2.3550 -0.2008
 2880SOL     OW20101   0.620   3.757   4.606  0.5137 -0.7228  0.0330
 2880SOL    HW120102   0.553   3.746   4.674  0.8579  1.3823  0.7109
 2880SOL    HW220103   0.682   3.699   4.650  0.1401 -1.4431 -0.3876
 2881SOL     OW20104   3.443   3.611   8.866  0.0236  0.5589 -0.0247
 2881SOL    HW120105   3.427   3.518   8.882 -1.3738  0.8279  0.0966
 2881SOL    HW220106   3.538   3.604   8.871 -0.1174  0.3131  2.3289
 2882SOL     OW20107   3.259   2.213   5.105 -0.0309 -0.3609  0.8240
 2882SOL    HW120108   3.216   2.151   5.164  0.7856 -0.2243  1.5638
 2882SOL    HW220109   3.255   2.299   5.145 -2.1573  0.1786 -0.5198
 2883SOL     OW20110   1.515   1.057   2.980 -0.0983 -0.3746  0.2459
 2883SOL    HW120111   1.531   1.071   3.074 -0.4511 -2.9007  0.6905
 2883SOL    HW220112   1.477   0.969   2.986 -0.3232 -0.4110 -1.7789
 2884SOL     OW20113   2.523   2.343   4.990 -0.1569  0.1106  0.0139
 2884SOL    HW120114   2.543   2.251   5.006  0.5341  0.3649  0.6187
 2884SOL    HW220115   2.520   2.374   5.081 -1.0267 -0.1662  0.0864
 2885SOL     OW20116   3.293   4.219   2.441 -0.1375 -0.5501  0.0185
 2885SOL    HW120117   3.373   4.239   2.392  1.0259 -0.7271  1.8501
 2885SOL    HW220118   3.266   4.148   2.382  2.2569 -0.7251 -0.8760
 2886SOL     OW20119   2.937   1.088   6.817  0.5008  0.1005 -0.0469
 2886SOL    HW120120   2.996   1.164   6.813  0.2945  0.0927 -3.4362
 2886SOL    HW220121   2.987   1.021   6.863 -2.4523  0.1917  3.2633
 2887SOL     OW20122   3.906   4.125  15.805 -0.3904  0.2480  0.7278
 2887SOL    HW120123   3.866   4.119  15.892 -1.3202  2.3189  0.4521
 2887SOL    HW220124   3.977   4.062  15.813  0.0651  0.5750 -0.8127
 2888SOL     OW20125   2.563   2.878   7.027 -0.0003 -0.3212 -0.0822
 2888SOL    HW120126   2.569   2.934   6.950  1.5047  0.1129  0.3373
 2888SOL    HW220127   2.639   2.819   7.023  0.0118 -0.3066 -0.0667
 2889SOL     OW20128   4.583   0.876   0.092 -0.1393 -0.4308 -0.2794
 2889SOL    HW120129   4.623   0.849   0.009 -0.3270 -0.1146 -0.4722
 2889SOL    HW220130   4.489   0.863   0.079 -0.0989  1.2984 -2.5365
 2890SOL     OW20131   1.041   4.016   3.737  0.0808 -1.2688 -0.0734
 2890SOL    HW120132   1.129   3.981   3.723  0.3763 -1.6244  2.6670
 2890SOL    HW220133   0.989   3.992   3.660 -1.0998  1.4096 -0.1425
 2891SOL     OW20134   2.651   1.970   5.655  0.1678 -0.5897 -0.2284
 2891SOL    HW120135   2.723   2.012   5.702 -0.0537 -2.3937  1.7117
 2891SOL    HW220136   2.630   1.900   5.716 -2.5216 -0.9059 -1.5189
 2892SOL     OW20137   1.811   0.444   6.059 -0.7470 -0.1841 -0.2535
 2892SOL    HW120138   1.796   0.481   6.146 -0.2267 -2.1715  0.6917
 2892SOL    HW220139   1.788   0.513   5.997  1.0884  0.5889 -0.0874
 2893SOL     OW20140   3.195   1.173   6.870 -0.1028  0.2835 -0.1005
 2893SOL    HW120141   3.266   1.237   6.876 -0.0450  0.2765 -0.7334
 2893SOL    HW220142   3.217   1.104   6.933  2.8440  0.2450 -1.1731
 2894SOL     OW20143   0.032   2.276   5.396  0.5625 -0.1703 -0.2238
 2894SOL    HW120144   0.059   2.191   5.430  0.2119 -0.9632 -1.9110
 2894SOL    HW220145   0.001   2.311   5.479 -1.4947 -0.3357 -0.8951
 2895SOL     OW20146   1.153   4.250   8.515  0.2003  0.5991 -0.1873
 2895SOL    HW120147   1.125   4.299   8.439  0.7583  0.6839 -0.3433
 2895SOL    HW220148   1.118   4.162   8.500  1.5266 -0.0851  0.6662
 2896SOL     OW20149   0.204   3.553   5.036  0.0521 -0.7732 -0.4152
 2896SOL    HW120150   0.212   3.458   5.046  0.8115 -0.6280  0.3010
 2896SOL    HW220151   0.222   3.571   4.944  2.0094 -0.1119  0.1057
 2897SOL     OW20152   2.195   0.744   8.352 -0.0935 -0.5625 -0.4770
 2897SOL    HW120153   2.247   0.816   8.317  0.9958 -1.0740  0.0742
 2897SOL    HW220154   2.168   0.799   8.425  0.5869  1.6114 -1.8551
 2898SOL     OW20155   3.635   2.039  15.229 -0.1584  0.0980 -0.2840
 2898SOL    HW120156   3.624   1.951  15.195  1.7342 -0.5413  0.7677
 2898SOL    HW220157   3.710   2.075  15.182  0.5463 -0.0094  0.7542
 2899SOL     OW20158   1.806   4.634   6.453  0.2473  0.0852  0.2153
 2899SOL    HW120159   1.790   4.695   6.526  1.3673  0.6943 -0.0405
 2899SOL    HW220160   1.796   4.696   6.380  0.6365 -0.2633 -0.1320
 2900SOL     OW20161   2.295   4.037  10.696 -0.4135  0.2054  0.0183
 2900SOL    HW120162   2.236   4.057  10.623 -0.4164 -1.4116 -0.4390
 2900SOL    HW220163   2.377   4.079  10.671 -0.0278 -1.0726 -0.8878
 2901SOL     OW20164   4.287   2.342   0.856  0.2144  0.0566  0.4493
 2901SOL    HW120165   4.327   2.336   0.769  0.5871  0.5639  0.5949
 2901SOL    HW220166   4.232   2.263   0.853  1.7475 -1.0318  1.0989
 2902SOL     OW20167   2.401   2.229   9.677 -0.0393 -0.1346 -0.5990
 2902SOL    HW120168   2.374   2.226   9.769  0.1779  0.1659 -0.5250
 2902SOL    HW220169   2.461   2.303   9.687 -0.5742  0.2462 -0.1925
 2903SOL     OW20170   0.150   0.319  12.315 -0.3427 -0.0467  0.6227
 2903SOL    HW120171   0.196   0.379  12.257 -1.4919  0.9242  0.7211
 2903SOL    HW220172   0.157   0.238  12.265 -0.2502  0.8529 -0.8042
 2904SOL     OW20173   3.558   3.484   0.426  0.6271 -0.8090 -0.1648
 2904SOL    HW120174   3.615   3.545   0.472 -3.1662  2.7705 -0.2323
 2904SOL    HW220175   3.592   3.502   0.338  0.9897  0.1683  0.1711
 2905SOL     OW20176   3.130   1.823   8.604  1.0238 -0.5569  0.4413
 2905SOL    HW120177   3.116   1.729   8.589 -0.2297 -0.0410 -1.5395
 2905SOL    HW220178   3.131   1.851   8.513 -1.5162 -0.9162  0.3185
 2906SOL     OW20179   3.629   4.450  13.737  0.1918 -0.2206  0.3305
 2906SOL    HW120180   3.599   4.429  13.826  0.5283 -2.9780 -0.2259
 2906SOL    HW220181   3.710   4.400  13.736  0.2985 -0.0200 -1.1275
 2907SOL     OW20182   4.646   3.888   6.860 -0.8020  0.2227 -0.3939
 2907SOL    HW120183   4.588   3.869   6.786  0.0760  1.5908 -1.4388
 2907SOL    HW220184   4.667   3.978   6.833 -0.3597  0.3444  0.3728
 2908SOL     OW20185   2.598   3.373   6.152 -0.2364 -0.7965  0.0675
 2908SOL    HW120186   2.631   3.424   6.078 -0.7217  1.6401  1.5345
 2908SOL    HW220187   2.504   3.391   6.148  0.7320  4.0207 -0.9805
 2909SOL     OW20188   4.082   2.006  11.330 -0.2043  0.2998 -0.6079
 2909SOL    HW120189   4.153   1.972  11.386 -0.9615  0.1758  0.2862
 2909SOL    HW220190   4.032   1.926  11.312  0.1366  0.1461 -0.8723
 2910SOL     OW20191   2.560   2.363   7.948 -0.3628 -0.9449  0.0977
 2910SOL    HW120192   2.508   2.315   8.013 -0.2947  0.3819  1.1237
 2910SOL    HW220193   2.651   2.339   7.967 -0.4582  0.1615  1.9284
 2911SOL     OW20194   0.614   4.565   2.213 -0.7876 -0.5611 -0.1431
 2911SOL    HW120195   0.588   4.613   2.292 -2.6350 -0.1825 -0.9763
 2911SOL    HW220196   0.580   4.477   2.233  2.3505 -1.4242  1.3890
 2912SOL     OW20197   2.994   4.305   3.229  0.3406 -0.0018 -0.5717
 2912SOL    HW120198   2.986   4.215   3.199  1.2068 -0.1832 -0.2571
 2912SOL    HW220199   3.077   4.332   3.189  0.2711 -0.2700 -0.8975
 2913SOL     OW20200   3.715   3.564   9.708 -0.3262 -0.0255 -0.3269
 2913SOL    HW120201   3.625   3.594   9.720 -0.6271 -1.2475  0.4371
 2913SOL    HW220202   3.761   3.648   9.708  0.4087 -0.4307  3.2587
 2914SOL     OW20203   0.179   0.326   8.663 -0.1036 -0.6640  0.0102
 2914SOL    HW120204   0.105   0.299   8.608  0.9219  0.6749 -1.9947
 2914SOL    HW220205   0.249   0.261   8.662  0.4066 -0.0579 -3.2333
 2915SOL     OW20206   1.603   2.019   5.648 -0.1329 -0.5599  0.2489
 2915SOL    HW120207   1.621   1.947   5.588 -1.6242 -0.5540 -0.2109
 2915SOL    HW220208   1.603   2.092   5.585 -1.8440  1.0429  2.1001
 2916SOL     OW20209   3.405   4.422   3.788 -0.0347 -0.1386  0.0675
 2916SOL    HW120210   3.358   4.505   3.778 -0.5123 -0.5791 -1.2796
 2916SOL    HW220211   3.495   4.440   3.818 -0.8072  1.0696  1.6676
 2917SOL     OW20212   0.090   0.071   8.414  0.4839 -0.1897  0.2783
 2917SOL    HW120213   0.044   0.073   8.331 -1.6033  1.9126  1.4979
 2917SOL    HW220214   0.032   0.022   8.472 -0.1982  0.2497 -0.0422
 2918SOL     OW20215   4.360   1.293  12.948  0.8989  0.2720 -0.1419
 2918SOL    HW120216   4.347   1.383  12.917 -0.8070  0.1171  0.1785
 2918SOL    HW220217   4.444   1.299  12.993  0.3360  0.6711  0.8419
 2919SOL     OW20218   1.938   2.709  11.474  0.1984  0.1418 -0.4681
 2919SOL    HW120219   2.011   2.769  11.457 -0.1392  0.7591  0.2445
 2919SOL    HW220220   1.981   2.626  11.455  3.2692  1.5395  0.3278
 2920SOL     OW20221   2.966   1.313  16.272 -0.0581 -0.0745  0.2565
 2920SOL    HW120222   2.923   1.248  16.328  0.2732 -0.9631 -0.5068
 2920SOL    HW220223   3.020   1.264  16.210  0.6468  0.9411  0.0739
 2921SOL     OW20224   0.309   0.223   8.368 -0.3601 -0.2767 -0.3616
 2921SOL    HW120225   0.236   0.162   8.379  0.5688 -1.2115  0.5536
 2921SOL    HW220226   0.255   0.289   8.324  1.1359 -0.5450 -2.6167
 2922SOL     OW20227   4.686   2.296   2.532 -0.3097 -0.6622 -0.3942
 2922SOL    HW120228   0.040   2.272   2.477  1.2614 -1.6635  2.2302
 2922SOL    HW220229   4.716   2.278   2.621 -1.0067  0.9530  0.1707
 2923SOL     OW20230   3.603   0.296   5.519 -0.6546 -0.0603  0.2265
 2923SOL    HW120231   3.567   0.207   5.509 -1.6425  0.0989  2.3800
 2923SOL    HW220232   3.561   0.310   5.604 -0.9168  1.9869 -0.2610
 2924SOL     OW20233   4.237   2.712   9.931  0.4801 -0.1301  0.2111
 2924SOL    HW120234   4.223   2.658   9.853  0.3612 -0.3917  0.4124
 2924SOL    HW220235   4.277   2.653   9.995  1.7216 -0.7130 -1.1015
 2925SOL     OW20236   1.681   0.690   0.309 -0.2428 -0.2535 -0.8056
 2925SOL    HW120237   1.666   0.660   0.399 -0.3492  1.5387 -0.2355
 2925SOL    HW220238   1.591   0.699   0.277 -0.6559 -0.4499  0.2857
 2926SOL     OW20239   2.693   2.365   2.967 -0.2959 -0.5564 -0.5183
 2926SOL    HW120240   2.754   2.309   2.919 -0.3004  1.2660 -2.6726
 2926SOL    HW220241   2.672   2.433   2.902 -0.4562  0.1013  0.2107
 2927SOL     OW20242   0.314   2.890   6.713  0.2853 -0.5176 -0.1096
 2927SOL    HW120243   0.297   2.800   6.685  0.2479 -0.4223 -0.3929
 2927SOL    HW220244   0.409   2.889   6.722  0.3080  2.2132  0.0169
 2928SOL     OW20245   3.501   0.302   4.586 -0.5308 -0.3458  0.0777
 2928SOL    HW120246   3.432   0.238   4.569  0.8148 -1.4570 -1.2387
 2928SOL    HW220247   3.485   0.320   4.678 -1.1710  1.6425 -0.4145
 2929SOL     OW20248   2.104   2.477   2.671 -0.7969  0.2413  0.4877
 2929SOL    HW120249   2.014   2.472   2.639 -0.1293 -0.6436 -1.2435
 2929SOL    HW220250   2.081   2.479   2.764 -2.6625 -2.1703  0.0816
 2930SOL     OW20251   3.237   1.354   5.486 -0.9180 -0.2527 -0.2093
 2930SOL    HW120252   3.268   1.301   5.413 -0.8106 -0.4155 -0.0455
 2930SOL    HW220253   3.198   1.295   5.550  1.7364 -3.0088 -1.1523
 2931SOL     OW20254   3.216   3.256   9.025  0.3017 -0.3015  0.2712
 2931SOL    HW120255   3.217   3.285   8.933 -0.1655  0.0835  0.3840
 2931SOL    HW220256   3.231   3.338   9.072 -0.5777 -0.5713  1.0256
 2932SOL     OW20257   3.203   4.283   6.114 -0.0106 -0.7668  0.2902
 2932SOL    HW120258   3.291   4.288   6.075 -0.9836  5.3514 -1.1080
 2932SOL    HW220259   3.222   4.335   6.192 -0.7461 -1.5792  1.0022
 2933SOL     OW20260   3.715   3.220   1.149  0.2824  0.2639 -0.2186
 2933SOL    HW120261   3.657   3.201   1.076  0.3412 -1.2487  0.1164
 2933SOL    HW220262   3.709   3.315   1.162 -0.9824  0.1239  0.2320
 2934SOL     OW20263   0.959   0.548   5.827 -0.2522  0.6254 -0.1997
 2934SOL    HW120264   0.930   0.535   5.917  0.0081  1.2573 -0.0253
 2934SOL    HW220265   0.881   0.511   5.785 -0.2015 -2.1054  2.0923
 2935SOL     OW20266   4.514   4.400   2.800  0.4584 -0.4401  0.1387
 2935SOL    HW120267   4.491   4.356   2.719 -2.2450  2.2522 -0.5298
 2935SOL    HW220268   4.544   4.482   2.761  1.0962 -0.0195  1.4824
 2936SOL     OW20269   4.582   3.924   8.504 -0.2666 -0.4970  0.1142
 2936SOL    HW120270   4.654   3.875   8.463  0.3619  1.2973 -0.9334
 2936SOL    HW220271   4.538   3.858   8.557 -3.2514  1.7660  0.4940
 2937SOL     OW20272   4.596   0.522   6.965  0.0602 -0.5224 -0.1313
 2937SOL    HW120273   4.555   0.597   7.008  0.2537 -0.2431 -0.4358
 2937SOL    HW220274   4.680   0.560   6.937 -0.1411 -1.4029 -1.9407
 2938SOL     OW20275   1.304   2.744   5.365 -0.3172  0.9820 -0.2285
 2938SOL    HW120276   1.355   2.824   5.379 -0.3342  0.2148  4.0966
 2938SOL    HW220277   1.353   2.721   5.286 -0.9726 -0.5146 -0.1964
 2939SOL     OW20278   1.666   2.505   2.508  0.6341  1.1758  0.0240
 2939SOL    HW120279   1.721   2.448   2.563  0.1130  1.5480  0.9411
 2939SOL    HW220280   1.646   2.454   2.430  1.4992 -1.0784  1.2669
 2940SOL     OW20281   1.352   0.816  15.780  0.5876 -0.6095 -0.1485
 2940SOL    HW120282   1.447   0.812  15.796  0.8733  0.2167 -1.6303
 2940SOL    HW220283   1.331   0.880  15.847  1.7481 -1.2370  0.8257
 2941SOL     OW20284   4.467   1.984   4.930 -0.1337 -0.4989  0.0123
 2941SOL    HW120285   4.379   1.962   4.901  0.9093 -3.0403 -1.2217
 2941SOL    HW220286   4.463   2.078   4.916 -2.4069 -0.9609 -2.4278
 2942SOL     OW20287   2.960   4.352  11.750 -0.9277 -0.2065  0.2137
 2942SOL    HW120288   2.928   4.262  11.759 -0.8907 -0.2983 -0.6112
 2942SOL    HW220289   3.045   4.342  11.794 -0.5737 -1.3162 -0.7266
 2943SOL     OW20290   2.892   3.706   7.866  0.2826  0.2700  0.1024
 2943SOL    HW120291   2.871   3.657   7.946 -1.5074  0.1996 -0.4088
 2943SOL    HW220292   2.826   3.667   7.809  3.2616 -0.3111 -2.9098
 2944SOL     OW20293   2.437   2.351   3.068  0.0462 -0.1514  0.0044
 2944SOL    HW120294   2.518   2.347   3.017  0.4352  0.2202  0.6008
 2944SOL    HW220295   2.369   2.339   3.002  0.8540 -1.6916 -0.5408
 2945SOL     OW20296   1.803   3.590   7.042  0.0559  0.4783 -0.1346
 2945SOL    HW120297   1.780   3.499   7.023  1.8248  0.1796 -0.9212
 2945SOL    HW220298   1.717   3.631   7.048 -0.0400  0.0640  1.3733
 2946SOL     OW20299   0.570   4.080   4.986 -0.0387 -0.3415  0.4279
 2946SOL    HW120300   0.495   4.114   5.035  0.0894  0.4352  0.0897
 2946SOL    HW220301   0.531   4.054   4.903  2.3426  0.5300 -0.9804
 2947SOL     OW20302   4.300   0.184   4.904  0.0665  0.2574  0.3776
 2947SOL    HW120303   4.214   0.146   4.886 -0.2763  1.4175 -0.3763
 2947SOL    HW220304   4.339   0.096   4.910 -0.4082  0.1458  1.7817
 2948SOL     OW20305   4.241   0.522   8.511  0.2302 -0.4222 -0.2365
 2948SOL    HW120306   4.325   0.567   8.516 -0.7638  1.0627  3.2291
 2948SOL    HW220307   4.189   0.566   8.444  0.7767  1.0057  0.2853
 2949SOL     OW20308   0.212   0.214  11.644 -0.6447 -0.2545 -0.2513
 2949SOL    HW120309   0.135   0.164  11.617 -1.8889  1.5092  0.0272
 2949SOL    HW220310   0.180   0.258  11.723  0.5970  1.0248 -0.4648
 2950SOL     OW20311   3.449   3.184   7.643  0.3672 -0.4250  0.5749
 2950SOL    HW120312   3.369   3.133   7.655 -0.1420  0.3305  0.3590
 2950SOL    HW220313   3.478   3.214   7.729  2.2345 -2.4300  0.6514
 2951SOL     OW20314   1.312   2.852   9.167  0.2396  0.2551  0.0244
 2951SOL    HW120315   1.400   2.831   9.200  0.8198  0.6007 -1.3126
 2951SOL    HW220316   1.274   2.765   9.180 -2.0416  1.6127  2.2094
 2952SOL     OW20317   2.829   2.164   2.836 -0.2824 -0.0148 -0.2870
 2952SOL    HW120318   2.799   2.081   2.874 -0.7267  0.1426 -0.2936
 2952SOL    HW220319   2.791   2.165   2.748  0.7695 -1.5774 -0.7575
 2953SOL     OW20320   0.111   2.693   7.016  0.3779 -0.7763 -0.0266
 2953SOL    HW120321   0.174   2.765   7.011 -0.3876 -0.1452 -0.4126
 2953SOL    HW220322   0.033   2.745   7.037  0.9201 -0.6490  1.7216
 2954SOL     OW20323   0.078   3.023   9.425 -0.1521 -0.0170 -0.2910
 2954SOL    HW120324   0.145   3.089   9.440  2.6037 -2.8508 -0.0147
 2954SOL    HW220325   0.006   3.085   9.425 -0.6960 -0.6773  2.2983
 2955SOL     OW20326   1.049   0.416   4.997  0.0670 -0.2856  0.2498
 2955SOL    HW120327   1.125   0.466   5.027 -0.7223  1.0123  0.0529
 2955SOL    HW220328   0.986   0.413   5.069 -1.8351  4.1862 -1.2120
 2956SOL     OW20329   2.473   3.424   7.226 -0.0155  0.6220 -0.3862
 2956SOL    HW120330   2.421   3.421   7.145 -0.1531  0.5237 -0.2936
 2956SOL    HW220331   2.453   3.337   7.259  0.7713  0.9966  1.0641
 2957SOL     OW20332   1.522   2.759   8.729 -0.4054 -0.3526  0.1226
 2957SOL    HW120333   1.505   2.713   8.811  3.4942 -2.0601 -0.0461
 2957SOL    HW220334   1.472   2.697   8.676 -0.5267  0.4287 -0.6991
 2958SOL     OW20335   3.002   0.136   6.017  0.2026 -0.1651  0.3485
 2958SOL    HW120336   2.958   0.063   6.062 -2.6501  0.1062 -1.9988
 2958SOL    HW220337   3.092   0.107   6.005 -0.1235 -0.6413 -0.9571
 2959SOL     OW20338   3.072   2.681   2.889  0.0290  0.1402  0.1512
 2959SOL    HW120339   3.123   2.760   2.874 -0.3227  0.2115 -0.6168
 2959SOL    HW220340   3.007   2.701   2.957 -0.3246 -0.9775  0.1406
 2960SOL     OW20341   3.422   4.560   5.075 -0.3827  0.1227 -0.3670
 2960SOL    HW120342   3.480   4.499   5.120  1.0307  1.0423 -0.9585
 2960SOL    HW220343   3.481   4.621   5.030  1.0872 -1.7646 -0.9981
 2961SOL     OW20344   4.663   4.227   9.256  0.3371  0.3167  0.0026
 2961SOL    HW120345   4.632   4.147   9.214 -2.9659  1.9017 -0.6236
 2961SOL    HW220346   4.672   4.188   9.343  1.5956  1.0304  0.1969
 2962SOL     OW20347   2.025   2.187   2.627 -0.2807  0.2026 -0.3780
 2962SOL    HW120348   2.034   2.093   2.611  0.5332  0.5965 -2.2086
 2962SOL    HW220349   2.105   2.207   2.676  0.8010 -0.7195 -1.7628
 2963SOL     OW20350   4.370   0.254   6.113  0.0991 -0.2131  0.3540
 2963SOL    HW120351   4.347   0.161   6.111  1.5205 -0.5607  0.5037
 2963SOL    HW220352   4.298   0.290   6.166  0.0146 -1.4842  1.1134
 2964SOL     OW20353   2.590   3.364   2.495  0.2107  0.1251  0.0362
 2964SOL    HW120354   2.584   3.436   2.432 -3.1297 -0.0926  0.1161
 2964SOL    HW220355   2.670   3.315   2.476  0.1651 -0.1102  0.4562
 2965SOL     OW20356   1.966   4.511   1.482 -0.2428 -0.7409  0.7360
 2965SOL    HW120357   2.027   4.442   1.456 -2.5121 -1.6768 -2.0285
 2965SOL    HW220358   2.031   4.571   1.520  0.6329 -1.1313 -0.1559
 2966SOL     OW20359   3.876   1.962   2.015 -0.2032  0.4122 -0.3397
 2966SOL    HW120360   3.944   1.900   2.042 -1.0271 -0.1019  0.5682
 2966SOL    HW220361   3.807   1.900   1.988 -1.3209  0.6182  2.0178
 2967SOL     OW20362   1.973   4.433   3.941 -0.2589  0.4244 -0.1345
 2967SOL    HW120363   2.049   4.407   3.993  0.4103 -0.7359 -1.7072
 2967SOL    HW220364   1.970   4.357   3.883 -2.1524  1.5541 -1.5579
 2968SOL     OW20365   2.965   1.668  16.562  0.2183  0.3693  0.6545
 2968SOL    HW120366   2.993   1.759  16.571  0.5672  0.5452 -1.9593
 2968SOL    HW220367   3.028   1.634  16.498  0.6478  3.0103 -0.3427
 2969SOL     OW20368   0.843   4.175   5.304 -0.3625  0.2900  0.8078
 2969SOL    HW120369   0.777   4.110   5.326 -1.0352  0.2325 -1.3761
 2969SOL    HW220370   0.811   4.201   5.218 -1.6641 -2.9772  0.3157
 2970SOL     OW20371   4.487   2.490  10.307  0.9677  0.2318 -0.5863
 2970SOL    HW120372   4.583   2.487  10.309  0.9371  0.1195  1.6396
 2970SOL    HW220373   4.466   2.584  10.307 -1.3840 -0.3003  0.7115
 2971SOL     OW20374   3.401   1.896   6.121  0.7235  0.0979 -0.2721
 2971SOL    HW120375   3.415   1.962   6.053  1.1124 -1.9276 -2.1770
 2971SOL    HW220376   3.488   1.877   6.156  0.7446 -0.6427 -0.7063
 2972SOL     OW20377   3.337   3.153   5.583  0.0874  0.2805  0.8643
 2972SOL    HW120378   3.337   3.199   5.667 -0.8578  2.3777 -0.3091
 2972SOL    HW220379   3.247   3.175   5.560 -0.0788  0.7574  1.9692
 2973SOL     OW20380   3.272   3.217   1.570  0.2009  0.6274 -0.1440
 2973SOL    HW120381   3.294   3.169   1.490 -0.4741  0.3749 -0.1769
 2973SOL    HW220382   3.271   3.307   1.536 -2.0407  0.4110 -0.6737
 2974SOL     OW20383   3.762   1.965   4.483 -0.1540 -0.3446 -1.0240
 2974SOL    HW120384   3.832   1.977   4.419  1.3550 -0.4285  0.6144
 2974SOL    HW220385   3.772   2.038   4.544 -1.2937 -0.9094 -0.1592
 2975SOL     OW20386   4.448   2.833   2.361 -0.6706 -0.1732  0.0612
 2975SOL    HW120387   4.454   2.739   2.346  1.5539 -0.3907  2.3479
 2975SOL    HW220388   4.378   2.859   2.300 -0.7175 -0.5250 -0.0387
 2976SOL     OW20389   1.531   0.343   5.649 -0.0214  0.6623  0.8190
 2976SOL    HW120390   1.492   0.423   5.686 -1.8429 -0.9422  2.4121
 2976SOL    HW220391   1.578   0.295   5.717  0.4373 -1.5901 -1.1163
 2977SOL     OW20392   1.103   1.902   7.178 -0.7721  0.5016  0.0586
 2977SOL    HW120393   1.114   1.964   7.249  0.0317  0.2401  0.1652
 2977SOL    HW220394   1.019   1.930   7.143 -0.7373  0.6213  0.0711
 2978SOL     OW20395   3.417   1.911   2.159 -0.0530  0.4887 -0.0361
 2978SOL    HW120396   3.347   1.968   2.191 -0.6094  0.9487 -2.0510
 2978SOL    HW220397   3.440   1.965   2.084  0.8867  1.2983  0.8281
 2979SOL     OW20398   1.697   2.307   2.863  0.7296  0.3287 -0.6386
 2979SOL    HW120399   1.725   2.218   2.883 -1.3475  0.1592  1.4400
 2979SOL    HW220400   1.738   2.369   2.923 -2.1255  1.3241  0.2455
 2980SOL     OW20401   4.081   1.570   2.594 -0.3463 -0.2893  0.3612
 2980SOL    HW120402   4.080   1.497   2.655 -1.3018 -1.1659 -0.7115
 2980SOL    HW220403   4.147   1.543   2.530  1.9045  0.6718  2.2925
 2981SOL     OW20404   3.925   3.582   6.480  0.0467 -0.1071  0.7704
 2981SOL    HW120405   3.856   3.566   6.416 -0.6020  2.7495  0.7863
 2981SOL    HW220406   3.877   3.613   6.557  2.1556 -0.2894  2.1626
 2982SOL     OW20407   1.317   1.451   4.886  0.0469 -0.2408 -0.5142
 2982SOL    HW120408   1.349   1.420   4.971 -0.8658  1.1554  0.3359
 2982SOL    HW220409   1.309   1.545   4.900 -2.5558 -0.6541  0.7918
 2983SOL     OW20410   4.610   0.759   5.721  0.4592  0.1338 -0.1356
 2983SOL    HW120411   4.610   0.811   5.640 -1.7948 -0.8705 -0.7985
 2983SOL    HW220412   4.624   0.821   5.792 -2.7351  2.4395 -1.4830
 2984SOL     OW20413   4.358   1.418   0.743 -0.7334 -0.6928  0.6357
 2984SOL    HW120414   4.434   1.418   0.801 -0.3278  2.4529  0.1185
 2984SOL    HW220415   4.312   1.500   0.760 -0.1160 -0.5604  1.6619
 2985SOL     OW20416   1.670   1.005   5.564 -0.1008  0.3537 -0.1407
 2985SOL    HW120417   1.759   0.971   5.554 -0.1196 -0.1947  1.5993
 2985SOL    HW220418   1.627   0.954   5.495  1.3072  0.5196 -1.1382
 2986SOL     OW20419   3.387   3.860   6.723  0.0627 -0.5255  0.0681
 2986SOL    HW120420   3.404   3.926   6.790 -0.0201 -1.5891  1.1466
 2986SOL    HW220421   3.392   3.778   6.773  3.3829  1.3477  2.8306
 2987SOL     OW20422   4.308   3.903   3.648 -0.8411 -0.6476  0.0848
 2987SOL    HW120423   4.334   3.833   3.589  1.2978 -1.3925  1.9406
 2987SOL    HW220424   4.276   3.971   3.588 -0.8580 -1.2576 -0.5911
 2988SOL     OW20425   1.650   2.464  15.456 -0.0302  0.0201 -0.3838
 2988SOL    HW120426   1.586   2.497  15.393  0.5116  0.2283 -0.8270
 2988SOL    HW220427   1.724   2.448  15.397  0.0640 -1.0795  0.0389
 2989SOL     OW20428   3.756   3.335   3.721  0.1773  0.6126  0.2513
 2989SOL    HW120429   3.826   3.270   3.726  0.6241  1.2536  2.2248
 2989SOL    HW220430   3.773   3.390   3.797 -1.5264  1.5036 -0.0025
 2990SOL     OW20431   0.530   1.986   2.151  0.9664 -0.2644 -0.3575
 2990SOL    HW120432   0.623   1.972   2.132  1.2604  0.8048  0.2353
 2990SOL    HW220433   0.533   1.959   2.243  1.5601 -3.5177 -1.3317
 2991SOL     OW20434   3.798   2.612   8.726 -0.3613  0.3586 -0.1025
 2991SOL    HW120435   3.759   2.620   8.814  3.0672 -3.1103  1.7637
 2991SOL    HW220436   3.882   2.577   8.757 -1.2555  0.0563  1.9851
 2992SOL     OW20437   0.626   2.031   4.826 -0.1136  0.2457 -0.6952
 2992SOL    HW120438   0.559   1.968   4.800 -1.2123  0.0048  2.7756
 2992SOL    HW220439   0.702   1.999   4.778  1.1206 -0.0957  1.5033
 2993SOL     OW20440   1.867   0.953   9.403 -0.6397  0.7200 -0.0603
 2993SOL    HW120441   1.798   1.008   9.440 -1.8738 -1.9464  1.6319
 2993SOL    HW220442   1.904   0.929   9.489 -1.2161  2.4747  0.6626
 2994SOL     OW20443   1.855   3.733  11.070 -0.4682  0.4178 -0.5578
 2994SOL    HW120444   1.771   3.719  11.115  0.0050 -1.5424 -0.2880
 2994SOL    HW220445   1.864   3.828  11.071 -0.1789  0.3982 -1.5591
 2995SOL     OW20446   0.790   4.650   2.535  0.2389 -0.1894  0.4959
 2995SOL    HW120447   0.843   4.686   2.464  0.4176  0.7997  1.1382
 2995SOL    HW220448   0.721   4.713   2.555  2.1108  2.2002 -0.5740
 2996SOL     OW20449   4.467   3.021   8.527  0.2960  0.0240  0.7364
 2996SOL    HW120450   4.407   3.095   8.521 -1.1805 -1.1091  1.4384
 2996SOL    HW220451   4.519   3.035   8.607 -0.0757  1.7967  0.6720
 2997SOL     OW20452   4.591   0.473   4.950  0.5917 -0.3239  0.2167
 2997SOL    HW120453   4.516   0.530   4.933  1.2700  0.5291  0.1212
 2997SOL    HW220454   4.644   0.476   4.870 -0.9469  2.0176 -0.7263
 2998SOL     OW20455   0.838   1.680   3.457  0.4278 -0.0878  0.1831
 2998SOL    HW120456   0.759   1.717   3.418  0.1110 -0.4344  0.4841
 2998SOL    HW220457   0.825   1.585   3.451  0.3235 -0.1478  1.3308
 2999SOL     OW20458   2.810   0.730  15.056  0.6895 -0.4016  0.3318
 2999SOL    HW120459   2.882   0.676  15.088  0.2703  0.3516  2.5464
 2999SOL    HW220460   2.839   0.814  15.091 -0.6910  0.6525 -1.0203
 3000SOL     OW20461   2.898   1.458   4.103 -0.0139  0.3511 -0.1405
 3000SOL    HW120462   2.956   1.495   4.170  1.0508 -0.9783 -0.3236
 3000SOL    HW220463   2.862   1.537   4.063 -0.0941 -0.1703 -1.0944
 3001SOL     OW20464   0.228   4.220   9.165  0.6537  0.5017  0.3936
 3001SOL    HW120465   0.132   4.216   9.167  0.7158  0.1841  2.4090
 3001SOL    HW220466   0.241   4.288   9.231 -0.1042  0.3150  0.7419
 3002SOL     OW20467   0.980   1.512  11.927  0.1013  0.2161  0.7990
 3002SOL    HW120468   1.027   1.565  11.861  0.2363 -0.9824 -0.0646
 3002SOL    HW220469   1.029   1.431  11.913 -2.4658 -1.4646  1.7780
 3003SOL     OW20470   1.199   3.206   7.463  0.4527  0.2228 -0.6935
 3003SOL    HW120471   1.149   3.139   7.415  0.2183 -0.9300  1.1534
 3003SOL    HW220472   1.139   3.279   7.448 -1.2627 -0.9669  0.4785
 3004SOL     OW20473   3.032   0.225   6.978 -0.0542 -0.2365 -0.2159
 3004SOL    HW120474   3.014   0.144   7.026 -2.0453  0.7469  0.7183
 3004SOL    HW220475   2.993   0.293   7.033 -0.9733 -0.6156 -0.3987
 3005SOL     OW20476   1.784   2.603  17.600 -0.0402  0.6080  0.1254
 3005SOL    HW120477   1.793   2.523  17.549  1.8429  1.1080 -0.3061
 3005SOL    HW220478   1.848   2.662  17.561  1.1420 -1.8202 -1.5685
 3006SOL     OW20479   3.727   1.677   5.053  0.0870 -0.1753 -0.3438
 3006SOL    HW120480   3.685   1.592   5.043 -1.9947  1.0562 -2.0533
 3006SOL    HW220481   3.748   1.698   4.962 -2.7548  1.3936 -0.6311
 3007SOL     OW20482   1.369   3.238   6.714 -0.1357 -0.3468 -0.3169
 3007SOL    HW120483   1.318   3.176   6.663  0.1705  0.7088 -1.9077
 3007SOL    HW220484   1.416   3.174   6.769  0.2686  0.2107 -0.0144
 3008SOL     OW20485   3.976   3.842   8.321 -0.1980 -1.1183 -0.3474
 3008SOL    HW120486   4.020   3.912   8.370  1.1339 -1.3956 -1.1516
 3008SOL    HW220487   4.039   3.823   8.251  0.5488  0.8263 -0.2013
 3009SOL     OW20488   4.454   0.640   0.553 -0.0237  0.4497  0.0582
 3009SOL    HW120489   4.503   0.664   0.474  0.1400  0.8104  0.2658
 3009SOL    HW220490   4.499   0.700   0.612 -1.6515 -0.8096  2.5658
 3010SOL     OW20491   3.175   1.855   2.376 -1.0112  0.9918  0.1772
 3010SOL    HW120492   3.219   1.816   2.452 -0.9868 -1.1796 -0.9454
 3010SOL    HW220493   3.164   1.942   2.413 -3.4280  1.2717 -1.2362
 3011SOL     OW20494   2.509   0.066   6.093  0.2158 -0.1942  0.7252
 3011SOL    HW120495   2.443   0.015   6.047 -0.0686  0.7624  0.0856
 3011SOL    HW220496   2.514   0.136   6.028  0.4767 -1.5079 -0.6621
 3012SOL     OW20497   3.807   2.959   9.638  0.0090  0.2084  0.4441
 3012SOL    HW120498   3.873   3.028   9.636  0.4689 -0.3386 -2.8807
 3012SOL    HW220499   3.839   2.906   9.565 -1.7151  0.7647 -0.7079
 3013SOL     OW20500   2.962   4.263   4.577 -0.4093 -0.8036 -0.4868
 3013SOL    HW120501   2.963   4.250   4.482  0.5347  0.4735 -0.6473
 3013SOL    HW220502   2.940   4.176   4.612  1.7542 -1.6854 -1.2847
 3014SOL     OW20503   4.311   3.742   8.897  0.2169  0.3539  0.1991
 3014SOL    HW120504   4.273   3.670   8.948  3.3964 -2.2216 -1.0370
 3014SOL    HW220505   4.343   3.802   8.964  1.0224 -0.5210  0.5962
 3015SOL     OW20506   0.848   0.728   3.410 -0.3009 -0.1138 -0.1058
 3015SOL    HW120507   0.921   0.684   3.454 -0.9265 -1.2363 -0.2046
 3015SOL    HW220508   0.828   0.656   3.351 -0.0056  0.6462 -1.1441
 3016SOL     OW20509   3.448   2.012   2.860 -0.5821 -0.5739  0.6588
 3016SOL    HW120510   3.518   2.014   2.794 -1.0423  2.1948  0.2602
 3016SOL    HW220511   3.419   2.103   2.863 -1.9304 -0.9627 -0.5963
 3017SOL     OW20512   4.078   4.376   1.419 -0.0736  0.2631 -0.2292
 3017SOL    HW120513   4.006   4.427   1.383 -1.2501 -1.6855 -0.6151
 3017SOL    HW220514   4.050   4.351   1.507  1.2874 -0.1417  0.0883
 3018SOL     OW20515   3.846   2.411   3.168 -0.5869  0.0625  0.7184
 3018SOL    HW120516   3.942   2.408   3.161 -0.5828  1.3937  0.2605
 3018SOL    HW220517   3.817   2.396   3.079 -0.0195 -2.6958  1.0017
 3019SOL     OW20518   3.105   1.698   5.249 -0.1700 -0.1972 -0.2033
 3019SOL    HW120519   3.071   1.637   5.183  0.3648 -0.8149  0.0889
 3019SOL    HW220520   3.105   1.785   5.208  2.3707 -1.2806 -2.5442
 3020SOL     OW20521   3.552   2.719  10.070 -0.0717 -0.7752  0.2747
 3020SOL    HW120522   3.620   2.716  10.137  0.2943 -1.6686 -0.1321
 3020SOL    HW220523   3.595   2.766   9.997 -1.4504 -0.9077 -0.6245
 3021SOL     OW20524   1.688   2.607   4.800 -0.2641  0.0264 -0.1589
 3021SOL    HW120525   1.721   2.526   4.839 -0.8309  1.1089  2.5570
 3021SOL    HW220526   1.629   2.578   4.729  0.8949 -0.9939 -0.7124
 3022SOL     OW20527   1.826   1.333  16.789 -0.0342  0.5430  0.4702
 3022SOL    HW120528   1.863   1.255  16.748  0.5763  0.0632  1.9346
 3022SOL    HW220529   1.787   1.293  16.867  1.4837 -0.9128  0.4980
 3023SOL     OW20530   0.557   2.946   1.155 -0.4046  0.2121 -0.4891
 3023SOL    HW120531   0.488   3.009   1.176 -0.8256 -0.8471  1.2932
 3023SOL    HW220532   0.633   3.003   1.165 -0.4318  0.0011  0.8661
 3024SOL     OW20533   1.285   4.576  13.939 -0.0079 -0.0498  0.0284
 3024SOL    HW120534   1.199   4.615  13.922  0.5405  0.9115 -0.5175
 3024SOL    HW220535   1.277   4.546  14.030  2.5402  0.4878  0.4137
 3025SOL     OW20536   1.490   2.750   6.936  0.1452  0.2906  0.0686
 3025SOL    HW120537   1.472   2.830   6.986  0.5489  0.0017  0.6819
 3025SOL    HW220538   1.566   2.717   6.984  0.6744 -0.6855 -1.4444
 3026SOL     OW20539   3.144   2.350  16.212 -0.4801 -0.0910 -0.4692
 3026SOL    HW120540   3.057   2.385  16.232 -0.6845 -1.1691  0.5191
 3026SOL    HW220541   3.122   2.326  16.122  0.7451  2.2910 -1.3822
 3027SOL     OW20542   4.485   1.660   7.401 -0.2518 -0.1236 -0.6482
 3027SOL    HW120543   4.550   1.681   7.334 -2.6453  1.7482 -2.4211
 3027SOL    HW220544   4.533   1.603   7.460 -0.3677  1.0668  0.6025
 3028SOL     OW20545   1.248   2.459   4.700  0.2108  0.2666  0.4350
 3028SOL    HW120546   1.197   2.539   4.713 -0.6317 -0.0615 -0.8648
 3028SOL    HW220547   1.329   2.502   4.672  1.5560 -1.9555  0.9071
 3029SOL     OW20548   2.125   3.426  10.938 -0.2448  0.0870 -0.6096
 3029SOL    HW120549   2.088   3.376  10.864 -0.5330  1.3561 -1.3198
 3029SOL    HW220550   2.082   3.387  11.014 -0.2748 -0.7669 -1.0578
 3030SOL     OW20551   0.469   1.992   0.039  0.0407  0.1659  0.3657
 3030SOL    HW120552   0.541   2.049   0.067 -0.0236  0.0012  0.8817
 3030SOL    HW220553   0.463   1.998  17.630  0.8458  3.2614  0.5074
 3031SOL     OW20554   2.184   4.108  11.215  0.0918 -0.0168  0.0890
 3031SOL    HW120555   2.146   4.107  11.127  1.8675 -1.5724 -0.6597
 3031SOL    HW220556   2.236   4.028  11.215  0.2198  0.0670 -2.2475
 3032SOL     OW20557   3.607   1.568   3.913  0.1877 -0.4623 -0.1919
 3032SOL    HW120558   3.525   1.526   3.888 -1.1675  2.5803 -0.7288
 3032SOL    HW220559   3.637   1.513   3.986 -2.1956 -1.0765  0.3232
 3033SOL     OW20560   0.971   2.153   2.308  0.9559 -0.0002  0.2764
 3033SOL    HW120561   0.940   2.233   2.267 -0.9988 -0.6202  0.5571
 3033SOL    HW220562   0.906   2.133   2.376 -0.9109  0.0451 -1.5073
 3034SOL     OW20563   1.411   1.298   4.431 -0.3931  0.2777 -0.2834
 3034SOL    HW120564   1.389   1.339   4.515 -0.7074 -0.7433  0.1362
 3034SOL    HW220565   1.409   1.204   4.447  0.8377  0.5399  1.4103
 3035SOL     OW20566   3.629   4.055  17.654  0.5924 -0.2534 -0.6695
 3035SOL    HW120567   3.694   4.118   0.000 -0.5540 -0.3062  1.7390
 3035SOL    HW220568   3.557   4.116  17.637  1.2892  0.6359 -0.4372
 3036SOL     OW20569   2.441   0.768  13.679  0.7175 -0.3350 -0.3355
 3036SOL    HW120570   2.501   0.841  13.687  0.7753 -0.8130  3.4270
 3036SOL    HW220571   2.484   0.713  13.613  2.3111  0.5275 -0.0188
 3037SOL     OW20572   0.231   4.450  16.090 -0.0922  0.0762 -0.0914
 3037SOL    HW120573   0.300   4.405  16.041  1.7555  1.1585  1.5176
 3037SOL    HW220574   0.151   4.425  16.044 -0.6526  0.7115  0.5578
 3038SOL     OW20575   0.646   3.135   8.075 -0.1608 -0.2172  0.0597
 3038SOL    HW120576   0.574   3.170   8.023  0.7995 -1.2326 -1.9533
 3038SOL    HW220577   0.607   3.055   8.111  0.9464 -0.6443  0.3154
 3039SOL     OW20578   2.827   0.744   5.993  0.0856  0.0186  0.1830
 3039SOL    HW120579   2.765   0.816   5.989  0.6760  0.5885  1.1448
 3039SOL    HW220580   2.765   0.675   6.018 -0.8842  0.7466 -0.2069
 3040SOL     OW20581   4.004   1.480   7.702  0.3076  0.0402  0.0765
 3040SOL    HW120582   4.058   1.486   7.780  1.4849  3.3372 -0.9787
 3040SOL    HW220583   3.928   1.536   7.720  1.7179  1.1334  2.6002
 3041SOL     OW20584   0.270   3.460   3.356  0.5544  0.1185 -0.0302
 3041SOL    HW120585   0.347   3.508   3.383  0.5295  0.6224 -0.8610
 3041SOL    HW220586   0.278   3.461   3.260 -1.1571  1.4079 -0.1611
 3042SOL     OW20587   2.628   3.874  17.079 -0.4496 -0.4477 -0.2023
 3042SOL    HW120588   2.592   3.786  17.075 -0.6652 -0.3475 -0.4378
 3042SOL    HW220589   2.711   3.869  17.032  0.7337 -1.8298  2.0346
 3043SOL     OW20590   4.047   2.688  16.885  0.2223  0.1901 -0.1457
 3043SOL    HW120591   4.129   2.737  16.883  0.9222 -0.8426  2.0679
 3043SOL    HW220592   4.005   2.738  16.955  0.9372 -0.1846  0.5536
 3044SOL     OW20593   1.462   2.593   4.036 -0.9195  0.1917 -0.1925
 3044SOL    HW120594   1.508   2.525   4.086  0.7171  0.0771 -1.8779
 3044SOL    HW220595   1.509   2.590   3.953 -1.7483 -0.9272 -0.6142
 3045SOL     OW20596   2.327   2.722   7.710 -0.0179  0.0392  0.3162
 3045SOL    HW120597   2.335   2.634   7.748  1.6660 -0.1529 -0.4811
 3045SOL    HW220598   2.413   2.728   7.669 -0.7569  0.2681 -1.2271
 3046SOL     OW20599   2.144   0.192  15.173 -0.2402  0.5784  0.5868
 3046SOL    HW120600   2.163   0.191  15.267 -3.8429 -0.5489  1.3251
 3046SOL    HW220601   2.232   0.214  15.143 -0.9859  0.8235 -1.3631
 3047SOL     OW20602   2.432   3.313   7.817 -0.0629 -0.8145  0.3138
 3047SOL    HW120603   2.424   3.233   7.869  3.1564 -1.0099  0.4924
 3047SOL    HW220604   2.477   3.282   7.739  1.8006  0.7768  0.7568
 3048SOL     OW20605   2.782   0.835   3.236 -0.0850 -0.6733 -0.2381
 3048SOL    HW120606   2.798   0.814   3.143 -1.0568 -0.0588 -0.5437
 3048SOL    HW220607   2.873   0.844   3.267  0.6276 -0.2471 -2.4266
 3049SOL     OW20608   0.277   3.402   3.748 -0.0115  0.3772  0.3143
 3049SOL    HW120609   0.200   3.434   3.701  1.4424  1.0740 -1.6030
 3049SOL    HW220610   0.231   3.385   3.830  0.4943  0.7622  0.6759
 3050SOL     OW20611   2.103   3.388   8.137  0.3511 -0.0978 -0.1410
 3050SOL    HW120612   2.038   3.404   8.069 -1.2708 -1.9012  0.9658
 3050SOL    HW220613   2.070   3.439   8.211  1.1808 -1.1320  0.9375
 3051SOL     OW20614   0.422   1.156   0.121 -0.4293 -0.2765  0.7794
 3051SOL    HW120615   0.459   1.225   0.066 -0.9762  0.0291  0.7987
 3051SOL    HW220616   0.337   1.150   0.079  0.6011  0.9633 -1.4574
 3052SOL     OW20617   4.267   0.149   5.811  0.4458  0.0018  0.7397
 3052SOL    HW120618   4.357   0.166   5.838  1.0965 -2.3889  0.0417
 3052SOL    HW220619   4.262   0.054   5.797  2.1606 -0.0593  0.5881
 3053SOL     OW20620   1.199   4.320   3.504 -0.1756  0.4936  0.0841
 3053SOL    HW120621   1.145   4.398   3.515 -2.0156 -0.6465 -0.9098
 3053SOL    HW220622   1.163   4.289   3.421 -0.3604  0.5266  0.1515
 3054SOL     OW20623   2.412   3.372   9.913  0.5212  0.3167 -0.7595
 3054SOL    HW120624   2.462   3.436   9.862  2.0498  1.4684  2.2307
 3054SOL    HW220625   2.371   3.334   9.835 -0.0859  0.0381 -0.3035
 3055SOL     OW20626   3.472   1.740  15.455  0.5374 -0.2004 -0.5141
 3055SOL    HW120627   3.508   1.674  15.396 -0.6448 -3.2237  2.1847
 3055SOL    HW220628   3.433   1.679  15.517 -0.3872  1.9470  1.0316
 3056SOL     OW20629   3.677   2.368   5.084 -0.1850  0.5915  0.4424
 3056SOL    HW120630   3.750   2.423   5.113 -0.0737  0.5748  0.1924
 3056SOL    HW220631   3.669   2.307   5.158  0.3292 -1.7268 -1.3984
 3057SOL     OW20632   3.884   3.590   1.391 -0.3981  0.0200  0.2837
 3057SOL    HW120633   3.833   3.646   1.450  0.0996  0.1788  0.5616
 3057SOL    HW220634   3.826   3.579   1.316  0.2735  2.7917 -0.6385
 3058SOL     OW20635   0.248   4.133   7.868 -0.1917 -0.1839  0.4464
 3058SOL    HW120636   0.277   4.187   7.942  2.0745 -1.1517  0.2762
 3058SOL    HW220637   0.154   4.147   7.862 -0.2646 -0.9744 -0.1018
 3059SOL     OW20638   1.899   1.344   7.316  0.3992  0.0736 -0.1668
 3059SOL    HW120639   1.865   1.284   7.250  3.7249 -1.0644 -0.8457
 3059SOL    HW220640   1.972   1.293   7.351 -0.5955  0.1661  1.9865
 3060SOL     OW20641   2.181   3.185   5.059  0.3665  0.0205 -0.0889
 3060SOL    HW120642   2.169   3.102   5.014 -0.4117 -0.6728  1.3971
 3060SOL    HW220643   2.197   3.159   5.149  0.9523  0.6212 -0.0200
 3061SOL     OW20644   1.566   1.236  12.888  0.1913  0.0571 -0.5837
 3061SOL    HW120645   1.658   1.246  12.863  0.2060 -1.7311 -1.1920
 3061SOL    HW220646   1.540   1.328  12.898  0.7491  0.4201 -2.5157
 3062SOL     OW20647   3.156   0.187   0.292 -0.7778  0.5190  0.0789
 3062SOL    HW120648   3.084   0.244   0.265 -0.8926  0.5180  0.3820
 3062SOL    HW220649   3.126   0.096   0.294  2.1722 -0.4330  0.1167
 3063SOL     OW20650   3.744   0.081   7.701 -0.2296  0.5024  0.3772
 3063SOL    HW120651   3.730   0.173   7.677 -2.0279 -0.3332 -1.7977
 3063SOL    HW220652   3.658   0.041   7.706 -0.6842  1.8487  3.1186
 3064SOL     OW20653   4.273   0.625  13.918 -0.4607 -0.2818  0.9579
 3064SOL    HW120654   4.342   0.605  13.981  1.5519  2.4196 -0.4084
 3064SOL    HW220655   4.304   0.584  13.838 -1.5437  1.1532 -0.2017
 3065SOL     OW20656   4.714   3.436   3.688  0.2774  0.3652  0.3352
 3065SOL    HW120657   4.618   3.429   3.692  0.2746 -0.0175 -0.4050
 3065SOL    HW220658   0.011   3.403   3.776  2.2230 -1.4124 -0.7283
 3066SOL     OW20659   1.175   2.589  13.320  0.3904 -0.1165 -0.2018
 3066SOL    HW120660   1.146   2.606  13.231  2.7075  0.4483 -0.8421
 3066SOL    HW220661   1.270   2.590  13.317  0.3839  0.1303 -0.2600
 3067SOL     OW20662   2.101   1.870   2.459  0.1702  0.2062  0.2144
 3067SOL    HW120663   2.142   1.786   2.442 -1.4050 -0.2334 -1.4102
 3067SOL    HW220664   2.181   1.923   2.461 -0.2002  0.7811 -0.0914
 3068SOL     OW20665   0.685   1.028  14.757  0.4160 -0.2342 -0.1193
 3068SOL    HW120666   0.715   1.108  14.715  0.9152  0.5803  1.8399
 3068SOL    HW220667   0.641   1.061  14.836  0.4700  3.5973 -1.7107
 3069SOL     OW20668   1.432   0.068   0.409  0.2902 -1.1306  0.1865
 3069SOL    HW120669   1.354   0.035   0.454  0.0179 -1.4618 -0.5269
 3069SOL    HW220670   1.493   0.006   0.450  0.0195 -0.0061  2.2637
 3070SOL     OW20671   4.185   3.233   2.959  0.4904 -0.2496 -0.9379
 3070SOL    HW120672   4.253   3.226   3.026 -1.3762 -2.3090  0.7544
 3070SOL    HW220673   4.230   3.215   2.876 -0.7626  0.7503 -1.8385
 3071SOL     OW20674   3.381   0.797   2.587 -0.0417 -0.3872 -0.0582
 3071SOL    HW120675   3.310   0.827   2.531 -0.3002 -0.7913  0.0500
 3071SOL    HW220676   3.353   0.836   2.670  0.0608  0.7953 -0.5816
 3072SOL     OW20677   2.742   1.656   3.970  0.1068 -0.5775  0.0879
 3072SOL    HW120678   2.656   1.624   3.996  0.4458 -0.7904  0.9540
 3072SOL    HW220679   2.748   1.665   3.875  0.7285  1.0981  0.2815
 3073SOL     OW20680   2.858   3.087   3.541  0.5439  0.3519 -0.3821
 3073SOL    HW120681   2.840   3.116   3.452 -0.2224 -0.6074 -0.5397
 3073SOL    HW220682   2.953   3.099   3.539  0.1538  4.0591  3.4947
 3074SOL     OW20683   1.028   1.419   4.944  0.5947 -0.0026 -0.8804
 3074SOL    HW120684   0.985   1.375   4.871  0.6066  0.1615 -0.9868
 3074SOL    HW220685   1.117   1.420   4.909 -0.0801 -1.3662 -2.6532
 3075SOL     OW20686   0.941   3.479   4.139  0.3335  0.2195 -0.5559
 3075SOL    HW120687   0.858   3.434   4.125 -0.1232  0.8988 -0.0710
 3075SOL    HW220688   0.922   3.551   4.199 -1.2461 -0.8121  0.1585
 3076SOL     OW20689   0.968   4.520   3.487  0.3822 -0.4691  0.6412
 3076SOL    HW120690   0.929   4.436   3.512  0.3099  0.0343  2.1917
 3076SOL    HW220691   0.920   4.583   3.540  0.1372  2.6943 -3.3319
 3077SOL     OW20692   0.692   0.872   8.885  0.0423  0.1327 -0.2232
 3077SOL    HW120693   0.780   0.857   8.920 -0.5795 -0.3327  1.1384
 3077SOL    HW220694   0.653   0.912   8.963  2.4012  1.0609  0.4649
 3078SOL     OW20695   1.406   3.151   2.149  0.3707 -0.3138  0.0558
 3078SOL    HW120696   1.469   3.223   2.151 -0.9310  0.8573 -0.7605
 3078SOL    HW220697   1.335   3.207   2.117  0.8428  0.5169  0.4811
 3079SOL     OW20698   0.429   4.667  14.022 -0.4644 -0.2002  0.1293
 3079SOL    HW120699   0.454   4.631  14.107  0.0445 -1.6468 -0.6390
 3079SOL    HW220700   0.425   0.039  14.046  0.7574 -0.6335  1.9000
 3080SOL     OW20701   1.100   0.297  17.658  0.3200  0.1531 -0.5735
 3080SOL    HW120702   1.023   0.354  17.645  1.8681  2.6574  1.1334
 3080SOL    HW220703   1.143   0.289  17.573  0.8317  0.0449 -0.3006
 3081SOL     OW20704   4.133   0.185  15.877 -0.0522 -0.0155  0.3624
 3081SOL    HW120705   4.071   0.219  15.942  0.1956 -0.7829  0.9899
 3081SOL    HW220706   4.095   0.101  15.851  1.0617 -0.5872  0.6034
 3082SOL     OW20707   0.538   0.362   0.742 -0.2863 -0.1627 -0.1363
 3082SOL    HW120708   0.545   0.439   0.798  2.0050 -0.8161  0.5088
 3082SOL    HW220709   0.495   0.409   0.670 -1.6041 -1.9907 -0.5530
 3083SOL     OW20710   2.111   0.167  13.538  0.1736  0.4675 -0.2430
 3083SOL    HW120711   2.052   0.133  13.470  0.5079  0.5087 -0.5536
 3083SOL    HW220712   2.143   0.252  13.507  1.3146  0.3159  0.5499
 3084SOL     OW20713   3.040   3.381   3.331 -0.1355  0.1509 -0.1782
 3084SOL    HW120714   2.960   3.339   3.365  1.2670 -1.3854  1.2171
 3084SOL    HW220715   3.084   3.302   3.300 -0.3964  0.2981 -0.9220
 3085SOL     OW20716   3.245   0.590   7.843 -0.0391 -0.0440  0.2227
 3085SOL    HW120717   3.193   0.524   7.798  0.0814  0.1085 -0.1377
 3085SOL    HW220718   3.183   0.663   7.832 -0.2328 -0.1415  0.6411
 3086SOL     OW20719   4.304   0.893   3.844  0.2263 -0.3853  0.0984
 3086SOL    HW120720   4.210   0.876   3.851  0.6410 -2.5716  0.2819
 3086SOL    HW220721   4.289   0.979   3.805 -2.1701 -1.0421 -0.4311
 3087SOL     OW20722   0.184   2.662   5.025  0.7217 -0.5642 -0.2548
 3087SOL    HW120723   0.207   2.577   4.988 -0.3025 -0.9094 -0.0802
 3087SOL    HW220724   0.147   2.626   5.105 -3.3005  0.9252 -1.4300
 3088SOL     OW20725   0.672   0.333   4.394 -1.1204  0.3339 -0.1094
 3088SOL    HW120726   0.665   0.271   4.467 -1.3473  0.1282 -0.3056
 3088SOL    HW220727   0.587   0.376   4.389 -2.6121 -2.4537  0.8731
 3089SOL     OW20728   3.743   4.066   8.524  0.0795 -0.2988 -0.0404
 3089SOL    HW120729   3.667   4.116   8.551  1.1527  1.4870 -0.3417
 3089SOL    HW220730   3.777   4.118   8.451  0.9086 -0.7489  0.0218
 3090SOL     OW20731   0.675   2.365   3.317 -0.2202 -0.6821 -0.3630
 3090SOL    HW120732   0.618   2.370   3.394  0.3481 -0.3088  0.0444
 3090SOL    HW220733   0.753   2.413   3.348  0.2834 -1.3785 -0.5624
 3091SOL     OW20734   4.575   2.947   8.021 -0.5054  0.7543 -0.2215
 3091SOL    HW120735   4.596   2.982   7.935 -0.9873 -1.8414 -1.3880
 3091SOL    HW220736   4.535   2.862   8.001 -2.1710  1.6465 -0.6474
 3092SOL     OW20737   1.297   2.783   1.543  0.0311  0.1749  0.0637
 3092SOL    HW120738   1.201   2.780   1.542  0.0192  0.8564 -0.9307
 3092SOL    HW220739   1.317   2.751   1.455  1.5291  2.0298 -0.2668
 3093SOL     OW20740   1.251   1.536   8.687  0.1329  0.1263  0.0475
 3093SOL    HW120741   1.179   1.565   8.630 -1.6558  1.1903  2.8454
 3093SOL    HW220742   1.243   1.441   8.683  1.3959  0.0580 -0.7461
 3094SOL     OW20743   3.125   0.819   2.876  0.1166  0.4288 -0.2099
 3094SOL    HW120744   3.143   0.904   2.837  1.4040  0.3343  0.1777
 3094SOL    HW220745   3.193   0.807   2.942  0.6631  0.7700 -0.7058
 3095SOL     OW20746   3.586   1.308   2.881  0.3156  0.4373  0.7866
 3095SOL    HW120747   3.614   1.339   2.967 -1.0629  2.7243  0.4158
 3095SOL    HW220748   3.514   1.370   2.864  1.1481  0.8786 -1.0913
 3096SOL     OW20749   1.153   3.855   9.586  0.2991 -0.6358  0.8682
 3096SOL    HW120750   1.096   3.910   9.532  1.4347 -1.1777 -0.8691
 3096SOL    HW220751   1.196   3.791   9.530 -2.1627 -1.2377 -0.3243
 3097SOL     OW20752   1.915   3.348   8.442  0.7480 -0.4227  0.1095
 3097SOL    HW120753   1.927   3.402   8.520  2.3145  1.0171 -1.1153
 3097SOL    HW220754   2.004   3.335   8.409  0.8500 -0.0135  0.2204
 3098SOL     OW20755   0.766   3.561   4.716  0.3010 -0.0386  0.2045
 3098SOL    HW120756   0.817   3.520   4.787 -0.1692  0.5548  0.8856
 3098SOL    HW220757   0.788   3.496   4.649 -1.1729 -0.2144 -0.0930
 3099SOL     OW20758   1.844   2.495   0.151 -0.6431 -0.1502 -0.3783
 3099SOL    HW120759   1.822   2.488   0.058  2.5428  1.3058 -1.2373
 3099SOL    HW220760   1.845   2.590   0.162 -1.9123 -0.0884 -0.8783
 3100SOL     OW20761   0.124   3.330   2.881  0.5868  0.3749  0.4881
 3100SOL    HW120762   0.042   3.286   2.906  0.0765  0.1233 -1.6740
 3100SOL    HW220763   0.087   3.406   2.836  1.1222 -1.1075 -2.4493
 3101SOL     OW20764   1.388   3.078   3.921  0.0077  0.2506 -0.4225
 3101SOL    HW120765   1.349   3.048   4.003 -1.6750  0.0637 -1.2978
 3101SOL    HW220766   1.470   3.028   3.921 -0.9311 -1.2946  0.0591
 3102SOL     OW20767   2.234   0.020  14.191 -0.1461 -0.3461  0.2286
 3102SOL    HW120768   2.233   0.030  14.286  0.3731 -0.4580  0.2483
 3102SOL    HW220769   2.293   4.666  14.178 -2.3502 -2.2918  1.5444
 3103SOL     OW20770   1.768   3.019   0.440 -0.1199  0.9481 -0.1013
 3103SOL    HW120771   1.807   2.946   0.391  1.9301  1.1850  1.1359
 3103SOL    HW220772   1.773   2.986   0.530 -3.1122  3.9619  1.1774
 3104SOL     OW20773   0.858   1.198  12.416 -0.0237 -0.2887  0.2258
 3104SOL    HW120774   0.803   1.235  12.347  0.7568 -1.0203 -0.7891
 3104SOL    HW220775   0.790   1.156  12.470  0.0267 -2.5517 -1.4706
 3105SOL     OW20776   0.869   2.840   2.896 -0.6643 -0.5276 -0.1958
 3105SOL    HW120777   0.779   2.844   2.864 -0.6401  1.4849 -0.0100
 3105SOL    HW220778   0.905   2.752   2.880  0.4325  0.2054 -1.7028
 3106SOL     OW20779   4.218   1.443   9.750  0.3383 -0.2974 -0.0924
 3106SOL    HW120780   4.192   1.423   9.660 -1.7290 -1.6941  0.8406
 3106SOL    HW220781   4.165   1.518   9.777 -2.0216 -1.7488 -0.6748
 3107SOL     OW20782   1.809   4.291  16.763  0.4239 -0.3907 -0.0331
 3107SOL    HW120783   1.794   4.320  16.853 -3.3534 -0.1502 -0.7533
 3107SOL    HW220784   1.755   4.212  16.760  1.6617 -1.2960  1.3490
 3108SOL     OW20785   2.757   4.421   5.072  0.6885  0.0321 -0.1336
 3108SOL    HW120786   2.724   4.476   5.143 -0.2991 -1.6838  0.7329
 3108SOL    HW220787   2.740   4.479   4.997  0.8504  2.2968  1.6043
 3109SOL     OW20788   0.873   0.467   4.515 -0.1377 -0.1332 -0.0661
 3109SOL    HW120789   0.816   0.399   4.480 -1.4569 -0.0797  1.9763
 3109SOL    HW220790   0.920   0.425   4.587 -1.7049  0.8552  1.5567
 3110SOL     OW20791   1.647   0.791   4.318 -0.5151  0.1231 -0.0002
 3110SOL    HW120792   1.608   0.762   4.236  0.7842  1.0216 -0.9498
 3110SOL    HW220793   1.578   0.761   4.376  0.7336 -2.1678  0.2766
 3111SOL     OW20794   4.200   2.222   4.713 -0.2549  0.5222  0.2841
 3111SOL    HW120795   4.115   2.181   4.731  0.1167 -0.0035  0.8800
 3111SOL    HW220796   4.171   2.312   4.701 -3.2748 -0.4611  0.3332
 3112SOL     OW20797   0.463   3.587  14.821 -0.6568  0.0078 -0.6227
 3112SOL    HW120798   0.439   3.667  14.775 -0.6988  0.7099  0.6064
 3112SOL    HW220799   0.469   3.528  14.746 -0.2812 -0.3983 -0.2748
 3113SOL     OW20800   1.556   3.787   5.689  0.3095 -0.0241  0.3001
 3113SOL    HW120801   1.480   3.776   5.632  0.1924 -1.2353  0.6995
 3113SOL    HW220802   1.525   3.863   5.739 -0.4487 -0.9800  1.2961
 3114SOL     OW20803   2.698   3.212   4.829  0.2681  0.1753  0.0683
 3114SOL    HW120804   2.636   3.152   4.869  1.2943  0.0381  1.4510
 3114SOL    HW220805   2.761   3.223   4.900 -0.3844  3.0237  0.2041
 3115SOL     OW20806   3.187   0.233  15.055  0.1185  0.2932  0.2369
 3115SOL    HW120807   3.147   0.320  15.058 -2.2551 -0.7045 -2.4083
 3115SOL    HW220808   3.277   0.246  15.084 -0.1240  0.8648  0.7340
 3116SOL     OW20809   4.604   0.710   0.327 -0.2820 -0.4356  0.6247
 3116SOL    HW120810   4.688   0.665   0.328  2.4069  4.5630  0.9991
 3116SOL    HW220811   4.621   0.762   0.248 -1.0058 -1.1440  0.0010
 3117SOL     OW20812   1.122   1.408  14.749  0.5499  0.0978  0.1569
 3117SOL    HW120813   1.123   1.317  14.722  0.7327  0.1153  0.1041
 3117SOL    HW220814   1.057   1.406  14.819  0.6949  3.5616  0.4069
 3118SOL     OW20815   4.385   3.694  10.173 -0.1047  0.4330 -0.3468
 3118SOL    HW120816   4.313   3.757  10.167 -0.0750  0.5893  1.0615
 3118SOL    HW220817   4.337   3.617  10.203 -1.0789  1.1050 -0.1681
 3119SOL     OW20818   3.782   3.612  11.516 -0.5433  0.5823  0.2144
 3119SOL    HW120819   3.865   3.616  11.563 -0.4735 -2.9353  0.4505
 3119SOL    HW220820   3.807   3.566  11.436 -1.2023  0.7140 -0.0661
 3120SOL     OW20821   0.791   2.674   1.482 -0.2102 -0.0315  0.2069
 3120SOL    HW120822   0.851   2.627   1.424 -4.0682 -1.2775 -2.7293
 3120SOL    HW220823   0.709   2.686   1.434  0.3540 -1.4061 -1.0763
 3121SOL     OW20824   1.296   4.717   9.333  0.0195 -0.6465 -0.2855
 3121SOL    HW120825   1.276   4.662   9.257 -0.4425 -0.5550 -0.2294
 3121SOL    HW220826   1.312   4.649   9.398 -0.2566  1.3212  1.8139
 3122SOL     OW20827   2.196   4.614   5.492  0.0430  0.2711 -0.4113
 3122SOL    HW120828   2.114   4.630   5.539 -0.6006  1.9672 -2.1418
 3122SOL    HW220829   2.174   4.581   5.405  1.5515  2.2429 -1.5273
 3123SOL     OW20830   3.850   4.130   3.241 -0.4114  0.0244  0.0879
 3123SOL    HW120831   3.857   4.222   3.217  1.8247 -0.3203 -0.5615
 3123SOL    HW220832   3.827   4.085   3.159  0.3967  1.1150 -0.7362
 3124SOL     OW20833   0.351   4.681   0.104 -0.4127 -0.0039  0.1908
 3124SOL    HW120834   0.409   4.675   0.029  0.7344 -2.1020  1.2691
 3124SOL    HW220835   0.294   4.605   0.096 -1.5939  1.0239 -1.2919
 3125SOL     OW20836   4.360   0.678   4.973 -0.2521 -0.1802 -0.3558
 3125SOL    HW120837   4.415   0.694   5.050 -0.4237 -2.3632  0.2191
 3125SOL    HW220838   4.301   0.753   4.984 -0.6599 -0.7209  1.0943
 3126SOL     OW20839   4.714   2.775   2.195  0.6570 -0.7231  0.2069
 3126SOL    HW120840   4.639   2.801   2.249  0.2758 -1.8598  0.2076
 3126SOL    HW220841   0.015   2.862   2.162 -0.2882 -1.9016 -3.4597
 3127SOL     OW20842   3.614   3.812   0.800 -0.0912  0.2990 -0.3712
 3127SOL    HW120843   3.615   3.752   0.724  0.3844  0.3888 -0.4341
 3127SOL    HW220844   3.695   3.794   0.847 -0.3884 -0.7828 -0.2710
 3128SOL     OW20845   3.569   0.998  14.181 -0.0584 -0.6038 -0.7515
 3128SOL    HW120846   3.652   0.971  14.142  1.1901  1.4961  0.4253
 3128SOL    HW220847   3.586   0.971  14.271  0.8658 -0.3631 -0.8505
 3129SOL     OW20848   3.642   4.596   2.245  0.0193  0.3429  0.1844
 3129SOL    HW120849   3.588   4.618   2.169 -1.7348  0.6852  1.5006
 3129SOL    HW220850   3.670   4.681   2.281  0.4703 -0.4797  1.7763
 3130SOL     OW20851   1.564   3.956   7.709 -0.3206 -0.9597 -0.6434
 3130SOL    HW120852   1.652   3.925   7.692 -0.5121 -0.8781 -1.7717
 3130SOL    HW220853   1.580   4.049   7.726 -1.8370 -1.0075  1.1121
 3131SOL     OW20854   3.867   1.071   7.683  0.3776 -0.4976 -0.3513
 3131SOL    HW120855   3.861   1.081   7.588  0.4656  1.7670 -0.1183
 3131SOL    HW220856   3.931   1.142   7.684  1.2401 -1.2561 -2.0269
 3132SOL     OW20857   3.779   3.175   8.014  0.4597 -0.0822 -0.8224
 3132SOL    HW120858   3.708   3.238   8.028  1.2205  0.3578  1.1162
 3132SOL    HW220859   3.835   3.216   7.948  1.8682 -3.9074 -1.9678
 3133SOL     OW20860   0.078   0.549   4.171 -0.0489 -0.1236  0.5151
 3133SOL    HW120861   0.099   0.515   4.258  0.5756  0.1878  0.4901
 3133SOL    HW220862   0.008   0.612   4.189  1.3535  1.4807  0.3602
 3134SOL     OW20863   2.452   3.082   9.062  0.1441 -0.4255  0.4190
 3134SOL    HW120864   2.523   3.114   9.118  2.5564 -0.4880 -2.5844
 3134SOL    HW220865   2.497   3.028   8.997 -0.9905  0.4031 -1.0511
 3135SOL     OW20866   3.292   3.436  13.858 -0.1840  0.4161  0.6013
 3135SOL    HW120867   3.209   3.413  13.900 -0.4081  0.0144 -0.0571
 3135SOL    HW220868   3.302   3.527  13.884  1.0677  0.1111  1.2092
 3136SOL     OW20869   1.647   1.808  16.000  0.3217 -0.4635  0.0749
 3136SOL    HW120870   1.742   1.808  15.994  0.4574 -1.9967  1.9306
 3136SOL    HW220871   1.625   1.873  16.067  0.8431  1.0866 -1.2665
 3137SOL     OW20872   1.852   2.234   8.540  0.0834 -0.2299  0.1445
 3137SOL    HW120873   1.843   2.281   8.623 -1.2935 -1.0268  0.4509
 3137SOL    HW220874   1.932   2.277   8.511  1.4846 -1.8384  1.5865
 3138SOL     OW20875   1.665   1.916   4.634  0.3395  0.4570 -0.6248
 3138SOL    HW120876   1.696   1.964   4.557 -1.1925  0.6017 -1.1575
 3138SOL    HW220877   1.591   1.976   4.648  0.4363  0.1472  1.2737
 3139SOL     OW20878   4.173   0.800   7.837 -0.2812 -0.3596  0.0461
 3139SOL    HW120879   4.199   0.892   7.834 -1.4034 -0.0137  1.1084
 3139SOL    HW220880   4.120   0.802   7.757 -1.2199  0.7797  0.6966
 3140SOL     OW20881   1.705   1.612   5.337  0.0849 -0.4874  0.2813
 3140SOL    HW120882   1.619   1.571   5.343 -0.3640 -0.0310 -2.9637
 3140SOL    HW220883   1.723   1.617   5.243 -0.4682  2.5438  0.3343
 3141SOL     OW20884   0.718   4.418   2.799 -0.8439  1.0952  0.5853
 3141SOL    HW120885   0.758   4.475   2.865 -0.3575 -0.9797  2.0795
 3141SOL    HW220886   0.624   4.429   2.812 -1.3478 -2.0312 -0.2874
 3142SOL     OW20887   4.430   2.275  12.206 -0.1543 -0.5773  0.4813
 3142SOL    HW120888   4.480   2.242  12.132  0.4708  1.0644  0.1636
 3142SOL    HW220889   4.473   2.360  12.218  1.6146 -1.2947 -0.8015
 3143SOL     OW20890   3.693   2.360   2.941  0.7000  0.3456 -0.0259
 3143SOL    HW120891   3.617   2.305   2.961  0.9382 -1.0721 -3.0760
 3143SOL    HW220892   3.659   2.418   2.873 -0.2018  1.1206  1.0966
 3144SOL     OW20893   0.829   2.511   3.725 -0.3305  0.0397 -0.3165
 3144SOL    HW120894   0.778   2.451   3.780  0.0201 -0.1586 -0.2109
 3144SOL    HW220895   0.837   2.457   3.647 -1.2240 -1.0370  0.3318
 3145SOL     OW20896   3.224   4.301   2.047  0.3793  0.3287 -0.2398
 3145SOL    HW120897   3.168   4.340   1.980  1.4098 -0.4215 -1.5403
 3145SOL    HW220898   3.192   4.353   2.120 -0.4060  0.8943 -0.9933
 3146SOL     OW20899   2.735   0.313   1.939  0.9090 -0.3887  0.8099
 3146SOL    HW120900   2.697   0.373   1.875 -0.5627 -2.3130 -0.1160
 3146SOL    HW220901   2.746   0.380   2.006 -2.4647  0.7925  0.1833
 3147SOL     OW20902   0.179   1.692   3.290 -0.8465  0.3296  0.5545
 3147SOL    HW120903   0.246   1.652   3.345 -2.9546 -1.7873  1.5912
 3147SOL    HW220904   0.194   1.786   3.300 -2.1967  0.6022  0.0955
 3148SOL     OW20905   0.972   1.457   5.802  0.1039 -0.1391 -0.0288
 3148SOL    HW120906   1.028   1.500   5.867 -1.3461  0.5562  0.7586
 3148SOL    HW220907   1.001   1.510   5.728  1.7364 -1.1089 -0.0790
 3149SOL     OW20908   3.873   0.228   3.514 -0.4918  0.0382 -0.0596
 3149SOL    HW120909   3.868   0.238   3.419 -0.8953  0.9999  0.0678
 3149SOL    HW220910   3.785   0.190   3.527 -0.4464  1.0989  3.2673
 3150SOL     OW20911   3.076   1.664   2.746  0.6279  0.0717 -0.0297
 3150SOL    HW120912   3.153   1.675   2.691 -0.8702 -0.0829 -2.1598
 3150SOL    HW220913   3.116   1.690   2.829  3.1649  1.3806 -1.6839
 3151SOL     OW20914   4.465   1.448   9.637 -0.2713 -0.4076 -0.2755
 3151SOL    HW120915   4.489   1.530   9.680  2.0068 -0.5425 -1.3131
 3151SOL    HW220916   4.374   1.446   9.667  0.6493  0.2347  2.4912
 3152SOL     OW20917   0.240   2.133   3.858 -0.0481 -0.3353 -0.0574
 3152SOL    HW120918   0.179   2.069   3.896 -0.2169 -1.7428 -2.6346
 3152SOL    HW220919   0.327   2.096   3.875 -0.2815 -1.6371 -1.6150
 3153SOL     OW20920   3.929   0.950   6.887  0.2867 -0.2598  0.3524
 3153SOL    HW120921   3.966   0.879   6.939 -2.0297 -1.2256  0.6299
 3153SOL    HW220922   3.892   1.001   6.960  1.9472  0.4520  0.7102
 3154SOL     OW20923   4.631   0.333  14.256  0.5443 -0.4685  0.0145
 3154SOL    HW120924   4.715   0.304  14.220 -0.0661 -2.1637 -0.0280
 3154SOL    HW220925   4.626   0.426  14.231 -0.2248 -0.4836  0.1160
 3155SOL     OW20926   2.408   4.545  14.167  0.2591  0.1569 -0.0777
 3155SOL    HW120927   2.487   4.530  14.219 -0.5342 -0.1066  1.0455
 3155SOL    HW220928   2.352   4.468  14.178 -0.9609  1.2697  1.5488
 3156SOL     OW20929   0.810   1.085  11.687 -0.3313  0.3171  0.4648
 3156SOL    HW120930   0.838   1.103  11.776 -0.2371 -0.7339  0.6493
 3156SOL    HW220931   0.876   1.139  11.642 -2.4049  0.6557 -2.1671
 3157SOL     OW20932   2.611   0.884   6.960  0.3262  0.2434  0.0622
 3157SOL    HW120933   2.652   0.950   7.016  0.7535 -2.3627  2.8758
 3157SOL    HW220934   2.629   0.925   6.876  0.9511 -0.6159 -0.2276
 3158SOL     OW20935   0.472   2.963   8.242 -0.5168  0.3927 -0.6868
 3158SOL    HW120936   0.378   2.973   8.258 -0.6105 -1.1044 -0.2342
 3158SOL    HW220937   0.507   2.900   8.306 -2.1602  0.8376  0.6724
 3159SOL     OW20938   4.206   4.687   6.763  0.8370  1.0966  0.3517
 3159SOL    HW120939   4.292   4.711   6.729  1.6572 -0.4162  1.3668
 3159SOL    HW220940   4.235   4.640   6.841 -0.5802  1.0956  0.8766
 3160SOL     OW20941   1.472   0.226   9.030  0.1414  0.0714 -0.3442
 3160SOL    HW120942   1.552   0.240   8.979  1.2218 -1.6106  0.9211
 3160SOL    HW220943   1.408   0.231   8.959 -0.4594  0.8080  0.2452
 3161SOL     OW20944   3.923   2.575  10.171 -0.4775  0.1179  0.1895
 3161SOL    HW120945   3.992   2.634  10.142 -1.1385  1.0636  0.5527
 3161SOL    HW220946   3.972   2.537  10.243 -0.9601  0.0816  0.4936
 3162SOL     OW20947   3.773   0.070   6.502  1.0300 -0.7663  0.1172
 3162SOL    HW120948   3.699   0.014   6.478 -0.8776  1.2087  1.3739
 3162SOL    HW220949   3.801   0.047   6.591 -1.8418 -0.6666  1.0490
 3163SOL     OW20950   2.559   2.506   6.876  0.6353 -0.1249  0.6942
 3163SOL    HW120951   2.475   2.507   6.921  0.5588  2.1655  0.5224
 3163SOL    HW220952   2.562   2.412   6.858 -0.0302  0.1477 -0.7933
 3164SOL     OW20953   1.069   2.014   7.948 -0.1990  0.0835  0.2996
 3164SOL    HW120954   0.986   2.012   7.996 -0.4354  0.2825 -0.1024
 3164SOL    HW220955   1.095   1.922   7.944  1.8087  0.4657  5.5619
 3165SOL     OW20956   4.378   4.085   2.104 -0.1963 -0.0146  0.4165
 3165SOL    HW120957   4.344   4.024   2.040  0.0725  0.0651  0.1989
 3165SOL    HW220958   4.466   4.048   2.118  0.5293  1.2192 -0.9390
 3166SOL     OW20959   4.588   2.705  11.337  0.3072  0.2336 -0.1791
 3166SOL    HW120960   4.544   2.755  11.268  1.1034  2.3672  0.8554
 3166SOL    HW220961   4.616   2.630  11.286 -0.5887  0.7409 -1.4143
 3167SOL     OW20962   3.539   0.512   2.302  0.6036 -0.6241 -0.1584
 3167SOL    HW120963   3.623   0.476   2.274  1.1487 -0.0347  0.6847
 3167SOL    HW220964   3.572   0.594   2.341 -1.0389 -0.5399  1.0246
 3168SOL     OW20965   1.205   3.715   2.992  0.0571  0.8272  0.1718
 3168SOL    HW120966   1.291   3.742   2.958  0.2910 -0.4582 -0.2641
 3168SOL    HW220967   1.224   3.718   3.086  0.4348 -0.8985  0.1443
 3169SOL     OW20968   3.219   4.559   4.036  0.1617  0.3012  1.0712
 3169SOL    HW120969   3.185   4.470   4.047 -1.4992  0.7694 -0.3813
 3169SOL    HW220970   3.168   4.588   3.961  0.8110 -2.2822 -0.3636
 3170SOL     OW20971   0.785   0.293   2.841 -0.1926  0.3982  0.5243
 3170SOL    HW120972   0.850   0.222   2.837 -0.7063 -0.0755  0.5557
 3170SOL    HW220973   0.705   0.247   2.817 -0.2604  0.1037  1.3069
 3171SOL     OW20974   3.395   2.319  14.665  0.4927  0.8653  0.3990
 3171SOL    HW120975   3.447   2.324  14.745  1.9784 -2.9665 -0.2666
 3171SOL    HW220976   3.427   2.241  14.618  2.5115  1.0361  1.4905
 3172SOL     OW20977   3.067   0.035   4.958  0.3979 -0.2987 -0.4795
 3172SOL    HW120978   3.075   0.124   4.992 -1.3218  0.0561 -1.0040
 3172SOL    HW220979   3.101   4.701   5.029  2.0273  1.4447  0.0681
 3173SOL     OW20980   0.496   4.427  11.701 -0.1413 -0.7104  0.0889
 3173SOL    HW120981   0.503   4.365  11.629 -0.0451 -0.5602 -0.0315
 3173SOL    HW220982   0.543   4.505  11.672 -0.1596  0.2969  2.7744
 3174SOL     OW20983   1.499   0.296   4.596 -0.2382 -0.2338  0.1707
 3174SOL    HW120984   1.568   0.254   4.545 -0.5333  0.9160 -1.1784
 3174SOL    HW220985   1.468   0.217   4.640 -1.4704 -0.0607 -0.3771
 3175SOL     OW20986   2.844   2.418   9.967 -0.1558  0.0138  0.3179
 3175SOL    HW120987   2.924   2.432   9.917 -0.5107 -0.2218 -0.3234
 3175SOL    HW220988   2.779   2.396   9.900 -0.3590  0.4774  0.3646
 3176SOL     OW20989   4.036   1.931   6.330 -0.2630 -0.4746 -0.3453
 3176SOL    HW120990   4.051   2.025   6.333 -1.6693 -0.1832 -2.3712
 3176SOL    HW220991   4.116   1.896   6.290  0.1064  0.3694 -0.3457
 3177SOL     OW20992   0.603   1.297  11.673  0.3668 -0.6515 -0.1137
 3177SOL    HW120993   0.635   1.207  11.665 -0.6927 -1.0061 -0.2575
 3177SOL    HW220994   0.650   1.334  11.598 -0.1083  0.3428  0.0868
 3178SOL     OW20995   1.556   0.963   7.133  0.4182 -0.2971 -0.2438
 3178SOL    HW120996   1.522   0.941   7.047 -1.4336  0.0822  0.3964
 3178SOL    HW220997   1.475   1.000   7.169  0.1880 -0.5668 -0.4896
 3179SOL     OW20998   2.166   0.843   2.413 -0.5308 -0.2529  0.6135
 3179SOL    HW120999   2.090   0.835   2.356 -0.3202 -0.2534  0.3309
 3179SOL    HW221000   2.149   0.936   2.431  0.9263  0.1622 -0.1144
 3180SOL     OW21001   3.265   1.686   4.380 -0.1858 -0.2720 -0.0690
 3180SOL    HW121002   3.290   1.775   4.357 -0.7924 -0.0248  0.2339
 3180SOL    HW221003   3.250   1.701   4.473  0.4655  0.8089 -0.1366
 3181SOL     OW21004   1.393   1.381   2.529  0.8277  0.0714  0.0347
 3181SOL    HW121005   1.320   1.326   2.558  1.8128 -1.7199 -0.8997
 3181SOL    HW221006   1.363   1.471   2.537 -0.1570 -0.3447  0.9841
 3182SOL     OW21007   2.890   0.498  12.681 -0.3878  0.3479  0.0035
 3182SOL    HW121008   2.866   0.492  12.589 -1.9718 -1.6890  0.5497
 3182SOL    HW221009   2.914   0.408  12.700 -1.5412 -0.0938 -0.6055
 3183SOL     OW21010   4.463   2.402   8.041  0.2653  0.0785 -0.5816
 3183SOL    HW121011   4.385   2.426   7.992 -0.1743  1.1436  0.6410
 3183SOL    HW221012   4.509   2.349   7.976 -1.0476  0.5850 -1.9432
 3184SOL     OW21013   2.342   2.488   1.704  0.9323  0.7861  0.3278
 3184SOL    HW121014   2.376   2.484   1.794  1.7410 -3.8285 -0.1377
 3184SOL    HW221015   2.375   2.410   1.659 -1.6732 -0.3652  0.4089
 3185SOL     OW21016   4.458   2.124  10.812 -0.2222  0.4291  0.5023
 3185SOL    HW121017   4.448   2.112  10.718  0.3136  0.0897  0.4921
 3185SOL    HW221018   4.439   2.037  10.848 -0.3685  1.0114  1.8100
 3186SOL     OW21019   3.774   2.811   7.826 -0.5360  0.0405 -0.4715
 3186SOL    HW121020   3.803   2.834   7.737 -0.6622  2.5722  0.1657
 3186SOL    HW221021   3.831   2.733   7.831 -0.0997  0.3252 -0.9952
 3187SOL     OW21022   4.356   0.850   2.254  0.2881 -0.1140  0.1890
 3187SOL    HW121023   4.293   0.821   2.320 -0.2405  0.7292  0.0507
 3187SOL    HW221024   4.382   0.932   2.296  0.0664 -0.3021  0.6950
 3188SOL     OW21025   4.469   3.644   6.010 -0.4873  0.0301 -0.7197
 3188SOL    HW121026   4.485   3.589   6.086  1.2028 -0.6645 -1.5746
 3188SOL    HW221027   4.457   3.724   6.061  0.6783  0.0023 -0.4140
 3189SOL     OW21028   3.115   1.036  17.127 -0.0386 -0.0732  0.0308
 3189SOL    HW121029   3.071   1.079  17.200  0.1050  0.4398 -0.1898
 3189SOL    HW221030   3.094   0.944  17.141  1.9816 -0.4375  0.6426
 3190SOL     OW21031   4.169   2.129   3.049 -0.1361  0.5418  0.7884
 3190SOL    HW121032   4.169   2.042   3.088 -0.1487 -0.2563 -1.0334
 3190SOL    HW221033   4.133   2.107   2.963 -2.4022  1.5274  1.4875
 3191SOL     OW21034   3.550   1.168   6.565  0.1849  0.7636  0.5258
 3191SOL    HW121035   3.498   1.211   6.633 -1.1293  1.9003 -1.2265
 3191SOL    HW221036   3.487   1.143   6.498  0.3130 -0.4704  0.8645
 3192SOL     OW21037   0.883   1.968  11.372  0.2655  0.2206 -0.0378
 3192SOL    HW121038   0.971   2.004  11.371  0.3343  0.0575  0.3228
 3192SOL    HW221039   0.837   2.043  11.333 -0.8850 -0.0882  0.7177
 3193SOL     OW21040   3.624   0.749   2.425  0.0854  0.1524 -0.0989
 3193SOL    HW121041   3.592   0.806   2.355 -0.8468 -1.5421 -1.0479
 3193SOL    HW221042   3.558   0.765   2.493 -0.2854  0.9194 -0.6459
 3194SOL     OW21043   3.465   4.038   0.743  0.1165  0.3961 -0.6581
 3194SOL    HW121044   3.433   4.060   0.831 -0.6932 -0.4027 -0.7490
 3194SOL    HW221045   3.524   3.965   0.764 -0.9013  0.4919  2.6062
 3195SOL     OW21046   3.685   1.169   6.872  0.0842 -0.1802  0.5064
 3195SOL    HW121047   3.676   1.207   6.785 -0.8879  2.0354  1.5808
 3195SOL    HW221048   3.690   1.252   6.919  3.3247 -0.9822  1.5746
 3196SOL     OW21049   1.014   2.092  14.807  0.0833 -0.0702  0.0368
 3196SOL    HW121050   0.954   2.048  14.867  0.5386 -0.2382  0.3612
 3196SOL    HW221051   1.067   2.152  14.858  0.7288 -0.4327 -0.2040
 3197SOL     OW21052   1.176   0.371   8.112  0.5843  0.4352  0.7435
 3197SOL    HW121053   1.082   0.355   8.120  0.2567  1.5338 -0.9072
 3197SOL    HW221054   1.172   0.359   8.017 -3.0174  0.1183  0.9390
 3198SOL     OW21055   1.812   4.446   4.866  0.7079 -0.1561  0.4531
 3198SOL    HW121056   1.744   4.403   4.918  1.5292 -1.0088  0.8205
 3198SOL    HW221057   1.812   4.394   4.785 -0.8552  0.4864  0.0220
 3199SOL     OW21058   2.438   1.504   3.572 -0.3442  0.4991  0.1215
 3199SOL    HW121059   2.528   1.477   3.592 -0.1861  0.8320 -0.1182
 3199SOL    HW221060   2.398   1.418   3.559 -0.4235  0.5006  0.3681
 3200SOL     OW21061   1.128   0.263   3.071  0.3652  0.7492  0.4358
 3200SOL    HW121062   1.104   0.351   3.043 -2.7674 -0.2326  0.0598
 3200SOL    HW221063   1.059   0.240   3.133  0.5385  1.0341  0.7325
 3201SOL     OW21064   2.780   2.715   2.423  0.4965  0.4880 -0.1037
 3201SOL    HW121065   2.714   2.782   2.436 -0.0326  0.4047 -2.3763
 3201SOL    HW221066   2.831   2.732   2.502 -0.4636  2.6556  0.0546
 3202SOL     OW21067   0.699   1.403   1.389  0.2616  0.2000  0.5038
 3202SOL    HW121068   0.740   1.446   1.465  1.6864 -0.4810  0.1284
 3202SOL    HW221069   0.667   1.476   1.337  0.1977  0.8893  1.5154
 3203SOL     OW21070   4.667   2.530   4.438 -0.0268  0.5643  0.6104
 3203SOL    HW121071   0.010   2.476   4.391 -0.2049  0.4920  0.4489
 3203SOL    HW221072   4.581   2.496   4.411  0.9412 -0.8375 -0.6896
 3204SOL     OW21073   1.832   1.682   8.527  0.2866 -0.1359 -0.5446
 3204SOL    HW121074   1.868   1.593   8.520  0.9681  0.3090 -2.5982
 3204SOL    HW221075   1.835   1.709   8.435  0.6319 -1.9127 -1.0523
 3205SOL     OW21076   1.593   4.544   7.040 -0.3657  0.0905  0.0810
 3205SOL    HW121077   1.555   4.631   7.053  1.4244  0.9933 -0.8798
 3205SOL    HW221078   1.593   4.507   7.129 -0.9053 -1.2163 -0.4602
 3206SOL     OW21079   2.348   3.068   4.390  0.0194  0.2387 -0.5694
 3206SOL    HW121080   2.284   3.009   4.430  0.8448  1.2177  2.1924
 3206SOL    HW221081   2.404   3.006   4.345 -0.5102 -1.6040  1.2773
 3207SOL     OW21082   2.695   1.712  17.369 -0.4945  0.1622 -0.5248
 3207SOL    HW121083   2.708   1.691  17.462 -0.7490 -3.2868 -1.2558
 3207SOL    HW221084   2.783   1.745  17.355 -0.3225 -0.0637  0.0282
 3208SOL     OW21085   3.630   1.403   5.491 -0.0729 -0.1353 -0.7439
 3208SOL    HW121086   3.722   1.380   5.501 -0.8358 -2.9670 -0.3995
 3208SOL    HW221087   3.612   1.390   5.398 -3.9054 -0.7426  0.0740
 3209SOL     OW21088   4.242   3.150   1.167 -0.4474  0.3895 -0.3113
 3209SOL    HW121089   4.254   3.080   1.231  0.9794  1.5929  0.7355
 3209SOL    HW221090   4.188   3.205   1.223 -1.0417 -1.6991  1.1799
 3210SOL     OW21091   0.135   1.273  12.275  0.8578  0.1533 -0.3847
 3210SOL    HW121092   0.140   1.327  12.196 -1.0926  0.1198 -0.5165
 3210SOL    HW221093   0.138   1.342  12.341  2.1592  1.0242 -1.3401
 3211SOL     OW21094   3.208   2.684   4.729 -0.0140 -0.4928 -0.0750
 3211SOL    HW121095   3.189   2.592   4.713  0.1541 -0.8805  1.9528
 3211SOL    HW221096   3.118   2.713   4.712  0.5115  1.9210  1.1598
 3212SOL     OW21097   0.407   0.587   5.285 -0.1079  0.1138  0.1060
 3212SOL    HW121098   0.373   0.505   5.319  2.5355 -1.1244 -0.2053
 3212SOL    HW221099   0.392   0.579   5.191 -0.1630 -1.5773  0.2557
 3213SOL     OW21100   4.396   4.411   7.783  0.2709 -0.1849 -0.1174
 3213SOL    HW121101   4.477   4.421   7.833 -0.9570  0.5022  1.7455
 3213SOL    HW221102   4.416   4.338   7.724  2.2382  2.1842 -2.3702
 3214SOL     OW21103   4.184   4.085  17.028 -0.3391 -0.1772  0.0090
 3214SOL    HW121104   4.133   4.159  16.994  2.4666  2.3708  1.3104
 3214SOL    HW221105   4.120   4.019  17.056  0.3716 -1.0246 -0.3787
 3215SOL     OW21106   3.104   3.173   3.117 -0.1918  0.7431 -0.0146
 3215SOL    HW121107   3.058   3.152   3.199  0.2611  3.6795  1.0021
 3215SOL    HW221108   3.196   3.179   3.143 -0.2492  1.3469  0.0510
 3216SOL     OW21109   4.288   1.912   7.012  0.5247  0.2487 -0.3363
 3216SOL    HW121110   4.341   1.865   6.948  0.0211 -0.0049 -0.5719
 3216SOL    HW221111   4.257   1.838   7.064 -0.5217  1.4620  0.7803
 3217SOL     OW21112   1.881   2.349  14.318  0.0624 -0.1497 -0.0500
 3217SOL    HW121113   1.788   2.327  14.324  0.1440 -0.3064  0.7200
 3217SOL    HW221114   1.911   2.333  14.229  2.1579 -2.9119  1.1434
 3218SOL     OW21115   1.030   0.647   1.955 -0.5739 -0.7706  0.0768
 3218SOL    HW121116   1.062   0.622   1.869  1.5943 -1.8247  1.1701
 3218SOL    HW221117   1.103   0.618   2.011 -0.4818  0.9211  0.8297
 3219SOL     OW21118   3.978   1.844   5.522  0.0286 -0.0165 -1.1307
 3219SOL    HW121119   4.007   1.889   5.442  1.4649  0.5965 -0.2672
 3219SOL    HW221120   3.989   1.917   5.582  1.1475  0.4664 -1.9264
 3220SOL     OW21121   2.684   4.574   6.802 -0.0010 -0.1647  0.1237
 3220SOL    HW121122   2.697   4.595   6.895  0.2840 -1.3783  0.3623
 3220SOL    HW221123   2.652   4.659   6.773  0.5901 -0.3346 -1.0215
 3221SOL     OW21124   2.671   2.692   9.408  0.7334  0.2416 -0.4300
 3221SOL    HW121125   2.755   2.646   9.414  1.1411  1.6406  3.9955
 3221SOL    HW221126   2.652   2.675   9.315  1.6994 -0.0445 -0.5790
 3222SOL     OW21127   3.403   1.068   5.358  0.5487 -0.3717 -0.1841
 3222SOL    HW121128   3.457   1.052   5.435 -2.2540  0.4278  1.9563
 3222SOL    HW221129   3.387   0.977   5.334  0.4694 -0.3687 -0.1423
 3223SOL     OW21130   3.967   2.391   3.848 -0.0643 -0.6641 -0.1838
 3223SOL    HW121131   4.043   2.412   3.902 -1.2900  0.9106  0.9656
 3223SOL    HW221132   3.970   2.444   3.769 -0.8274  0.5803  0.6053
 3224SOL     OW21133   4.518   0.204   3.554  0.6513 -0.4756 -0.5148
 3224SOL    HW121134   4.525   0.109   3.563 -3.3316 -0.7432 -0.1184
 3224SOL    HW221135   4.466   0.216   3.474  1.9735 -3.0911 -1.8128
 3225SOL     OW21136   1.545   2.569   8.948 -0.0128  0.4055 -0.3328
 3225SOL    HW121137   1.489   2.503   8.987 -1.6873  0.6893 -2.2570
 3225SOL    HW221138   1.621   2.580   9.005 -0.5936 -1.1055  0.7094
 3226SOL     OW21139   4.601   1.378  10.625  0.2405 -0.1383  0.5575
 3226SOL    HW121140   4.515   1.413  10.599  0.2633 -0.2770  0.2883
 3226SOL    HW221141   4.615   1.318  10.551  1.3349  0.0351  0.6324
 3227SOL     OW21142   1.420   4.442   3.112  0.5030  0.3079  0.1358
 3227SOL    HW121143   1.461   4.381   3.051 -1.2575 -0.7305 -0.0076
 3227SOL    HW221144   1.419   4.407   3.201 -0.9420 -0.5596 -0.2201
 3228SOL     OW21145   2.567   4.446   6.518  0.7829  0.3339  0.4075
 3228SOL    HW121146   2.646   4.393   6.524  0.9474  0.5388  0.0958
 3228SOL    HW221147   2.516   4.392   6.457 -1.5841  2.1376  0.7928
 3229SOL     OW21148   0.319   1.152   2.722 -0.4513 -0.3918 -0.4134
 3229SOL    HW121149   0.232   1.118   2.746 -0.1863 -0.8372 -0.0958
 3229SOL    HW221150   0.355   1.158   2.810 -1.6725  2.7938 -0.1475
 3230SOL     OW21151   0.709   1.786   0.411 -0.5632 -0.2469 -0.1640
 3230SOL    HW121152   0.628   1.784   0.360 -1.1331 -2.0717  0.8148
 3230SOL    HW221153   0.774   1.740   0.358 -0.8625 -0.5350 -0.2817
 3231SOL     OW21154   4.044   3.929   9.003  0.7835  0.3678  0.2952
 3231SOL    HW121155   4.048   4.016   8.963  2.0986  1.3782  2.6115
 3231SOL    HW221156   4.026   3.876   8.925  1.4469  0.1523  0.2949
 3232SOL     OW21157   2.147   0.327  14.272  0.0863 -0.0894  0.0341
 3232SOL    HW121158   2.148   0.338  14.177 -1.2255  1.0877  0.1657
 3232SOL    HW221159   2.160   0.232  14.282  0.2804 -0.0583  0.0797
 3233SOL     OW21160   0.223   0.902   3.096  0.2655 -0.7489 -0.1579
 3233SOL    HW121161   0.169   0.957   3.153  3.4362  0.8140  1.3913
 3233SOL    HW221162   0.166   0.829   3.076 -2.7992  1.1027  1.8337
 3234SOL     OW21163   3.971   2.069   7.378  0.2354 -0.2647 -0.2282
 3234SOL    HW121164   3.965   2.020   7.296 -0.0694 -1.2246  0.3671
 3234SOL    HW221165   4.060   2.039   7.398  0.5850  0.9041 -0.0096
 3235SOL     OW21166   1.284   3.890   3.764  0.0123  0.1913 -0.3281
 3235SOL    HW121167   1.283   3.857   3.854 -2.0128 -1.7987 -1.0901
 3235SOL    HW221168   1.348   3.958   3.785 -0.7542  1.5134 -2.3618
 3236SOL     OW21169   4.005   3.878   0.543 -0.0535  0.9166 -0.3796
 3236SOL    HW121170   4.013   3.920   0.457 -1.2538  1.2594 -0.3224
 3236SOL    HW221171   4.048   3.794   0.530  1.4178  1.6755 -0.3540
 3237SOL     OW21172   4.388   4.466   6.224 -0.1929  0.1524 -0.5920
 3237SOL    HW121173   4.356   4.378   6.210 -0.0161  0.1238 -0.8122
 3237SOL    HW221174   4.438   4.444   6.303  0.3688  0.3188 -0.8991
 3238SOL     OW21175   2.863   0.037   7.919  0.2168  0.3090 -0.0784
 3238SOL    HW121176   2.858   4.685   7.857 -0.8543  0.8109 -0.5843
 3238SOL    HW221177   2.815   0.101   7.866  1.0072  0.5039 -0.5525
 3239SOL     OW21178   3.841   4.310  13.724 -0.0666  0.2458  1.0249
 3239SOL    HW121179   3.904   4.382  13.726 -0.6657  0.7967  0.2373
 3239SOL    HW221180   3.873   4.268  13.804 -1.7306  0.1332  1.6175
 3240SOL     OW21181   3.357   1.588   5.285  0.2983 -0.6733  0.1162
 3240SOL    HW121182   3.266   1.617   5.289  0.2516 -0.7494 -0.4448
 3240SOL    HW221183   3.343   1.495   5.271 -0.9207 -0.1628 -1.9451
 3241SOL     OW21184   3.437   1.740   5.830  0.5759 -0.4076  0.8572
 3241SOL    HW121185   3.460   1.650   5.809  1.3437 -0.2045  0.8454
 3241SOL    HW221186   3.523   1.767   5.861  0.4597  0.0936  0.7474
 3242SOL     OW21187   4.124   0.496   7.388 -0.0874  0.4146 -0.4277
 3242SOL    HW121188   4.120   0.401   7.383  1.3409  0.2781  1.0099
 3242SOL    HW221189   4.134   0.515   7.481  0.3162  0.2636 -0.4408
 3243SOL     OW21190   4.695   1.179   7.304  0.1214  0.1639  0.0546
 3243SOL    HW121191   4.674   1.215   7.218  1.3411 -0.4991 -0.5298
 3243SOL    HW221192   0.068   1.162   7.296  0.2309  0.7949  0.0187
 3244SOL     OW21193   0.743   3.666   2.219 -0.0232 -0.4513 -0.4479
 3244SOL    HW121194   0.838   3.665   2.214 -0.0597  0.1968 -1.2864
 3244SOL    HW221195   0.714   3.681   2.129  0.1779 -3.0933 -0.9255
 3245SOL     OW21196   2.511   2.400   5.252  0.0286 -0.0584  0.0634
 3245SOL    HW121197   2.436   2.452   5.223 -0.2902 -0.3565  0.3559
 3245SOL    HW221198   2.505   2.405   5.347 -1.0181 -0.5137  0.0222
 3246SOL     OW21199   0.433   0.102  11.782 -0.2922  0.1086 -0.2276
 3246SOL    HW121200   0.412   0.092  11.875  1.3389 -0.9873  0.0478
 3246SOL    HW221201   0.352   0.143  11.752 -0.7535 -0.1601  0.6571
 3247SOL     OW21202   3.176   2.084   6.294 -0.1137 -0.1939  0.1657
 3247SOL    HW121203   3.252   2.082   6.236  0.5674  0.1080  1.0321
 3247SOL    HW221204   3.117   2.026   6.246  0.9296  1.0908 -2.6663
 3248SOL     OW21205   2.176   2.763  11.718 -0.0853  0.4028  0.5269
 3248SOL    HW121206   2.094   2.787  11.761 -1.7677 -1.6763 -1.4574
 3248SOL    HW221207   2.233   2.764  11.795 -0.2989  1.5396  0.6710
 3249SOL     OW21208   4.158   4.051   8.361  0.5803 -0.2039  0.1572
 3249SOL    HW121209   4.136   4.136   8.321  1.1298 -0.6430 -1.0863
 3249SOL    HW221210   4.184   4.001   8.283  1.0979 -2.1628  1.5932
 3250SOL     OW21211   1.451   1.227  12.484  0.6738  0.3320 -0.2183
 3250SOL    HW121212   1.507   1.167  12.434 -0.7129  1.3192 -2.9179
 3250SOL    HW221213   1.394   1.160  12.522  1.0937 -0.2110 -0.5367
 3251SOL     OW21214   3.882   0.201   8.599  0.0242 -0.8999  0.6542
 3251SOL    HW121215   3.854   0.185   8.689  0.9674 -2.1230  0.7338
 3251SOL    HW221216   3.961   0.254   8.607 -0.4380 -0.2988  1.2043
 3252SOL     OW21217   1.965   1.919   8.171 -0.0690 -0.1391 -0.4976
 3252SOL    HW121218   2.039   1.863   8.195 -1.4770 -1.1862  1.3336
 3252SOL    HW221219   1.940   1.955   8.256  0.3983 -1.2566  0.1113
 3253SOL     OW21220   4.533   0.395   5.934 -0.4273 -0.0096 -0.2186
 3253SOL    HW121221   4.470   0.340   5.981 -0.8853 -0.5472 -1.4726
 3253SOL    HW221222   4.549   0.340   5.857 -0.3847  2.3744 -1.8963
 3254SOL     OW21223   0.147   0.120   2.734 -0.1093 -0.3904 -1.1760
 3254SOL    HW121224   0.138   0.211   2.709 -0.0391 -0.7097 -2.3634
 3254SOL    HW221225   0.151   0.124   2.829  1.9891 -2.0412 -1.1788
 3255SOL     OW21226   0.963   1.857   6.412  0.0291  0.3106  0.0619
 3255SOL    HW121227   0.993   1.859   6.503  0.9861  1.5614 -0.2718
 3255SOL    HW221228   0.960   1.952   6.402  0.0249  0.2180 -0.8179
 3256SOL     OW21229   0.401   1.118   7.839  0.1781 -0.6223  0.3872
 3256SOL    HW121230   0.436   1.203   7.811 -0.0772 -0.5545  0.2749
 3256SOL    HW221231   0.325   1.132   7.895  0.8360  3.3165  0.2657
 3257SOL     OW21232   4.110   2.351  11.307  0.2671  0.0623  0.0980
 3257SOL    HW121233   4.135   2.404  11.232  2.5303 -0.6304  0.3525
 3257SOL    HW221234   4.055   2.289  11.259  1.3685  0.1520 -1.2810
 3258SOL     OW21235   4.609   3.600   2.510 -0.0290 -0.4590 -0.7081
 3258SOL    HW121236   4.528   3.554   2.489 -1.1694  0.9281  0.6489
 3258SOL    HW221237   4.596   3.687   2.472 -3.1337 -0.4624  0.3824
 3259SOL     OW21238   0.702   4.098   2.779 -0.3271 -0.0967 -0.3385
 3259SOL    HW121239   0.631   4.075   2.839  1.4114 -0.0988  1.7142
 3259SOL    HW221240   0.761   4.127   2.849  2.9212 -0.0385 -3.0818
 3260SOL     OW21241   3.158   3.119  12.451  0.0741  0.3247 -0.2401
 3260SOL    HW121242   3.085   3.170  12.488 -1.0562  0.0756 -2.1049
 3260SOL    HW221243   3.111   3.054  12.398  0.0170 -0.5351  0.8798
 3261SOL     OW21244   3.173   3.612   3.373 -0.0506 -0.4253 -0.0023
 3261SOL    HW121245   3.150   3.642   3.285 -0.1349  2.2747  0.9426
 3261SOL    HW221246   3.152   3.521   3.356 -2.6859  0.1628  0.0601
 3262SOL     OW21247   1.287   1.361   3.100 -0.5183  0.2417  0.2951
 3262SOL    HW121248   1.372   1.336   3.138 -0.5392 -0.1093  0.1149
 3262SOL    HW221249   1.226   1.290   3.122  0.3508 -0.0825  1.6669
 3263SOL     OW21250   0.253   2.128   4.601 -0.1955 -0.4247  0.6354
 3263SOL    HW121251   0.345   2.150   4.585 -0.3669  1.0135  1.5446
 3263SOL    HW221252   0.269   2.054   4.659  3.8061  0.3220  0.4885
 3264SOL     OW21253   1.294   1.707   8.222 -0.3126  0.1207 -0.0450
 3264SOL    HW121254   1.244   1.782   8.191 -1.4837  0.3771  2.4084
 3264SOL    HW221255   1.315   1.739   8.310  2.7741  0.7970 -1.0403
 3265SOL     OW21256   3.512   4.447  11.032  0.0103 -0.0053  0.2881
 3265SOL    HW121257   3.502   4.543  11.031 -0.3364 -0.0472 -0.2514
 3265SOL    HW221258   3.576   4.426  10.964  0.4080  0.5214  0.5005
 3266SOL     OW21259   3.870   2.628   6.906  0.0660  0.2080  0.0231
 3266SOL    HW121260   3.858   2.610   6.812 -0.6453  1.4607 -0.1288
 3266SOL    HW221261   3.832   2.548   6.942  0.3456  0.0527 -0.0228
 3267SOL     OW21262   2.355   3.392  10.749 -0.7824  0.5064  0.2190
 3267SOL    HW121263   2.344   3.438  10.666 -1.3589 -0.9067 -0.4830
 3267SOL    HW221264   2.354   3.298  10.729  1.9276  0.8302 -1.4228
 3268SOL     OW21265   3.880   4.026  10.282 -0.0483 -0.1026 -0.2590
 3268SOL    HW121266   3.851   4.088  10.216  0.4059 -1.0181 -1.3203
 3268SOL    HW221267   3.871   4.083  10.358 -0.7066 -1.5760  0.7612
 3269SOL     OW21268   2.455   0.326  11.096  0.1566  0.0664  0.3545
 3269SOL    HW121269   2.451   0.406  11.044 -2.7473  0.7380  1.6063
 3269SOL    HW221270   2.525   0.350  11.157  0.2443 -0.1910  0.3542
 3270SOL     OW21271   3.276   0.390   6.012  0.2688  0.8006  0.1256
 3270SOL    HW121272   3.292   0.309   5.962 -1.6834  2.5842 -3.3426
 3270SOL    HW221273   3.345   0.393   6.079 -0.3474  1.7595  0.7100
 3271SOL     OW21274   0.267   1.889   6.851  0.2798 -0.3199  0.4836
 3271SOL    HW121275   0.277   1.806   6.805 -0.3834 -0.4130  0.5149
 3271SOL    HW221276   0.358   1.920   6.857  0.3092 -0.6140  1.6626
 3272SOL     OW21277   0.753   0.917  12.812  0.2748  0.3187  0.0160
 3272SOL    HW121278   0.678   0.930  12.869 -2.7264 -1.2448 -3.5592
 3272SOL    HW221279   0.753   1.002  12.767 -1.7415 -0.1808 -0.9299
 3273SOL     OW21280   4.367   3.597   3.243 -0.1825  0.0581 -0.3152
 3273SOL    HW121281   4.353   3.590   3.149 -0.8363 -0.8012 -0.1581
 3273SOL    HW221282   4.318   3.522   3.276 -0.9678  1.3048  1.3310
 3274SOL     OW21283   0.344   3.352   3.098 -0.3668 -0.0077 -0.0192
 3274SOL    HW121284   0.439   3.363   3.096  0.0764 -3.5702  1.6930
 3274SOL    HW221285   0.332   3.360   3.003  2.3408  0.4149 -0.3456
 3275SOL     OW21286   3.804   3.978   2.997 -0.2842 -0.2606  0.3634
 3275SOL    HW121287   3.881   4.026   2.965  0.6489 -0.3043  2.5337
 3275SOL    HW221288   3.786   3.924   2.920 -0.3910  1.1616 -0.6260
 3276SOL     OW21289   2.482   0.086  16.538 -0.3698 -0.3180  0.4961
 3276SOL    HW121290   2.388   0.076  16.521 -0.4819 -1.1427  1.6095
 3276SOL    HW221291   2.478   0.082  16.634 -1.6553  0.3067  0.4744
 3277SOL     OW21292   2.235   0.675   6.014  0.0248  0.0358  0.0699
 3277SOL    HW121293   2.284   0.757   6.008 -1.9851  1.1738 -0.7661
 3277SOL    HW221294   2.252   0.648   6.105 -2.8715  0.4877  0.7465
 3278SOL     OW21295   3.031   4.455  11.208  0.2190  0.6361  0.1365
 3278SOL    HW121296   2.939   4.476  11.223 -0.3845 -1.6037 -0.4648
 3278SOL    HW221297   3.023   4.364  11.181 -0.4360  0.7920 -0.1712
 3279SOL     OW21298   2.801   2.257   7.933  0.0552 -0.3893  0.4806
 3279SOL    HW121299   2.849   2.253   8.015  1.1804 -2.8434 -0.2749
 3279SOL    HW221300   2.800   2.161   7.923  1.4422 -0.3277 -0.2733
 3280SOL     OW21301   0.112   4.645   9.653  0.3914 -0.9211  0.4325
 3280SOL    HW121302   0.034   4.685   9.615 -0.7287 -2.6731  0.8621
 3280SOL    HW221303   0.099   4.662   9.747 -1.3993 -1.7292  0.3347
 3281SOL     OW21304   4.494   1.255   6.054  0.4676 -0.2333  0.2463
 3281SOL    HW121305   4.416   1.215   6.092  0.5856 -1.1518 -0.5000
 3281SOL    HW221306   4.470   1.348   6.051  0.1330 -0.2932  1.2078
 3282SOL     OW21307   1.063   2.412   8.826 -0.1546 -0.2248  0.5771
 3282SOL    HW121308   1.132   2.405   8.760  1.2253 -1.2028  2.1352
 3282SOL    HW221309   1.074   2.501   8.860  1.6889  0.4234 -1.6989
 3283SOL     OW21310   4.238   2.410  11.950  0.1939  0.3885  0.0902
 3283SOL    HW121311   4.328   2.413  11.919 -0.3356  4.0056 -1.1068
 3283SOL    HW221312   4.239   2.397  12.045 -2.0601  0.8144  0.1757
 3284SOL     OW21313   1.611   0.864  16.929  0.4821 -0.2006 -0.0758
 3284SOL    HW121314   1.586   0.902  16.845  1.2516 -1.2573 -0.7875
 3284SOL    HW221315   1.609   0.941  16.985 -0.3934  0.4055 -0.9498
 3285SOL     OW21316   0.820   1.249  13.754 -0.0094 -0.1776  0.0438
 3285SOL    HW121317   0.893   1.197  13.721  0.1409  0.0106  0.0823
 3285SOL    HW221318   0.764   1.245  13.677  0.8595  1.7398 -0.6752
 3286SOL     OW21319   1.623   4.077  10.007  0.5928  0.5164  0.2229
 3286SOL    HW121320   1.687   4.010  10.031  1.5330  0.5606 -2.1621
 3286SOL    HW221321   1.544   4.059  10.058  0.8884  0.1599  0.5595
 3287SOL     OW21322   2.132   1.014   4.792  0.0559  0.2634  0.2510
 3287SOL    HW121323   2.085   1.030   4.874  0.8883  0.5788  0.6728
 3287SOL    HW221324   2.148   0.920   4.788  0.8253  0.2961  2.4511
 3288SOL     OW21325   0.993   2.500   1.353 -0.2419  0.2218  0.3021
 3288SOL    HW121326   0.938   2.437   1.307 -1.4905  1.4202  0.1470
 3288SOL    HW221327   1.066   2.520   1.294  0.0956  0.0468  0.6625
 3289SOL     OW21328   0.207   3.233   8.852  0.2008  0.1338 -0.0910
 3289SOL    HW121329   0.295   3.241   8.887 -0.6882 -1.6311  2.4853
 3289SOL    HW221330   0.149   3.204   8.922  0.5443 -0.4685 -0.0559
 3290SOL     OW21331   1.640   2.895   2.448  0.7249 -0.0699  0.2875
 3290SOL    HW121332   1.561   2.942   2.474 -0.5740 -1.6142 -0.8320
 3290SOL    HW221333   1.657   2.830   2.516  0.0249  0.4151  0.9281
 3291SOL     OW21334   4.079   1.959   4.446 -0.3222 -0.1663 -0.3084
 3291SOL    HW121335   4.038   1.890   4.395  2.8094 -0.9400 -1.7416
 3291SOL    HW221336   4.127   1.998   4.373  0.4164  1.8256  1.2138
 3292SOL     OW21337   3.346   1.176  16.978  0.0907 -0.0449  0.2785
 3292SOL    HW121338   3.271   1.149  17.030  0.5570 -0.4964  0.7165
 3292SOL    HW221339   3.352   1.268  17.002  0.2064 -0.0351  0.2145
 3293SOL     OW21340   2.657   0.284   5.716 -0.1000  0.8705 -0.2584
 3293SOL    HW121341   2.688   0.363   5.760  3.6833 -0.8286  0.0833
 3293SOL    HW221342   2.740   0.252   5.683  0.0974  0.3837  0.7023
 3294SOL     OW21343   0.759   3.015  12.087 -0.1475  0.5030 -0.6555
 3294SOL    HW121344   0.764   2.971  12.002  0.1977 -0.2984 -0.2122
 3294SOL    HW221345   0.847   3.001  12.122 -0.9751  0.5590  1.4124
 3295SOL     OW21346   3.780   2.510   0.378 -0.0752  0.3951  0.1070
 3295SOL    HW121347   3.845   2.495   0.446  2.0098 -0.0755 -1.9973
 3295SOL    HW221348   3.833   2.568   0.323  0.8328 -0.1450  0.4304
 3296SOL     OW21349   1.821   1.626  12.599 -0.1770 -0.4391  0.3719
 3296SOL    HW121350   1.754   1.670  12.546  0.4508 -0.3577 -0.3534
 3296SOL    HW221351   1.785   1.584  12.677  2.6879 -3.3590  0.1169
 3297SOL     OW21352   0.106   0.740   8.955  0.0228  0.6499 -0.0991
 3297SOL    HW121353   0.029   0.687   8.936  0.9088 -0.4006 -0.7986
 3297SOL    HW221354   0.150   0.684   9.019  1.1669  1.6835  0.0209
 3298SOL     OW21355   4.271   3.868  14.914 -0.2774 -0.0010  0.3080
 3298SOL    HW121356   4.311   3.782  14.923  2.9254  1.3908 -0.7408
 3298SOL    HW221357   4.212   3.860  14.989  0.1219 -2.8900  0.3059
 3299SOL     OW21358   1.110   2.069  14.363 -0.2320 -0.0977 -0.2562
 3299SOL    HW121359   1.054   2.000  14.327  0.2702 -1.4683  1.5948
 3299SOL    HW221360   1.182   2.059  14.300 -0.1129  0.0098 -0.1364
 3300SOL     OW21361   1.746   0.179   1.540  0.0984 -0.1404  0.3227
 3300SOL    HW121362   1.689   0.251   1.512  1.8691  1.9789  2.2002
 3300SOL    HW221363   1.756   0.186   1.634 -0.6581 -2.6013  0.5825
 3301SOL     OW21364   2.668   2.559  15.762 -0.6597  0.0508  0.0368
 3301SOL    HW121365   2.739   2.512  15.720  0.2792  1.1426  0.3880
 3301SOL    HW221366   2.646   2.616  15.688 -0.4776  2.5827  1.9464
 3302SOL     OW21367   1.474   2.892   4.654  0.1875  0.3761  0.1355
 3302SOL    HW121368   1.467   2.848   4.569  4.4359  0.8888 -0.4616
 3302SOL    HW221369   1.476   2.821   4.718 -1.9456  0.4533  0.3092
 3303SOL     OW21370   0.669   4.320  13.693  0.0628 -0.4371 -0.3703
 3303SOL    HW121371   0.663   4.413  13.672 -1.3674 -0.2090  1.0716
 3303SOL    HW221372   0.729   4.287  13.625  2.2199  0.0527  1.2976
 3304SOL     OW21373   3.752   0.726   5.631 -0.1565 -0.3307 -0.0011
 3304SOL    HW121374   3.807   0.787   5.583 -0.5312 -0.7157 -0.9042
 3304SOL    HW221375   3.780   0.742   5.721 -1.1778  2.2662 -0.1498
 3305SOL     OW21376   3.566   2.141   9.247  0.0153 -0.2168  0.4541
 3305SOL    HW121377   3.616   2.064   9.219  1.9559  0.7372  1.3023
 3305SOL    HW221378   3.493   2.144   9.185  0.7949 -1.9107 -0.5375
 3306SOL     OW21379   4.660   0.122  10.295 -0.4562  0.4931  0.1884
 3306SOL    HW121380   4.649   0.217  10.296 -0.5942  0.4756  0.2327
 3306SOL    HW221381   0.035   0.128  10.286 -0.2503 -1.5591  0.7509
 3307SOL     OW21382   3.553   4.341  14.929 -0.6549 -0.3181 -0.1781
 3307SOL    HW121383   3.490   4.325  15.000 -0.6110  0.6636  0.0793
 3307SOL    HW221384   3.496   4.308  14.860 -1.9659  0.6809  0.4299
 3308SOL     OW21385   4.083   4.492   4.986 -0.2431 -0.0946 -0.5253
 3308SOL    HW121386   4.027   4.435   4.935 -0.9659  0.2674 -0.1349
 3308SOL    HW221387   4.101   4.430   5.056 -1.0793  0.6627  0.3492
 3309SOL     OW21388   2.844   3.039   4.685  0.2358  0.6946  0.0358
 3309SOL    HW121389   2.767   3.095   4.699 -0.6442 -0.8388  1.4106
 3309SOL    HW221390   2.881   3.020   4.771 -1.8170 -1.3373  0.4803
 3310SOL     OW21391   3.062   0.191   3.570  0.4333  0.6891  0.3964
 3310SOL    HW121392   3.001   0.240   3.514 -1.1654 -1.5095  0.2019
 3310SOL    HW221393   3.003   0.117   3.577 -0.2383  1.0636 -1.1816
 3311SOL     OW21394   1.930   1.858   4.488 -0.6746 -0.5412  0.3704
 3311SOL    HW121395   1.906   1.770   4.458 -1.6652 -0.5210  1.1266
 3311SOL    HW221396   2.022   1.839   4.509 -0.6191 -1.3553 -0.5945
 3312SOL     OW21397   1.470   1.281  17.337  0.0655  0.3499  0.1089
 3312SOL    HW121398   1.484   1.343  17.267 -1.8563  1.2593  0.5258
 3312SOL    HW221399   1.420   1.332  17.401 -0.8579  0.2061 -0.5055
 3313SOL     OW21400   2.118   3.888   7.860  0.1893  0.2078 -0.0489
 3313SOL    HW121401   2.056   3.957   7.838 -0.5703 -0.2591  0.6022
 3313SOL    HW221402   2.197   3.925   7.821  0.2085 -1.0999 -1.2528
 3314SOL     OW21403   0.221   0.147   2.983 -0.3154  0.4095 -0.2745
 3314SOL    HW121404   0.183   0.215   3.038 -2.9624 -2.2486  1.1625
 3314SOL    HW221405   0.219   0.070   3.040 -0.9804  1.6638  1.3827
 3315SOL     OW21406   4.093   3.891   0.062 -0.4680  0.3184  0.0501
 3315SOL    HW121407   4.179   3.910   0.024  0.4858 -0.8210  1.6308
 3315SOL    HW221408   4.111   3.820   0.123 -0.0695 -0.6410 -1.1735
 3316SOL     OW21409   3.477   0.061   7.600 -0.1797 -0.3448  0.4703
 3316SOL    HW121410   3.487   0.142   7.551  1.0004 -1.5406 -1.2986
 3316SOL    HW221411   3.505   4.712   7.539  0.0779 -1.7683  2.2136
 3317SOL     OW21412   2.609   4.438   9.853 -0.4251  0.4237  0.1270
 3317SOL    HW121413   2.567   4.361   9.813 -0.3237  0.4530 -0.0366
 3317SOL    HW221414   2.699   4.434   9.820  0.3600 -2.6911  2.7075
 3318SOL     OW21415   1.827   3.803   6.167 -0.2325 -0.5403  0.3864
 3318SOL    HW121416   1.874   3.883   6.189 -2.4976  0.9818 -0.2414
 3318SOL    HW221417   1.739   3.827   6.198  0.3519  2.5856 -0.4545
 3319SOL     OW21418   4.664   1.418   3.990  0.2271  0.2847  0.0336
 3319SOL    HW121419   0.022   1.375   3.956 -0.2963 -0.1612 -0.6137
 3319SOL    HW221420   4.630   1.457   3.909 -2.3249  1.1604  1.5651
 3320SOL     OW21421   3.530   2.491   0.676 -0.1055 -0.0352  0.0262
 3320SOL    HW121422   3.523   2.586   0.686  0.1181  0.0197 -0.3411
 3320SOL    HW221423   3.470   2.462   0.744 -1.0373 -1.3969 -1.3589
 3321SOL     OW21424   0.448   0.994  17.055  0.3840  0.1814  0.0454
 3321SOL    HW121425   0.413   0.908  17.033 -2.3755  0.4527  3.4270
 3321SOL    HW221426   0.445   0.994  17.151  3.3966  0.4573  0.1512
 3322SOL     OW21427   3.683   1.244   6.071 -0.1911 -0.2923  0.4423
 3322SOL    HW121428   3.662   1.224   5.979 -0.3508  1.1843  0.1555
 3322SOL    HW221429   3.621   1.184   6.112 -2.3804  2.5084  1.2121
 3323SOL     OW21430   2.927   3.586   5.090  0.1290 -0.5059 -0.1653
 3323SOL    HW121431   3.020   3.595   5.070  0.1331 -0.6616 -0.2165
 3323SOL    HW221432   2.906   3.680   5.093 -1.1048 -0.7943  0.1152
 3324SOL     OW21433   3.216   3.184   8.408  0.3971 -0.3150 -0.8492
 3324SOL    HW121434   3.191   3.270   8.376 -0.3795  0.4162  1.7763
 3324SOL    HW221435   3.204   3.188   8.503  2.5297  0.5577 -0.6246
 3325SOL     OW21436   2.234   0.107  14.451 -0.1305 -0.7267  0.2098
 3325SOL    HW121437   2.162   0.169  14.464  0.7409  0.0522  1.2819
 3325SOL    HW221438   2.312   0.160  14.461 -0.0618 -1.0136  1.2132
 3326SOL     OW21439   3.671   1.932   5.174 -0.1949 -0.1625  0.3086
 3326SOL    HW121440   3.631   1.902   5.256 -0.2972 -0.3259  0.1997
 3326SOL    HW221441   3.707   1.850   5.141  0.2674 -0.2262  0.9777
 3327SOL     OW21442   3.514   3.972   5.585  0.7428  0.1861  0.0738
 3327SOL    HW121443   3.441   3.912   5.572  0.2357  1.2362 -1.8622
 3327SOL    HW221444   3.599   3.928   5.578  1.2654  1.1482  0.4496
 3328SOL     OW21445   3.107   3.943   7.167  0.0552  1.2646  0.2056
 3328SOL    HW121446   3.072   3.947   7.078  0.3702  1.1590  0.0770
 3328SOL    HW221447   3.028   3.919   7.215 -0.1357  0.2704 -0.6072
 3329SOL     OW21448   3.007   4.059   2.794  0.2490  0.0140 -0.3732
 3329SOL    HW121449   2.963   4.009   2.725 -2.2999 -1.2939  2.2149
 3329SOL    HW221450   3.027   4.141   2.749  2.4401  0.6082  1.6874
 3330SOL     OW21451   1.708   0.883  16.204 -0.2355  0.1321  0.3613
 3330SOL    HW121452   1.748   0.894  16.291 -1.2042  1.1389  0.6748
 3330SOL    HW221453   1.783   0.920  16.158 -0.3409  0.8711  0.7724
 3331SOL     OW21454   0.701   4.230  15.322 -0.1397 -0.2775  0.1088
 3331SOL    HW121455   0.732   4.308  15.276  1.4051 -0.6956  0.4386
 3331SOL    HW221456   0.778   4.173  15.314 -0.0995 -0.6215  2.9265
 3332SOL     OW21457   1.090   3.093  10.546 -0.0761 -0.0823  0.1201
 3332SOL    HW121458   1.093   2.997  10.549  0.7018 -0.0974 -1.1302
 3332SOL    HW221459   1.013   3.107  10.491  0.3913  1.1424 -0.2262
 3333SOL     OW21460   1.132   3.825  13.749  0.1569  0.1625  0.6082
 3333SOL    HW121461   1.119   3.919  13.741 -0.1284 -0.0148 -1.0645
 3333SOL    HW221462   1.185   3.820  13.829  1.9489  1.1650 -0.4991
 3334SOL     OW21463   0.844   4.144   9.814 -0.1629 -0.8821 -0.0920
 3334SOL    HW121464   0.859   4.085   9.888  1.9273 -0.2607 -0.0083
 3334SOL    HW221465   0.878   4.228   9.843  0.2594 -0.4532 -1.8042
 3335SOL     OW21466   4.576   3.636   7.649  0.3220  0.1478 -0.4576
 3335SOL    HW121467   4.615   3.723   7.659  2.5756 -0.6537 -2.2732
 3335SOL    HW221468   4.630   3.588   7.712  1.3332  1.2498 -0.4817
 3336SOL     OW21469   3.788   0.293   3.924 -0.0760 -0.4027 -0.1189
 3336SOL    HW121470   3.741   0.232   3.981  1.2414 -1.7196 -0.4444
 3336SOL    HW221471   3.715   0.321   3.869 -0.2382  1.6236  1.1130
 3337SOL     OW21472   4.614   4.138  11.768  0.4135 -0.2283 -0.1262
 3337SOL    HW121473   4.659   4.060  11.800  1.4627  0.4967  0.1870
 3337SOL    HW221474   4.597   4.189  11.847  1.0900 -0.1231 -0.0496
 3338SOL     OW21475   2.442   3.736   4.413 -0.1099  0.0925 -0.7632
 3338SOL    HW121476   2.374   3.804   4.409 -1.8005 -1.5735 -0.2104
 3338SOL    HW221477   2.416   3.676   4.482  1.0500 -0.2799 -0.6510
 3339SOL     OW21478   1.485   1.502   8.232 -0.1992 -0.5099  0.6173
 3339SOL    HW121479   1.467   1.447   8.156 -1.3532  1.5826 -0.5933
 3339SOL    HW221480   1.439   1.579   8.201 -2.3272 -1.5807  1.0785
 3340SOL     OW21481   1.005   4.557  12.436 -0.1097 -0.2996  0.3669
 3340SOL    HW121482   0.993   4.640  12.391 -0.3275 -0.3681  0.2967
 3340SOL    HW221483   1.100   4.549  12.439  0.1259  2.3051 -0.5680
 3341SOL     OW21484   2.211   0.184   2.837  0.2092  0.1776 -0.0271
 3341SOL    HW121485   2.132   0.209   2.788 -0.5115 -1.1455  0.4433
 3341SOL    HW221486   2.194   0.093   2.863 -2.8289  0.1411 -2.0580
 3342SOL     OW21487   3.934   1.563   2.280  0.0076 -0.0226 -0.1661
 3342SOL    HW121488   4.006   1.520   2.325 -1.4596 -1.6646  0.6096
 3342SOL    HW221489   3.911   1.639   2.333  2.0924  0.5724 -0.1198
 3343SOL     OW21490   4.494   1.839  15.359 -0.3999  0.3429  0.0477
 3343SOL    HW121491   4.577   1.863  15.316  0.5704 -1.6694  0.8132
 3343SOL    HW221492   4.533   1.795  15.434  2.8285  0.6083 -1.4746
 3344SOL     OW21493   3.918   4.008  10.946 -0.3354 -0.1506 -0.4877
 3344SOL    HW121494   3.954   3.983  11.031 -1.9622  0.5616  0.4096
 3344SOL    HW221495   3.849   4.071  10.961 -1.8609 -1.6822 -1.0624
 3345SOL     OW21496   2.596   1.573   8.256  0.2209  0.7365  0.0889
 3345SOL    HW121497   2.586   1.478   8.245 -0.9694  0.8135  0.4813
 3345SOL    HW221498   2.505   1.604   8.262  0.1769  0.9117 -1.4011
 3346SOL     OW21499   2.434   2.690  10.195 -0.0595  0.1213 -0.3691
 3346SOL    HW121500   2.436   2.674  10.101  1.0943 -0.5504 -0.2285
 3346SOL    HW221501   2.400   2.611  10.237 -0.3220  0.7910  0.6811
 3347SOL     OW21502   4.063   0.931   9.063  0.0964 -0.5412  0.6573
 3347SOL    HW121503   4.072   0.880   8.982  0.5298  2.7440 -1.4013
 3347SOL    HW221504   4.138   0.893   9.108  0.1741  0.7507  1.6021
 3348SOL     OW21505   4.119   1.056   3.677 -0.1674 -0.2066  0.5144
 3348SOL    HW121506   4.051   1.120   3.656  0.1328 -0.2038 -0.4806
 3348SOL    HW221507   4.176   1.046   3.600 -0.0382 -0.4065  0.6382
 3349SOL     OW21508   2.824   1.317  10.546  0.5847 -0.3906  0.2906
 3349SOL    HW121509   2.782   1.290  10.628  2.0264 -1.9699  0.5170
 3349SOL    HW221510   2.791   1.242  10.496 -1.0967 -0.8356  2.0427
 3350SOL     OW21511   3.415   0.700  11.407  0.2902 -0.6007 -0.2074
 3350SOL    HW121512   3.474   0.628  11.384  2.3509  1.5490 -1.6669
 3350SOL    HW221513   3.396   0.674  11.497  1.3139  1.2333  0.5400
 3351SOL     OW21514   3.857   3.366  10.922  0.1628  0.4749  0.3887
 3351SOL    HW121515   3.762   3.377  10.924 -0.0589 -1.2063 -0.8725
 3351SOL    HW221516   3.884   3.458  10.927  0.2115  0.5731 -1.6279
 3352SOL     OW21517   0.091   0.099   5.589  0.2774  0.2076  0.7658
 3352SOL    HW121518   0.166   0.048   5.559 -0.0673  0.4355 -0.4842
 3352SOL    HW221519   0.022   0.033   5.590 -1.8909  2.4498  0.0676
 3353SOL     OW21520   0.620   3.871  12.327 -0.0237 -0.1420  0.1089
 3353SOL    HW121521   0.617   3.961  12.359 -1.4002 -1.6413  4.3289
 3353SOL    HW221522   0.664   3.830  12.402  2.2817  2.7545  0.3352
 3354SOL     OW21523   3.389   2.928  15.928 -0.3799  0.1179  0.0253
 3354SOL    HW121524   3.328   2.929  15.854 -0.8579 -1.1630  0.4061
 3354SOL    HW221525   3.325   2.923  15.999 -0.1154 -0.8230  0.1965
 3355SOL     OW21526   0.621   0.556  12.683 -0.2298 -0.6393  0.1448
 3355SOL    HW121527   0.608   0.569  12.777  3.5426  0.0464  0.5913
 3355SOL    HW221528   0.538   0.509  12.673  0.6444 -2.0551 -0.4700
 3356SOL     OW21529   0.190   3.446  10.553  0.5303  0.1787 -0.4175
 3356SOL    HW121530   0.123   3.441  10.485  0.2390 -0.7191 -0.0648
 3356SOL    HW221531   0.241   3.374  10.516 -0.0063 -0.2892 -0.2416
 3357SOL     OW21532   2.039   2.489  17.359  0.0241  0.1968 -0.8762
 3357SOL    HW121533   2.114   2.546  17.380  1.2888 -2.2418  1.2295
 3357SOL    HW221534   1.974   2.551  17.325 -1.1291 -1.3955 -1.5771
 3358SOL     OW21535   0.590   1.583   6.603  0.4816 -1.0292 -0.3931
 3358SOL    HW121536   0.504   1.541   6.596 -0.1649 -0.0178  1.3580
 3358SOL    HW221537   0.650   1.517   6.569  1.9517 -0.5183  1.2358
 3359SOL     OW21538   3.105   2.807   5.668  0.2253  0.0054 -0.1565
 3359SOL    HW121539   3.068   2.735   5.618  1.1622  0.0720 -0.9432
 3359SOL    HW221540   3.187   2.769   5.700  0.6162 -0.2478 -1.4948
 3360SOL     OW21541   1.761   1.245   3.010 -0.2448  0.3230 -0.0750
 3360SOL    HW121542   1.721   1.176   2.957  0.6273  0.3057 -0.7150
 3360SOL    HW221543   1.685   1.271   3.063  1.2330  1.3196  1.5472
 3361SOL     OW21544   1.824   0.991   7.526 -0.1541  0.4409  0.7345
 3361SOL    HW121545   1.751   0.969   7.468  1.4130  0.9494 -1.4359
 3361SOL    HW221546   1.766   1.010   7.599 -1.3968 -1.4540  0.2409
 3362SOL     OW21547   3.619   1.771   8.060 -0.3952  0.5615  0.2597
 3362SOL    HW121548   3.618   1.712   8.136 -0.0914  1.2427  0.7971
 3362SOL    HW221549   3.706   1.770   8.020  0.0517 -0.3036  1.2593
 3363SOL     OW21550   1.296   2.086   3.562  0.1387 -0.3628 -0.1344
 3363SOL    HW121551   1.306   2.046   3.475 -1.1117  0.1165 -0.5026
 3363SOL    HW221552   1.308   2.177   3.537 -2.1043 -0.1504 -0.4351
 3364SOL     OW21553   4.492   3.756   3.454 -0.5943  0.0273 -0.1147
 3364SOL    HW121554   4.567   3.700   3.474  0.7080  0.8993 -2.6061
 3364SOL    HW221555   4.447   3.701   3.389 -0.6965 -0.6352  0.5103
 3365SOL     OW21556   2.402   4.394  17.608  0.4737  0.0710  0.1183
 3365SOL    HW121557   2.422   4.337  17.534 -0.3936  0.8502 -0.7168
 3365SOL    HW221558   2.441   4.479  17.589  1.4200 -0.5879 -0.8955
 3366SOL     OW21559   0.959   1.042   7.711 -0.2042  0.5581  0.8123
 3366SOL    HW121560   1.009   1.029   7.630 -2.4582  0.2065 -0.5119
 3366SOL    HW221561   0.871   1.061   7.678  0.0353  0.9294  0.3809
 3367SOL     OW21562   1.931   1.227   4.461 -0.2662 -0.0335  0.2714
 3367SOL    HW121563   1.993   1.157   4.483 -2.1938 -0.9516  2.7821
 3367SOL    HW221564   1.977   1.301   4.500  1.3387 -1.3029  0.8064
 3368SOL     OW21565   2.339   4.434   6.672  0.2032  0.5745  0.1660
 3368SOL    HW121566   2.297   4.513   6.639  0.8312  0.6968 -0.3276
 3368SOL    HW221567   2.428   4.451   6.641 -0.9588  2.2332 -2.1743
 3369SOL     OW21568   4.686   1.300   3.259 -0.1200  0.2213 -0.4690
 3369SOL    HW121569   0.060   1.304   3.255 -0.1500  0.8544 -0.5747
 3369SOL    HW221570   4.661   1.383   3.299  0.6003 -0.0459  0.5343
 3370SOL     OW21571   1.193   4.164   4.053 -0.4532 -0.7347  0.0402
 3370SOL    HW121572   1.216   4.075   4.080  0.1287 -0.3195  0.8827
 3370SOL    HW221573   1.111   4.160   4.003 -1.7157  0.7535  1.9859
 3371SOL     OW21574   1.564   3.971   8.065  0.1654  0.0988  0.1263
 3371SOL    HW121575   1.496   4.032   8.094 -1.0563 -0.8451 -0.7491
 3371SOL    HW221576   1.509   3.896   8.042  0.0300  0.5705 -1.1057
 3372SOL     OW21577   3.479   3.945   9.514  0.1299  0.5894 -0.1416
 3372SOL    HW121578   3.431   3.937   9.431  0.2692 -0.7053 -0.0939
 3372SOL    HW221579   3.436   4.019   9.556 -0.7981  0.1049 -0.2342
 3373SOL     OW21580   0.330   3.537   4.519  0.1062 -0.7388 -0.4999
 3373SOL    HW121581   0.332   3.625   4.482  2.2514 -1.3496 -1.7939
 3373SOL    HW221582   0.389   3.484   4.466 -1.6864 -1.6460 -1.5943
 3374SOL     OW21583   3.985   0.382   0.953  0.0137  0.1136  0.0808
 3374SOL    HW121584   4.031   0.378   1.037 -2.1471  1.9707  1.3530
 3374SOL    HW221585   3.992   0.295   0.914 -1.1721 -0.3118  0.8100
 3375SOL     OW21586   1.620   0.751   8.382 -0.3839 -0.5297  0.3197
 3375SOL    HW121587   1.578   0.697   8.449 -0.3121 -0.8093  0.1390
 3375SOL    HW221588   1.704   0.773   8.423 -0.3831  0.5155 -0.2201
 3376SOL     OW21589   0.082   2.837   5.283  0.3886 -0.5343 -0.6670
 3376SOL    HW121590   0.110   2.749   5.308  0.8738 -0.8653 -2.3796
 3376SOL    HW221591   0.005   2.854   5.337  0.2476  0.1536 -1.0783
 3377SOL     OW21592   4.655   2.657   7.426 -0.6090 -0.3232  0.3717
 3377SOL    HW121593   4.688   2.637   7.514 -0.4699 -0.3039  0.3242
 3377SOL    HW221594   4.575   2.705   7.447 -1.2707 -1.4101  0.2971
 3378SOL     OW21595   3.302   3.325   9.625  0.3511  0.5307  0.4244
 3378SOL    HW121596   3.219   3.373   9.630  0.9639  1.4394  1.9919
 3378SOL    HW221597   3.293   3.286   9.538  0.2538 -1.6298  1.3985
 3379SOL     OW21598   0.093   1.846  16.252  0.3725  0.1414 -0.3035
 3379SOL    HW121599   0.049   1.804  16.178 -0.1804 -0.3160  0.2809
 3379SOL    HW221600   0.059   1.936  16.245  0.2415 -0.1155 -2.9387
 3380SOL     OW21601   3.574   4.450   5.296  0.0376 -0.3576  0.4634
 3380SOL    HW121602   3.600   4.363   5.327 -1.1208 -1.1686 -0.8875
 3380SOL    HW221603   3.494   4.462   5.347 -0.8087  2.0820 -1.4352
 3381SOL     OW21604   1.035   1.285   1.474 -0.2697 -0.9060  0.3962
 3381SOL    HW121605   1.003   1.221   1.536 -1.9086 -1.2494 -0.8043
 3381SOL    HW221606   1.007   1.368   1.513  0.4396 -0.8421  0.7663
 3382SOL     OW21607   3.428   0.192  10.267  0.3695 -0.0480 -0.0281
 3382SOL    HW121608   3.356   0.164  10.324  1.4706  0.7705  1.7818
 3382SOL    HW221609   3.468   0.106  10.255 -0.2775 -0.3234 -0.2063
 3383SOL     OW21610   4.672   3.113   8.759 -0.6031  0.1259 -0.4455
 3383SOL    HW121611   0.009   3.183   8.789 -1.9848 -0.6877  4.0451
 3383SOL    HW221612   0.018   3.054   8.724  0.6790  0.3025  1.6907
 3384SOL     OW21613   2.274   4.637   6.473  0.5665  0.0583  0.0751
 3384SOL    HW121614   2.257   4.549   6.438 -0.0250  0.6805 -1.1957
 3384SOL    HW221615   2.207   4.691   6.432 -1.9684 -1.7541  1.8245
 3385SOL     OW21616   0.778   4.245   5.020  0.2805 -0.4261 -0.0475
 3385SOL    HW121617   0.812   4.251   4.930 -0.8687  0.5434 -0.4112
 3385SOL    HW221618   0.700   4.195   4.999 -1.3614  2.4203 -0.7082
 3386SOL     OW21619   2.007   1.108   4.153  0.4439  0.6358  0.8580
 3386SOL    HW121620   1.939   1.146   4.209  0.8247  0.3627  1.5086
 3386SOL    HW221621   2.061   1.063   4.218  1.3020 -1.4337 -1.2632
 3387SOL     OW21622   2.092   2.057   6.574  0.1014 -0.1932  0.3293
 3387SOL    HW121623   2.147   2.052   6.496 -1.3082  1.9907 -0.7775
 3387SOL    HW221624   2.147   2.117   6.625  1.5377 -1.1465 -0.0990
 3388SOL     OW21625   2.253   2.048   2.765  0.0267  0.2138  0.3490
 3388SOL    HW121626   2.332   2.072   2.815  0.9640  0.1779 -1.1286
 3388SOL    HW221627   2.299   1.980   2.715  0.9225  0.6632  0.5584
 3389SOL     OW21628   3.898   4.497  16.272 -0.7489 -0.0672 -0.1603
 3389SOL    HW121629   3.811   4.480  16.308 -0.5837  0.3602  0.4597
 3389SOL    HW221630   3.943   4.536  16.348  0.7493 -0.4185 -0.8643
 3390SOL     OW21631   2.703   3.540   3.460  0.4221 -0.2949 -0.1969
 3390SOL    HW121632   2.740   3.598   3.394 -0.1628  0.2257 -0.0716
 3390SOL    HW221633   2.779   3.530   3.517  0.1979  0.0061  0.1613
 3391SOL     OW21634   1.630   1.278   6.612  0.0010 -0.1597 -0.3032
 3391SOL    HW121635   1.639   1.298   6.519 -0.9400  1.4393 -0.0515
 3391SOL    HW221636   1.622   1.184   6.624  0.6644 -0.0327  1.1166
 3392SOL     OW21637   1.764   4.067   5.882 -1.1446 -0.1399 -0.5122
 3392SOL    HW121638   1.808   4.135   5.830  1.9440 -0.3338  1.8944
 3392SOL    HW221639   1.747   4.126   5.955 -0.2446 -3.1806  2.1310
 3393SOL     OW21640   0.705   3.448   3.475  0.0902 -0.6525  0.2925
 3393SOL    HW121641   0.771   3.390   3.437  0.1965 -0.4147  0.1222
 3393SOL    HW221642   0.759   3.494   3.539  0.5858  3.4476 -3.1600
 3394SOL     OW21643   3.735   4.459   2.041 -0.3230  0.2947 -0.0392
 3394SOL    HW121644   3.642   4.436   2.033  0.4709 -1.9097 -2.7123
 3394SOL    HW221645   3.726   4.505   2.124  0.9308  0.1765  0.1547
 3395SOL     OW21646   4.509   4.616   9.605  0.0145 -0.1992 -0.3256
 3395SOL    HW121647   4.538   4.599   9.695  0.0859 -2.0171 -0.6949
 3395SOL    HW221648   4.557   4.542   9.567 -0.3172 -1.2609  1.2983
 3396SOL     OW21649   2.878   0.080   4.774  0.1109  0.3556 -0.5933
 3396SOL    HW121650   2.947   0.113   4.717 -0.2326 -1.1992 -1.9325
 3396SOL    HW221651   2.933   0.061   4.850 -0.0652 -1.2283 -0.8573
 3397SOL     OW21652   0.102   4.609   8.049  0.3059 -0.4806 -0.8002
 3397SOL    HW121653   0.016   4.568   8.055  0.9496 -1.6910  0.2925
 3397SOL    HW221654   0.069   4.699   8.048  0.0238 -0.5637  0.8300
 3398SOL     OW21655   2.894   2.014   8.009  0.6067  0.1511 -0.1266
 3398SOL    HW121656   2.981   2.024   8.046 -0.2111  0.8803  1.6074
 3398SOL    HW221657   2.873   1.921   8.023 -2.3334  1.0426  1.3646
 3399SOL     OW21658   1.643   2.950   2.125 -0.1862 -0.2081 -0.1285
 3399SOL    HW121659   1.670   2.890   2.056  1.0367 -0.5800  0.6651
 3399SOL    HW221660   1.548   2.938   2.127 -0.6264  3.5722  2.7975
 3400SOL     OW21661   2.782   4.343   7.674 -0.2040  0.5533  0.3620
 3400SOL    HW121662   2.831   4.345   7.592  1.8420  2.0010  1.6060
 3400SOL    HW221663   2.840   4.409   7.713  1.0119  0.1783 -0.8111
 3401SOL     OW21664   0.256   0.262   9.500  0.1615  0.3114  0.2092
 3401SOL    HW121665   0.296   0.226   9.580 -0.9362 -1.2374  0.0556
 3401SOL    HW221666   0.167   0.278   9.530  0.3942  1.3534  0.3489
 3402SOL     OW21667   2.880   4.656   2.802 -0.0687  0.1434  0.2160
 3402SOL    HW121668   2.825   4.607   2.863 -1.9346  1.1051 -0.7289
 3402SOL    HW221669   2.846   4.617   2.722 -0.4833  1.3713 -0.2055
 3403SOL     OW21670   3.636   0.858   5.175 -0.5375 -0.0615 -0.3404
 3403SOL    HW121671   3.576   0.839   5.246 -1.8151  1.8238 -0.9349
 3403SOL    HW221672   3.696   0.784   5.186 -1.1280 -0.7396 -1.5574
 3404SOL     OW21673   3.491   2.330   4.904  0.5197  0.0907 -0.2240
 3404SOL    HW121674   3.553   2.324   4.977 -0.0816  0.2564  0.3066
 3404SOL    HW221675   3.472   2.237   4.892  2.2109 -0.1737 -0.7825
 3405SOL     OW21676   0.545   0.375  16.943 -0.1883  0.1741 -0.0625
 3405SOL    HW121677   0.638   0.391  16.955 -0.0231 -0.8475  0.0440
 3405SOL    HW221678   0.543   0.292  16.895 -0.1571 -0.0879  0.3857
 3406SOL     OW21679   2.694   3.825   3.115 -0.4152  0.0092 -0.2703
 3406SOL    HW121680   2.718   3.898   3.058  0.2333  0.5270  0.6756
 3406SOL    HW221681   2.737   3.750   3.074 -2.3328 -0.2578 -1.7866
 3407SOL     OW21682   0.439   0.693   8.477  0.0295 -0.5527  0.3936
 3407SOL    HW121683   0.348   0.682   8.504 -0.2772  0.6740 -0.1527
 3407SOL    HW221684   0.426   0.702   8.383 -2.6240  1.8958  1.0210
 3408SOL     OW21685   3.171   3.205   9.972 -0.1522 -0.0411  0.3021
 3408SOL    HW121686   3.142   3.295   9.987 -0.6099  0.1229 -1.5811
 3408SOL    HW221687   3.089   3.156   9.973 -1.5095  2.1361 -3.9710
 3409SOL     OW21688   0.699   1.149   7.122 -0.3616 -0.4303  0.3856
 3409SOL    HW121689   0.632   1.210   7.093 -0.7295 -0.0447  2.0010
 3409SOL    HW221690   0.681   1.083   7.055 -0.8718 -0.8079  0.8897
 3410SOL     OW21691   4.628   3.863   7.893  0.6286 -0.3847  0.5345
 3410SOL    HW121692   4.640   3.958   7.895 -3.2735  0.1478 -0.9080
 3410SOL    HW221693   4.716   3.830   7.880  0.1614 -1.0026 -1.0673
 3411SOL     OW21694   2.315   0.478   8.547  0.0469 -0.5422 -0.1773
 3411SOL    HW121695   2.328   0.470   8.452 -0.5210 -0.3526 -0.2723
 3411SOL    HW221696   2.385   0.423   8.583  2.3368  1.7047 -1.1513
 3412SOL     OW21697   3.149   4.669   2.686 -0.5890 -0.0020  0.5521
 3412SOL    HW121698   3.104   4.705   2.611 -2.2232  0.4072  1.7209
 3412SOL    HW221699   3.074   4.670   2.746 -1.0533  2.0513 -0.0910
 3413SOL     OW21700   0.900   0.765   3.117  0.0611  0.0348  0.2331
 3413SOL    HW121701   0.858   0.823   3.053  1.5015  1.5942  0.7105
 3413SOL    HW221702   0.830   0.705   3.142 -0.9142  1.4758  0.8931
 3414SOL     OW21703   4.486   3.855   7.450 -0.3032  0.0903 -0.0404
 3414SOL    HW121704   4.493   3.893   7.362  0.7869 -0.4742 -0.1943
 3414SOL    HW221705   4.523   3.767   7.447 -1.7440 -0.5357  0.3576
 3415SOL     OW21706   3.655   3.096   9.108 -0.6700  0.0290  0.0264
 3415SOL    HW121707   3.716   3.169   9.115 -0.0805 -0.5239  0.6047
 3415SOL    HW221708   3.606   3.108   9.189  0.1328  1.6282  0.2743
 3416SOL     OW21709   2.874   4.292   6.290 -0.2070  0.3220 -0.6147
 3416SOL    HW121710   2.945   4.307   6.352 -1.6427  1.0493  0.8527
 3416SOL    HW221711   2.836   4.379   6.299 -0.7097  0.0190  0.2273
 3417SOL     OW21712   2.974   2.133  10.104 -0.0095  0.0843  0.8107
 3417SOL    HW121713   2.944   2.072  10.037  0.4687  0.6921  0.0505
 3417SOL    HW221714   2.925   2.213  10.084  0.1172  0.1496  0.7662
 3418SOL     OW21715   1.236   3.745   7.457 -0.3599  0.0236 -0.4527
 3418SOL    HW121716   1.244   3.787   7.543  1.6772  0.0429 -0.6717
 3418SOL    HW221717   1.325   3.713   7.450  0.3839  1.7156  1.1216
 3419SOL     OW21718   3.033   1.969   1.663 -0.1882  0.2668  0.5810
 3419SOL    HW121719   2.977   1.968   1.741 -0.1172  1.4958  0.6487
 3419SOL    HW221720   3.114   1.930   1.695  0.1743 -0.3554 -1.0963
 3420SOL     OW21721   1.999   1.496   8.648 -0.0895 -0.2259 -0.0618
 3420SOL    HW121722   2.058   1.477   8.721  0.1391 -0.8636 -0.4160
 3420SOL    HW221723   2.049   1.480   8.568 -0.4599 -2.8161  0.2344
 3421SOL     OW21724   2.356   1.682  10.242  0.3677 -0.4251 -0.3596
 3421SOL    HW121725   2.449   1.686  10.265  0.4927  1.4107 -1.1693
 3421SOL    HW221726   2.322   1.718  10.324  2.5104 -0.8102  0.6980
 3422SOL     OW21727   2.130   1.495   2.645  0.3009  0.0426  0.5767
 3422SOL    HW121728   2.056   1.437   2.624 -0.7050  0.8110  1.9974
 3422SOL    HW221729   2.201   1.438   2.674  0.6002  0.1091 -0.0328
 3423SOL     OW21730   3.958   2.773   8.016  0.5337  0.2073  0.1892
 3423SOL    HW121731   3.891   2.806   7.956  0.4769 -0.5428 -0.1625
 3423SOL    HW221732   3.986   2.687   7.985 -1.2215 -0.3142  0.0671
 3424SOL     OW21733   1.995   3.527   3.573  0.1193  0.1999  0.0306
 3424SOL    HW121734   2.015   3.508   3.481  0.9871  4.5891 -0.6642
 3424SOL    HW221735   1.915   3.579   3.569 -1.4948 -2.3609 -1.2595
 3425SOL     OW21736   1.713   0.174   7.590  0.1015 -0.5120  0.1747
 3425SOL    HW121737   1.660   0.217   7.523 -1.2020 -3.3016 -0.5575
 3425SOL    HW221738   1.770   0.119   7.535  1.3330 -0.3444  1.2781
 3426SOL     OW21739   2.559   3.472  15.475  0.2236 -0.1407 -0.4007
 3426SOL    HW121740   2.516   3.408  15.531 -1.4172 -0.5532 -2.1086
 3426SOL    HW221741   2.564   3.426  15.391 -2.7762 -1.3223  0.0723
 3427SOL     OW21742   0.816   1.032   2.167 -0.0831  0.3600 -0.1475
 3427SOL    HW121743   0.847   0.997   2.084 -0.3661 -1.1345  0.3649
 3427SOL    HW221744   0.757   1.103   2.141  0.3699  0.0213 -2.0667
 3428SOL     OW21745   0.250   0.347   7.513  0.3137 -0.7222 -0.3162
 3428SOL    HW121746   0.249   0.417   7.579 -0.8869 -1.3075  0.2857
 3428SOL    HW221747   0.262   0.269   7.567 -1.1944 -1.7812 -1.5345
 3429SOL     OW21748   2.303   0.751   5.159  0.2888  0.2637  0.1984
 3429SOL    HW121749   2.350   0.681   5.203  0.7416 -0.2056 -1.0643
 3429SOL    HW221750   2.259   0.706   5.087 -0.4322  1.9794 -0.4347
 3430SOL     OW21751   2.982   4.390   5.949  0.2682  0.6293  0.1595
 3430SOL    HW121752   3.054   4.344   5.990 -0.7822 -1.2817 -0.1402
 3430SOL    HW221753   2.934   4.307   5.939  2.3932 -0.5619 -0.0316
 3431SOL     OW21754   2.333   2.358   6.513 -0.1706  0.4414 -0.1065
 3431SOL    HW121755   2.338   2.306   6.593  1.9575 -0.3646 -0.7348
 3431SOL    HW221756   2.332   2.448   6.545  1.8036  0.5585 -0.3313
 3432SOL     OW21757   0.548   1.759   6.855 -0.2816  0.3691 -0.0343
 3432SOL    HW121758   0.498   1.694   6.806  0.2694  0.3178 -0.5390
 3432SOL    HW221759   0.636   1.764   6.818  0.1729 -0.0884  0.9815
 3433SOL     OW21760   0.268   3.540   6.748  0.8168  0.5081 -1.0324
 3433SOL    HW121761   0.289   3.447   6.754 -2.6954 -0.2455 -0.0493
 3433SOL    HW221762   0.333   3.568   6.684  2.9558 -2.2788 -0.0625
 3434SOL     OW21763   1.868   2.724   3.214 -0.1206 -0.0465  0.5027
 3434SOL    HW121764   1.795   2.785   3.207  2.0050  2.6798  2.0328
 3434SOL    HW221765   1.911   2.758   3.292  0.7775  2.1563 -0.9670
 3435SOL     OW21766   2.142   0.343   3.167 -0.0583 -0.0667  0.5518
 3435SOL    HW121767   2.074   0.409   3.180 -0.3002 -0.1573 -0.2381
 3435SOL    HW221768   2.136   0.347   3.071  1.3922  0.5766  0.4967
 3436SOL     OW21769   0.758   3.544   2.856  0.1078 -0.2286  0.2804
 3436SOL    HW121770   0.783   3.458   2.821  1.2677  0.0822  0.3627
 3436SOL    HW221771   0.834   3.598   2.836 -0.7620  1.5387  1.7976
 3437SOL     OW21772   1.327   2.416  16.991 -0.3827 -0.2738  0.2412
 3437SOL    HW121773   1.421   2.404  16.974 -0.5160 -1.1074  0.0868
 3437SOL    HW221774   1.298   2.384  16.906  0.4710  0.5406 -0.3550
 3438SOL     OW21775   2.750   2.300   8.720 -0.6906  0.2232  0.0203
 3438SOL    HW121776   2.744   2.396   8.724  1.1274  0.2850  1.6261
 3438SOL    HW221777   2.661   2.272   8.741 -0.1215 -0.3593  1.6389
 3439SOL     OW21778   4.524   2.691   9.485  0.1346  0.3419 -0.3506
 3439SOL    HW121779   4.471   2.625   9.439 -0.2436 -0.5858  1.3828
 3439SOL    HW221780   4.574   2.649   9.555 -1.9110  0.5291  1.2591
 3440SOL     OW21781   0.157   2.799   2.640 -0.2089  0.2615  0.2653
 3440SOL    HW121782   0.168   2.780   2.547 -0.3126  2.7189 -0.2386
 3440SOL    HW221783   0.184   2.891   2.645 -2.0107  0.7380  1.5675
 3441SOL     OW21784   2.218   3.074   7.830  0.1548  0.3554 -0.4757
 3441SOL    HW121785   2.138   3.022   7.823  0.4807  0.0328 -1.7736
 3441SOL    HW221786   2.219   3.102   7.922  0.1160  0.7383 -0.5920
 3442SOL     OW21787   1.635   0.033   0.219  0.1417 -0.0068 -0.0165
 3442SOL    HW121788   1.609   0.094   0.149  0.3548 -1.4143 -1.3400
 3442SOL    HW221789   1.559   0.036   0.277  0.0095 -0.6168 -0.1565
 3443SOL     OW21790   3.092   0.945   3.762 -0.5680  0.6556 -0.2045
 3443SOL    HW121791   3.029   0.982   3.823 -0.3882 -0.0068  0.3766
 3443SOL    HW221792   3.058   0.986   3.682 -1.7457 -0.3390 -0.2083
 3444SOL     OW21793   4.272   2.197   7.625 -0.2202  0.1405  0.3622
 3444SOL    HW121794   4.346   2.252   7.600 -0.6866  1.1554  1.2406
 3444SOL    HW221795   4.193   2.236   7.587  0.7552  1.4814 -0.2994
 3445SOL     OW21796   3.021   2.990  13.651  0.1917 -0.3329  0.1558
 3445SOL    HW121797   3.073   2.981  13.571 -0.5258 -0.7529 -0.2546
 3445SOL    HW221798   3.016   3.086  13.651  2.2105 -0.2170  0.4883
 3446SOL     OW21799   2.662   3.857   5.732 -0.1917 -1.0206 -0.3748
 3446SOL    HW121800   2.573   3.891   5.730 -0.0847 -0.7569 -0.7065
 3446SOL    HW221801   2.684   3.877   5.823  0.2126 -0.0070 -0.6974
 3447SOL     OW21802   0.518   1.352   3.338  0.2990  0.1410  0.0920
 3447SOL    HW121803   0.591   1.386   3.389  1.1055 -0.1563 -0.8774
 3447SOL    HW221804   0.565   1.307   3.268 -0.4542 -0.7881  0.1794
 3448SOL     OW21805   0.314   3.705   6.966  0.0932  0.0293 -0.1271
 3448SOL    HW121806   0.276   3.643   6.904  1.8958  0.0445 -1.2544
 3448SOL    HW221807   0.384   3.648   6.998  0.1009  0.1285  0.0307
 3449SOL     OW21808   4.622   0.329   6.239 -0.3542 -0.0646 -0.2500
 3449SOL    HW121809   4.637   0.237   6.260 -1.5048 -0.2570 -0.2548
 3449SOL    HW221810   4.531   0.325   6.210 -1.0097 -2.3813  2.1741
 3450SOL     OW21811   1.664   1.158   9.584  0.1077 -0.0075  0.4029
 3450SOL    HW121812   1.615   1.085   9.622  0.0150 -0.2250 -0.1318
 3450SOL    HW221813   1.593   1.187   9.526  0.6019 -0.2125 -0.3150
 3451SOL     OW21814   1.690   0.226  10.836  0.1416 -0.3278  0.2610
 3451SOL    HW121815   1.611   0.171  10.843 -0.6293  1.1172  2.9259
 3451SOL    HW221816   1.741   0.154  10.798 -0.0469 -1.1936  1.6193
 3452SOL     OW21817   2.363   3.343   4.356 -0.1105  0.4971  0.1739
 3452SOL    HW121818   2.380   3.249   4.362 -1.1729  0.2855 -0.0943
 3452SOL    HW221819   2.307   3.344   4.433 -0.6859 -2.5906 -0.1920
 3453SOL     OW21820   2.009   0.430   7.357  0.0548 -0.5459  0.1966
 3453SOL    HW121821   1.978   0.446   7.267  1.9695 -0.1976 -0.4142
 3453SOL    HW221822   2.090   0.386   7.331  0.1983 -0.3709  0.3448
 3454SOL     OW21823   1.398   4.380   9.052  0.2512 -0.4041  0.3011
 3454SOL    HW121824   1.353   4.454   9.093 -1.1830 -0.0814 -1.8489
 3454SOL    HW221825   1.482   4.423   9.037  0.2074 -1.0725 -1.8097
 3455SOL     OW21826   4.055   1.951  16.937 -0.1641  0.3305  0.0675
 3455SOL    HW121827   4.096   1.883  16.883 -0.1210 -0.4284  1.0656
 3455SOL    HW221828   3.969   1.951  16.897  0.0711 -1.5622 -0.4302
 3456SOL     OW21829   2.762   3.284   8.906  0.2444  0.3675 -0.2577
 3456SOL    HW121830   2.689   3.341   8.930  0.4849  0.4009  0.4089
 3456SOL    HW221831   2.789   3.277   8.998 -3.2139 -0.8280  0.7044
 3457SOL     OW21832   3.038   0.519   2.140  0.2991  0.1276  0.2147
 3457SOL    HW121833   3.052   0.601   2.092 -1.6374 -1.2762 -2.7177
 3457SOL    HW221834   3.093   0.531   2.217  3.4932  0.7554 -2.1059
 3458SOL     OW21835   4.621   2.588   4.727  0.3200 -0.6209 -0.1716
 3458SOL    HW121836   4.637   2.545   4.643  1.0167 -0.6749 -0.0125
 3458SOL    HW221837   4.567   2.661   4.697  0.7777 -0.7787 -1.3914
 3459SOL     OW21838   3.741   3.200   2.045  0.1913 -0.2976  0.3442
 3459SOL    HW121839   3.829   3.206   2.083  0.0152 -1.7252  0.9739
 3459SOL    HW221840   3.753   3.234   1.956  0.9541  0.3982  0.7154
 3460SOL     OW21841   0.278   1.011  16.236 -0.2471 -0.0927  0.0842
 3460SOL    HW121842   0.345   1.012  16.306 -0.6805  1.6889  0.4823
 3460SOL    HW221843   0.216   1.078  16.263 -0.6949 -0.1519 -0.8195
 3461SOL     OW21844   0.856   3.978   3.526  0.6190 -0.0296 -0.3001
 3461SOL    HW121845   0.900   3.916   3.469 -0.2354 -0.0611 -0.9232
 3461SOL    HW221846   0.765   3.980   3.497  0.9265  2.8390 -1.0441
 3462SOL     OW21847   2.952   0.441   5.376 -0.8309 -0.1623 -0.4962
 3462SOL    HW121848   2.969   0.427   5.283 -2.3841 -0.6284 -0.7132
 3462SOL    HW221849   3.039   0.456   5.413 -0.1954  0.0655 -2.0904
 3463SOL     OW21850   1.399   3.734   9.935  0.1935 -0.2734  0.8723
 3463SOL    HW121851   1.433   3.750   9.847  0.1018  2.1145  1.2590
 3463SOL    HW221852   1.421   3.642   9.948  4.0455  0.6551  0.8981
 3464SOL     OW21853   0.459   0.054   2.395 -0.5087  0.7118 -0.3181
 3464SOL    HW121854   0.386   0.090   2.344  1.3377  3.8975 -0.7388
 3464SOL    HW221855   0.416   4.699   2.433  1.0547 -0.5082 -0.9956
 3465SOL     OW21856   3.336   0.795   7.374  0.1829  0.2708  0.1966
 3465SOL    HW121857   3.250   0.773   7.339 -0.0388  1.4585 -0.0013
 3465SOL    HW221858   3.312   0.851   7.448  1.2700 -0.3397  1.0034
 3466SOL     OW21859   0.585   2.682   4.690  0.3479 -0.5116 -0.1142
 3466SOL    HW121860   0.670   2.725   4.696 -1.0452  2.1353  0.5542
 3466SOL    HW221861   0.531   2.731   4.751  1.9913  1.2024 -0.0353
 3467SOL     OW21862   2.587   4.595   7.468  0.0232  0.0586  0.1561
 3467SOL    HW121863   2.640   4.674   7.478  0.0324  0.4256 -2.7435
 3467SOL    HW221864   2.602   4.561   7.380 -0.2678  0.6185 -0.1077
 3468SOL     OW21865   4.513   0.466  12.661  0.0716  0.1313  0.1024
 3468SOL    HW121866   4.572   0.396  12.691  1.0746  0.4031 -1.2164
 3468SOL    HW221867   4.532   0.460  12.567  1.6123 -2.2808  0.5568
 3469SOL     OW21868   1.453   0.169   1.350 -0.1067  0.2631  0.4727
 3469SOL    HW121869   1.480   0.077   1.350 -0.5480  0.1400 -1.3560
 3469SOL    HW221870   1.492   0.205   1.431 -0.7979  0.6746  0.6185
 3470SOL     OW21871   2.491   4.195  14.386  0.6463  0.0255 -0.8484
 3470SOL    HW121872   2.398   4.210  14.401  0.7473  0.1021 -0.2879
 3470SOL    HW221873   2.521   4.281  14.358 -0.2892 -0.7095 -4.1303
 3471SOL     OW21874   0.734   4.009  16.643 -0.7568  0.4476  0.5357
 3471SOL    HW121875   0.683   3.936  16.676  0.8703 -1.4561 -1.1017
 3471SOL    HW221876   0.794   4.024  16.716 -1.1743 -1.1522  1.1973
 3472SOL     OW21877   0.569   2.524   3.101  0.1911  0.1807 -0.0585
 3472SOL    HW121878   0.582   2.594   3.165  2.2002 -0.0007 -0.2483
 3472SOL    HW221879   0.597   2.454   3.160 -0.3209 -0.7095 -0.8765
 3473SOL     OW21880   1.911   2.818   2.431  0.3091  0.8015 -0.3628
 3473SOL    HW121881   1.982   2.869   2.471  0.1286  1.8256 -1.3437
 3473SOL    HW221882   1.884   2.771   2.509  3.3936 -0.0828  0.1884
 3474SOL     OW21883   0.104   1.834   5.207 -0.3595  0.1624 -0.0419
 3474SOL    HW121884   0.198   1.818   5.198  0.0946  1.1304  3.1530
 3474SOL    HW221885   0.082   1.846   5.115  0.0987 -2.7170 -0.5370
 3475SOL     OW21886   0.250   1.262  12.817  0.2511 -0.0886 -0.1931
 3475SOL    HW121887   0.308   1.238  12.890  1.0349 -0.8205 -1.0531
 3475SOL    HW221888   0.230   1.183  12.766  0.9906 -1.7821  2.1262
 3476SOL     OW21889   4.682   1.569   3.373 -0.3197 -0.0696 -0.1845
 3476SOL    HW121890   0.025   1.622   3.325  0.5821 -0.9468  0.0361
 3476SOL    HW221891   0.005   1.581   3.458  1.1371  0.8499 -1.0756
 3477SOL     OW21892   1.789   3.652  17.003  0.4205 -0.4668  0.3224
 3477SOL    HW121893   1.873   3.669  17.046 -0.8351  0.8035  2.2256
 3477SOL    HW221894   1.743   3.588  17.057 -0.0030 -0.0172  0.4906
 3478SOL     OW21895   0.246   3.254   5.058  0.3527  0.5546  0.7717
 3478SOL    HW121896   0.325   3.295   5.094  0.8381  1.2671 -1.0962
 3478SOL    HW221897   0.265   3.164   5.082 -2.9399  0.1640  1.8986
 3479SOL     OW21898   3.836   3.734   8.866 -0.2560 -0.5371 -0.2479
 3479SOL    HW121899   3.775   3.751   8.794  0.2456 -0.8533 -0.7498
 3479SOL    HW221900   3.802   3.651   8.898  1.3341 -1.6685 -1.4937
 3480SOL     OW21901   0.024   1.479   0.572 -0.7584 -0.6946  0.3336
 3480SOL    HW121902   4.670   1.437   0.615 -0.5554 -0.6300  0.7537
 3480SOL    HW221903   4.714   1.570   0.573 -2.4003 -1.2233 -1.3876
 3481SOL     OW21904   0.622   2.069   4.380 -0.0399  0.3651  0.2568
 3481SOL    HW121905   0.614   1.981   4.417 -0.7308  0.4830  0.3889
 3481SOL    HW221906   0.669   2.108   4.453 -0.2728  1.4078 -0.1451
 3482SOL     OW21907   0.513   4.300   2.627  0.0038 -0.0933  0.2430
 3482SOL    HW121908   0.470   4.307   2.712  0.5176 -2.1865  0.6712
 3482SOL    HW221909   0.568   4.227   2.655 -0.5280 -0.2385  0.9102
 3483SOL     OW21910   1.873   1.554   8.900 -0.4963 -0.0221  0.6348
 3483SOL    HW121911   1.935   1.591   8.963  0.0422  0.5182 -0.2226
 3483SOL    HW221912   1.909   1.577   8.815 -0.7542 -2.4280 -0.1151
 3484SOL     OW21913   1.687   0.038   2.673  0.2615 -0.2412 -0.6599
 3484SOL    HW121914   1.662   0.001   2.588  1.0479 -0.1398 -0.9387
 3484SOL    HW221915   1.781   0.021   2.681  0.0663 -1.4577 -0.9090
 3485SOL     OW21916   0.982   2.304   7.142 -0.7472 -0.7159  0.1317
 3485SOL    HW121917   0.967   2.394   7.171 -1.7974 -0.4373 -1.2982
 3485SOL    HW221918   0.997   2.256   7.223 -0.2526  1.7715  1.4960
 3486SOL     OW21919   1.255   2.305   4.338 -0.1839 -0.0456  0.3076
 3486SOL    HW121920   1.193   2.323   4.267  1.4144  1.0345 -0.8201
 3486SOL    HW221921   1.320   2.244   4.301 -0.3620  0.3026 -0.5798
 3487SOL     OW21922   2.923   0.742   0.761 -0.0546  0.0360 -0.0429
 3487SOL    HW121923   2.895   0.657   0.795 -2.4831  1.3737  1.3335
 3487SOL    HW221924   2.973   0.766   0.838  1.2185 -3.4423  0.2044
 3488SOL     OW21925   0.354   0.621  17.667 -0.2290 -0.2833 -0.4952
 3488SOL    HW121926   0.365   0.632  17.572 -0.9535  0.6503 -0.4592
 3488SOL    HW221927   0.260   0.608  17.665  0.0534 -2.8451  2.0269
 3489SOL     OW21928   0.460   1.681  13.898 -0.5564 -0.0068 -0.4554
 3489SOL    HW121929   0.375   1.665  13.939 -0.8569  1.4433 -0.4925
 3489SOL    HW221930   0.511   1.644  13.970 -1.2705 -1.4276 -0.6949
 3490SOL     OW21931   4.398   1.107   4.374  0.0673  0.0377  0.0689
 3490SOL    HW121932   4.339   1.094   4.448 -0.1252 -0.7785 -0.2247
 3490SOL    HW221933   4.362   1.182   4.327 -2.3393 -0.5950  0.9229
 3491SOL     OW21934   0.305   3.423   8.182 -0.4383  0.1866 -0.1406
 3491SOL    HW121935   0.279   3.385   8.266  0.4980  2.2894  1.0884
 3491SOL    HW221936   0.263   3.508   8.188 -0.4851 -0.0224  2.4958
 3492SOL     OW21937   1.796   1.599   3.668  0.2666 -0.1128  1.1283
 3492SOL    HW121938   1.749   1.657   3.607  0.4945 -0.0345  1.0290
 3492SOL    HW221939   1.727   1.533   3.677 -0.9300  0.8189 -1.0204
 3493SOL     OW21940   3.843   1.660  10.343  0.4240 -0.5182 -0.2319
 3493SOL    HW121941   3.856   1.636  10.435 -1.4749 -1.2589 -0.1607
 3493SOL    HW221942   3.775   1.596  10.323  1.2434 -1.5034  0.0963
 3494SOL     OW21943   3.665   4.424   3.858  0.5609  0.4708 -0.1747
 3494SOL    HW121944   3.727   4.369   3.809 -1.6693 -3.4047  1.3232
 3494SOL    HW221945   3.724   4.480   3.908  0.5435 -0.3024  0.7275
 3495SOL     OW21946   2.290   3.746   9.181  0.8111  0.0902  0.2503
 3495SOL    HW121947   2.205   3.702   9.171  0.8347 -0.1343  1.0582
 3495SOL    HW221948   2.276   3.832   9.140  0.9056 -0.7226 -1.4947
 3496SOL     OW21949   1.401   3.799   3.534 -0.0519 -0.6352  0.8345
 3496SOL    HW121950   1.449   3.860   3.479  0.3096 -1.4414  0.2506
 3496SOL    HW221951   1.383   3.845   3.615 -4.1494 -0.9340  0.0519
 3497SOL     OW21952   2.988   0.507   1.175 -0.3135 -0.4953 -0.5066
 3497SOL    HW121953   2.928   0.480   1.106  2.3488 -1.4361 -2.4672
 3497SOL    HW221954   3.072   0.524   1.131 -0.8541  0.2924 -1.2312
 3498SOL     OW21955   1.381   2.074   7.447 -0.2055  0.7541  0.0690
 3498SOL    HW121956   1.323   2.095   7.520  0.0424  1.7060 -0.0069
 3498SOL    HW221957   1.372   2.148   7.388  1.5532  2.6942  2.2421
 3499SOL     OW21958   1.262   1.886  14.598 -0.0613 -0.0862 -0.6419
 3499SOL    HW121959   1.268   1.795  14.569 -0.3912  0.1789 -1.5380
 3499SOL    HW221960   1.205   1.878  14.674 -0.0835  0.6822 -0.5794
 3500SOL     OW21961   3.854   0.178   9.083  0.6095  0.0288 -0.1468
 3500SOL    HW121962   3.879   0.086   9.093 -2.6985 -0.8509 -0.0977
 3500SOL    HW221963   3.838   0.213   9.171  1.8636 -1.4151  0.6575
 3501SOL     OW21964   2.889   0.905  15.758 -0.0292 -0.4544 -0.3665
 3501SOL    HW121965   2.897   0.811  15.771 -2.8418 -0.9239 -2.0688
 3501SOL    HW221966   2.849   0.926  15.843  0.6426  2.2228 -0.6990
 3502SOL     OW21967   1.969   2.752   9.269 -0.3056  0.4513  0.3186
 3502SOL    HW121968   2.034   2.761   9.339 -1.5572  0.7165  1.4355
 3502SOL    HW221969   2.024   2.731   9.193  0.6069  0.0817  1.0801
 3503SOL     OW21970   3.095   3.727   5.677  0.0318  0.3704  0.6255
 3503SOL    HW121971   3.155   3.653   5.672  0.4757  0.7491  0.2880
 3503SOL    HW221972   3.147   3.789   5.728 -0.8095 -1.0033  3.1548
 3504SOL     OW21973   2.525   0.411   8.889 -0.0943 -0.2132  0.0200
 3504SOL    HW121974   2.549   0.323   8.918  0.5588 -0.1762 -0.3983
 3504SOL    HW221975   2.599   0.456   8.930 -0.8814  0.4811  0.6958
 3505SOL     OW21976   0.660   4.107   8.819 -0.4746  0.6069  0.3058
 3505SOL    HW121977   0.586   4.144   8.770 -0.4003 -1.0386 -1.0588
 3505SOL    HW221978   0.637   4.133   8.908 -0.2717  3.4549 -0.4863
 3506SOL     OW21979   1.551   2.461   1.552  0.4142 -0.5520 -0.1591
 3506SOL    HW121980   1.628   2.484   1.499 -0.5884  0.2439 -1.2809
 3506SOL    HW221981   1.498   2.539   1.536 -0.5936 -0.7396  2.3453
 3507SOL     OW21982   2.268   2.440   5.551 -0.1178  0.1132  0.1861
 3507SOL    HW121983   2.257   2.529   5.584  0.7929 -0.5913  2.3792
 3507SOL    HW221984   2.202   2.385   5.594  0.9046 -1.7662 -0.6583
 3508SOL     OW21985   1.121   1.062   1.318 -0.1432  0.0272  0.0806
 3508SOL    HW121986   1.174   1.020   1.386  1.3183 -0.8785 -1.5876
 3508SOL    HW221987   1.081   1.137   1.363  0.0513 -0.5116  1.1554
 3509SOL     OW21988   1.374   0.016  16.618 -0.1817 -0.8992 -0.4407
 3509SOL    HW121989   1.392   0.110  16.613 -0.0205 -0.8712  0.6230
 3509SOL    HW221990   1.280   0.016  16.602 -0.5049  3.1902  1.4508
 3510SOL     OW21991   0.571   2.527   2.281 -0.1028 -0.5749  0.1521
 3510SOL    HW121992   0.577   2.461   2.350 -0.2823 -2.7629 -1.9286
 3510SOL    HW221993   0.568   2.467   2.207  1.5935 -0.4415 -0.0159
 3511SOL     OW21994   2.985   0.609   8.107 -0.1543 -0.2199 -0.1103
 3511SOL    HW121995   3.045   0.618   8.033 -1.7538  2.7488 -1.0622
 3511SOL    HW221996   2.933   0.533   8.079 -0.1076 -0.2023 -0.2426
 3512SOL     OW21997   0.619   1.352  12.329  0.6935  0.0250  0.7979
 3512SOL    HW121998   0.545   1.405  12.299  0.0364 -1.3397  0.0136
 3512SOL    HW221999   0.590   1.349  12.421  1.6046  0.5462  1.1029
 3513SOL     OW22000   1.442   4.395   3.379  0.2214 -0.3693 -0.5424
 3513SOL    HW122001   1.378   4.348   3.432  1.1268 -0.9488  0.0193
 3513SOL    HW222002   1.451   4.485   3.410  1.2405 -0.7278  0.1847
 3514SOL     OW22003   4.360   1.003   9.439  0.0763 -0.0125  0.6264
 3514SOL    HW122004   4.289   0.988   9.500 -0.4100 -0.6882 -0.1096
 3514SOL    HW222005   4.331   1.086   9.401 -1.4385  0.0798  2.0132
 3515SOL     OW22006   3.475   0.312  15.033  0.1005  0.1316 -0.6855
 3515SOL    HW122007   3.465   0.255  14.957  1.1821  0.0472 -0.7575
 3515SOL    HW222008   3.570   0.306  15.041 -0.2207 -2.2310  1.4089
 3516SOL     OW22009   4.283   1.516   8.315 -0.1603 -0.2272  0.6199
 3516SOL    HW122010   4.192   1.541   8.328  0.2759  1.4273  0.3869
 3516SOL    HW222011   4.320   1.540   8.400 -0.0308  2.1753 -0.1238
 3517SOL     OW22012   1.569   0.821   7.732 -0.2663  0.3170 -0.3480
 3517SOL    HW122013   1.545   0.749   7.790 -2.1501  1.7438  0.6463
 3517SOL    HW222014   1.624   0.861   7.800 -0.6899 -3.4787  2.2292
 3518SOL     OW22015   2.424   2.375   4.462  0.3696 -0.0213  0.2576
 3518SOL    HW122016   2.463   2.368   4.375  0.3693 -0.1895  0.2703
 3518SOL    HW222017   2.482   2.316   4.510  1.1058  0.6203  0.1339
 3519SOL     OW22018   0.221   1.469   5.126  0.2024  0.5400  0.7256
 3519SOL    HW122019   0.252   1.410   5.195  0.6980 -1.9867 -1.6426
 3519SOL    HW222020   0.134   1.496   5.156 -0.6576 -1.8503  0.3719
 3520SOL     OW22021   2.426   0.660   3.877  0.0621  0.0136 -0.1437
 3520SOL    HW122022   2.378   0.597   3.824 -0.5661 -1.5184  2.2281
 3520SOL    HW222023   2.385   0.646   3.962 -2.5544 -1.2370 -1.6370
 3521SOL     OW22024   1.482   3.338   3.047  0.2104 -0.2011  0.1877
 3521SOL    HW122025   1.428   3.259   3.054 -0.0450 -0.0453 -0.0093
 3521SOL    HW222026   1.445   3.382   2.971  1.3672 -0.0980 -0.3074
 3522SOL     OW22027   0.428   3.609  10.961  0.2508 -0.0561  0.8040
 3522SOL    HW122028   0.442   3.700  10.935  0.0553 -0.5119 -0.8929
 3522SOL    HW222029   0.386   3.566  10.887  1.8090 -1.4477  0.7257
 3523SOL     OW22030   1.651   1.465  11.453 -0.2088  0.1329 -0.1350
 3523SOL    HW122031   1.597   1.461  11.374 -0.6141 -0.9799  0.1979
 3523SOL    HW222032   1.634   1.378  11.490 -0.9029 -0.3445 -1.5909
 3524SOL     OW22033   1.916   3.159   4.141  0.2281 -0.6877 -0.0816
 3524SOL    HW122034   1.900   3.065   4.149 -0.8862 -0.4313  0.8269
 3524SOL    HW222035   1.914   3.167   4.046  4.3564  0.0861 -0.1111
 3525SOL     OW22036   2.935   4.045   7.886 -0.4862 -0.1716 -0.0877
 3525SOL    HW122037   2.971   4.095   7.959 -0.9084 -0.2913  0.2054
 3525SOL    HW222038   2.983   3.965   7.908 -0.5737 -0.3398 -0.5138
 3526SOL     OW22039   2.672   3.054  10.361 -0.3115 -0.2678 -0.5188
 3526SOL    HW122040   2.576   3.047  10.358 -0.4244  1.1120 -0.3026
 3526SOL    HW222041   2.702   2.966  10.382 -2.1273 -0.7182  0.2057
 3527SOL     OW22042   4.634   1.182   5.157 -0.4194  0.0810  0.1202
 3527SOL    HW122043   4.646   1.112   5.093 -1.5534 -0.4190  0.4527
 3527SOL    HW222044   4.661   1.132   5.234  1.0970  3.8415  2.0567
 3528SOL     OW22045   2.956   1.224   7.756  0.1003 -0.3601  0.1913
 3528SOL    HW122046   2.987   1.204   7.668 -2.2835 -1.7941 -0.3315
 3528SOL    HW222047   2.992   1.311   7.773 -0.0001  0.5036 -4.0349
 3529SOL     OW22048   1.257   3.453   3.243 -0.0819  0.3066  0.7747
 3529SOL    HW122049   1.307   3.429   3.165 -0.6937  0.6040  0.2803
 3529SOL    HW222050   1.177   3.485   3.200  1.1448  1.9708 -0.2810
 3530SOL     OW22051   2.099   1.929   5.813 -0.1351  0.3818 -0.1622
 3530SOL    HW122052   2.191   1.943   5.789  0.2025 -1.4508  0.0543
 3530SOL    HW222053   2.078   1.838   5.791 -2.3940  1.3230 -1.8726
 3531SOL     OW22054   0.328   0.561  12.208  0.8921 -0.1123 -0.0089
 3531SOL    HW122055   0.331   0.540  12.114 -3.5707  0.8092 -0.3538
 3531SOL    HW222056   0.330   0.656  12.196  0.8883 -0.0362  0.6377
 3532SOL     OW22057   4.074   4.113  15.534  0.1615  0.1331 -0.1682
 3532SOL    HW122058   4.094   4.206  15.523 -3.2142  0.9742  0.7955
 3532SOL    HW222059   4.116   4.087  15.616 -0.5252 -0.8868 -0.1363
 3533SOL     OW22060   0.549   1.754   4.089 -0.7390 -0.4733  0.4235
 3533SOL    HW122061   0.543   1.818   4.018  3.2952 -1.5032 -0.8673
 3533SOL    HW222062   0.634   1.715   4.071  1.7069  3.6828  3.0343
 3534SOL     OW22063   0.597   0.848   5.660 -0.4671 -0.7494 -0.4125
 3534SOL    HW122064   0.677   0.803   5.686  0.1033  2.7839  4.0388
 3534SOL    HW222065   0.618   0.888   5.576  1.5335 -1.1623 -0.1032
 3535SOL     OW22066   2.573   2.927   2.131  0.1025  0.2650  0.3052
 3535SOL    HW122067   2.585   2.841   2.172  2.1681 -0.3444 -1.5531
 3535SOL    HW222068   2.477   2.932   2.123  0.1425  1.1412  0.3843
 3536SOL     OW22069   1.589   2.325  10.465 -0.1632  0.9125  0.3289
 3536SOL    HW122070   1.495   2.310  10.462  0.0675 -0.3933 -0.4524
 3536SOL    HW222071   1.590   2.332  10.560  1.2383  0.3887  0.3664
 3537SOL     OW22072   2.918   3.219   2.676 -0.5867  0.0908 -0.1046
 3537SOL    HW122073   2.916   3.254   2.587 -1.7264 -1.0975 -0.5388
 3537SOL    HW222074   2.852   3.274   2.719  0.1294  0.1571  0.8958
 3538SOL     OW22075   0.154   2.439   6.960 -0.0760 -0.0859 -0.1472
 3538SOL    HW122076   0.068   2.397   6.954 -0.3314  0.1550  1.7791
 3538SOL    HW222077   0.125   2.530   6.961 -0.2088 -0.1376  0.4072
 3539SOL     OW22078   3.061   0.868   4.902 -0.4373  0.0802  0.3132
 3539SOL    HW122079   3.041   0.901   4.814 -1.1791 -2.2609 -0.3944
 3539SOL    HW222080   2.992   0.913   4.951  0.2105 -0.0535  1.3541
 3540SOL     OW22081   3.815   1.839  12.473  0.0112 -0.4186 -0.0886
 3540SOL    HW122082   3.821   1.748  12.443 -0.6152 -0.3326 -0.4679
 3540SOL    HW222083   3.721   1.858  12.480  0.2882  1.1912 -0.7984
 3541SOL     OW22084   0.871   3.367   2.380 -0.0812  0.2679 -0.2142
 3541SOL    HW122085   0.869   3.349   2.286 -0.6069 -0.7624 -0.0150
 3541SOL    HW222086   0.809   3.440   2.380 -0.4069 -0.0159 -1.4380
 3542SOL     OW22087   1.161   0.600   9.469 -0.1693 -0.6392  0.2903
 3542SOL    HW122088   1.076   0.626   9.433  0.5151 -0.4130 -1.1755
 3542SOL    HW222089   1.147   0.509   9.492  1.2123 -0.3830  2.1308
 3543SOL     OW22090   2.890   3.071   2.052  0.0069  0.2107 -0.0461
 3543SOL    HW122091   2.908   2.983   2.020 -1.8576 -0.7227  1.4509
 3543SOL    HW222092   2.983   3.092   2.048 -0.0367  0.5202  0.6001
 3544SOL     OW22093   1.876   0.864   7.016 -0.1832  0.0507 -0.2858
 3544SOL    HW122094   1.820   0.937   7.041  1.6924  0.7660  1.8198
 3544SOL    HW222095   1.819   0.791   7.040 -2.8951  1.8581 -1.2161
 3545SOL     OW22096   4.300   1.935  12.223  0.2397  0.3619 -0.1750
 3545SOL    HW122097   4.318   2.015  12.272 -1.2383  1.3613 -1.2622
 3545SOL    HW222098   4.204   1.931  12.221  0.3321 -2.1453  0.6844
 3546SOL     OW22099   3.724   3.683   0.565  0.2513 -0.5512 -0.6713
 3546SOL    HW122100   3.724   3.760   0.508  2.7681 -1.2856 -1.6419
 3546SOL    HW222101   3.818   3.666   0.569 -0.3683 -3.7213  0.6752
 3547SOL     OW22102   1.555   0.066   8.725 -0.1632  0.2225 -0.4393
 3547SOL    HW122103   1.598   0.129   8.783 -1.8277  0.5147  0.4753
 3547SOL    HW222104   1.562   0.106   8.638  2.4139 -0.1206 -0.3828
 3548SOL     OW22105   0.240   2.567   4.239 -0.1579  0.2226  0.5730
 3548SOL    HW122106   0.315   2.529   4.194 -0.4681 -0.5157  0.6819
 3548SOL    HW222107   0.201   2.486   4.271  3.0877 -1.2734  0.6930
 3549SOL     OW22108   0.449   0.971   2.957  0.4345  0.2742  0.3626
 3549SOL    HW122109   0.408   0.924   2.885  0.3795  0.2586  0.4035
 3549SOL    HW222110   0.381   0.967   3.025 -0.6737 -1.0663 -0.8091
 3550SOL     OW22111   0.275   1.304   9.088 -0.1397  0.0923  0.0310
 3550SOL    HW122112   0.327   1.372   9.132  0.2954 -0.5799  0.5519
 3550SOL    HW222113   0.197   1.284   9.139  1.4727 -2.0232  1.6535
 3551SOL     OW22114   3.014   1.921   4.300  0.6094  0.3474 -0.6689
 3551SOL    HW122115   3.002   1.872   4.382 -0.8348  0.7285 -0.6535
 3551SOL    HW222116   3.026   2.010   4.335  3.2315 -0.4613  0.5189
 3552SOL     OW22117   1.930   1.133  12.787 -0.4504 -0.4111 -0.2892
 3552SOL    HW122118   1.977   1.077  12.850  1.3660  0.4934 -0.8253
 3552SOL    HW222119   1.880   1.065  12.743  0.4250 -0.1187 -1.7212
 3553SOL     OW22120   3.266   0.626   4.240 -0.1516 -0.1174 -0.2588
 3553SOL    HW122121   3.262   0.709   4.288  1.3163 -0.6189  0.7105
 3553SOL    HW222122   3.231   0.646   4.152  3.7234  1.2235 -1.4764
 3554SOL     OW22123   3.452   0.769   4.714  0.0696 -0.0258 -0.3065
 3554SOL    HW122124   3.475   0.678   4.694  2.3126  0.8772 -1.8424
 3554SOL    HW222125   3.531   0.806   4.756 -0.2071  1.8283 -1.4228
 3555SOL     OW22126   4.275   0.642   9.071 -0.4161 -0.1565 -0.0439
 3555SOL    HW122127   4.201   0.589   9.103  0.3488 -0.9795  0.3446
 3555SOL    HW222128   4.281   0.712   9.137  1.4584  1.7448 -2.2396
 3556SOL     OW22129   3.130   2.389   6.906 -0.0699  0.0706 -0.2072
 3556SOL    HW122130   3.040   2.371   6.933  0.2085 -1.2130 -0.0934
 3556SOL    HW222131   3.132   2.478   6.872 -0.8517  0.4027  0.6211
 3557SOL     OW22132   0.823   1.860   3.657 -0.1038  0.1007  0.1494
 3557SOL    HW122133   0.822   1.933   3.595 -0.6978 -0.4023 -0.4384
 3557SOL    HW222134   0.839   1.787   3.597  0.8423  1.2811 -1.0653
 3558SOL     OW22135   4.335   0.895   0.349 -0.1067 -0.0187 -0.4313
 3558SOL    HW122136   4.403   0.879   0.415 -0.4673 -0.4178 -0.1486
 3558SOL    HW222137   4.286   0.813   0.355  0.6829 -0.5071 -0.6941
 3559SOL     OW22138   0.574   1.285   2.316 -0.7766  0.1833  0.3972
 3559SOL    HW122139   0.566   1.353   2.383 -0.3482 -0.6077  1.2486
 3559SOL    HW222140   0.511   1.323   2.255  0.0270 -1.2032 -1.3106
 3560SOL     OW22141   2.204   0.822   7.305 -0.0330 -0.2027  0.3736
 3560SOL    HW122142   2.167   0.822   7.393 -1.5865 -1.9404 -0.3025
 3560SOL    HW222143   2.170   0.742   7.265 -1.4265  1.6073 -2.0643
 3561SOL     OW22144   4.712   1.454   1.566  0.0633  0.1919 -0.2187
 3561SOL    HW122145   4.699   1.366   1.531 -0.6777 -0.1606  0.9318
 3561SOL    HW222146   0.083   1.449   1.594 -0.3080  0.8491  1.1294
 3562SOL     OW22147   3.349   0.621  13.582  0.2773  0.0553 -1.0066
 3562SOL    HW122148   3.277   0.594  13.637  2.1741  2.3964  2.6303
 3562SOL    HW222149   3.375   0.534  13.553  0.6583 -0.6232  1.4401
 3563SOL     OW22150   0.361   3.804   4.439 -0.6981 -0.3389 -0.1986
 3563SOL    HW122151   0.442   3.843   4.409 -0.6442  1.8343  2.7621
 3563SOL    HW222152   0.326   3.882   4.482  0.4047 -0.1582  0.3664
 3564SOL     OW22153   0.959   1.670   7.017 -0.3594  0.5985  0.2250
 3564SOL    HW122154   0.966   1.762   7.045 -0.5853  0.8891 -0.6570
 3564SOL    HW222155   0.922   1.646   7.101  0.3370  1.9773  0.9322
 3565SOL     OW22156   1.656   2.139   8.335  0.2077  0.5950  0.1050
 3565SOL    HW122157   1.732   2.151   8.392  0.4472 -1.8020  0.3002
 3565SOL    HW222158   1.584   2.113   8.393  0.3901  0.7118  0.3831
 3566SOL     OW22159   1.856   3.564   2.907  0.3007 -0.1291 -0.2179
 3566SOL    HW122160   1.907   3.545   2.828 -0.3017  1.0592 -0.8806
 3566SOL    HW222161   1.767   3.563   2.873  0.2665 -0.1160 -0.1299
 3567SOL     OW22162   1.265   3.196   5.477  0.3507  0.1692  0.4801
 3567SOL    HW122163   1.317   3.116   5.476 -0.6822 -0.4737 -0.5373
 3567SOL    HW222164   1.332   3.263   5.465 -0.4859  0.8507 -0.3641
 3568SOL     OW22165   2.600   0.803   8.400  0.8528  0.0095 -0.0720
 3568SOL    HW122166   2.598   0.740   8.472  1.5615  0.5421  0.4085
 3568SOL    HW222167   2.621   0.742   8.330 -0.1651  0.0488 -0.4041
 3569SOL     OW22168   2.686   4.457   3.470  0.5532  0.5114  0.1866
 3569SOL    HW122169   2.645   4.521   3.411 -1.1430 -0.4388  0.3275
 3569SOL    HW222170   2.626   4.455   3.544  1.7334 -1.0832  1.0807
 3570SOL     OW22171   2.372   2.135  12.539 -0.2951  0.3925 -0.1930
 3570SOL    HW122172   2.353   2.228  12.530 -1.6215  0.1630  0.3170
 3570SOL    HW222173   2.406   2.139  12.628  0.1632  0.5792 -0.3709
 3571SOL     OW22174   3.313   3.371   0.473  0.6333 -0.1441  0.0628
 3571SOL    HW122175   3.391   3.426   0.483  3.1825 -3.5913 -0.5212
 3571SOL    HW222176   3.351   3.284   0.460 -0.8383 -0.8333  0.3817
 3572SOL     OW22177   4.070   0.886   8.574 -0.7064 -0.0125  0.3395
 3572SOL    HW122178   4.061   0.926   8.488 -3.0051  1.7788  1.4171
 3572SOL    HW222179   4.060   0.792   8.559 -0.9308  0.0328  0.2228
 3573SOL     OW22180   2.677   0.196   4.166 -0.4447 -0.1986 -0.1007
 3573SOL    HW122181   2.729   0.273   4.191  0.2129 -0.1687 -1.5952
 3573SOL    HW222182   2.716   0.162   4.086 -0.6161  1.8565 -1.0675
 3574SOL     OW22183   2.649   1.423   7.691 -0.0659 -0.3691  0.3053
 3574SOL    HW122184   2.693   1.463   7.766  0.9282  1.5447 -1.2963
 3574SOL    HW222185   2.584   1.489   7.665 -0.1710  0.3385  2.3446
 3575SOL     OW22186   0.038   1.241  16.597  0.2008 -0.6501  0.5324
 3575SOL    HW122187   0.109   1.305  16.595 -0.8046  0.4247 -0.5237
 3575SOL    HW222188   0.052   1.210  16.686  2.8793 -0.3834  0.2113
 3576SOL     OW22189   0.782   1.822  13.056 -0.3951  0.8544 -0.1365
 3576SOL    HW122190   0.779   1.814  13.151 -2.5643 -0.4548 -0.2906
 3576SOL    HW222191   0.801   1.915  13.046  0.5736  0.4064 -2.5671
 3577SOL     OW22192   2.487   1.612   3.261  0.5390  0.2611  0.4221
 3577SOL    HW122193   2.461   1.662   3.338 -2.7013 -1.9836  0.7839
 3577SOL    HW222194   2.533   1.541   3.307  1.9487  0.3721 -0.8086
 3578SOL     OW22195   2.697   1.454   5.818 -0.2550  0.2728  0.0032
 3578SOL    HW122196   2.767   1.478   5.878  1.2842 -2.2031 -0.8367
 3578SOL    HW222197   2.685   1.365   5.851  1.7330 -0.3769 -1.0526
 3579SOL     OW22198   1.982   3.623  11.273 -0.0250  0.2820 -0.2431
 3579SOL    HW122199   1.919   3.678  11.319 -1.5229 -1.3680 -0.3212
 3579SOL    HW222200   1.961   3.657  11.187  1.2785  0.1729 -0.6081
 3580SOL     OW22201   1.089   4.502   2.003 -0.2935 -1.2057  0.1005
 3580SOL    HW122202   0.996   4.512   1.986 -0.6157  0.6829  2.9660
 3580SOL    HW222203   1.110   4.582   2.052 -1.6164  0.3558 -1.8526
 3581SOL     OW22204   2.390   3.617  11.039  1.0252  0.1177  0.2039
 3581SOL    HW122205   2.356   3.583  11.122  1.4404 -0.5781  0.0877
 3581SOL    HW222206   2.455   3.681  11.069  2.2577 -1.0564  0.0634
 3582SOL     OW22207   1.238   2.868  16.934  0.2873  0.2460  0.0127
 3582SOL    HW122208   1.226   2.789  16.987 -0.8994  0.3356 -0.1340
 3582SOL    HW222209   1.208   2.834  16.850 -5.2255  1.8073  1.3398
 3583SOL     OW22210   3.593   2.991   8.476  0.3358  0.1198 -0.2935
 3583SOL    HW122211   3.544   2.915   8.445 -0.2385  0.5444 -0.4255
 3583SOL    HW222212   3.670   2.944   8.510 -1.9450 -1.0101  3.3098
 3584SOL     OW22213   1.992   4.636  10.564 -0.8797 -0.1294  0.1131
 3584SOL    HW122214   2.024   4.713  10.611 -2.6914  2.0831 -2.2682
 3584SOL    HW222215   2.068   4.628  10.507 -1.3022 -1.5060 -0.2656
 3585SOL     OW22216   2.345   2.059   4.580 -0.0679  0.1921  0.0519
 3585SOL    HW122217   2.328   2.153   4.587 -0.6042  0.1893 -1.1461
 3585SOL    HW222218   2.411   2.048   4.648  0.8363 -1.3356 -1.0902
 3586SOL     OW22219   2.576   3.990   8.589 -0.0107  0.0107 -0.1750
 3586SOL    HW122220   2.547   3.935   8.661 -2.3666 -1.1073 -1.9654
 3586SOL    HW222221   2.609   3.922   8.529  0.7001 -0.3749  0.6486
 3587SOL     OW22222   2.333   1.446  13.968  0.5712  0.0515  0.2301
 3587SOL    HW122223   2.277   1.479  14.038  1.1490 -1.3061  1.3484
 3587SOL    HW222224   2.297   1.358  13.978 -1.3369  0.8454  0.3623
 3588SOL     OW22225   4.435   1.738  10.181  0.9813 -0.3128 -0.2253
 3588SOL    HW122226   4.516   1.736  10.131  0.7184  0.1340 -0.6654
 3588SOL    HW222227   4.408   1.647  10.191 -0.4716  0.3200  1.7482
 3589SOL     OW22228   4.291   4.510  17.633 -0.1346  0.0716 -0.5307
 3589SOL    HW122229   4.237   4.444  17.677  0.8485 -0.7614 -0.5623
 3589SOL    HW222230   4.315   4.544   0.033  2.8312  0.3444 -1.4592
 3590SOL     OW22231   0.570   0.167   2.638 -0.2383 -0.4888  0.5283
 3590SOL    HW122232   0.530   0.118   2.566  0.8579  0.6383 -0.8717
 3590SOL    HW222233   0.546   0.258   2.618  3.0984  0.6698  1.7447
 3591SOL     OW22234   1.888   3.580   4.675 -0.1076  0.4006  0.2534
 3591SOL    HW122235   1.841   3.625   4.605  1.6417  0.5122 -0.8545
 3591SOL    HW222236   1.969   3.563   4.627  0.0109  1.5398  0.0561
 3592SOL     OW22237   4.535   4.596   6.005  0.3129  0.2699  0.0570
 3592SOL    HW122238   4.571   4.673   6.049  1.1899 -1.5908  2.5610
 3592SOL    HW222239   4.501   4.553   6.084 -0.6743  0.3356 -0.3251
 3593SOL     OW22240   4.253   1.935   4.015  0.2173 -0.0157  0.1068
 3593SOL    HW122241   4.340   1.942   3.977  0.7332 -0.0737  1.2613
 3593SOL    HW222242   4.205   1.984   3.949 -2.0606  1.4247  2.8098
 3594SOL     OW22243   4.478   0.509   1.045  0.0859 -0.3493 -0.1924
 3594SOL    HW122244   4.487   0.437   1.107  1.2849  0.5848  0.7260
 3594SOL    HW222245   4.474   0.463   0.961  1.3766 -2.0667  0.6978
 3595SOL     OW22246   3.348   2.605   7.196 -0.1425 -0.0969 -0.2426
 3595SOL    HW122247   3.281   2.543   7.224  0.6827 -0.3633  1.1018
 3595SOL    HW222248   3.420   2.553   7.230 -0.4748 -0.0665  0.5022
 3596SOL     OW22249   4.241   0.226   2.646  0.0874  0.1057 -0.0880
 3596SOL    HW122250   4.304   0.211   2.717 -1.9994 -3.0874  1.1035
 3596SOL    HW222251   4.262   0.155   2.586  1.1213 -0.5047  1.0067
 3597SOL     OW22252   2.001   3.446   8.773  0.0707  0.5889  0.2980
 3597SOL    HW122253   2.017   3.352   8.770 -0.5813  0.4140  2.2158
 3597SOL    HW222254   2.032   3.472   8.859  1.7486  1.3631 -0.5417
 3598SOL     OW22255   0.156   1.506  12.424 -0.4209  0.4431  0.1769
 3598SOL    HW122256   0.186   1.541  12.508 -0.7977 -1.0944  0.9618
 3598SOL    HW222257   0.060   1.508  12.425 -0.4499 -1.0781  1.2199
 3599SOL     OW22258   4.521   3.091   7.684 -0.4464  0.4532  0.9991
 3599SOL    HW122259   4.480   3.087   7.597  0.8368  1.7462  0.3487
 3599SOL    HW222260   4.471   3.018   7.721 -1.0586 -0.2937 -1.2610
 3600SOL     OW22261   3.141   1.024  11.565  0.2585  0.1010 -0.0648
 3600SOL    HW122262   3.162   1.110  11.601  0.1573  0.4448 -0.8256
 3600SOL    HW222263   3.111   0.970  11.638  1.4227  1.0355  1.0913
 3601SOL     OW22264   2.792   1.101   3.287  0.2573  0.7661 -0.2743
 3601SOL    HW122265   2.732   1.105   3.361  1.3853 -1.3356  0.7681
 3601SOL    HW222266   2.783   1.006   3.274 -0.0342  0.8820 -0.9239
 3602SOL     OW22267   2.175   1.300  12.815  0.4109 -0.0225 -0.2065
 3602SOL    HW122268   2.142   1.387  12.838 -0.1034 -0.8179  2.1143
 3602SOL    HW222269   2.107   1.261  12.760  1.7670 -1.6937 -0.6758
 3603SOL     OW22270   4.412   2.776  15.292  0.4064 -0.4185 -0.1751
 3603SOL    HW122271   4.488   2.740  15.339  0.3348 -0.6791 -0.2587
 3603SOL    HW222272   4.348   2.777  15.363  0.2490 -3.0613 -0.2578
 3604SOL     OW22273   4.015   2.181  12.522  0.2852 -0.3206  0.3179
 3604SOL    HW122274   3.991   2.129  12.445 -2.3566  1.6742 -0.2089
 3604SOL    HW222275   4.088   2.233  12.488  0.8208 -1.5463 -0.3787
 3605SOL     OW22276   0.848   2.319   8.295 -0.7720 -0.7821  0.4282
 3605SOL    HW122277   0.885   2.342   8.210 -0.4848 -2.0606  0.1999
 3605SOL    HW222278   0.813   2.402   8.328  0.7646  0.8312 -1.9964
 3606SOL     OW22279   3.005   3.457   4.316 -0.1676  0.6464  0.2420
 3606SOL    HW122280   3.005   3.477   4.410 -1.6260  0.1808  0.3375
 3606SOL    HW222281   2.959   3.373   4.315 -0.2333  0.6686  1.0792
 3607SOL     OW22282   2.733   1.667   5.323 -0.5597 -0.7212  0.2907
 3607SOL    HW122283   2.720   1.608   5.248 -0.0737  1.0670 -1.2018
 3607SOL    HW222284   2.715   1.613   5.400  3.1084 -1.1564  0.8477
 3608SOL     OW22285   2.424   4.028   7.716  0.5784  0.3527 -0.4787
 3608SOL    HW122286   2.386   4.100   7.767  2.0196  1.1876 -0.5913
 3608SOL    HW222287   2.516   4.041   7.737  0.0697  2.0864  0.6757
 3609SOL     OW22288   0.195   0.960   0.591 -0.4656  0.0744  0.4697
 3609SOL    HW122289   0.140   0.882   0.587  0.2409 -0.4191  0.4100
 3609SOL    HW222290   0.280   0.917   0.592 -1.6658 -2.2972  0.9586
 3610SOL     OW22291   3.515   2.168  13.214 -0.7091 -0.3491 -0.7675
 3610SOL    HW122292   3.464   2.112  13.273 -2.4784  2.0272 -0.0296
 3610SOL    HW222293   3.578   2.099  13.192 -1.2290 -1.3704  0.8895
 3611SOL     OW22294   1.667   0.236  15.932  0.7645  0.1036  0.2167
 3611SOL    HW122295   1.607   0.273  15.867  3.6047  1.5468 -1.5897
 3611SOL    HW222296   1.652   0.145  15.909 -0.1379  0.3695 -0.2374
 3612SOL     OW22297   0.814   4.364   2.552 -0.9921  0.1935 -0.0186
 3612SOL    HW122298   0.771   4.382   2.636  1.1238 -0.2004  1.1391
 3612SOL    HW222299   0.803   4.449   2.510  2.9318  1.4537  1.5454
 3613SOL     OW22300   4.316   4.673   2.905 -0.1714  0.1008 -0.2082
 3613SOL    HW122301   4.298   4.625   2.824 -0.0817  0.8231 -0.6634
 3613SOL    HW222302   4.353   0.034   2.869 -1.3985 -0.1426 -2.0392
 3614SOL     OW22303   3.869   3.535   3.267 -0.1712 -0.1361 -0.1941
 3614SOL    HW122304   3.838   3.519   3.356 -0.1305  1.0966  0.0352
 3614SOL    HW222305   3.821   3.609   3.231 -0.5882 -0.7342 -0.8829
 3615SOL     OW22306   3.643   4.686  10.826  0.8646 -0.2461 -0.0695
 3615SOL    HW122307   3.563   4.706  10.875  1.5770  2.1661  0.1356
 3615SOL    HW222308   3.613   0.000  10.742 -1.8085 -0.7812  0.6682
 3616SOL     OW22309   4.148   3.170   3.596 -0.1457  0.4504  0.2362
 3616SOL    HW122310   4.153   3.153   3.502  0.3187  0.8569  0.1898
 3616SOL    HW222311   4.224   3.119   3.624  0.3710  0.9850 -0.1918
 3617SOL     OW22312   2.227   1.047   6.218 -0.4062 -0.3174  0.2581
 3617SOL    HW122313   2.244   1.140   6.232 -2.8810  0.0168  0.9937
 3617SOL    HW222314   2.136   1.051   6.190 -0.1874 -1.4154 -0.6110
 3618SOL     OW22315   0.301   2.820  11.439 -0.4752 -0.1868  0.1445
 3618SOL    HW122316   0.351   2.862  11.509 -1.3603 -1.0045  1.2524
 3618SOL    HW222317   0.211   2.828  11.471 -1.0627  2.4445 -2.1683
 3619SOL     OW22318   3.188   1.613   5.580  0.2139  0.1439  0.0913
 3619SOL    HW122319   3.181   1.523   5.550  1.6445 -0.6216  2.0715
 3619SOL    HW222320   3.096   1.637   5.571  0.0942 -0.8609 -1.3113
 3620SOL     OW22321   3.686   3.513   8.940 -0.0519 -0.1697  0.2706
 3620SOL    HW122322   3.717   3.483   9.025  0.8040 -0.3249 -0.1020
 3620SOL    HW222323   3.610   3.454   8.934 -0.3673  0.1008  1.6177
 3621SOL     OW22324   2.859   3.695  12.410  0.0737  0.0880  0.3260
 3621SOL    HW122325   2.839   3.681  12.503  1.7224 -2.8962  0.2493
 3621SOL    HW222326   2.839   3.788  12.411 -1.3297 -0.1965 -1.6870
 3622SOL     OW22327   2.862   4.222   1.175 -0.3782  0.3524  0.0998
 3622SOL    HW122328   2.926   4.294   1.181  2.4499 -2.2577  1.3925
 3622SOL    HW222329   2.878   4.191   1.264 -0.3267  1.3098  0.4272
 3623SOL     OW22330   3.335   3.941   9.285 -0.0756 -0.4714 -0.3574
 3623SOL    HW122331   3.337   3.865   9.227  0.7780 -0.5497 -0.2347
 3623SOL    HW222332   3.284   4.004   9.235  1.4140  1.1672  0.1585
 3624SOL     OW22333   2.702   2.932  12.118  0.2511  0.3801  0.2937
 3624SOL    HW122334   2.647   2.860  12.149 -0.0996  1.3724  1.9507
 3624SOL    HW222335   2.661   2.948  12.032  1.7494  0.0040 -0.4855
 3625SOL     OW22336   2.782   2.676   3.752 -0.1377 -0.0852 -0.0134
 3625SOL    HW122337   2.794   2.749   3.812  1.9555 -0.3068 -0.1717
 3625SOL    HW222338   2.733   2.622   3.814  0.8734 -0.4181  0.5093
 3626SOL     OW22339   1.123   1.306   4.304 -0.2275 -0.1017 -0.4601
 3626SOL    HW122340   1.208   1.276   4.272 -0.7679 -0.8119 -1.2559
 3626SOL    HW222341   1.126   1.268   4.391  0.5406 -2.5794 -1.5576
 3627SOL     OW22342   3.042   1.203   3.271 -0.2759 -0.2929 -0.4309
 3627SOL    HW122343   2.949   1.187   3.286 -0.0196 -0.6612  0.7628
 3627SOL    HW222344   3.055   1.298   3.276  0.7573 -0.4765  0.2800
 3628SOL     OW22345   4.694   1.319   6.395 -0.2309 -0.0188  0.0620
 3628SOL    HW122346   4.713   1.352   6.308 -0.8957  0.3546  0.0620
 3628SOL    HW222347   0.062   1.320   6.433  0.2842 -0.0628 -1.1575
 3629SOL     OW22348   2.983   3.230   4.514  0.0933  0.3203  0.1552
 3629SOL    HW122349   3.003   3.190   4.598  0.9377  0.4922  0.0330
 3629SOL    HW222350   2.901   3.185   4.492  1.3506 -0.4973 -2.9477
 3630SOL     OW22351   1.733   0.998   4.179  0.2467  0.1309  0.4969
 3630SOL    HW122352   1.714   1.084   4.218  0.5998 -0.1105  1.2058
 3630SOL    HW222353   1.691   0.933   4.235 -2.3513  3.0613  1.9131
 3631SOL     OW22354   4.635   0.771   9.987  0.5587 -0.6126 -0.1355
 3631SOL    HW122355   4.540   0.783   9.983  0.3634 -2.2509 -0.0806
 3631SOL    HW222356   4.668   0.819  10.063 -0.3573 -1.6900  0.9285
 3632SOL     OW22357   0.549   3.975   7.118  0.2161 -0.3817 -0.2399
 3632SOL    HW122358   0.550   4.022   7.202 -0.0292  2.3329 -1.7698
 3632SOL    HW222359   0.455   3.972   7.103  0.2004 -0.2461 -0.1679
 3633SOL     OW22360   3.657   2.088   4.947  0.2335  0.0084 -0.0750
 3633SOL    HW122361   3.666   2.038   5.028  1.2475  0.1425 -0.0958
 3633SOL    HW222362   3.585   2.035   4.916  0.0949 -0.7581  1.5799
 3634SOL     OW22363   1.020   0.152   4.449  0.0411 -0.4642  0.5801
 3634SOL    HW122364   1.032   0.226   4.508  0.0392  1.2766 -1.6111
 3634SOL    HW222365   0.937   0.118   4.483  0.3730 -1.2271  0.6325
 3635SOL     OW22366   0.237   4.693   4.792  0.0058  0.1920 -0.3973
 3635SOL    HW122367   0.270   4.642   4.866  0.1368  0.3490 -0.3465
 3635SOL    HW222368   0.160   0.007   4.836 -0.2681  1.5995 -1.9999
 3636SOL     OW22369   1.136   3.556   6.040 -0.3653  0.1429 -0.2387
 3636SOL    HW122370   1.188   3.511   5.974 -0.5268  2.5457 -2.0172
 3636SOL    HW222371   1.155   3.647   6.017 -0.5688 -0.4166 -2.5868
 3637SOL     OW22372   1.517   0.636  12.267  0.3181 -0.2970  0.1371
 3637SOL    HW122373   1.540   0.615  12.176 -0.7866 -4.5518  0.8137
 3637SOL    HW222374   1.467   0.718  12.259  0.5480 -0.0006  1.7330
 3638SOL     OW22375   1.347   4.288   4.236 -0.4056 -0.2062 -0.2515
 3638SOL    HW122376   1.299   4.223   4.185  1.4780 -0.6647 -1.4346
 3638SOL    HW222377   1.433   4.246   4.241  0.7205  2.0569 -0.6036
 3639SOL     OW22378   0.721   1.092   2.437  0.2707 -0.2815 -0.5580
 3639SOL    HW122379   0.688   1.170   2.391 -0.8962 -0.6999 -0.4304
 3639SOL    HW222380   0.781   1.066   2.368 -0.0858  0.5682 -1.1896
 3640SOL     OW22381   3.314   1.888   5.573 -0.2499  0.2584  0.0878
 3640SOL    HW122382   3.285   1.803   5.541  3.6675 -1.4721  1.1950
 3640SOL    HW222383   3.337   1.859   5.661  1.4413 -1.4025 -0.9081
 3641SOL     OW22384   1.896   0.113   5.781 -0.3346 -0.6837  0.5789
 3641SOL    HW122385   1.929   0.196   5.745  1.3556 -1.6695 -0.1386
 3641SOL    HW222386   1.896   0.064   5.699  0.1067 -0.6645  0.5701
 3642SOL     OW22387   2.911   0.190  11.535  0.2352  0.2223  0.1446
 3642SOL    HW122388   2.816   0.198  11.527  0.2879  0.5739 -0.1500
 3642SOL    HW222389   2.943   0.182  11.445 -0.4449 -0.2382 -0.0578
 3643SOL     OW22390   2.009   3.833   5.198 -0.1759  0.3420  0.1792
 3643SOL    HW122391   2.061   3.881   5.133  0.0817  0.4689  0.4758
 3643SOL    HW222392   2.062   3.852   5.276 -2.8480 -2.2558  2.6146
 3644SOL     OW22393   3.143   3.417   6.525  0.0307  0.4669 -0.2625
 3644SOL    HW122394   3.177   3.345   6.579 -1.2054  1.9241  2.4572
 3644SOL    HW222395   3.200   3.406   6.450  0.1961  2.4078 -0.4206
 3645SOL     OW22396   3.936   2.569   2.261  0.2726 -0.0097  0.5095
 3645SOL    HW122397   3.849   2.550   2.226  0.6191 -0.3008 -0.1929
 3645SOL    HW222398   3.911   2.573   2.354  0.3065 -0.2232  0.5297
 3646SOL     OW22399   2.482   1.075   3.272 -0.1094  0.2123 -0.1551
 3646SOL    HW122400   2.415   1.016   3.238  0.5445 -1.3411  1.2105
 3646SOL    HW222401   2.466   1.063   3.366 -0.5449  2.3007  0.0289
 3647SOL     OW22402   3.153   4.174   8.639 -0.3941  0.2066 -0.7411
 3647SOL    HW122403   3.105   4.223   8.572 -2.5604  2.2926  2.3680
 3647SOL    HW222404   3.172   4.237   8.708 -1.0870  0.1466 -0.4989
 3648SOL     OW22405   3.440   0.102  15.334  0.1657 -0.3607  0.5010
 3648SOL    HW122406   3.516   0.130  15.283 -0.6308  0.4099 -0.2775
 3648SOL    HW222407   3.411   0.039  15.268 -2.2910  1.6341 -0.3392
 3649SOL     OW22408   3.299   4.624   2.898 -0.2587  0.0931  0.0261
 3649SOL    HW122409   3.233   4.638   2.830 -1.7079  3.3775  2.1027
 3649SOL    HW222410   3.353   4.559   2.854  0.0435  1.2466 -1.2840
 3650SOL     OW22411   0.564   2.610   6.017 -0.0589 -0.3630  0.0776
 3650SOL    HW122412   0.658   2.617   6.037 -0.4941  1.3626  1.4202
 3650SOL    HW222413   0.512   2.684   6.047 -0.1034 -0.8533  1.1811
 3651SOL     OW22414   2.713   2.941   9.521  0.0540  0.7437  0.2515
 3651SOL    HW122415   2.691   2.871   9.460  0.0817  0.8130  0.1617
 3651SOL    HW222416   2.785   2.893   9.562 -1.8401  0.7902  3.6129
 3652SOL     OW22417   1.851   4.701   3.992  0.0562 -0.2480 -0.3102
 3652SOL    HW122418   1.912   4.628   3.999 -0.3886 -0.4770  1.2450
 3652SOL    HW222419   1.777   4.670   3.940 -0.8265 -0.5125  1.1211
 3653SOL     OW22420   3.811   1.342   7.453  0.0750  0.3559  0.1657
 3653SOL    HW122421   3.895   1.317   7.493  0.1396  3.3488  1.9268
 3653SOL    HW222422   3.838   1.342   7.362  0.7842  0.1914  0.3756
 3654SOL     OW22423   2.065   3.876   3.249  0.0554 -0.1369 -0.1872
 3654SOL    HW122424   2.095   3.863   3.339 -0.1120 -0.7058 -0.2112
 3654SOL    HW222425   2.145   3.917   3.217  0.7238 -1.2082  0.1019
 3655SOL     OW22426   1.852   0.326   9.573  0.7152 -0.1705 -0.2568
 3655SOL    HW122427   1.873   0.258   9.638  0.1338 -1.9058 -1.8753
 3655SOL    HW222428   1.758   0.308   9.562  1.3917 -3.9796  0.1878
 3656SOL     OW22429   1.015   3.486   3.126 -0.2706  0.5471  0.2111
 3656SOL    HW122430   1.028   3.516   3.036  1.1027 -2.1177 -0.4763
 3656SOL    HW222431   0.936   3.537   3.145 -0.6009  0.4628 -0.9448
 3657SOL     OW22432   0.854   4.173   8.458  0.6508  0.1519  0.3432
 3657SOL    HW122433   0.885   4.083   8.459 -0.0646 -0.1206 -0.8691
 3657SOL    HW222434   0.838   4.180   8.552  1.5315 -1.3150  0.6008
 3658SOL     OW22435   1.164   0.769   4.615 -0.8589 -0.2572  0.4690
 3658SOL    HW122436   1.179   0.826   4.691  1.0355 -0.7955  0.5088
 3658SOL    HW222437   1.159   0.689   4.667  2.1714  0.7653  2.4041
 3659SOL     OW22438   4.280   0.565   4.133 -0.8742  0.1461  0.3221
 3659SOL    HW122439   4.327   0.618   4.069 -0.8548 -0.4004 -0.1190
 3659SOL    HW222440   4.353   0.514   4.168 -1.4703 -0.7318  0.3015
 3660SOL     OW22441   3.810   4.413   6.391 -0.1018  0.4090  0.5821
 3660SOL    HW122442   3.745   4.376   6.331  0.1401 -1.1931  1.3371
 3660SOL    HW222443   3.833   4.494   6.344  1.6601 -0.7905 -0.6154
 3661SOL     OW22444   3.948   1.930   2.311  0.4379 -0.0282 -0.1952
 3661SOL    HW122445   3.892   1.863   2.350  1.5683 -0.6205  0.3905
 3661SOL    HW222446   4.008   1.876   2.260  1.7849  0.0487  1.3164
 3662SOL     OW22447   4.678   1.010   9.378  0.3657 -0.0040 -0.0212
 3662SOL    HW122448   4.704   1.088   9.328 -0.7221 -0.6623 -1.6051
 3662SOL    HW222449   4.665   0.941   9.314  0.8703 -0.0637 -0.0583
 3663SOL     OW22450   2.392   0.097  10.966 -0.2124  0.2663  0.8998
 3663SOL    HW122451   2.407   0.125  10.876  0.8918  0.8662  1.2681
 3663SOL    HW222452   2.403   0.176  11.018  3.1481 -0.7522  1.7579
 3664SOL     OW22453   0.957   3.734   2.889  0.5853  0.0979  0.0809
 3664SOL    HW122454   0.962   3.813   2.835  2.0739 -0.9347 -1.2966
 3664SOL    HW222455   1.048   3.724   2.915  1.3534  1.0322 -2.2505
 3665SOL     OW22456   2.198   0.252   6.557 -0.3127  0.3028 -0.4332
 3665SOL    HW122457   2.175   0.175   6.506 -0.9060 -0.0626  0.3790
 3665SOL    HW222458   2.280   0.275   6.514  0.3079 -1.3604 -0.1612
 3666SOL     OW22459   4.715   2.164   4.747 -0.1670  0.1225 -0.2856
 3666SOL    HW122460   4.624   2.193   4.742  0.0303  0.7217 -0.3372
 3666SOL    HW222461   0.014   2.146   4.655  0.4405 -1.4752  0.1582
 3667SOL     OW22462   3.040   2.973   8.364  0.3493  0.1803  0.5831
 3667SOL    HW122463   3.097   3.049   8.381 -0.1971  0.3719  1.5299
 3667SOL    HW222464   3.089   2.904   8.408 -2.0017 -0.9768  1.3657
 3668SOL     OW22465   2.339   3.603   2.427  0.6483  0.1395  0.1875
 3668SOL    HW122466   2.417   3.592   2.372 -0.4965 -0.9735 -1.2156
 3668SOL    HW222467   2.261   3.619   2.374  0.3475  2.0173  1.2173
 3669SOL     OW22468   3.021   2.347   5.369 -0.1684 -0.3433  0.2210
 3669SOL    HW122469   3.086   2.388   5.311  0.3840  1.1186  1.8770
 3669SOL    HW222470   3.040   2.254   5.357  0.9481 -0.0102 -0.6169
 3670SOL     OW22471   1.525   1.058   2.272  0.1731  0.3827 -0.2815
 3670SOL    HW122472   1.430   1.049   2.266  0.2159  0.8639 -1.8163
 3670SOL    HW222473   1.552   0.983   2.325 -1.5817  0.6509  0.9961
 3671SOL     OW22474   4.325   0.027  17.400 -0.0617  0.1565 -0.2725
 3671SOL    HW122475   4.237   4.715  17.415 -0.0300  0.0092 -0.4093
 3671SOL    HW222476   4.363   4.668  17.362  1.4981 -0.2269  2.1304
 3672SOL     OW22477   2.266   2.523   6.111 -0.1280  0.0557  0.1403
 3672SOL    HW122478   2.225   2.566   6.186  2.1173  2.3567  0.0435
 3672SOL    HW222479   2.202   2.546   6.045  0.1646  1.3830  0.3303
 3673SOL     OW22480   0.192   0.574   1.406  0.1451  0.4895 -0.4171
 3673SOL    HW122481   0.265   0.518   1.379  0.2144 -0.1252  1.0071
 3673SOL    HW222482   0.194   0.570   1.502 -1.7576  0.1712 -0.3869
 3674SOL     OW22483   0.936   2.866   4.009 -0.2160 -0.2626  0.1502
 3674SOL    HW122484   0.896   2.850   3.923 -1.0042 -2.4281  0.9084
 3674SOL    HW222485   0.957   2.773   4.022  1.3441  0.2473  1.2936
 3675SOL     OW22486   3.316   2.889   6.057  0.4214 -0.0050 -0.1627
 3675SOL    HW122487   3.264   2.919   5.982 -2.4409  0.0788  1.8464
 3675SOL    HW222488   3.296   2.960   6.118 -1.0067  0.7248 -1.4606
 3676SOL     OW22489   3.415   2.351   0.878 -0.0426 -0.4493  0.2276
 3676SOL    HW122490   3.319   2.353   0.881 -0.1267 -1.3556 -2.4938
 3676SOL    HW222491   3.437   2.373   0.969  2.1792 -0.5665 -0.2776
 3677SOL     OW22492   2.014   1.988  16.579 -0.2102 -0.2187  0.6544
 3677SOL    HW122493   2.015   1.892  16.579 -1.1982 -0.2321 -0.5427
 3677SOL    HW222494   2.090   2.003  16.635  1.6236 -1.0347 -1.6423
 3678SOL     OW22495   1.568   0.316  14.680 -0.4277  0.1860 -0.1524
 3678SOL    HW122496   1.620   0.379  14.630 -3.0213  0.5489 -2.3649
 3678SOL    HW222497   1.580   0.357  14.766 -1.7990 -0.3869  0.2983
 3679SOL     OW22498   3.500   2.056  12.567  0.2069  0.2757  0.7658
 3679SOL    HW122499   3.491   2.122  12.499 -0.9617  0.4457  1.0772
 3679SOL    HW222500   3.523   2.108  12.644 -0.6315  2.9789 -0.8405
 3680SOL     OW22501   0.331   4.704   1.966 -0.2168 -0.1204 -0.8292
 3680SOL    HW122502   0.361   0.073   1.955 -1.8498  0.3867 -0.9985
 3680SOL    HW222503   0.392   4.673   1.898  0.3408 -0.1841 -0.3044
 3681SOL     OW22504   2.772   2.116   5.340  0.9881  0.2618 -0.2441
 3681SOL    HW122505   2.782   2.092   5.432 -0.6223 -0.1041 -0.1566
 3681SOL    HW222506   2.830   2.049   5.304 -0.8943 -1.6947  0.2989
 3682SOL     OW22507   4.463   2.772   4.336 -0.3572 -0.5297  0.5458
 3682SOL    HW122508   4.465   2.689   4.384 -1.1073 -0.3034  0.9713
 3682SOL    HW222509   4.557   2.789   4.340 -0.3506 -0.3303 -0.5629
 3683SOL     OW22510   2.950   3.470   5.683  0.3938 -0.2495  0.2780
 3683SOL    HW122511   2.882   3.488   5.618  1.7166 -1.2979 -1.4014
 3683SOL    HW222512   2.952   3.559   5.719 -1.2710  0.0049 -0.2474
 3684SOL     OW22513   1.701   1.725   3.432  0.1443  0.2233  0.7601
 3684SOL    HW122514   1.612   1.749   3.404  1.2196  0.4413 -2.5393
 3684SOL    HW222515   1.743   1.698   3.350  0.4279  0.6601  0.7656
 3685SOL     OW22516   2.228   1.808   2.196  0.6088 -0.2157 -0.2103
 3685SOL    HW122517   2.259   1.736   2.251 -0.2453  0.8367  1.6306
 3685SOL    HW222518   2.188   1.862   2.263  1.3558  1.0213 -0.7499
 3686SOL     OW22519   1.898   3.072  14.280  0.5333  0.3263  0.1725
 3686SOL    HW122520   1.860   3.027  14.205 -0.8742  0.3705  0.8665
 3686SOL    HW222521   1.822   3.108  14.326 -0.9129 -2.7131  0.1672
 3687SOL     OW22522   4.294   1.972   0.194  0.3980 -0.0726 -0.5704
 3687SOL    HW122523   4.228   1.910   0.225  2.2480 -1.6186  0.2431
 3687SOL    HW222524   4.370   1.956   0.250  0.0004  2.0171  0.5597
 3688SOL     OW22525   2.917   1.782   4.779  0.1129 -0.0452 -0.2681
 3688SOL    HW122526   2.852   1.712   4.783  0.6111 -0.4148  1.4787
 3688SOL    HW222527   2.959   1.777   4.865  0.1324 -0.2158 -0.2881
 3689SOL     OW22528   1.316   4.292  14.036  0.1878 -0.0119  0.3418
 3689SOL    HW122529   1.376   4.340  14.093 -0.8041 -0.0170  1.3865
 3689SOL    HW222530   1.275   4.365  13.991  0.3416 -0.3022 -0.2721
 3690SOL     OW22531   2.600   0.394   8.024  0.0232  0.4444 -0.4358
 3690SOL    HW122532   2.531   0.330   8.045 -2.0254  2.7837 -0.1170
 3690SOL    HW222533   2.561   0.449   7.957  1.9014  0.3941 -1.5754
 3691SOL     OW22534   0.248   1.417   7.197 -0.1079  0.3189  0.3688
 3691SOL    HW122535   0.252   1.338   7.251  1.9478 -0.7916 -1.4299
 3691SOL    HW222536   0.273   1.477   7.268  0.2767  0.1865  0.3392
 3692SOL     OW22537   2.592   3.645   4.691  0.0459 -0.2734  0.4984
 3692SOL    HW122538   2.622   3.564   4.649 -2.3968  0.6271 -2.9321
 3692SOL    HW222539   2.601   3.708   4.620 -0.0812  0.4790  1.1585
 3693SOL     OW22540   2.783   4.442   4.515  0.1350 -0.0948  0.2031
 3693SOL    HW122541   2.827   4.361   4.540  0.6825  0.7632  2.0313
 3693SOL    HW222542   2.721   4.430   4.443 -1.1187 -0.5070  1.3404
 3694SOL     OW22543   2.328   4.439   4.893 -0.0372 -0.1075 -0.1041
 3694SOL    HW122544   2.300   4.396   4.974  1.0985 -1.0024 -0.1876
 3694SOL    HW222545   2.366   4.368   4.842 -1.4811 -1.5683  0.8563
 3695SOL     OW22546   3.535   4.328   7.678  0.2359 -0.2710  0.2616
 3695SOL    HW122547   3.604   4.278   7.634 -0.6370  0.1927 -1.5970
 3695SOL    HW222548   3.457   4.290   7.640 -0.2661 -2.8697  3.8691
 3696SOL     OW22549   3.612   2.115   1.833 -0.2230 -0.2834  0.2120
 3696SOL    HW122550   3.658   2.101   1.750 -1.8906  1.6105 -1.0246
 3696SOL    HW222551   3.679   2.107   1.902  0.3423 -5.1854 -0.9262
 3697SOL     OW22552   0.542   3.283  11.924 -0.1732  0.7103 -0.0114
 3697SOL    HW122553   0.469   3.224  11.943  1.1047 -1.3063 -1.4864
 3697SOL    HW222554   0.505   3.366  11.954 -0.9704  0.2141  0.3864
 3698SOL     OW22555   3.580   4.285   6.997 -0.2466 -0.4294  0.4563
 3698SOL    HW122556   3.595   4.198   6.960 -1.9082 -1.2510  1.6704
 3698SOL    HW222557   3.500   4.261   7.044 -0.0990  0.5803  1.2246
 3699SOL     OW22558   2.217   1.808   4.859 -0.4806  0.0302 -0.7447
 3699SOL    HW122559   2.238   1.794   4.952 -0.2511  0.7188 -0.6895
 3699SOL    HW222560   2.239   1.901   4.856 -0.8941  0.1636  0.2074
 3700SOL     OW22561   1.942   1.395  14.310 -0.4722 -0.8894  0.6683
 3700SOL    HW122562   1.976   1.387  14.220 -0.2309 -1.0071  0.7682
 3700SOL    HW222563   1.913   1.486  14.316 -1.5587 -1.1492 -0.6207
 3701SOL     OW22564   0.435   3.861   1.622 -0.7273  0.6191 -0.2541
 3701SOL    HW122565   0.526   3.891   1.631 -0.0562 -2.2005  2.3659
 3701SOL    HW222566   0.434   3.878   1.528  0.1466  4.4636  0.4097
 3702SOL     OW22567   0.977   3.945   4.970 -0.3494  0.5878  0.6595
 3702SOL    HW122568   1.008   3.940   5.061  3.4928 -0.8084 -0.6854
 3702SOL    HW222569   1.054   3.949   4.913 -2.0992 -1.7966 -1.8612
 3703SOL     OW22570   2.647   3.190   1.899 -0.3592 -0.4601  0.1314
 3703SOL    HW122571   2.722   3.177   1.958 -0.2262 -2.2556 -0.4106
 3703SOL    HW222572   2.610   3.102   1.891 -1.6770  0.1093  0.0379
 3704SOL     OW22573   1.604   1.731  12.454 -0.0717  0.2545  0.4601
 3704SOL    HW122574   1.622   1.801  12.392 -1.8434 -0.5067 -0.9238
 3704SOL    HW222575   1.600   1.656  12.395 -1.6793  1.1374 -0.5526
 3705SOL     OW22576   2.220   1.279   1.137 -0.1858  0.5489 -0.3970
 3705SOL    HW122577   2.146   1.330   1.102 -0.1538  0.4134 -0.6628
 3705SOL    HW222578   2.277   1.260   1.062  0.6519  0.0456  0.3737
 3706SOL     OW22579   3.889   0.870   5.453 -0.1006  0.2830  0.3752
 3706SOL    HW122580   3.923   0.944   5.402 -2.6509  0.4878 -1.0270
 3706SOL    HW222581   3.874   0.810   5.380  1.4373  2.0655 -1.3992
 3707SOL     OW22582   2.204   2.952   9.079  0.6755  0.2755  0.0726
 3707SOL    HW122583   2.296   2.975   9.073  1.1204 -1.3136  0.9675
 3707SOL    HW222584   2.188   2.970   9.172  1.1599  1.7967 -0.1335
 3708SOL     OW22585   1.565   2.391  16.876  0.4638  0.0959  0.1659
 3708SOL    HW122586   1.651   2.394  16.917 -0.2398 -1.8776  1.7465
 3708SOL    HW222587   1.583   2.433  16.791  0.1836  1.0216  0.5628
 3709SOL     OW22588   3.596   1.817  15.068 -0.3500 -0.4887  0.0839
 3709SOL    HW122589   3.669   1.763  15.096  0.1218 -0.1859 -0.5598
 3709SOL    HW222590   3.565   1.761  14.996 -0.5375  0.1140 -0.3036
 3710SOL     OW22591   0.080   1.248   6.790 -0.4305 -0.2857  0.1566
 3710SOL    HW122592   0.142   1.251   6.716 -1.0431  1.6596 -0.2717
 3710SOL    HW222593   0.056   1.156   6.791 -2.0885  0.1948  3.4073
 3711SOL     OW22594   4.300   0.650  14.263  0.3366  0.2099 -0.4113
 3711SOL    HW122595   4.207   0.638  14.279  1.0451 -2.0025  1.9062
 3711SOL    HW222596   4.335   0.705  14.333 -1.5288 -2.1072  2.3528
 3712SOL     OW22597   0.521   4.451   5.350 -0.5091 -0.2038  0.0301
 3712SOL    HW122598   0.581   4.457   5.275  0.8098  0.0817  1.1054
 3712SOL    HW222599   0.584   4.425   5.418 -1.7874  0.0073  1.2942
 3713SOL     OW22600   1.057   2.874  17.543 -0.3915 -0.5436 -0.9604
 3713SOL    HW122601   0.969   2.839  17.530 -1.0470  0.6338  0.3105
 3713SOL    HW222602   1.084   2.904  17.456 -2.2576 -2.0099 -2.0523
 3714SOL     OW22603   2.138   1.134   2.421 -0.2021 -0.4493  0.0979
 3714SOL    HW122604   2.051   1.123   2.382  0.0271  0.9811 -0.7922
 3714SOL    HW222605   2.177   1.152   2.336 -0.4781  3.8088  0.8751
 3715SOL     OW22606   0.681   0.813   6.754  0.2912  0.1374 -0.8809
 3715SOL    HW122607   0.653   0.774   6.837  1.0243 -0.4379 -0.9028
 3715SOL    HW222608   0.616   0.772   6.696 -0.8380  0.5653  0.0766
 3716SOL     OW22609   1.621   0.603   8.150  0.1111  0.3962 -0.4135
 3716SOL    HW122610   1.648   0.658   8.223  1.2007  0.9451 -1.2367
 3716SOL    HW222611   1.527   0.596   8.168  0.5236  1.2133  2.0742
 3717SOL     OW22612   1.774   2.742   8.621  0.5579 -0.3536 -0.2469
 3717SOL    HW122613   1.792   2.831   8.591 -0.0150  0.1751  0.9742
 3717SOL    HW222614   1.679   2.741   8.634  0.3506  1.5614 -1.5839
 3718SOL     OW22615   3.068   1.978  12.675  0.0188 -0.3015 -0.2006
 3718SOL    HW122616   3.057   2.018  12.589  0.6589 -1.9188 -1.0456
 3718SOL    HW222617   2.999   1.913  12.662 -0.7258  0.9047 -2.2865
 3719SOL     OW22618   2.760   3.589  17.273 -0.0954  0.1118 -0.1607
 3719SOL    HW122619   2.811   3.637  17.208 -1.1458  1.8751  0.3043
 3719SOL    HW222620   2.828   3.558  17.333 -0.3576  0.8752  0.5241
 3720SOL     OW22621   2.867   2.310   4.842 -0.0151  0.2327  0.7432
 3720SOL    HW122622   2.838   2.220   4.829  0.0185  0.3520 -0.1753
 3720SOL    HW222623   2.869   2.314   4.937  0.7672  0.3353  0.7236
 3721SOL     OW22624   3.816   2.069   7.789  0.0124  0.2025 -0.0751
 3721SOL    HW122625   3.744   2.029   7.838  1.3595 -0.8431  1.0545
 3721SOL    HW222626   3.848   2.143   7.840  1.4532  0.3372 -1.1896
 3722SOL     OW22627   0.003   3.393   4.690 -0.4135 -0.1037 -0.1893
 3722SOL    HW122628   4.711   3.339   4.768  1.1918  0.3471  0.3637
 3722SOL    HW222629   4.639   3.435   4.703  0.3066  0.6852  1.9082
 3723SOL     OW22630   4.352   0.599   9.390  0.2029 -0.0696 -0.3590
 3723SOL    HW122631   4.292   0.669   9.365  0.8370  0.2691 -0.9257
 3723SOL    HW222632   4.297   0.543   9.445  1.4634 -0.7123  0.2601
 3724SOL     OW22633   0.869   3.294   4.721  1.4100 -0.3817  0.0087
 3724SOL    HW122634   0.896   3.253   4.638 -0.5467 -1.4049 -0.1171
 3724SOL    HW222635   0.931   3.250   4.779  1.2825  0.0258  0.4571
 3725SOL     OW22636   0.075   3.166   2.438  0.1819  0.5706 -0.1525
 3725SOL    HW122637   4.721   3.136   2.386 -0.4133 -0.7911  1.4714
 3725SOL    HW222638   0.059   3.260   2.434  1.3333  0.8253  1.3924
 3726SOL     OW22639   2.484   1.247   0.198  0.1431 -0.6452 -0.3445
 3726SOL    HW122640   2.564   1.217   0.240  0.0472  0.2004  0.4300
 3726SOL    HW222641   2.501   1.237   0.104  0.0827  1.2440 -0.5555
 3727SOL     OW22642   0.191   0.958   4.190 -0.1286  0.1240 -0.2575
 3727SOL    HW122643   0.120   1.017   4.217 -0.7967 -1.7421  2.0657
 3727SOL    HW222644   0.178   0.951   4.096 -0.4276  2.2491 -0.3881
 3728SOL     OW22645   2.744   1.473  16.534  0.3921 -0.3071  0.1939
 3728SOL    HW122646   2.815   1.529  16.563 -1.7271  2.2767  0.3967
 3728SOL    HW222647   2.725   1.508  16.446 -0.4628  0.3341  0.6334
 3729SOL     OW22648   0.972   3.543   3.855  0.3809  0.1799  0.8787
 3729SOL    HW122649   0.988   3.634   3.876 -2.1694  0.4994  1.3814
 3729SOL    HW222650   0.946   3.506   3.939  2.1337  0.2533  1.4455
 3730SOL     OW22651   1.932   0.872   2.251 -0.4789 -0.1504  0.7977
 3730SOL    HW122652   1.921   0.966   2.261  0.9351  0.1745 -0.7766
 3730SOL    HW222653   1.910   0.858   2.159  0.0251  1.7386  0.3972
 3731SOL     OW22654   3.259   0.788   5.036 -0.2592 -0.1947 -0.0531
 3731SOL    HW122655   3.312   0.766   4.960 -0.9379 -0.1297 -0.5389
 3731SOL    HW222656   3.180   0.821   4.993  1.0907  0.2059 -2.1805
 3732SOL     OW22657   0.860   0.820  16.579 -0.1553  0.6599 -0.5734
 3732SOL    HW122658   0.894   0.733  16.557  0.0943  0.7696 -0.6182
 3732SOL    HW222659   0.848   0.820  16.674  1.5088  0.8516 -0.3764
 3733SOL     OW22660   4.534   1.346   2.360 -0.4993  0.0357 -0.6691
 3733SOL    HW122661   4.534   1.341   2.456  0.3488 -1.0174 -0.7131
 3733SOL    HW222662   4.556   1.439   2.350  0.3759 -0.3014 -1.9644
 3734SOL     OW22663   3.691   2.180   5.301 -0.1374  0.4025 -0.3535
 3734SOL    HW122664   3.686   2.100   5.249  0.4351  0.8807 -1.1447
 3734SOL    HW222665   3.621   2.170   5.366  0.7561 -1.2417  0.3377
 3735SOL     OW22666   0.088   3.398   3.960  0.2723 -0.4814 -0.2459
 3735SOL    HW122667   0.080   3.346   4.039 -2.5980 -1.2545 -1.0228
 3735SOL    HW222668   0.034   3.472   3.988 -0.9886 -2.2168  1.9020
 3736SOL     OW22669   2.370   3.802  10.799 -0.2041  0.3400  0.4855
 3736SOL    HW122670   2.340   3.887  10.767 -1.1865 -0.0702  0.2953
 3736SOL    HW222671   2.447   3.783  10.746  0.3746  1.7523  0.8189
 3737SOL     OW22672   1.737   4.302   8.485 -0.0752  0.6532 -0.4435
 3737SOL    HW122673   1.682   4.380   8.491  1.7155  1.7160  2.2226
 3737SOL    HW222674   1.765   4.291   8.576  2.4016  1.9050 -1.0598
 3738SOL     OW22675   1.373   2.408   6.028 -0.5790 -0.1844  0.7125
 3738SOL    HW122676   1.404   2.406   6.118 -0.1584 -0.7231  0.5543
 3738SOL    HW222677   1.371   2.502   6.011 -2.3604 -0.1828  0.9017
 3739SOL     OW22678   1.217   1.148  10.084 -0.5526 -0.5461 -0.0529
 3739SOL    HW122679   1.131   1.136  10.123 -1.2523 -0.4465 -1.5800
 3739SOL    HW222680   1.244   1.057  10.071  0.0057 -0.8742  3.5539
 3740SOL     OW22681   0.477   3.010   2.990 -0.1773 -0.1553 -0.0514
 3740SOL    HW122682   0.527   3.045   2.917 -1.1350  1.6769  0.1615
 3740SOL    HW222683   0.416   3.083   3.005 -1.2404 -0.8898 -0.8142
 3741SOL     OW22684   4.436   4.252   6.425 -0.0930 -0.2702 -0.4174
 3741SOL    HW122685   4.518   4.210   6.399 -0.4587 -0.2778 -1.5698
 3741SOL    HW222686   4.370   4.189   6.396  0.8068 -0.2516 -2.5327
 3742SOL     OW22687   2.964   4.313   8.496  0.3315  0.1206  0.3770
 3742SOL    HW122688   2.942   4.406   8.499  0.4563  0.2113 -1.3986
 3742SOL    HW222689   2.880   4.275   8.522  1.3858 -1.2126  1.8291
 3743SOL     OW22690   1.955   1.744   9.289  0.2685 -0.0227 -0.5585
 3743SOL    HW122691   1.936   1.735   9.382 -1.0023  0.7764 -0.7484
 3743SOL    HW222692   2.026   1.808   9.294 -0.8382  1.1995 -0.4023
 3744SOL     OW22693   0.957   4.083  13.241  0.0195 -0.1713 -0.7265
 3744SOL    HW122694   0.920   4.038  13.165  0.0353 -0.6030 -0.4805
 3744SOL    HW222695   1.000   4.154  13.195  1.9684 -0.4105  0.7019
 3745SOL     OW22696   4.277   0.466   2.523 -0.5221 -0.6093  0.3386
 3745SOL    HW122697   4.265   0.376   2.555 -1.0443 -0.1176  1.5318
 3745SOL    HW222698   4.362   0.489   2.560 -0.4359 -0.9614  0.3640
 3746SOL     OW22699   4.635   2.397   0.290 -0.6339 -0.8820 -0.0215
 3746SOL    HW122700   4.632   2.309   0.254  2.0541 -0.6544 -0.8186
 3746SOL    HW222701   4.558   2.377   0.343 -0.6094  3.3074  1.6249
 3747SOL     OW22702   3.535   2.699   2.139  0.5640 -1.1376 -0.1391
 3747SOL    HW122703   3.451   2.654   2.153 -0.0630 -0.4549 -1.7658
 3747SOL    HW222704   3.590   2.628   2.107 -0.2960 -1.6613 -0.4481
 3748SOL     OW22705   1.709   3.800   5.300 -0.4092  0.2905 -0.0336
 3748SOL    HW122706   1.795   3.794   5.258 -0.4781  0.7161 -0.2374
 3748SOL    HW222707   1.734   3.802   5.392 -3.8437 -0.7462  0.9244
 3749SOL     OW22708   3.178   2.257   3.921 -0.0385  0.1514 -0.3949
 3749SOL    HW122709   3.202   2.336   3.969 -0.7301 -1.3652  2.4092
 3749SOL    HW222710   3.214   2.188   3.976 -1.1082 -0.5523 -0.5660
 3750SOL     OW22711   1.446   2.366   5.223 -0.0838 -0.2894  0.5102
 3750SOL    HW122712   1.508   2.431   5.254 -1.2402 -0.1235  2.4507
 3750SOL    HW222713   1.419   2.412   5.143  1.7084 -1.9985 -1.0953
 3751SOL     OW22714   4.071   1.029   8.332 -0.7515 -0.0271 -0.4537
 3751SOL    HW122715   4.064   1.124   8.347  0.4150 -0.3055  1.8290
 3751SOL    HW222716   3.982   1.002   8.308 -0.6843 -2.1478  1.7286
 3752SOL     OW22717   2.858   0.334   3.489 -0.2873  0.1219  0.3687
 3752SOL    HW122718   2.803   0.369   3.418  0.7341 -1.3461 -1.1519
 3752SOL    HW222719   2.807   0.378   3.557 -2.5460  0.1838 -1.3511
 3753SOL     OW22720   2.109   1.019   7.088  0.1619 -0.1105 -0.2989
 3753SOL    HW122721   2.061   0.957   7.033  0.4280  0.1964 -0.8752
 3753SOL    HW222722   2.138   0.955   7.152  0.0241  1.2952  1.1728
 3754SOL     OW22723   4.637   4.573  16.080  0.0740 -0.1894 -0.0673
 3754SOL    HW122724   4.676   4.625  16.009 -1.5483  0.3362 -0.5596
 3754SOL    HW222725   4.621   4.646  16.140  0.2304  0.0008 -0.2565
 3755SOL     OW22726   2.789   2.563   4.526 -0.2510 -0.4551 -0.7781
 3755SOL    HW122727   2.805   2.642   4.578 -0.2493 -1.3737  0.6198
 3755SOL    HW222728   2.816   2.597   4.441  0.8816  2.1781  0.6532
 3756SOL     OW22729   3.150   4.067  14.173  0.3205 -0.1574  0.3778
 3756SOL    HW122730   3.060   4.045  14.149  0.5334  0.7160 -1.2495
 3756SOL    HW222731   3.150   4.022  14.257 -0.7345 -0.8963 -0.0119
 3757SOL     OW22732   1.985   1.751   2.074 -0.0151  0.3799 -0.0135
 3757SOL    HW122733   1.986   1.837   2.032 -0.7523  1.2638  1.8148
 3757SOL    HW222734   2.050   1.765   2.143 -0.2095 -1.3988  0.5383
 3758SOL     OW22735   3.087   2.124   7.405  0.1039 -0.0801  0.3534
 3758SOL    HW122736   3.033   2.188   7.359  0.1282 -1.3555 -1.4639
 3758SOL    HW222737   3.035   2.050   7.373 -1.5951  1.3114 -0.1440
 3759SOL     OW22738   3.240   3.425   6.274 -0.2560  0.2245  0.3247
 3759SOL    HW122739   3.174   3.458   6.214 -0.9773  0.2974  1.1532
 3759SOL    HW222740   3.311   3.401   6.214  0.9542  4.4635  0.0835
 3760SOL     OW22741   4.670   2.667   6.560 -0.4875  0.2667 -0.5226
 3760SOL    HW122742   4.631   2.707   6.638  0.3097  1.5896 -0.7971
 3760SOL    HW222743   4.599   2.662   6.496  0.7300 -0.6176 -1.8127
 3761SOL     OW22744   1.670   1.428   8.408 -0.0311  0.3690  0.2249
 3761SOL    HW122745   1.635   1.452   8.494  0.6715 -0.2040  0.6709
 3761SOL    HW222746   1.610   1.469   8.345  0.3704  2.2637  1.0832
 3762SOL     OW22747   4.626   4.656   8.565  0.0296 -0.1275 -0.1945
 3762SOL    HW122748   4.631   4.570   8.606  0.5981 -0.3548 -0.7516
 3762SOL    HW222749   4.569   4.717   8.612 -0.1560 -0.7581  0.4012
 3763SOL     OW22750   1.115   1.274   7.842  0.6387 -0.0420 -0.9052
 3763SOL    HW122751   1.112   1.271   7.938 -0.8978 -1.2069 -1.0049
 3763SOL    HW222752   1.055   1.206   7.812  2.6167 -1.8860 -0.6951
 3764SOL     OW22753   0.079   0.046   1.659 -0.3714  0.3604  0.6818
 3764SOL    HW122754   0.141   0.039   1.586 -1.3999  0.9087 -0.2449
 3764SOL    HW222755   0.090   4.682   1.703 -0.3257  0.6907  1.3028
 3765SOL     OW22756   4.050   1.040  11.980 -0.3660  0.0683 -0.0901
 3765SOL    HW122757   4.100   1.047  11.899 -1.1384 -2.3835 -0.7744
 3765SOL    HW222758   4.098   0.968  12.022 -0.4588 -1.3197 -2.4046
 3766SOL     OW22759   4.422   0.589   3.604  0.5315 -0.3293 -0.5161
 3766SOL    HW122760   4.496   0.634   3.645 -0.0548 -0.4888  0.7375
 3766SOL    HW222761   4.404   0.522   3.669  1.3105 -2.4754 -2.5091
 3767SOL     OW22762   2.896   2.250   6.361 -0.4362 -0.5504 -0.6832
 3767SOL    HW122763   2.961   2.312   6.327 -1.4982  1.3057  0.6971
 3767SOL    HW222764   2.945   2.203   6.428  2.7818  2.8921 -0.6201
 3768SOL     OW22765   3.515   4.183   9.217  0.0021 -0.0586 -0.4195
 3768SOL    HW122766   3.595   4.157   9.172  0.2852  0.1749 -0.0378
 3768SOL    HW222767   3.494   4.107   9.271  0.4077 -0.0632 -0.2720
 3769SOL     OW22768   2.103   0.076   5.982 -0.2949  0.6112 -0.0657
 3769SOL    HW122769   2.026   0.079   5.925 -0.8436  0.0216  0.6557
 3769SOL    HW222770   2.109   0.171   5.996 -0.4167  0.4179  1.2195
 3770SOL     OW22771   3.679   1.280  14.157 -0.6360  0.8069 -0.0532
 3770SOL    HW122772   3.626   1.202  14.174  1.3403 -0.6114 -0.4736
 3770SOL    HW222773   3.719   1.284  14.243  0.2535 -1.5827 -0.3564
 3771SOL     OW22774   2.077   2.140   3.852 -0.8696 -0.5785 -0.3815
 3771SOL    HW122775   2.128   2.177   3.923 -0.8879  3.2800 -2.3732
 3771SOL    HW222776   2.143   2.104   3.793  0.3194 -0.3954  0.8359
 3772SOL     OW22777   2.307   1.671   3.784  0.5987 -0.7001 -0.2060
 3772SOL    HW122778   2.369   1.635   3.720 -0.4950  0.3971 -1.8698
 3772SOL    HW222779   2.227   1.629   3.752  1.3494 -2.0296 -0.3545
 3773SOL     OW22780   0.014   3.054   2.086  0.5738  0.7523 -0.0041
 3773SOL    HW122781   4.683   3.037   2.008 -0.3517  0.8112  0.5937
 3773SOL    HW222782   4.684   3.113   2.143 -1.1608 -1.7756  1.0617
 3774SOL     OW22783   1.276   1.074  12.016  0.2145 -0.2500  0.0866
 3774SOL    HW122784   1.282   1.098  11.924  1.1961 -1.5317 -0.1864
 3774SOL    HW222785   1.181   1.075  12.025  0.3499  0.0283  1.4622
 3775SOL     OW22786   3.695   3.510   6.362 -0.1738 -0.0180  0.4653
 3775SOL    HW122787   3.640   3.474   6.432 -0.4423  0.8676  0.7123
 3775SOL    HW222788   3.721   3.431   6.316  0.6051 -0.5958  1.8984
 3776SOL     OW22789   2.838   1.618   0.236  0.0627  0.4849  0.6233
 3776SOL    HW122790   2.818   1.708   0.209  0.0971  0.2761 -0.0843
 3776SOL    HW222791   2.748   1.590   0.255  0.4368 -1.4017 -0.4153
 3777SOL     OW22792   1.852   3.871  16.842  0.3066 -0.2304  0.6130
 3777SOL    HW122793   1.831   3.791  16.891 -0.8662 -0.8285 -0.8719
 3777SOL    HW222794   1.884   3.925  16.914 -1.3921  0.7794  0.6018
 3778SOL     OW22795   1.452   4.424  14.900 -0.5701  0.4089 -0.1357
 3778SOL    HW122796   1.520   4.398  14.837  1.1560 -0.1527  1.9896
 3778SOL    HW222797   1.435   4.336  14.931 -1.8682 -0.1238 -2.3396
 3779SOL     OW22798   4.660   0.894  10.239  0.8308  0.4141 -0.1328
 3779SOL    HW122799   0.001   0.967  10.241  1.2855 -0.0050  1.4048
 3779SOL    HW222800   4.582   0.950  10.236  0.0480 -0.5240  2.4470
 3780SOL     OW22801   0.038   3.800   5.673  0.5026 -0.3212  0.0871
 3780SOL    HW122802   0.012   3.857   5.745  2.2586  2.2264 -1.2948
 3780SOL    HW222803   0.133   3.808   5.678  0.2703  1.0863  2.2370
 3781SOL     OW22804   4.601   3.861   2.472 -0.0121 -0.3596 -0.1448
 3781SOL    HW122805   4.678   3.863   2.416 -0.2659  1.3819 -0.4293
 3781SOL    HW222806   4.649   3.911   2.539 -3.7578  3.1607 -0.0768
 3782SOL     OW22807   1.939   3.100   6.820  0.4597 -0.3936  0.0555
 3782SOL    HW122808   1.865   3.075   6.876 -0.7044  0.9643 -0.8568
 3782SOL    HW222809   2.004   3.050   6.867  0.1469 -0.2920  0.5945
 3783SOL     OW22810   2.265   3.516  11.278 -0.2920 -0.0190  0.6786
 3783SOL    HW122811   2.266   3.422  11.298  1.7553 -0.0532  0.4124
 3783SOL    HW222812   2.179   3.549  11.305 -0.2136  0.9987 -0.3388
 3784SOL     OW22813   3.101   1.781   8.108  0.2328 -0.3679  0.2467
 3784SOL    HW122814   3.070   1.770   8.018  0.3686 -1.0414  0.2805
 3784SOL    HW222815   3.191   1.748   8.107  0.5122  0.3395  1.9896
 3785SOL     OW22816   1.825   0.137   1.805  0.0557 -0.3849 -0.1787
 3785SOL    HW122817   1.868   0.202   1.861 -0.2560 -0.6185  0.3315
 3785SOL    HW222818   1.868   0.054   1.827  1.4802  0.3488 -0.1939
 3786SOL     OW22819   3.444   3.494   3.608 -0.3163 -0.2743 -0.4292
 3786SOL    HW122820   3.433   3.501   3.703 -2.1939 -3.0821 -0.4290
 3786SOL    HW222821   3.362   3.531   3.575 -0.0900 -0.5882 -1.3377
 3787SOL     OW22822   0.460   4.391   1.652  0.1689 -0.1895  0.2988
 3787SOL    HW122823   0.534   4.331   1.643  0.6382  0.3598  0.4726
 3787SOL    HW222824   0.399   4.333   1.697  1.2226 -1.5452 -0.0243
 3788SOL     OW22825   2.684   1.392  13.636 -0.2557 -0.1904 -0.3112
 3788SOL    HW122826   2.638   1.314  13.668  0.7831 -0.4874  0.4751
 3788SOL    HW222827   2.640   1.460  13.687 -1.0873 -0.9599 -0.0048
 3789SOL     OW22828   0.981   1.620  14.478 -0.5185 -0.4369 -0.4242
 3789SOL    HW122829   0.897   1.588  14.510 -0.1746  0.8648  1.8485
 3789SOL    HW222830   0.997   1.568  14.400 -0.3216 -0.9344 -0.0495
 3790SOL     OW22831   0.002   3.795   6.153  0.2314  0.7872 -0.6125
 3790SOL    HW122832   0.054   3.812   6.232 -0.7306 -0.0388  0.2072
 3790SOL    HW222833   0.054   3.723   6.117  1.5924  1.7352 -0.5514
 3791SOL     OW22834   2.634   0.982  13.779 -0.4897 -0.3568  0.0141
 3791SOL    HW122835   2.693   0.908  13.766  2.1015  1.5626  0.8376
 3791SOL    HW222836   2.616   0.974  13.873  2.0709  3.9649  0.8536
 3792SOL     OW22837   3.631   0.029   5.671  0.0241  0.2619  0.2464
 3792SOL    HW122838   3.566   0.075   5.724 -0.8541 -1.3191  0.5430
 3792SOL    HW222839   3.714   0.042   5.717  1.1086 -1.4575 -1.2433
 3793SOL     OW22840   0.733   2.628   2.561 -0.3773 -0.3101  0.1164
 3793SOL    HW122841   0.811   2.622   2.505 -0.7726  0.2013 -0.4902
 3793SOL    HW222842   0.665   2.662   2.503  2.0562  2.1388 -1.3380
 3794SOL     OW22843   2.604   2.755  15.549  0.1386  0.0051  0.4734
 3794SOL    HW122844   2.517   2.719  15.528 -0.7860  2.3720  0.2922
 3794SOL    HW222845   2.598   2.832  15.493  0.8259  1.2420  2.1088
 3795SOL     OW22846   4.405   2.659   0.649 -0.3183 -0.1408 -0.5476
 3795SOL    HW122847   4.418   2.726   0.582 -1.8092  2.4228  1.7181
 3795SOL    HW222848   4.326   2.689   0.694  0.7000  0.4736  0.8039
 3796SOL     OW22849   2.390   4.212  17.386  0.0220 -0.6951 -0.0404
 3796SOL    HW122850   2.455   4.142  17.388 -1.0825 -1.6989  0.9690
 3796SOL    HW222851   2.316   4.154  17.367 -1.2001  1.3329 -1.4458
 3797SOL     OW22852   0.904   1.264   4.739 -0.0532  0.0448 -0.0798
 3797SOL    HW122853   0.839   1.217   4.792 -0.4103  1.5931  0.8519
 3797SOL    HW222854   0.972   1.197   4.733  0.1286  0.2246 -0.0451
 3798SOL     OW22855   2.944   0.654  11.969 -0.0507 -0.1325 -0.8863
 3798SOL    HW122856   3.036   0.659  11.995 -0.2822  0.8786 -0.2435
 3798SOL    HW222857   2.923   0.747  11.956 -0.0391 -0.1672 -1.1632
 3799SOL     OW22858   0.008   0.177   4.660  0.0297  0.0997  0.1749
 3799SOL    HW122859   0.097   0.176   4.626 -0.9940  0.4249 -2.5465
 3799SOL    HW222860   4.709   0.084   4.646 -2.5718  0.9574 -1.9485
 3800SOL     OW22861   3.988   3.165   2.166  0.2472  0.1173  0.4719
 3800SOL    HW122862   3.961   3.080   2.203 -0.7524 -0.2396 -1.0760
 3800SOL    HW222863   3.997   3.226   2.239 -0.2919 -1.1529  1.6088
 3801SOL     OW22864   1.208   3.331   2.140 -0.0769  0.5586 -0.1929
 3801SOL    HW122865   1.118   3.351   2.163 -0.2627  1.2817 -1.5449
 3801SOL    HW222866   1.222   3.406   2.083  1.3544  0.6230  0.2387
 3802SOL     OW22867   0.566   3.537  12.230  0.2988  0.4984  0.1291
 3802SOL    HW122868   0.521   3.526  12.147 -1.8153 -0.2682  1.3880
 3802SOL    HW222869   0.555   3.449  12.266 -4.0985  0.6792 -0.8394
 3803SOL     OW22870   0.641   1.383   0.424 -0.1438 -0.6508  0.0643
 3803SOL    HW122871   0.732   1.372   0.400 -0.4215 -0.5322 -1.0382
 3803SOL    HW222872   0.638   1.345   0.512 -0.6713  1.3735  0.9412
 3804SOL     OW22873   4.629   3.250   0.839  0.0467 -0.4933 -0.1166
 3804SOL    HW122874   4.603   3.312   0.907 -1.6483 -1.6493  0.2935
 3804SOL    HW222875   4.581   3.175   0.873 -1.5108  0.8855  0.7343
 3805SOL     OW22876   2.440   2.708   9.899  0.5744  0.2440  0.2731
 3805SOL    HW122877   2.473   2.795   9.922  2.2638 -0.0018 -1.1871
 3805SOL    HW222878   2.499   2.674   9.831  1.3046 -2.1202  2.0765
 3806SOL     OW22879   1.840   3.641  17.306 -0.1583  0.3047  0.1426
 3806SOL    HW122880   1.773   3.665  17.370  2.1938  5.5140  0.6478
 3806SOL    HW222881   1.785   3.602  17.238  0.4635 -1.0245  0.4129
 3807SOL     OW22882   0.366   0.327  11.362  0.1600  0.1420 -0.1025
 3807SOL    HW122883   0.424   0.400  11.340 -2.8071  2.2869 -0.7323
 3807SOL    HW222884   0.292   0.361  11.412 -1.0512  0.5824 -2.1962
 3808SOL     OW22885   3.588   0.439   3.773 -0.1124  0.8051 -0.5299
 3808SOL    HW122886   3.583   0.478   3.686  1.7044  0.8006 -0.6419
 3808SOL    HW222887   3.626   0.511   3.824  0.3563  1.3843 -1.7122
 3809SOL     OW22888   0.316   1.966   1.219  0.3475 -0.1544  0.1439
 3809SOL    HW122889   0.242   1.940   1.165  0.6555  2.9661 -1.7526
 3809SOL    HW222890   0.327   1.891   1.277 -0.3401 -1.8772 -1.9533
 3810SOL     OW22891   1.496   0.545  16.028  0.4751  0.1095  0.3935
 3810SOL    HW122892   1.578   0.534  16.075  0.5319 -1.4123 -0.0598
 3810SOL    HW222893   1.467   0.629  16.062 -1.8367 -0.5316  0.0250
 3811SOL     OW22894   4.334   0.446   4.486  0.1932 -0.6662  0.2334
 3811SOL    HW122895   4.244   0.472   4.469  1.0492  1.7139 -0.8686
 3811SOL    HW222896   4.351   0.491   4.569  2.0822  0.2521 -0.6260
 3812SOL     OW22897   3.171   4.044   3.459  0.0580  0.8098  0.1352
 3812SOL    HW122898   3.230   3.973   3.485 -0.0076  0.4045 -0.8292
 3812SOL    HW222899   3.212   4.124   3.490  0.9500  0.0204  1.0174
 3813SOL     OW22900   3.022   0.295  11.787  0.3967  0.2281 -0.4071
 3813SOL    HW122901   3.097   0.339  11.746 -0.4140  1.2165 -0.8440
 3813SOL    HW222902   2.972   0.277  11.708  1.1478  1.4914 -1.1716
 3814SOL     OW22903   2.079   2.732  17.195 -0.1813 -0.3502  0.0203
 3814SOL    HW122904   2.097   2.818  17.234 -0.4582  0.2629 -1.2205
 3814SOL    HW222905   2.152   2.684  17.232  1.9615  0.3260 -3.3514
 3815SOL     OW22906   1.462   2.242   6.251  0.8093 -0.0644  0.3580
 3815SOL    HW122907   1.379   2.226   6.296  0.3599  0.6075 -0.2263
 3815SOL    HW222908   1.438   2.202   6.167 -0.3683 -0.1448  0.7304
 3816SOL     OW22909   1.799   1.765   2.393  0.4719  0.2279  0.0910
 3816SOL    HW122910   1.830   1.788   2.481 -2.4767 -1.4584  1.5599
 3816SOL    HW222911   1.873   1.804   2.347 -0.6170 -1.0442 -2.7381
 3817SOL     OW22912   4.705   4.271  12.321  0.1051  0.0059 -0.0585
 3817SOL    HW122913   4.699   4.216  12.243 -1.1492 -0.3124  0.2657
 3817SOL    HW222914   0.080   4.279  12.326 -0.0532  1.3616  0.8249
 3818SOL     OW22915   0.201   2.568   5.869  0.0072  0.2370 -0.1511
 3818SOL    HW122916   0.121   2.600   5.828  1.0781  0.2281 -2.2474
 3818SOL    HW222917   0.260   2.641   5.849 -0.3933  0.9504  1.3093
 3819SOL     OW22918   2.745   1.258  16.657  0.2466 -0.0813 -0.4663
 3819SOL    HW122919   2.774   1.184  16.604  2.3018 -0.7837  1.6021
 3819SOL    HW222920   2.726   1.319  16.586  0.0186 -0.5411 -0.7977
 3820SOL     OW22921   3.208   1.865   4.790  0.2966 -0.1034 -0.4394
 3820SOL    HW122922   3.144   1.813   4.741 -0.5065 -0.6324  1.1672
 3820SOL    HW222923   3.288   1.816   4.771 -0.9565 -2.0116 -0.8266
 3821SOL     OW22924   0.043   3.921   3.042  0.4844 -0.4992 -0.7040
 3821SOL    HW122925   4.674   3.904   3.013 -0.3753  1.0523  1.0254
 3821SOL    HW222926   0.088   3.922   2.958  2.2681 -0.9821  0.2591
 3822SOL     OW22927   4.321   2.489  10.058  0.1106 -0.4198 -0.5431
 3822SOL    HW122928   4.314   2.395  10.042  0.3033 -1.0850  3.4336
 3822SOL    HW222929   4.397   2.504  10.114 -1.1555  0.9329  0.8339
 3823SOL     OW22930   2.117   0.685  14.725 -0.1878  0.1758  0.1705
 3823SOL    HW122931   2.151   0.758  14.673  0.4935  0.3205  0.8310
 3823SOL    HW222932   2.143   0.713  14.813  0.8437 -0.2543 -0.0015
 3824SOL     OW22933   1.376   1.985   6.419  0.6847 -0.6409 -0.0555
 3824SOL    HW122934   1.375   1.930   6.497  1.5716  0.2630  0.5827
 3824SOL    HW222935   1.449   1.951   6.367 -0.6034 -3.0007 -0.3074
 3825SOL     OW22936   2.775   1.262  15.940  0.3017  0.0450  0.3671
 3825SOL    HW122937   2.691   1.303  15.961 -0.2676 -1.2233  0.5596
 3825SOL    HW222938   2.789   1.302  15.854 -0.2702  1.2519  0.8361
 3826SOL     OW22939   3.414   1.342   6.911  0.0147 -0.1314 -0.0758
 3826SOL    HW122940   3.459   1.386   6.983 -3.9856  3.1375  0.3927
 3826SOL    HW222941   3.435   1.406   6.842  0.3669  2.3053  2.2841
 3827SOL     OW22942   4.534   3.251   6.357 -0.1251  0.0709  0.0644
 3827SOL    HW122943   4.483   3.227   6.279 -0.4885 -0.8342  0.5771
 3827SOL    HW222944   4.575   3.170   6.386  1.3901  1.7753  2.5909
 3828SOL     OW22945   0.898   3.972  10.020 -0.9359  0.3020 -0.6484
 3828SOL    HW122946   0.967   3.946   9.959  0.2630 -0.5070  1.0446
 3828SOL    HW222947   0.932   3.943  10.105 -0.3223  1.3316 -0.5518
 3829SOL     OW22948   3.016   0.705   7.655 -0.8932  0.2517  0.1210
 3829SOL    HW122949   3.017   0.781   7.596  1.1817  0.9133  0.9998
 3829SOL    HW222950   3.037   0.641   7.588  0.5839 -0.4073  1.2097
 3830SOL     OW22951   2.029   0.867   3.702  0.4153 -0.2745  0.2006
 3830SOL    HW122952   1.975   0.869   3.781  0.8244 -1.6146  0.5101
 3830SOL    HW222953   2.115   0.881   3.742 -0.8870  2.6240  1.9208
 3831SOL     OW22954   2.004   1.395   0.974 -0.4591 -0.2145  0.7195
 3831SOL    HW122955   2.044   1.418   0.890 -2.9029 -2.0978 -0.9550
 3831SOL    HW222956   1.944   1.333   0.932 -0.7225 -1.3668  2.8332
 3832SOL     OW22957   1.018   0.925   9.179  0.2473  0.3213 -0.3380
 3832SOL    HW122958   1.006   0.844   9.128 -3.1442 -0.7654  2.2168
 3832SOL    HW222959   1.085   0.899   9.242 -0.2897  0.2800  0.2148
 3833SOL     OW22960   4.285   3.569   2.993 -0.0791 -0.3799  0.1037
 3833SOL    HW122961   4.230   3.541   2.920 -2.0421  2.5421  0.4794
 3833SOL    HW222962   4.369   3.559   2.948  0.1795 -2.4197  1.0297
 3834SOL     OW22963   0.495   1.951   6.221 -0.3392 -0.4184 -0.0590
 3834SOL    HW122964   0.506   1.971   6.314 -0.9493 -0.5968  0.0503
 3834SOL    HW222965   0.523   2.030   6.176  0.9793 -1.6087 -1.3139
 3835SOL     OW22966   3.163   1.129   5.700 -0.3510 -0.4660 -0.1334
 3835SOL    HW122967   3.229   1.196   5.720  0.2538 -1.4191  1.0325
 3835SOL    HW222968   3.220   1.053   5.705 -2.1931 -1.8288  0.2047
 3836SOL     OW22969   3.444   2.893  11.375 -0.6038 -0.3268  0.3287
 3836SOL    HW122970   3.496   2.815  11.398 -1.4191 -0.8998  0.2399
 3836SOL    HW222971   3.465   2.954  11.446 -1.6183 -0.0414  0.3871
 3837SOL     OW22972   3.581   2.651   1.470  0.4086 -0.0921  0.6907
 3837SOL    HW122973   3.545   2.734   1.438  0.2050 -0.4422  0.0068
 3837SOL    HW222974   3.557   2.650   1.562 -2.0758  0.4063  0.0313
 3838SOL     OW22975   1.747   4.510  10.449  0.4639  0.2130 -0.6425
 3838SOL    HW122976   1.831   4.469  10.472  1.5222  2.9448  0.3100
 3838SOL    HW222977   1.763   4.512  10.355  2.8131 -0.0033 -0.2562
 3839SOL     OW22978   1.607   3.304   7.843  0.1205 -0.3091  0.5421
 3839SOL    HW122979   1.597   3.319   7.937 -2.2808 -2.1804  0.6051
 3839SOL    HW222980   1.563   3.226   7.810  0.3997 -0.2778  0.0910
 3840SOL     OW22981   0.816   3.161  13.456  0.2178 -0.0959 -0.1667
 3840SOL    HW122982   0.864   3.243  13.443 -0.6004  0.1697 -1.5772
 3840SOL    HW222983   0.888   3.102  13.475  1.8363  1.8981 -0.1417
 3841SOL     OW22984   3.536   0.011  14.090  0.5229 -0.0853 -0.4865
 3841SOL    HW122985   3.515   4.639  14.078 -1.8572  0.3465  0.2536
 3841SOL    HW222986   3.576   0.040  14.009  3.5293 -0.3108  0.9238
 3842SOL     OW22987   0.005   4.578   6.343 -0.4045  0.6035  0.9003
 3842SOL    HW122988   0.072   4.627   6.391 -0.2379  2.2952 -1.0649
 3842SOL    HW222989   0.022   4.608   6.254 -1.1240 -1.1325  0.1934
 3843SOL     OW22990   3.296   0.699   8.588  0.4486  0.8025 -0.0432
 3843SOL    HW122991   3.267   0.664   8.672 -1.0311  2.5062  0.1551
 3843SOL    HW222992   3.238   0.775   8.587 -1.0770 -0.3633 -0.1827
 3844SOL     OW22993   3.430   3.458   7.096 -0.4493  0.2975  0.7491
 3844SOL    HW122994   3.454   3.367   7.078  0.8266  0.6035  0.8997
 3844SOL    HW222995   3.370   3.448   7.169 -0.7399  0.7038  0.5637
 3845SOL     OW22996   1.253   3.043   4.175  0.0444  0.1892  0.6104
 3845SOL    HW122997   1.160   3.057   4.197 -0.8309 -1.9994 -1.6364
 3845SOL    HW222998   1.256   2.948   4.164  2.1719  0.1066  1.8818
 3846SOL     OW22999   0.648   3.282  13.613  0.0117  0.2213  0.2925
 3846SOL    HW123000   0.563   3.259  13.577  0.6735 -3.0893  0.8650
 3846SOL    HW223001   0.706   3.234  13.554  0.4436  0.0798  0.8277
 3847SOL     OW23002   1.930   0.813   5.464  0.2070 -0.0059 -0.2077
 3847SOL    HW123003   1.906   0.880   5.400  0.3751 -0.0486 -0.3151
 3847SOL    HW223004   1.991   0.862   5.519  0.0442  1.4295 -1.3037
 3848SOL     OW23005   0.990   1.154   3.439  0.3425  0.2101 -0.2346
 3848SOL    HW123006   0.994   1.086   3.506 -1.7749  1.2407  0.9236
 3848SOL    HW223007   0.963   1.115   3.356 -0.4917  0.3271 -0.0114
 3849SOL     OW23008   4.672   3.921  14.159 -0.1117 -0.1491 -0.4370
 3849SOL    HW123009   4.665   3.826  14.156 -0.6751 -0.1871  1.9794
 3849SOL    HW223010   0.035   3.932  14.114  0.8246  0.5315  1.4688
 3850SOL     OW23011   4.430   4.485  12.947 -0.1636  0.8225  0.0348
 3850SOL    HW123012   4.502   4.427  12.971 -1.8042 -1.9583 -1.7818
 3850SOL    HW223013   4.442   4.515  12.857 -0.2154  0.5293 -0.0690
 3851SOL     OW23014   2.629   2.327   5.775  0.5276 -0.4939 -0.0136
 3851SOL    HW123015   2.633   2.310   5.869  2.4386 -0.4419 -0.0819
 3851SOL    HW223016   2.664   2.243   5.747  0.7278 -1.5755  3.4876
 3852SOL     OW23017   4.207   2.776  13.214  0.5071 -0.0597 -0.0710
 3852SOL    HW123018   4.189   2.682  13.223 -0.6481  0.1405 -0.3288
 3852SOL    HW223019   4.139   2.794  13.150  2.0758  3.0489 -0.8472
 3853SOL     OW23020   1.318   2.174   2.723  0.0519 -0.5774  0.3663
 3853SOL    HW123021   1.371   2.096   2.706 -0.1906 -1.0426  1.7292
 3853SOL    HW223022   1.311   2.205   2.633 -0.7204  1.5081  1.1422
 3854SOL     OW23023   1.396   0.153  10.246 -0.0043  0.4030 -0.6374
 3854SOL    HW123024   1.488   0.178  10.237 -0.2087  1.6663  0.8912
 3854SOL    HW223025   1.407   0.065  10.281  1.3305  1.3437  1.3095
 3855SOL     OW23026   1.448   0.253   4.993  0.7896 -0.5260 -0.2330
 3855SOL    HW123027   1.443   0.338   4.949 -0.0894  0.7875  2.3972
 3855SOL    HW223028   1.539   0.228   4.977  0.7127 -0.2698 -1.0390
 3856SOL     OW23029   4.259   1.153   5.894  0.0150 -0.2700 -0.1629
 3856SOL    HW123030   4.172   1.119   5.874  0.2650 -0.9911 -0.0057
 3856SOL    HW223031   4.278   1.115   5.979 -3.0724 -0.7250  0.3185
 3857SOL     OW23032   1.723   2.594   7.558  0.0513 -0.4552 -0.0305
 3857SOL    HW123033   1.672   2.540   7.619  0.7934 -1.0536  0.0593
 3857SOL    HW223034   1.809   2.575   7.595  0.2583 -0.2004 -0.3852
 3858SOL     OW23035   0.389   0.722   6.325 -0.1867  0.2506 -0.2560
 3858SOL    HW123036   0.456   0.721   6.257  1.9023 -0.3807  1.8098
 3858SOL    HW223037   0.336   0.645   6.303 -1.0010  0.0921  2.2294
 3859SOL     OW23038   3.373   2.718  13.575  0.3005 -0.3143  0.5278
 3859SOL    HW123039   3.335   2.791  13.623  1.5673 -1.2758  2.9896
 3859SOL    HW223040   3.448   2.702  13.632 -0.7059 -0.1891  1.8792
 3860SOL     OW23041   2.303   1.384  17.388 -0.3194  0.6468  0.3634
 3860SOL    HW123042   2.214   1.353  17.369 -0.6434  0.3405  2.3388
 3860SOL    HW223043   2.319   1.330  17.466 -1.7818 -0.1878  0.0701
 3861SOL     OW23044   0.580   2.726   1.316 -0.0171  0.2638  0.5753
 3861SOL    HW123045   0.543   2.654   1.265 -0.9819  0.2155  1.3311
 3861SOL    HW223046   0.567   2.799   1.255  1.1131 -0.7946 -0.9233
 3862SOL     OW23047   2.405   0.527   5.285 -0.3007 -0.2960  0.1791
 3862SOL    HW123048   2.354   0.475   5.222 -0.0343 -1.0762  0.6105
 3862SOL    HW223049   2.398   0.489   5.372 -0.2974  1.1421  0.8058
 3863SOL     OW23050   2.948   0.865   1.621 -0.5189  0.3165  0.0408
 3863SOL    HW123051   3.020   0.852   1.683 -1.2477 -0.1716  0.7781
 3863SOL    HW223052   2.986   0.838   1.537  0.5888  1.4213  0.2027
 3864SOL     OW23053   1.432   0.535  12.022 -0.7676 -0.1028 -0.0296
 3864SOL    HW123054   1.465   0.468  11.962 -0.1183  1.7923 -1.7930
 3864SOL    HW223055   1.337   0.521  12.024 -0.7876  0.1099  0.5906
 3865SOL     OW23056   4.457   1.488   6.612  0.1800 -0.4332 -0.6200
 3865SOL    HW123057   4.375   1.498   6.660  0.6389  1.6479 -0.2770
 3865SOL    HW223058   4.450   1.395   6.590  0.1368 -0.5922  0.0677
 3866SOL     OW23059   0.679   1.593  17.516 -0.8238 -0.3348  0.1939
 3866SOL    HW123060   0.615   1.656  17.483 -1.6964 -1.6113 -0.5393
 3866SOL    HW223061   0.700   1.645  17.593  0.2046 -0.0995 -0.2476
 3867SOL     OW23062   1.814   1.947   3.588 -0.3043  0.5653 -0.2603
 3867SOL    HW123063   1.808   1.926   3.681  0.4834 -1.6658 -0.7344
 3867SOL    HW223064   1.755   1.878   3.559  0.3112 -0.0851  0.0567
 3868SOL     OW23065   1.634   4.418   5.751 -0.1927 -0.4595 -0.1845
 3868SOL    HW123066   1.660   4.443   5.662  0.3703 -0.3774 -0.0019
 3868SOL    HW223067   1.556   4.471   5.765 -0.5664 -0.7123 -1.3112
 3869SOL     OW23068   3.596   0.768   3.582 -0.3794  0.0973 -0.3793
 3869SOL    HW123069   3.659   0.815   3.528 -2.5590  1.6167 -1.5316
 3869SOL    HW223070   3.591   0.823   3.661  0.1911 -2.6799  1.6222
 3870SOL     OW23071   3.434   2.885   1.489 -0.7904 -0.2586 -0.3110
 3870SOL    HW123072   3.453   2.931   1.571  0.7123 -0.1829 -0.6877
 3870SOL    HW223073   3.343   2.856   1.499 -1.2245  1.0537 -0.5356
 3871SOL     OW23074   1.999   4.493  13.456 -0.4069 -0.3285  0.2313
 3871SOL    HW123075   1.979   4.574  13.408  2.9699  1.4941  1.8999
 3871SOL    HW223076   2.065   4.527  13.516  0.0679  0.5190 -0.7736
 3872SOL     OW23077   4.607   1.316   1.233  0.0114 -0.4093  0.2667
 3872SOL    HW123078   4.687   1.366   1.251 -1.1791  1.2429  0.9225
 3872SOL    HW223079   4.638   1.272   1.154 -1.9557  0.8747 -1.2366
 3873SOL     OW23080   4.584   1.840   5.363 -0.3070 -0.7311  0.4900
 3873SOL    HW123081   4.637   1.915   5.390 -0.5564 -0.2992 -0.2171
 3873SOL    HW223082   4.642   1.809   5.294 -3.0517 -2.3384 -1.1123
 3874SOL     OW23083   4.660   2.285  14.719 -0.0851  0.4159  0.4274
 3874SOL    HW123084   4.576   2.321  14.748  0.2982  1.1693  0.5974
 3874SOL    HW223085   4.679   2.222  14.789 -1.9778  0.9601  1.4131
 3875SOL     OW23086   2.148   4.526   6.098  0.1223 -0.9383 -0.9586
 3875SOL    HW123087   2.144   4.437   6.063 -0.0256 -1.2663 -0.1019
 3875SOL    HW223088   2.097   4.587   6.044 -0.2524  0.5619  1.1282
 3876SOL     OW23089   1.087   0.083   9.142 -0.3814 -0.1182  0.6029
 3876SOL    HW123090   1.102   0.127   9.226 -2.2644  0.1865  0.7776
 3876SOL    HW223091   1.011   0.122   9.098 -0.7470 -2.2803 -0.6576
 3877SOL     OW23092   2.863   4.720   7.401  0.4591 -0.0344 -0.5740
 3877SOL    HW123093   2.869   4.645   7.460  1.2658  0.1158 -0.4617
 3877SOL    HW223094   2.956   0.008   7.383  0.5406 -0.2405 -0.2542
 3878SOL     OW23095   3.060   2.145   2.067  0.4609 -0.3999  0.5407
 3878SOL    HW123096   3.100   2.062   2.040 -0.5549 -0.5622 -0.4399
 3878SOL    HW223097   2.989   2.111   2.122  0.7637 -1.9929 -0.0621
 3879SOL     OW23098   3.013   3.706   9.974  0.4854 -0.1294 -0.3386
 3879SOL    HW123099   2.964   3.714  10.055 -2.8491 -0.3720 -2.3422
 3879SOL    HW223100   3.076   3.774   9.998  0.3152 -0.4776  1.0656
 3880SOL     OW23101   2.753   2.690   6.971 -0.3419  0.5745 -0.0657
 3880SOL    HW123102   2.792   2.644   7.045 -0.9362 -0.3024 -0.2931
 3880SOL    HW223103   2.696   2.621   6.936  0.2038  0.0841 -0.0034
 3881SOL     OW23104   4.232   1.417   5.870  0.4777  0.0534  0.1626
 3881SOL    HW123105   4.299   1.456   5.928  1.3547  0.5863 -1.2193
 3881SOL    HW223106   4.244   1.325   5.893  2.1200  0.7909  2.3340
 3882SOL     OW23107   1.804   2.147   3.971 -0.1044  0.4117  0.9394
 3882SOL    HW123108   1.752   2.067   3.971  1.2921 -0.5031 -0.6983
 3882SOL    HW223109   1.878   2.123   3.915 -0.3359  0.7477  0.4898
 3883SOL     OW23110   0.216   1.873   8.546 -0.5384 -0.5556  0.0692
 3883SOL    HW123111   0.171   1.797   8.584 -0.3246 -0.6271  0.1761
 3883SOL    HW223112   0.284   1.882   8.612  0.5884 -3.0424 -0.7218
 3884SOL     OW23113   0.665   4.506   8.586 -0.5017  0.3577 -0.2637
 3884SOL    HW123114   0.742   4.451   8.602 -1.2332 -0.9167 -1.1272
 3884SOL    HW223115   0.633   4.515   8.675  0.0368  1.6783 -0.2040
 3885SOL     OW23116   3.773   2.551  10.903 -0.5002  0.9496 -0.1057
 3885SOL    HW123117   3.801   2.474  10.853  0.1044  0.7477  0.5357
 3885SOL    HW223118   3.757   2.611  10.830  1.5530  2.4212  0.6734
 3886SOL     OW23119   3.315   4.449   4.792 -0.1465  0.2821  0.2726
 3886SOL    HW123120   3.233   4.439   4.841 -0.1525  1.2290  0.4545
 3886SOL    HW223121   3.307   4.539   4.759  1.8799  0.1823 -0.4920
 3887SOL     OW23122   3.061   2.929  14.572 -0.0244 -0.2809  0.0408
 3887SOL    HW123123   3.042   3.009  14.621 -1.5287 -0.5323 -0.1182
 3887SOL    HW223124   2.988   2.870  14.592  0.2664 -0.0410  1.7998
 3888SOL     OW23125   3.161   0.390  16.214 -0.2790 -0.2761  0.4743
 3888SOL    HW123126   3.157   0.297  16.238  0.0916 -0.0049  1.5788
 3888SOL    HW223127   3.071   0.410  16.187 -0.1837  2.2248  1.9910
 3889SOL     OW23128   4.005   1.846  10.219  0.1969  0.1060  0.7664
 3889SOL    HW123129   4.036   1.909  10.283  0.7162  0.6088  0.0177
 3889SOL    HW223130   3.939   1.792  10.263  0.4618  1.1101  2.3756
 3890SOL     OW23131   4.144   0.865  13.953  0.7686  0.6461  0.6026
 3890SOL    HW123132   4.125   0.855  13.860  1.3289  1.7555  0.3781
 3890SOL    HW223133   4.195   0.785  13.966 -0.9117 -0.6158 -0.4299
 3891SOL     OW23134   0.519   0.772   1.065  0.1788  0.0555  0.0461
 3891SOL    HW123135   0.445   0.795   1.122 -0.4784  1.8777 -1.5360
 3891SOL    HW223136   0.599   0.759   1.116 -0.7425 -1.1150  1.2026
 3892SOL     OW23137   4.495   2.512  15.676 -0.0200  0.0853  0.3833
 3892SOL    HW123138   4.524   2.583  15.619  2.3963 -1.1255  0.1056
 3892SOL    HW223139   4.500   2.551  15.763  1.5673 -0.0415  0.3555
 3893SOL     OW23140   1.064   2.993   5.617  0.0224 -0.6276 -0.3004
 3893SOL    HW123141   0.976   2.955   5.612 -0.0219 -0.4646 -0.7501
 3893SOL    HW223142   1.105   2.978   5.532  1.0395 -0.8257  0.2247
 3894SOL     OW23143   3.079   2.802   4.400 -0.4616 -0.6206  0.1427
 3894SOL    HW123144   3.046   2.811   4.490 -0.7757 -0.4517  0.0114
 3894SOL    HW223145   3.000   2.783   4.350  0.6828 -0.7098 -1.6090
 3895SOL     OW23146   4.142   0.816  17.495 -0.1486 -0.0474 -0.2422
 3895SOL    HW123147   4.209   0.751  17.476  0.1077 -0.6557  2.6932
 3895SOL    HW223148   4.154   0.877  17.423  0.4624  0.2167  0.0811
 3896SOL     OW23149   1.413   1.770   4.719 -0.2080 -0.5958  0.2945
 3896SOL    HW123150   1.334   1.760   4.771 -1.6845  0.0957 -1.8067
 3896SOL    HW223151   1.421   1.865   4.716 -0.2240 -0.5768  0.9665
 3897SOL     OW23152   2.969   2.331   5.633  0.3731  0.1980 -0.4706
 3897SOL    HW123153   3.001   2.330   5.543 -0.8375 -2.0908 -0.8875
 3897SOL    HW223154   2.965   2.426   5.639 -0.6236  0.2211 -1.5096
 3898SOL     OW23155   0.024   2.479   8.111 -0.2535  0.1766 -0.0792
 3898SOL    HW123156   4.652   2.461   8.094  0.1674 -2.3735  0.2583
 3898SOL    HW223157   0.043   2.562   8.069 -1.0436  0.4030  0.0221
 3899SOL     OW23158   2.509   2.125   3.818  0.7953  0.4569  0.0475
 3899SOL    HW123159   2.438   2.065   3.793  0.1642  1.1905  0.0864
 3899SOL    HW223160   2.565   2.057   3.854 -1.9072 -0.5923  2.3156
 3900SOL     OW23161   4.707   1.728   2.867 -0.1177  0.3236  0.0593
 3900SOL    HW123162   4.665   1.814   2.875  1.7772  1.3029 -0.3287
 3900SOL    HW223163   4.670   1.714   2.780  0.9111  1.3914 -0.5542
 3901SOL     OW23164   0.050   2.779  15.291 -0.6799 -0.3101 -0.0679
 3901SOL    HW123165   0.124   2.787  15.351  0.6223  1.8016 -1.9829
 3901SOL    HW223166   0.095   2.729  15.222 -0.2339  0.2089 -0.1502
 3902SOL     OW23167   1.222   4.716   0.550  0.3974  0.5471  0.3441
 3902SOL    HW123168   1.197   4.623   0.548 -4.0192  1.7492  0.1144
 3902SOL    HW223169   1.145   0.048   0.572  0.1176  1.1229 -1.9453
 3903SOL     OW23170   1.514   3.731  16.286 -0.4342  0.1323 -0.7959
 3903SOL    HW123171   1.538   3.764  16.199  1.3871  0.9841  0.0166
 3903SOL    HW223172   1.577   3.659  16.288 -1.3369 -0.6555 -0.7695
 3904SOL     OW23173   2.007   3.879   9.142 -0.5819 -0.3965  0.1749
 3904SOL    HW123174   1.997   3.899   9.049 -0.1729 -0.7771  0.0507
 3904SOL    HW223175   2.038   3.789   9.133 -1.7349 -0.6259 -1.4430
 3905SOL     OW23176   4.516   0.022   1.667 -0.0495 -0.0395  0.0856
 3905SOL    HW123177   4.501   0.116   1.671 -1.9040 -0.2640 -2.1641
 3905SOL    HW223178   4.612   0.023   1.676 -0.0828 -0.1680  0.4874
 3906SOL     OW23179   3.928   4.359   4.157  0.7093 -0.2386 -0.2018
 3906SOL    HW123180   3.927   4.270   4.123  1.0478 -0.1581 -0.4308
 3906SOL    HW223181   4.012   4.352   4.203  0.6693  2.5805  0.3177
 3907SOL     OW23182   1.444   0.498   7.156  0.1723 -0.3493 -0.4961
 3907SOL    HW123183   1.403   0.413   7.174  0.3860  0.1161  2.2991
 3907SOL    HW223184   1.373   0.560   7.171 -1.3574 -1.5555 -2.8141
 3908SOL     OW23185   4.341   1.471  15.711 -0.1052  0.0194  0.1025
 3908SOL    HW123186   4.349   1.412  15.636 -0.2960 -0.4957  0.4828
 3908SOL    HW223187   4.293   1.421  15.777  0.6719 -0.5973  0.1982
 3909SOL     OW23188   2.072   1.006   5.070  0.2128  0.0165  0.2494
 3909SOL    HW123189   2.127   0.974   5.142 -1.4338 -1.3041  0.9318
 3909SOL    HW223190   2.003   0.939   5.069 -1.5181  1.7878  0.8770
 3910SOL     OW23191   1.322   4.587  14.573  0.1340 -1.2957 -0.0010
 3910SOL    HW123192   1.248   4.647  14.571 -0.0755 -1.4798  1.6410
 3910SOL    HW223193   1.381   4.621  14.506  0.8145 -0.1770  1.1604
 3911SOL     OW23194   3.888   0.678   2.413 -0.1374  0.3116  0.6425
 3911SOL    HW123195   3.800   0.712   2.397  0.0682  1.2956  1.5703
 3911SOL    HW223196   3.880   0.583   2.415 -0.1469  0.2900 -1.1257
 3912SOL     OW23197   1.209   2.003   8.886 -0.2236 -0.3164  0.2137
 3912SOL    HW123198   1.196   1.921   8.934 -0.6655 -0.3129  0.0920
 3912SOL    HW223199   1.122   2.024   8.854 -0.0283 -1.7674 -1.2915
 3913SOL     OW23200   3.041   3.112   8.095 -0.3477 -0.1735 -0.0860
 3913SOL    HW123201   2.994   3.053   8.036 -1.0519 -0.2259  0.5217
 3913SOL    HW223202   2.975   3.161   8.145 -0.7283 -2.3297  1.5304
 3914SOL     OW23203   2.463   1.666   4.814 -0.0101  0.6274  0.1989
 3914SOL    HW123204   2.420   1.745   4.782 -0.6509  0.1978 -0.0036
 3914SOL    HW223205   2.388   1.638   4.867  1.9464 -0.4551  2.3570
 3915SOL     OW23206   3.416   1.969   8.710 -0.1339 -0.1226  0.4474
 3915SOL    HW123207   3.390   1.927   8.628 -1.9527 -2.2941  2.1305
 3915SOL    HW223208   3.508   1.993   8.709 -0.0976 -0.3083 -1.4650
 3916SOL     OW23209   1.450   2.054   4.729 -0.1352  0.3412  0.0176
 3916SOL    HW123210   1.454   2.122   4.796 -0.8720  2.4906 -2.1301
 3916SOL    HW223211   1.387   2.088   4.665  2.3733  0.3482 -2.4735
 3917SOL     OW23212   1.040   2.670  12.637 -0.0666 -0.0524  0.2227
 3917SOL    HW123213   1.110   2.620  12.680 -1.8759 -2.4858  0.3069
 3917SOL    HW223214   0.991   2.694  12.716 -0.8460  2.3943 -1.0182
 3918SOL     OW23215   4.433   2.442   4.370  0.1183 -0.2162  0.2254
 3918SOL    HW123216   4.416   2.370   4.310 -1.8551 -0.2272  0.7956
 3918SOL    HW223217   4.344   2.472   4.387 -0.1329 -0.5640 -0.4893
 3919SOL     OW23218   2.122   2.979  17.343 -0.0725  0.0731 -0.2588
 3919SOL    HW123219   2.171   2.994  17.262 -0.9240 -1.4439 -1.0686
 3919SOL    HW223220   2.189   3.000  17.408  0.3887 -1.0045 -0.3867
 3920SOL     OW23221   4.441   3.346   9.641  0.1291 -0.1991  0.0211
 3920SOL    HW123222   4.417   3.275   9.700 -0.7002  0.9671  1.0781
 3920SOL    HW223223   4.489   3.401   9.703  1.0877 -0.5978 -0.3578
 3921SOL     OW23224   2.958   2.592   5.110  0.5451  0.4268  0.4502
 3921SOL    HW123225   3.052   2.576   5.123  0.4749  1.0067  1.6920
 3921SOL    HW223226   2.936   2.675   5.153  0.3254  0.1125  0.9477
 3922SOL     OW23227   3.388   2.718  17.630 -0.1140 -0.6767  0.0797
 3922SOL    HW123228   3.354   2.631  17.610 -0.7843 -0.4483  0.2255
 3922SOL    HW223229   3.464   2.729  17.574 -0.3249  1.0940  0.1481
 3923SOL     OW23230   4.104   4.306   8.583 -0.2511  0.2360  0.4212
 3923SOL    HW123231   4.193   4.339   8.596 -1.6159  3.7270  1.1631
 3923SOL    HW223232   4.060   4.384   8.619 -1.2728 -0.0727 -0.1833
 3924SOL     OW23233   4.234   1.360   3.263  0.2164  0.3827  0.3254
 3924SOL    HW123234   4.287   1.438   3.282  2.5653 -1.3304  0.7039
 3924SOL    HW223235   4.297   1.289   3.269 -1.7120 -1.2092  1.7729
 3925SOL     OW23236   3.618   1.975   7.545  0.3630 -0.2364  0.1811
 3925SOL    HW123237   3.661   1.951   7.627  1.4342 -2.4319 -1.0447
 3925SOL    HW223238   3.529   1.948   7.570  0.0338  0.4753 -0.2122
 3926SOL     OW23239   1.305   2.450   8.051 -0.2178 -0.5849 -0.0159
 3926SOL    HW123240   1.312   2.538   8.014 -0.2426 -0.3403  0.5520
 3926SOL    HW223241   1.396   2.440   8.079  0.5430  1.4371 -1.7419
 3927SOL     OW23242   2.259   4.579   7.299 -0.0398  0.3415  0.2329
 3927SOL    HW123243   2.259   4.633   7.378  0.5840  0.8569 -0.1208
 3927SOL    HW223244   2.178   4.610   7.258 -0.1774  1.3234  1.2444
 3928SOL     OW23245   0.392   3.003   6.350 -0.2116 -0.2018  0.3815
 3928SOL    HW123246   0.332   2.946   6.302  0.7840 -0.5205 -0.4738
 3928SOL    HW223247   0.450   2.943   6.398  1.4014 -0.8245 -2.3601
 3929SOL     OW23248   4.560   4.604   5.153  0.0704 -1.1205  0.2245
 3929SOL    HW123249   4.523   4.603   5.241 -1.6854 -2.6927 -0.5265
 3929SOL    HW223250   4.623   4.531   5.155  0.8952 -0.5576 -5.1219
 3930SOL     OW23251   3.520   3.673   2.692  0.2599  0.2745 -0.3590
 3930SOL    HW123252   3.449   3.679   2.628 -0.2232  2.7674  0.4120
 3930SOL    HW223253   3.505   3.585   2.725 -0.1228  0.2370 -0.6408
 3931SOL     OW23254   2.330   2.594   7.227 -0.2550  0.2002  0.4482
 3931SOL    HW123255   2.313   2.522   7.166 -1.5652  0.4665  0.4995
 3931SOL    HW223256   2.274   2.584   7.304  2.5146  0.3750  2.4807
 3932SOL     OW23257   3.275   2.909  13.744 -0.1657 -0.2212  0.2864
 3932SOL    HW123258   3.195   2.963  13.739 -0.0069 -0.1621 -1.9792
 3932SOL    HW223259   3.308   2.945  13.826  0.6569  2.1436 -1.0768
 3933SOL     OW23260   0.668   4.592   7.019 -0.4389  0.0211 -0.3290
 3933SOL    HW123261   0.645   4.685   7.015  0.3643  0.2358  0.0286
 3933SOL    HW223262   0.681   4.582   7.113  1.6481  2.7524 -0.3297
 3934SOL     OW23263   0.050   4.096   9.495  0.6018 -0.1570 -0.2043
 3934SOL    HW123264   0.090   4.040   9.561 -1.1927  1.3611  2.1972
 3934SOL    HW223265   0.082   4.179   9.530 -0.5904  0.1097  0.2658
 3935SOL     OW23266   0.136   3.999   4.909  0.1175 -0.0489 -0.3940
 3935SOL    HW123267   0.109   3.959   4.827 -0.9682  2.4480 -1.2653
 3935SOL    HW223268   0.138   4.093   4.887  0.0602  0.3662  1.3538
 3936SOL     OW23269   3.949   4.067   2.724  0.3488  0.1517 -0.5667
 3936SOL    HW123270   4.010   4.032   2.659  0.2977 -1.4780  0.2747
 3936SOL    HW223271   3.865   4.030   2.697 -0.1519  0.1498  1.0075
 3937SOL     OW23272   4.148   2.417  16.169  0.3056  0.1999 -0.0253
 3937SOL    HW123273   4.182   2.390  16.255 -1.1545  0.7535  0.7420
 3937SOL    HW223274   4.220   2.471  16.138 -1.1545  2.4781  0.5802
 3938SOL     OW23275   1.672   0.131  15.601 -0.3399  0.2686  0.2589
 3938SOL    HW123276   1.609   0.202  15.615  0.2047  0.6871  0.5712
 3938SOL    HW223277   1.630   0.060  15.649  0.7785 -1.4204 -1.2111
 3939SOL     OW23278   2.644   3.083   2.818 -0.6382  0.2460 -0.5715
 3939SOL    HW123279   2.574   3.117   2.763 -0.0980  0.7481 -0.9502
 3939SOL    HW223280   2.705   3.155   2.803 -1.3422  1.0066  0.2136
 3940SOL     OW23281   2.436   1.880   8.242  0.1807 -0.0880 -0.1262
 3940SOL    HW123282   2.508   1.934   8.273  1.1229 -2.0699  1.1548
 3940SOL    HW223283   2.368   1.946   8.240 -1.4550 -1.7623  0.8335
 3941SOL     OW23284   4.609   1.416   0.839  0.2231  0.0071  0.4171
 3941SOL    HW123285   4.619   1.487   0.904  1.3604 -0.2111  0.4823
 3941SOL    HW223286   4.612   1.333   0.886  0.4616 -0.5446 -0.5868
 3942SOL     OW23287   3.175   2.090   8.690  0.0678 -0.2846  0.7333
 3942SOL    HW123288   3.148   1.998   8.693  0.0786 -0.4041 -2.6037
 3942SOL    HW223289   3.269   2.075   8.684 -0.0642 -0.5932 -0.6168
 3943SOL     OW23290   0.791   1.357   9.410  0.1251  0.2433  0.8994
 3943SOL    HW123291   0.829   1.303   9.341 -2.5132 -0.5214  0.0586
 3943SOL    HW223292   0.871   1.402   9.438 -0.2623  2.6796 -1.9473
 3944SOL     OW23293   1.527   1.508  11.186 -0.1388 -0.4147 -0.0712
 3944SOL    HW123294   1.567   1.594  11.173 -1.7220  0.2454 -0.6273
 3944SOL    HW223295   1.552   1.472  11.101  1.5548 -0.1959  0.3338
 3945SOL     OW23296   4.036   0.639   6.224  0.5679 -0.1660 -0.1874
 3945SOL    HW123297   4.063   0.551   6.251 -0.3986 -0.1601  0.7539
 3945SOL    HW223298   3.963   0.647   6.284  1.1770  0.0932  0.5159
 3946SOL     OW23299   0.729   1.970   7.367 -0.3249  0.4253 -0.5107
 3946SOL    HW123300   0.765   1.941   7.450 -1.2460  2.0626  0.4737
 3946SOL    HW223301   0.668   2.044   7.379 -2.1536 -1.3942  1.4146
 3947SOL     OW23302   2.782   4.597   4.181  0.5950 -0.4461 -0.7063
 3947SOL    HW123303   2.694   4.573   4.154  1.4068 -1.2739 -2.6383
 3947SOL    HW223304   2.760   4.689   4.192  0.6031 -0.6747  1.1677
 3948SOL     OW23305   4.605   1.930   7.519  0.1130  0.0888  0.1203
 3948SOL    HW123306   4.537   1.888   7.570 -0.4128  0.2504 -0.4454
 3948SOL    HW223307   4.548   1.959   7.447  0.7602  0.0299 -0.4227
 3949SOL     OW23308   2.229   1.137   7.930 -0.0091 -0.9519 -0.2012
 3949SOL    HW123309   2.270   1.224   7.935 -1.7943 -0.2078  1.4510
 3949SOL    HW223310   2.141   1.147   7.893 -0.3817 -1.0081  0.6688
 3950SOL     OW23311   2.358   1.466   0.525 -0.6289 -0.3441  0.4224
 3950SOL    HW123312   2.408   1.461   0.444 -0.3119  1.1088  0.5350
 3950SOL    HW223313   2.352   1.558   0.548 -0.0378 -0.3936  0.7607
 3951SOL     OW23314   0.511   4.232   5.904  0.0837  0.3082  0.3790
 3951SOL    HW123315   0.562   4.162   5.862 -1.0226 -1.5628  2.1615
 3951SOL    HW223316   0.440   4.185   5.947 -1.2953  1.9192 -0.1857
 3952SOL     OW23317   3.027   0.169   8.601 -0.0162 -0.3115  0.2347
 3952SOL    HW123318   3.122   0.170   8.609 -0.0549 -0.2044  0.6718
 3952SOL    HW223319   3.021   0.256   8.561 -3.2826 -0.2735  0.8185
 3953SOL     OW23320   3.048   3.350   1.782  0.3240  0.7644  0.4047
 3953SOL    HW123321   3.059   3.368   1.688  1.6325 -0.8129  0.2565
 3953SOL    HW223322   3.077   3.259   1.784 -0.5055  0.4610 -0.6898
 3954SOL     OW23323   0.041   1.112   2.732  0.0727 -1.0674  0.4979
 3954SOL    HW123324   4.719   1.052   2.672 -1.7630  2.3423 -1.6098
 3954SOL    HW223325   4.693   1.158   2.780 -1.0764 -0.6146 -1.6347
 3955SOL     OW23326   0.825   1.304   6.881  0.2021  0.2764  0.0138
 3955SOL    HW123327   0.849   1.396   6.876 -0.6042  0.5285  0.8245
 3955SOL    HW223328   0.798   1.283   6.970 -1.6849 -0.2340 -0.6668
 3956SOL     OW23329   0.412   3.486   6.034  0.1062 -0.1677  0.1062
 3956SOL    HW123330   0.448   3.534   6.108 -2.1138  0.4777  0.7467
 3956SOL    HW223331   0.462   3.406   6.049 -1.1475 -1.0761 -0.5410
 3957SOL     OW23332   2.735   3.767   6.170 -0.0830 -0.2281  0.5506
 3957SOL    HW123333   2.823   3.761   6.208 -0.3514  0.1282  1.2135
 3957SOL    HW223334   2.678   3.779   6.246 -0.6514  1.7284 -0.1911
 3958SOL     OW23335   0.594   2.013  10.053  0.0117 -0.3424  0.3446
 3958SOL    HW123336   0.612   2.008   9.959  0.0807  0.6736  0.3103
 3958SOL    HW223337   0.634   2.097  10.074  0.9607 -0.3924 -1.1970
 3959SOL     OW23338   2.289   1.930   3.846 -0.2647 -0.3741  0.3202
 3959SOL    HW123339   2.320   1.840   3.841 -1.1586 -0.7134  0.8195
 3959SOL    HW223340   2.221   1.912   3.912  0.4714 -2.6919  0.4357
 3960SOL     OW23341   1.877   1.745  10.439  0.6878  0.0453  0.6833
 3960SOL    HW123342   1.836   1.830  10.454 -0.5115 -0.1975 -1.2804
 3960SOL    HW223343   1.822   1.697  10.378  0.6313  0.5693  0.3209
 3961SOL     OW23344   0.872   2.000   2.629 -0.4896  0.0525  0.1438
 3961SOL    HW123345   0.938   2.060   2.663  1.6853 -2.1520 -0.2633
 3961SOL    HW223346   0.830   2.056   2.563 -2.0430 -2.4137 -0.9403
 3962SOL     OW23347   4.534   3.225   5.574 -0.1604 -0.3014  0.1526
 3962SOL    HW123348   4.567   3.141   5.606 -0.4840  0.5173  2.6332
 3962SOL    HW223349   4.615   3.274   5.562 -0.7053  0.7597  0.7677
 3963SOL     OW23350   3.316   1.863  12.652 -0.0341 -0.6992 -0.1537
 3963SOL    HW123351   3.232   1.909  12.660 -0.0998 -0.4790 -1.9187
 3963SOL    HW223352   3.375   1.935  12.629  1.5236 -2.0182 -0.2800
 3964SOL     OW23353   1.908   2.127   4.458 -0.6699  0.2201  0.5067
 3964SOL    HW123354   1.928   2.036   4.482  0.3397  0.3162  0.0410
 3964SOL    HW223355   1.940   2.132   4.368 -0.3553 -4.6167  0.3554
 3965SOL     OW23356   0.987   2.169  16.597  1.0708  0.3733 -0.1547
 3965SOL    HW123357   0.979   2.174  16.501  0.5543  0.6060 -0.1025
 3965SOL    HW223358   1.044   2.092  16.594 -0.7206 -0.9675 -0.2509
 3966SOL     OW23359   4.711   4.690   4.319  0.1355  0.2756 -0.2543
 3966SOL    HW123360   4.676   4.672   4.406  1.4241 -1.1200 -0.0335
 3966SOL    HW223361   4.710   4.606   4.274 -1.0986  0.7768 -1.1632
 3967SOL     OW23362   1.114   1.107  17.191 -0.9328  0.0378 -0.0369
 3967SOL    HW123363   1.127   1.201  17.204 -1.5782  0.1512 -0.2172
 3967SOL    HW223364   1.183   1.091  17.126 -1.5021 -1.2410 -0.3332
 3968SOL     OW23365   2.457   1.133   7.023 -0.4547 -0.7476  0.5071
 3968SOL    HW123366   2.472   1.211   7.075  1.8390  0.7950 -2.4255
 3968SOL    HW223367   2.465   1.064   7.089 -1.1883 -1.5437 -0.2265
 3969SOL     OW23368   0.138   1.189   0.455 -0.0349 -0.2439 -0.0775
 3969SOL    HW123369   0.156   1.111   0.508  0.2913  0.5094  0.9154
 3969SOL    HW223370   0.082   1.146   0.390  0.2124 -1.1028  0.2688
 3970SOL     OW23371   4.697   2.985   4.211  0.8210  0.3592 -0.3619
 3970SOL    HW123372   4.712   2.892   4.228 -0.4771  0.4878  1.4200
 3970SOL    HW223373   4.716   2.987   4.117  1.3982  0.8849 -0.2375
 3971SOL     OW23374   4.263   3.467   5.270  0.2009 -0.1987 -0.1593
 3971SOL    HW123375   4.329   3.398   5.269 -0.9931 -1.3366  0.0060
 3971SOL    HW223376   4.299   3.530   5.331  0.4591 -1.6532  1.1808
 3972SOL     OW23377   1.805   4.657   7.447  0.1370  0.1585 -0.1555
 3972SOL    HW123378   1.789   4.569   7.413  1.8786  1.1006 -3.3868
 3972SOL    HW223379   1.820   4.706   7.367 -1.3935 -1.4655 -1.4363
 3973SOL     OW23380   2.161   3.029   3.191 -0.1072 -0.7525  0.1696
 3973SOL    HW123381   2.138   3.109   3.144  0.7259  0.4811  1.8403
 3973SOL    HW223382   2.253   3.044   3.214 -0.4965  0.6197  0.7962
 3974SOL     OW23383   2.192   1.267   1.915  0.1630 -0.4843  0.4356
 3974SOL    HW123384   2.209   1.214   1.837  2.8981  0.0479  0.6603
 3974SOL    HW223385   2.098   1.281   1.905  0.8269  2.4025 -1.8409
 3975SOL     OW23386   1.050   0.842   1.014 -0.1160 -0.8623  0.3716
 3975SOL    HW123387   0.993   0.832   0.938  1.0142  0.4616 -0.6586
 3975SOL    HW223388   1.071   0.750   1.029  2.3521 -0.5205 -1.0296
 3976SOL     OW23389   3.945   2.438   9.682 -0.4386 -0.2400 -0.8905
 3976SOL    HW123390   3.901   2.453   9.766  1.3818 -0.5094  0.1253
 3976SOL    HW223391   4.029   2.479   9.704 -2.2820  2.2469  1.4876
 3977SOL     OW23392   3.310   2.147   7.599  0.4722  0.4999 -0.1030
 3977SOL    HW123393   3.255   2.196   7.659  0.7928 -0.4426  0.9563
 3977SOL    HW223394   3.254   2.145   7.521 -0.5491 -0.3861  0.6594
 3978SOL     OW23395   0.813   2.997   6.383  0.0738 -0.3492 -0.6016
 3978SOL    HW123396   0.877   3.002   6.454  1.5612  1.9784 -2.1150
 3978SOL    HW223397   0.831   3.084   6.346  1.1639  0.8849  2.8424
 3979SOL     OW23398   2.320   1.658   5.349  0.6304  0.1208 -0.1301
 3979SOL    HW123399   2.381   1.685   5.418  2.1295 -2.9707 -0.2474
 3979SOL    HW223400   2.331   1.564   5.338  0.3516 -0.1352  1.8270
 3980SOL     OW23401   2.406   4.524  14.517  0.2699 -0.3521  0.1061
 3980SOL    HW123402   2.351   4.475  14.579 -2.4788 -1.0229 -2.8787
 3980SOL    HW223403   2.342   4.588  14.487  0.7461  0.5411  1.0023
 3981SOL     OW23404   2.230   0.529  12.696 -0.4223 -0.0289 -0.2016
 3981SOL    HW123405   2.191   0.443  12.709  0.3743 -0.2956  0.4346
 3981SOL    HW223406   2.171   0.586  12.745 -1.4213 -0.8705 -0.4483
 3982SOL     OW23407   1.398   3.168   7.655 -0.2508 -0.0099 -0.1559
 3982SOL    HW123408   1.320   3.187   7.602  0.8742  1.7947 -1.1679
 3982SOL    HW223409   1.457   3.125   7.592 -1.1308 -0.2936 -0.7911
 3983SOL     OW23410   1.022   0.748   8.482  0.1455 -0.5524  0.0004
 3983SOL    HW123411   1.057   0.677   8.535  0.2168 -1.4690 -1.2602
 3983SOL    HW223412   0.933   0.757   8.515  0.9764 -0.2554  2.1117
 3984SOL     OW23413   4.459   3.423   8.981  0.3338 -0.2881  0.3547
 3984SOL    HW123414   4.383   3.470   9.015  0.0503 -0.5544  0.0886
 3984SOL    HW223415   4.422   3.354   8.926  0.3171 -0.9964  1.2542
 3985SOL     OW23416   1.186   1.578   0.565  0.0099  0.1337 -0.5837
 3985SOL    HW123417   1.258   1.518   0.587 -1.4472 -1.2384  0.3921
 3985SOL    HW223418   1.242   1.640   0.519  0.2975 -0.8618 -1.5783
 3986SOL     OW23419   1.381   4.663   3.507  0.1547 -0.2994 -0.4882
 3986SOL    HW123420   1.354   4.691   3.419  0.6891 -0.8122 -0.8205
 3986SOL    HW223421   1.305   4.687   3.560  0.7547 -1.0189  0.6881
 3987SOL     OW23422   1.562   2.198   5.420  0.3816 -0.6282  0.7822
 3987SOL    HW123423   1.570   2.268   5.484 -1.3393  0.8587 -0.6185
 3987SOL    HW223424   1.523   2.251   5.350 -0.6416 -0.5136  1.4497
 3988SOL     OW23425   4.483   2.819  10.456 -0.2675  0.4602  0.0465
 3988SOL    HW123426   4.412   2.883  10.451 -0.4961  0.4150  2.7147
 3988SOL    HW223427   4.435   2.737  10.468 -2.9543  1.8186 -1.3227
 3989SOL     OW23428   3.570   2.196  11.459  0.4551 -0.3038  0.4168
 3989SOL    HW123429   3.523   2.262  11.510 -0.0303  1.6248 -2.5490
 3989SOL    HW223430   3.572   2.234  11.372  0.9882 -0.4516  0.3608
 3990SOL     OW23431   2.885   1.491  12.864  0.0582  0.2401 -0.6164
 3990SOL    HW123432   2.830   1.557  12.906 -0.4009 -1.1680  0.9741
 3990SOL    HW223433   2.855   1.499  12.773 -0.0246 -1.4803 -0.7335
 3991SOL     OW23434   3.925   0.040   4.162 -0.1827  0.5613 -0.0364
 3991SOL    HW123435   4.008   0.050   4.116  0.7419  0.8897  1.7294
 3991SOL    HW223436   3.943   0.087   4.243  0.2220  3.1237 -1.6147
 3992SOL     OW23437   4.137   2.444   3.523  0.0569 -0.5151  0.7982
 3992SOL    HW123438   4.204   2.495   3.476 -1.6923  0.4790 -0.5782
 3992SOL    HW223439   4.169   2.354   3.518  1.5744  0.1244 -1.1500
 3993SOL     OW23440   0.544   3.181  16.937 -0.0567  0.2589 -0.1471
 3993SOL    HW123441   0.586   3.169  17.022 -0.4109 -2.3574 -0.3109
 3993SOL    HW223442   0.598   3.246  16.893 -0.1177  0.6099  0.3082
 3994SOL     OW23443   3.665   3.570   9.230  0.8409 -0.0921  0.0894
 3994SOL    HW123444   3.629   3.535   9.312  3.1636  0.2437  1.2325
 3994SOL    HW223445   3.755   3.588   9.257  0.8939  1.4490 -1.0723
 3995SOL     OW23446   1.323   3.898   7.273 -0.1520 -0.0593 -0.0930
 3995SOL    HW123447   1.250   3.911   7.334  1.0877 -0.0412  1.3684
 3995SOL    HW223448   1.393   3.911   7.337 -0.4324 -1.7418  0.5522
 3996SOL     OW23449   3.624   4.176   5.422  0.0193  0.3024  0.3522
 3996SOL    HW123450   3.594   4.125   5.347 -0.3723  0.3637  0.4679
 3996SOL    HW223451   3.590   4.124   5.495 -1.0269 -2.1682 -1.9083
 3997SOL     OW23452   2.294   0.622   3.178  0.5463  0.6257 -0.0562
 3997SOL    HW123453   2.387   0.640   3.159  0.3619  1.5147 -0.0919
 3997SOL    HW223454   2.259   0.610   3.090  1.3598  2.1215 -0.5900
 3998SOL     OW23455   2.782   4.481   5.688 -0.3915 -0.0844 -0.3537
 3998SOL    HW123456   2.734   4.564   5.693  2.1947  1.3139  0.7553
 3998SOL    HW223457   2.761   4.449   5.776 -0.1336 -1.2293 -0.6983
 3999SOL     OW23458   1.371   4.125   3.597  0.2874  0.0709  0.0061
 3999SOL    HW123459   1.315   4.198   3.570 -0.0997 -0.2256  0.0233
 3999SOL    HW223460   1.393   4.147   3.687  1.4752  0.3939 -0.3600
 4000SOL     OW23461   0.153   0.509  11.447  0.0473 -0.1683 -0.2088
 4000SOL    HW123462   0.069   0.466  11.428 -0.8870  1.9758 -0.8912
 4000SOL    HW223463   0.142   0.516  11.542  0.7516  1.5677 -0.2537
 4001SOL     OW23464   0.179   0.600   8.505 -0.3788 -0.2390 -0.6538
 4001SOL    HW123465   0.164   0.530   8.441 -0.0217  1.4809 -2.6333
 4001SOL    HW223466   0.162   0.547   8.583  2.2423 -1.0267 -0.5946
 4002SOL     OW23467   1.435   2.823   0.182  0.9028  0.5281 -0.1821
 4002SOL    HW123468   1.382   2.823   0.262  1.1610  0.4601 -0.0080
 4002SOL    HW223469   1.375   2.775   0.125 -1.4486  0.9223  1.9560
 4003SOL     OW23470   3.558   3.763   3.323  0.0323  0.1130 -0.5562
 4003SOL    HW123471   3.628   3.751   3.258 -0.6898 -0.7640 -1.1759
 4003SOL    HW223472   3.602   3.720   3.396 -0.8503  2.9401  1.6260
 4004SOL     OW23473   3.457   1.423   3.377  0.0519 -0.4984  0.0735
 4004SOL    HW123474   3.433   1.340   3.337  0.3230 -0.7242  0.3758
 4004SOL    HW223475   3.369   1.461   3.376 -0.1221 -0.8174  3.1483
 4005SOL     OW23476   1.325   2.707   1.293  0.4056 -0.1330  0.0626
 4005SOL    HW123477   1.254   2.677   1.237  0.6131  0.4362 -0.4955
 4005SOL    HW223478   1.381   2.638   1.257  0.5832 -0.2372  0.5273
 4006SOL     OW23479   1.820   0.241   2.326 -0.0133 -0.2266 -0.4198
 4006SOL    HW123480   1.894   0.188   2.353 -1.0075 -0.8851  0.9997
 4006SOL    HW223481   1.858   0.328   2.338  0.8564 -0.8731  1.4717
 4007SOL     OW23482   3.046   2.894   3.910  0.3413 -0.2429  0.3839
 4007SOL    HW123483   3.100   2.886   3.832 -1.5026  1.0913 -1.0206
 4007SOL    HW223484   3.030   2.988   3.912 -1.3660 -0.5344  0.7563
 4008SOL     OW23485   0.480   0.726   6.591  0.0432 -0.6202  0.6476
 4008SOL    HW123486   0.450   0.710   6.501  0.0846  0.2553  0.4744
 4008SOL    HW223487   0.410   0.688   6.643 -0.5895 -2.3238 -1.4412
 4009SOL     OW23488   1.166   2.678  14.876 -0.2048  0.4792 -0.2024
 4009SOL    HW123489   1.154   2.694  14.969  1.3462 -1.4888  0.3291
 4009SOL    HW223490   1.255   2.704  14.855  0.1136 -0.3714  0.0881
 4010SOL     OW23491   1.621   1.757  11.105 -0.0022  0.0312 -0.3471
 4010SOL    HW123492   1.715   1.741  11.100 -0.1133 -0.4152 -0.9421
 4010SOL    HW223493   1.616   1.826  11.038  0.6482 -1.6473 -2.1039
 4011SOL     OW23494   0.523   3.796   3.180 -0.1212  0.6890 -0.0434
 4011SOL    HW123495   0.494   3.780   3.091  2.0597  1.0845 -0.8134
 4011SOL    HW223496   0.477   3.731   3.233  1.1447  0.5262  0.8522
 4012SOL     OW23497   1.862   3.988   4.728  0.0318  0.1985  0.3280
 4012SOL    HW123498   1.954   4.006   4.749  0.1570  0.7383 -0.7055
 4012SOL    HW223499   1.848   3.899   4.761  0.7833 -0.7379 -1.8574
 4013SOL     OW23500   4.501   3.994  10.263 -0.0026 -0.1327  0.4117
 4013SOL    HW123501   4.531   3.976  10.174 -1.6314 -0.4921 -0.0689
 4013SOL    HW223502   4.450   4.072  10.240  1.7511  0.3939 -1.7777
 4014SOL     OW23503   2.312   4.593  16.068 -0.0331  0.5336 -0.2655
 4014SOL    HW123504   2.241   4.621  16.009 -1.1278  1.5239  1.5230
 4014SOL    HW223505   2.269   4.605  16.153 -0.2723 -0.6462 -0.2202
 4015SOL     OW23506   4.595   0.746   9.504 -0.0457 -0.2360 -0.0747
 4015SOL    HW123507   4.511   0.717   9.469 -1.4670  1.7379  1.6688
 4015SOL    HW223508   4.658   0.682   9.471  1.4569  1.3258 -0.2256
 4016SOL     OW23509   1.932   2.401   5.303  0.0826 -0.0284 -0.4956
 4016SOL    HW123510   1.983   2.434   5.229 -0.0511  1.5148  0.0991
 4016SOL    HW223511   1.959   2.310   5.295 -0.2380 -0.0894 -0.8661
 4017SOL     OW23512   0.820   0.223  14.768  0.1702  0.3021  0.2393
 4017SOL    HW123513   0.757   0.223  14.696 -0.7623  2.1508  1.0349
 4017SOL    HW223514   0.862   0.137  14.765  2.4584  1.5392 -2.7957
 4018SOL     OW23515   4.120   3.686   1.318 -0.2878 -0.3630 -0.0925
 4018SOL    HW123516   4.054   3.631   1.361 -1.1911  1.0442  0.3087
 4018SOL    HW223517   4.075   3.762   1.281 -0.9233 -1.1699 -0.9621
 4019SOL     OW23518   4.248   1.377   4.305  0.1017 -0.3914  0.0839
 4019SOL    HW123519   4.343   1.367   4.292  0.1106  1.3676 -1.1430
 4019SOL    HW223520   4.245   1.456   4.251 -1.8041 -0.3947  0.1904
 4020SOL     OW23521   2.303   4.196   7.072  0.0647  0.9612 -0.0794
 4020SOL    HW123522   2.387   4.183   7.116 -0.8064 -0.3789  1.1867
 4020SOL    HW223523   2.247   4.140   7.125  1.0161 -0.7598 -0.8808
 4021SOL     OW23524   2.658   0.886   6.280 -0.4636  0.2449 -0.7341
 4021SOL    HW123525   2.596   0.926   6.340  2.1147  1.3859  1.1731
 4021SOL    HW223526   2.656   0.799   6.320 -4.1074  0.2492 -0.8761
 4022SOL     OW23527   1.889   4.251  11.181 -0.0789 -0.6499 -0.8412
 4022SOL    HW123528   1.962   4.303  11.148  0.6398  1.0214  3.4609
 4022SOL    HW223529   1.903   4.262  11.275 -0.1212  1.1052 -1.0516
 4023SOL     OW23530   1.583   0.174  17.059 -0.0376 -0.2938  0.2065
 4023SOL    HW123531   1.580   0.086  17.021  0.1010 -0.1394 -0.1607
 4023SOL    HW223532   1.636   0.223  16.997  0.0973 -0.8282 -0.1084
 4024SOL     OW23533   1.235   1.287   3.393  0.0675 -0.0802 -0.2447
 4024SOL    HW123534   1.232   1.381   3.406  1.4714 -0.5624  3.4179
 4024SOL    HW223535   1.143   1.265   3.407  0.1548 -1.0322 -1.1883
 4025SOL     OW23536   2.184   3.033   8.802 -0.0304  0.2311  0.1334
 4025SOL    HW123537   2.269   3.076   8.811 -0.1370  0.2024  1.3479
 4025SOL    HW223538   2.189   2.987   8.886 -1.5020  0.4919  0.3668
 4026SOL     OW23539   3.621   2.936   1.283  0.1757 -0.2455 -0.3363
 4026SOL    HW123540   3.677   2.868   1.247  0.0618 -0.6949  0.3248
 4026SOL    HW223541   3.542   2.923   1.230  0.0445 -1.6170  0.1833
 4027SOL     OW23542   3.171   4.619   5.201 -0.3099 -0.0049 -0.5508
 4027SOL    HW123543   3.237   4.580   5.144 -0.9623 -1.2414 -0.4632
 4027SOL    HW223544   3.104   4.551   5.193 -0.0891 -0.1882 -0.8663
 4028SOL     OW23545   1.452   2.408  14.869  0.0494 -0.6529 -0.1913
 4028SOL    HW123546   1.482   2.492  14.836  0.4661 -0.4055  0.8221
 4028SOL    HW223547   1.537   2.366  14.856 -0.1783 -0.6181 -1.7882
 4029SOL     OW23548   2.451   0.705   7.088  0.4915  0.4231  0.1585
 4029SOL    HW123549   2.509   0.739   7.021  1.1295 -1.6438 -0.3487
 4029SOL    HW223550   2.427   0.786   7.133  0.8876  0.8072 -0.3238
 4030SOL     OW23551   0.380   0.096   3.701  0.5121 -0.5467 -0.1378
 4030SOL    HW123552   0.298   0.135   3.671  1.2980  0.4485 -0.9789
 4030SOL    HW223553   0.411   0.175   3.745  0.3906 -2.6687  3.7658
 4031SOL     OW23554   2.859   2.611  16.475 -0.0858 -0.1233 -0.2377
 4031SOL    HW123555   2.878   2.526  16.515 -0.0729 -0.5921 -1.2507
 4031SOL    HW223556   2.788   2.650  16.526 -1.0279 -0.0304 -1.6342
 4032SOL     OW23557   3.556   0.382   7.815 -0.5866 -0.2153 -0.2755
 4032SOL    HW123558   3.516   0.447   7.873 -1.1812 -0.3187 -0.5651
 4032SOL    HW223559   3.499   0.308   7.836  0.7328 -1.0181  0.3955
 4033SOL     OW23560   0.267   1.241   3.216  0.0493 -0.2725 -0.9033
 4033SOL    HW123561   0.354   1.269   3.245  0.2267 -1.4803 -0.2350
 4033SOL    HW223562   0.282   1.246   3.122 -0.6937 -3.3338 -1.1882
 4034SOL     OW23563   1.853   0.198   8.637 -0.0158  0.2761  0.1325
 4034SOL    HW123564   1.898   0.207   8.721 -1.8955 -3.0984  1.5251
 4034SOL    HW223565   1.815   0.285   8.633  2.4530  1.3334 -0.4300
 4035SOL     OW23566   0.267   2.806   0.622 -0.2732 -0.5174 -0.0199
 4035SOL    HW123567   0.189   2.767   0.660 -1.3563  1.3418 -0.3162
 4035SOL    HW223568   0.293   2.861   0.696 -1.3731 -0.8830  0.6286
 4036SOL     OW23569   4.678   3.542   9.080 -0.4021  0.1037  0.3214
 4036SOL    HW123570   4.620   3.495   9.019 -0.9621 -0.3033  1.1632
 4036SOL    HW223571   4.618   3.580   9.144 -0.5640  1.6690 -0.7604
 4037SOL     OW23572   4.492   4.056   1.524 -0.6591 -0.4141  0.4008
 4037SOL    HW123573   4.506   4.120   1.454  0.2348 -0.6032  0.4033
 4037SOL    HW223574   4.415   4.008   1.494  0.1085 -0.5308 -1.4058
 4038SOL     OW23575   4.548   4.380   3.303 -0.2786 -0.0897  0.1550
 4038SOL    HW123576   4.506   4.359   3.220 -1.1883  0.1744  0.5422
 4038SOL    HW223577   4.471   4.405   3.355 -1.4476 -0.8928 -1.1952
 4039SOL     OW23578   0.887   1.472   7.957 -0.6993  0.0023 -0.5162
 4039SOL    HW123579   0.891   1.534   7.884  3.3358  0.6705  0.3007
 4039SOL    HW223580   0.978   1.455   7.981 -0.7001 -0.4232 -0.8137
 4040SOL     OW23581   2.087   2.540   5.909 -0.1267 -0.6362 -0.4786
 4040SOL    HW123582   2.032   2.613   5.882 -0.8230 -0.4255  1.4805
 4040SOL    HW223583   2.035   2.461   5.915 -5.2963  2.6709 -2.2978
 4041SOL     OW23584   3.935   2.234   6.675 -0.1334  0.2446 -0.4357
 4041SOL    HW123585   3.923   2.141   6.652  0.2718  0.0132  0.2993
 4041SOL    HW223586   3.920   2.226   6.769  1.0487  0.5529 -0.2237
 4042SOL     OW23587   4.237   4.093   5.193 -0.5322  0.1466 -0.1499
 4042SOL    HW123588   4.322   4.052   5.201 -0.4063  0.6520  1.1623
 4042SOL    HW223589   4.180   4.059   5.124  1.7087  0.2380 -2.0271
 4043SOL     OW23590   1.487   2.209  16.354  0.7198  0.1438 -0.2177
 4043SOL    HW123591   1.424   2.139  16.367  0.4188  1.0775  3.4520
 4043SOL    HW223592   1.430   2.282  16.379  0.5899  0.8536 -2.6367
 4044SOL     OW23593   1.691   4.160   6.130  0.5771  0.1904 -0.0885
 4044SOL    HW123594   1.724   4.238   6.173  1.7565 -1.5175  2.0773
 4044SOL    HW223595   1.729   4.091   6.184  2.0607  0.7332 -0.4275
 4045SOL     OW23596   1.540   0.580   6.419 -0.2260  0.0065  0.1474
 4045SOL    HW123597   1.581   0.496   6.403  1.2228  0.9363 -0.9686
 4045SOL    HW223598   1.606   0.648   6.404 -0.1817 -0.1563 -0.3921
 4046SOL     OW23599   3.689   0.274  16.855 -0.0161  0.0629 -1.0422
 4046SOL    HW123600   3.729   0.319  16.780  0.6906 -0.5532 -1.0296
 4046SOL    HW223601   3.755   0.215  16.890 -0.0725 -0.1257 -1.2537
 4047SOL     OW23602   2.536   4.127   7.179 -0.2029 -0.6414  0.0601
 4047SOL    HW123603   2.560   4.066   7.249  0.2650  0.5257  0.9146
 4047SOL    HW223604   2.508   4.060   7.117  0.5492 -0.9083  0.0065
 4048SOL     OW23605   3.109   3.138   8.671 -0.0561  0.2408  0.2096
 4048SOL    HW123606   3.015   3.151   8.659  0.0912  1.4892  0.4162
 4048SOL    HW223607   3.121   3.111   8.762 -0.2862  0.6836  0.3710
 4049SOL     OW23608   2.747   2.969   5.886  0.3279 -0.7769  0.1582
 4049SOL    HW123609   2.825   2.964   5.830  0.0070  0.7830 -0.4234
 4049SOL    HW223610   2.725   2.875   5.886  0.5389 -0.8328 -1.0985
 4050SOL     OW23611   2.761   4.572  10.293  0.9612  0.3009 -0.5815
 4050SOL    HW123612   2.682   4.626  10.296  1.0419  0.3562  0.5329
 4050SOL    HW223613   2.731   4.498  10.240  0.6468  1.1073 -1.5178
 4051SOL     OW23614   4.329   2.255   4.092 -0.6811 -0.0290  0.1613
 4051SOL    HW123615   4.260   2.291   4.037 -0.2207 -0.8750 -0.9699
 4051SOL    HW223616   4.404   2.271   4.035  0.2013 -2.1219  0.7085
 4052SOL     OW23617   3.961   3.791  17.531 -0.0650  0.0644 -0.0145
 4052SOL    HW123618   4.004   3.822  17.611 -1.5736  2.8416 -0.2905
 4052SOL    HW223619   3.916   3.716  17.570  3.0153 -0.4625  2.5658
 4053SOL     OW23620   1.732   3.406  14.561  0.2683 -0.0265 -0.0040
 4053SOL    HW123621   1.651   3.355  14.552  0.3059 -0.4291  1.7714
 4053SOL    HW223622   1.798   3.342  14.587 -1.1668 -1.6324 -0.2985
 4054SOL     OW23623   1.657   3.836  16.072  0.4274 -0.4084  0.1830
 4054SOL    HW123624   1.627   3.787  15.996  0.3760  1.5262 -1.0525
 4054SOL    HW223625   1.637   3.928  16.055 -0.3158 -0.2511  1.9105
 4055SOL     OW23626   3.956   4.633   2.418 -0.2341  0.4629  0.2704
 4055SOL    HW123627   3.911   4.549   2.414 -0.2576  0.5447 -1.1285
 4055SOL    HW223628   3.892   4.704   2.420  0.5154  1.1957 -1.6771
 4056SOL     OW23629   4.212   1.464   7.125  0.2993  0.7603 -0.8863
 4056SOL    HW123630   4.262   1.434   7.050  1.2007 -1.3376  0.5895
 4056SOL    HW223631   4.266   1.538   7.153 -0.2551  1.3319 -1.3054
 4057SOL     OW23632   2.337   1.296   6.275 -0.1790  0.0937 -0.3150
 4057SOL    HW123633   2.358   1.384   6.244  2.2781 -0.8370 -1.2831
 4057SOL    HW223634   2.403   1.289   6.343  0.4029 -0.5773 -0.9486
 4058SOL     OW23635   3.808   0.672   6.369  0.0491  0.4490 -0.0020
 4058SOL    HW123636   3.757   0.750   6.392  0.2312  0.2165  1.2095
 4058SOL    HW223637   3.865   0.667   6.446 -1.6656 -1.0323  1.1751
 4059SOL     OW23638   1.695   0.232   4.884  0.6612  1.1098  0.1969
 4059SOL    HW123639   1.765   0.274   4.834 -0.5398  1.8266 -0.9077
 4059SOL    HW223640   1.683   0.146   4.845  2.4109  1.4551 -1.1168
 4060SOL     OW23641   3.054   2.099  13.669 -0.5501  0.1097 -0.2548
 4060SOL    HW123642   3.141   2.084  13.632  0.0659  1.3568  0.6857
 4060SOL    HW223643   3.036   2.007  13.687  0.9773 -0.2580 -0.5842
 4061SOL     OW23644   3.827   0.981   2.107 -0.1800  0.0659 -0.1365
 4061SOL    HW123645   3.897   0.916   2.110  0.8500  1.3058  2.6398
 4061SOL    HW223646   3.868   1.059   2.145  1.6198 -1.0536  0.2241
 4062SOL     OW23647   0.564   4.600   3.781  0.0288  0.0868 -0.1622
 4062SOL    HW123648   0.517   4.683   3.784 -0.5516 -0.2364 -0.3417
 4062SOL    HW223649   0.490   4.544   3.758  1.7337 -1.5613 -1.5676
 4063SOL     OW23650   4.711   1.832  10.658  0.1405  0.1347 -0.4675
 4063SOL    HW123651   0.017   1.749  10.619  0.6473 -1.2242  2.7230
 4063SOL    HW223652   4.616   1.828  10.651  0.3136 -3.6900 -0.6890
 4064SOL     OW23653   0.966   3.813   3.883  0.2307  0.6759 -0.1835
 4064SOL    HW123654   0.984   3.902   3.854  2.0278  0.9148  1.7148
 4064SOL    HW223655   0.891   3.833   3.939 -0.5623 -2.1218 -0.2436
 4065SOL     OW23656   2.467   4.235   2.929 -0.1384 -0.2466  0.3945
 4065SOL    HW123657   2.409   4.259   3.001  2.7650 -1.2776  3.0925
 4065SOL    HW223658   2.413   4.169   2.885  1.5949 -0.6476 -1.0968
 4066SOL     OW23659   4.425   0.361  15.271 -0.4116  0.5317  0.0555
 4066SOL    HW123660   4.450   0.274  15.241  1.3990 -0.0622  3.2594
 4066SOL    HW223661   4.441   0.348  15.365  3.8212  3.8516 -0.2142
 4067SOL     OW23662   2.193   4.441   0.625 -0.0327 -0.2617 -0.8273
 4067SOL    HW123663   2.282   4.449   0.659 -0.4198 -1.2334  0.3897
 4067SOL    HW223664   2.213   4.387   0.549  0.2838 -0.2408 -0.7582
 4068SOL     OW23665   2.207   4.652   3.882 -0.4205 -0.0962  0.3838
 4068SOL    HW123666   2.208   0.026   3.873 -1.1616 -0.1077  0.1939
 4068SOL    HW223667   2.196   4.638   3.977  1.2801  1.0353  0.7478
 4069SOL     OW23668   2.199   0.896  15.979  0.1358 -0.3962  0.3405
 4069SOL    HW123669   2.210   0.851  15.895 -0.6246  0.1242 -0.0434
 4069SOL    HW223670   2.237   0.980  15.952 -2.5371  0.5354 -0.5102
 4070SOL     OW23671   3.559   3.367   8.156  0.3338  0.4424  0.0696
 4070SOL    HW123672   3.491   3.432   8.170 -0.1751 -0.6179  2.4764
 4070SOL    HW223673   3.527   3.290   8.203 -4.1356  2.9717  1.1475
 4071SOL     OW23674   0.116   0.606   7.331  0.4250  0.4527 -0.2293
 4071SOL    HW123675   0.156   0.538   7.385 -0.6355  0.6157  0.7626
 4071SOL    HW223676   0.193   0.661   7.316  1.0603 -0.5603 -0.7257
 4072SOL     OW23677   2.812   3.612   2.091 -0.4938 -0.3811 -0.3662
 4072SOL    HW123678   2.857   3.569   2.019  1.2718  0.8071  0.0300
 4072SOL    HW223679   2.778   3.687   2.043 -0.4091 -1.1802 -1.6669
 4073SOL     OW23680   0.562   2.858   9.389  0.3661 -0.1227  0.1375
 4073SOL    HW123681   0.568   2.834   9.296  0.6946 -1.6501  0.5469
 4073SOL    HW223682   0.654   2.866   9.417  0.4839 -0.7512 -0.0574
 4074SOL     OW23683   2.595   3.878   9.054 -0.0257  0.0924  0.3114
 4074SOL    HW123684   2.524   3.936   9.029 -0.7588 -1.5229 -1.3301
 4074SOL    HW223685   2.674   3.925   9.026  0.1546 -0.4231 -0.0399
 4075SOL     OW23686   0.694   1.107  10.681  0.1528  0.5981  0.8693
 4075SOL    HW123687   0.703   1.171  10.610  0.8677  0.0545  0.4734
 4075SOL    HW223688   0.761   1.135  10.743 -2.5540  1.0239  3.6265
 4076SOL     OW23689   0.958   0.727   6.566  0.2233 -0.5054 -0.2586
 4076SOL    HW123690   1.040   0.700   6.607  0.6739  0.9853 -0.1856
 4076SOL    HW223691   0.953   0.812   6.610  0.4748 -1.6183  1.9346
 4077SOL     OW23692   0.467   2.630   5.549 -0.2689  0.6901  0.3673
 4077SOL    HW123693   0.524   2.665   5.480  1.9109 -1.5291  1.0588
 4077SOL    HW223694   0.409   2.569   5.503  2.2989  0.7192 -2.9048
 4078SOL     OW23695   3.358   2.756   0.537 -0.1426 -0.0919  0.0809
 4078SOL    HW123696   3.451   2.779   0.530  0.1934 -0.8637  2.0187
 4078SOL    HW223697   3.340   2.778   0.629 -2.3738 -1.0911 -0.1148
 4079SOL     OW23698   3.394   2.180   9.031  0.1699  0.3708 -0.6128
 4079SOL    HW123699   3.302   2.173   9.007 -0.3343  1.1810  1.0900
 4079SOL    HW223700   3.431   2.189   8.943  1.4293 -2.9073 -0.4148
 4080SOL     OW23701   0.402   0.622   4.502  0.4206 -0.6050  0.0370
 4080SOL    HW123702   0.393   0.568   4.581  0.5838 -0.8329 -0.1014
 4080SOL    HW223703   0.495   0.641   4.508  0.1969  0.3153  0.6991
 4081SOL     OW23704   3.929   1.922  11.627  0.0735 -0.2234 -0.8517
 4081SOL    HW123705   4.011   1.954  11.664 -0.4430 -0.0779  0.1718
 4081SOL    HW223706   3.897   2.000  11.582 -2.8335 -0.1410  1.3819
 4082SOL     OW23707   1.521   0.335   3.926  0.0809  0.1121 -0.3716
 4082SOL    HW123708   1.550   0.390   3.853  1.5862  0.5205  0.5448
 4082SOL    HW223709   1.607   0.314   3.961  0.6277  1.1772 -1.0595
 4083SOL     OW23710   4.079   2.483   4.680  0.1734  0.3685 -0.0926
 4083SOL    HW123711   4.115   2.570   4.662 -0.4374  0.0357 -2.7859
 4083SOL    HW223712   4.038   2.489   4.767 -0.1903 -0.2973 -0.2197
 4084SOL     OW23713   4.011   2.301   2.297 -0.1187 -0.1730 -0.3423
 4084SOL    HW123714   4.103   2.288   2.274 -0.0936  0.0833 -0.3926
 4084SOL    HW223715   4.001   2.396   2.298 -2.9100 -0.4799 -0.4134
 4085SOL     OW23716   4.531   0.331  12.413 -0.1237 -0.1684 -0.1860
 4085SOL    HW123717   4.536   0.338  12.317  0.1875  0.6033 -0.1195
 4085SOL    HW223718   4.610   0.278  12.421 -0.2285 -0.4527 -0.9990
 4086SOL     OW23719   3.825   3.802  14.872 -0.0764 -0.1099 -0.1502
 4086SOL    HW123720   3.782   3.779  14.955  0.8765 -3.5674 -0.5861
 4086SOL    HW223721   3.752   3.824  14.814 -1.5959 -2.4518  0.8725
 4087SOL     OW23722   0.564   1.636   8.124 -0.2256  0.5132 -0.0856
 4087SOL    HW123723   0.545   1.702   8.058  1.4562 -0.2961 -1.3453
 4087SOL    HW223724   0.559   1.557   8.071  1.8551  0.4716 -0.2187
 4088SOL     OW23725   2.573   1.312   1.142  0.3730 -0.1406 -0.3915
 4088SOL    HW123726   2.657   1.343   1.109  0.1281 -0.4407 -1.3127
 4088SOL    HW223727   2.544   1.260   1.066  1.0570 -0.5506 -0.3778
 4089SOL     OW23728   4.688   4.342   1.012  0.0577 -0.4914  0.1893
 4089SOL    HW123729   4.606   4.340   1.062  0.7812 -0.3334  1.3854
 4089SOL    HW223730   4.659   4.369   0.925  1.5709 -1.4628 -0.6253
 4090SOL     OW23731   3.325   2.037   4.041 -0.0968  0.4306 -0.6102
 4090SOL    HW123732   3.344   2.033   4.135 -0.6448 -3.4216 -0.6660
 4090SOL    HW223733   3.304   1.947   4.017  1.1507 -0.6907  2.4086
 4091SOL     OW23734   2.823   4.176  10.164 -0.0832 -0.5672 -0.6664
 4091SOL    HW123735   2.915   4.194  10.146  0.2184 -0.5514  0.8714
 4091SOL    HW223736   2.804   4.103  10.107 -0.6143 -0.2873 -0.8441
 4092SOL     OW23737   2.630   0.662  12.567 -0.2663 -0.4415 -0.0688
 4092SOL    HW123738   2.723   0.659  12.590  0.2139 -0.1471 -1.9228
 4092SOL    HW223739   2.619   0.756  12.554 -0.3987 -0.6668 -1.5779
 4093SOL     OW23740   1.441   2.567  15.303  0.0062  0.1663  0.2439
 4093SOL    HW123741   1.484   2.619  15.235 -0.7371 -0.1294 -0.4553
 4093SOL    HW223742   1.362   2.554  15.249  0.5817 -1.6306 -0.1719
 4094SOL     OW23743   3.461   0.346   7.055 -0.5850  0.2995  0.5588
 4094SOL    HW123744   3.411   0.287   7.112 -0.9053  0.0267 -0.0072
 4094SOL    HW223745   3.546   0.301   7.057  0.2231  1.8758  1.0766
 4095SOL     OW23746   0.809   0.061   1.095 -0.0130  0.0955  0.1135
 4095SOL    HW123747   0.774   0.098   1.013  0.2466  0.8251  0.3330
 4095SOL    HW223748   0.727   0.045   1.142 -0.5491  2.0570 -0.1478
 4096SOL     OW23749   4.410   1.178   3.250 -0.3006  0.6440 -0.5979
 4096SOL    HW123750   4.502   1.174   3.277 -0.4898  0.3456  0.0094
 4096SOL    HW223751   4.412   1.122   3.173  2.0235 -0.5124  0.2770
 4097SOL     OW23752   3.095   3.950   0.135 -0.3927 -0.0422 -0.1869
 4097SOL    HW123753   3.100   3.854   0.138 -0.3697 -0.0130  0.9502
 4097SOL    HW223754   3.023   3.961   0.073  0.3502 -0.3256 -1.0830
 4098SOL     OW23755   3.375   4.107  13.278  0.0156  0.5226 -0.4964
 4098SOL    HW123756   3.297   4.128  13.330  1.0600 -0.0439  1.3262
 4098SOL    HW223757   3.367   4.011  13.281  1.7267  0.4449  1.4749
 4099SOL     OW23758   2.200   0.216  17.373 -0.2133 -0.6691  0.4528
 4099SOL    HW123759   2.285   0.184  17.403  0.6735 -0.5194 -1.8803
 4099SOL    HW223760   2.237   0.271  17.305  1.4716  0.3903  2.2139
 4100SOL     OW23761   2.379   4.371   5.424  0.2130  0.1680 -0.5390
 4100SOL    HW123762   2.386   4.409   5.336  0.0439 -1.3562 -1.1953
 4100SOL    HW223763   2.468   4.339   5.437  0.4365  1.5223  1.3749
 4101SOL     OW23764   4.517   3.928   4.904  0.0560 -0.2815 -0.1237
 4101SOL    HW123765   4.561   3.868   4.964 -0.2559 -0.3542  0.0371
 4101SOL    HW223766   4.551   4.008   4.943 -1.1520  0.8043 -1.2852
 4102SOL     OW23767   3.258   3.975   9.772  0.0462  0.3794  0.4359
 4102SOL    HW123768   3.349   3.995   9.792 -0.3136  0.3006  2.1001
 4102SOL    HW223769   3.222   4.056   9.735  1.4973  1.8852  2.2979
 4103SOL     OW23770   3.794   0.867   4.490  0.3920  0.5672  0.0722
 4103SOL    HW123771   3.822   0.788   4.444 -0.5773 -0.6585  1.6268
 4103SOL    HW223772   3.755   0.829   4.568 -0.2178 -2.2339 -1.6012
 4104SOL     OW23773   4.377   4.717   1.090 -0.0816 -0.2774 -0.1044
 4104SOL    HW123774   4.340   4.668   1.163 -0.4979 -2.3288 -1.7275
 4104SOL    HW223775   4.414   0.072   1.137 -2.3795  0.5742  0.3327
 4105SOL     OW23776   4.052   3.367   6.580 -0.1920 -0.0078 -0.1441
 4105SOL    HW123777   4.027   3.447   6.533  1.2355 -0.5297 -1.8254
 4105SOL    HW223778   4.146   3.357   6.560  0.2024 -1.4642  2.5308
 4106SOL     OW23779   2.910   1.780   1.859  0.1738  0.0011 -0.4547
 4106SOL    HW123780   2.954   1.815   1.936 -0.4974 -0.5812  0.1837
 4106SOL    HW223781   2.820   1.770   1.890 -0.6665 -0.8183 -3.0985
 4107SOL     OW23782   3.158   3.044   0.411  0.4489  0.5482 -0.1710
 4107SOL    HW123783   3.105   2.985   0.464  1.4652 -1.1046 -1.0165
 4107SOL    HW223784   3.137   3.022   0.321 -2.3013  2.5446 -0.0248
 4108SOL     OW23785   2.900   1.591   7.158 -0.0800 -0.2366 -0.2947
 4108SOL    HW123786   2.948   1.580   7.241  1.3111 -2.4028 -1.4052
 4108SOL    HW223787   2.964   1.558   7.096  1.3130 -0.8766  1.4691
 4109SOL     OW23788   2.298   4.427   3.420 -0.1365 -0.1269  0.2749
 4109SOL    HW123789   2.220   4.467   3.460  0.3228  0.4929  0.5401
 4109SOL    HW223790   2.312   4.352   3.477 -0.1340 -1.7508 -1.8506
 4110SOL     OW23791   3.631   4.201   2.838  0.0170 -0.4570 -0.0757
 4110SOL    HW123792   3.619   4.108   2.860 -0.8313 -0.4370 -0.4505
 4110SOL    HW223793   3.710   4.210   2.891  0.5759 -0.3124 -0.9342
 4111SOL     OW23794   0.036   4.043   3.831 -0.2984  0.0252  0.7443
 4111SOL    HW123795   4.699   4.073   3.902 -1.3231  2.9634 -1.3132
 4111SOL    HW223796   4.702   3.981   3.784 -0.0551  0.1417  0.3116
 4112SOL     OW23797   2.793   3.250  16.133  0.8668 -0.2388  0.1836
 4112SOL    HW123798   2.808   3.286  16.221  0.0557  0.9539 -0.1609
 4112SOL    HW223799   2.754   3.326  16.090  2.5789  0.2080 -0.5915
 4113SOL     OW23800   0.654   3.578   1.681 -0.1153  0.5322  0.1010
 4113SOL    HW123801   0.674   3.614   1.595 -1.1652 -0.9022 -0.7275
 4113SOL    HW223802   0.559   3.589   1.685 -0.2250 -0.9893  1.9814
 4114SOL     OW23803   4.278   2.479   2.867  0.5319  0.3964 -0.3419
 4114SOL    HW123804   4.349   2.522   2.819 -1.3222  0.4611 -3.0162
 4114SOL    HW223805   4.334   2.408   2.900 -0.3488 -0.2111 -0.1583
 4115SOL     OW23806   3.621   2.962   0.061 -0.1879 -0.3081  0.5109
 4115SOL    HW123807   3.546   2.973   0.120  0.4573 -1.3770  1.5179
 4115SOL    HW223808   3.649   2.873   0.083  0.9454  0.0424  0.4541
 4116SOL     OW23809   3.053   0.798  17.184  0.6594 -0.4547  0.3765
 4116SOL    HW123810   3.111   0.723  17.201  1.0336 -0.5468 -1.2960
 4116SOL    HW223811   2.972   0.758  17.151  1.3056 -0.6869 -0.9281
 4117SOL     OW23812   0.932   1.362   1.890 -0.6528 -0.6189  0.5757
 4117SOL    HW123813   0.991   1.436   1.884  0.1987 -1.4061 -0.7586
 4117SOL    HW223814   0.928   1.360   1.986 -2.5684  2.1613  0.5527
 4118SOL     OW23815   2.853   0.334   6.178 -0.5346 -0.1476  0.0060
 4118SOL    HW123816   2.857   0.288   6.094 -0.9394 -2.4242  1.2096
 4118SOL    HW223817   2.938   0.309   6.213  0.2373  2.5412  0.0130
 4119SOL     OW23818   2.936   3.719   6.376 -0.4653  0.9683 -0.0774
 4119SOL    HW123819   3.030   3.737   6.371 -0.2764 -0.2104 -0.8051
 4119SOL    HW223820   2.928   3.677   6.461  1.3287  0.9229  0.0803
 4120SOL     OW23821   0.867   2.735  12.854 -0.0222  0.4726  0.1564
 4120SOL    HW123822   0.934   2.799  12.876 -0.8919  0.9453  1.4800
 4120SOL    HW223823   0.842   2.715  12.945  0.8760 -1.1484  0.0496
 4121SOL     OW23824   2.444   3.046   9.386 -0.4474  0.0453 -0.0037
 4121SOL    HW123825   2.469   2.970   9.439 -1.6640 -0.3577  0.0090
 4121SOL    HW223826   2.527   3.056   9.339 -0.3440 -4.6419 -0.8615
 4122SOL     OW23827   1.423   3.498   2.822 -0.1023 -0.3671  0.2515
 4122SOL    HW123828   1.511   3.469   2.797  0.1493 -0.5267  1.2995
 4122SOL    HW223829   1.427   3.591   2.801  0.0160 -0.3149  0.4978
 4123SOL     OW23830   2.612   1.132   0.910  0.3552 -0.3474 -0.5208
 4123SOL    HW123831   2.595   1.179   0.828  1.3413  1.0047  0.0730
 4123SOL    HW223832   2.582   1.042   0.891  0.2762 -0.4656  0.1728
 4124SOL     OW23833   1.792   4.430   0.051 -0.3162 -0.6563  0.0660
 4124SOL    HW123834   1.768   4.346   0.012  0.7873 -0.9973  0.1218
 4124SOL    HW223835   1.793   4.403   0.142 -2.8076  1.7989  0.8259
 4125SOL     OW23836   1.098   3.293   5.315  0.4283  0.2984 -0.3482
 4125SOL    HW123837   1.166   3.266   5.376 -1.1185  0.7418  1.5515
 4125SOL    HW223838   1.039   3.217   5.318 -0.0138  0.6500 -0.1649
 4126SOL     OW23839   3.888   4.372   3.594  0.5406 -0.5843  0.0365
 4126SOL    HW123840   3.981   4.384   3.616  0.5567 -3.2294  1.4632
 4126SOL    HW223841   3.874   4.430   3.519  1.2149  0.7775  0.9703
 4127SOL     OW23842   3.676   2.806   2.342  0.6173 -0.2837 -0.7914
 4127SOL    HW123843   3.601   2.790   2.399  1.1075 -0.0589 -0.0728
 4127SOL    HW223844   3.657   2.758   2.262 -0.9693 -2.5911  0.9989
 4128SOL     OW23845   4.343   3.259   8.579 -0.0876  0.0890  0.0569
 4128SOL    HW123846   4.257   3.249   8.619  0.6191  0.5463  1.6836
 4128SOL    HW223847   4.330   3.321   8.507 -0.2738  1.3720  1.2126
 4129SOL     OW23848   0.672   4.001   2.534  0.2914  0.2007 -0.5544
 4129SOL    HW123849   0.753   4.046   2.511 -0.3082  2.6005  2.0061
 4129SOL    HW223850   0.668   4.027   2.626 -0.0431 -2.5975  0.2071
 4130SOL     OW23851   3.053   0.785   5.867 -0.0340  0.2349  0.1706
 4130SOL    HW123852   2.979   0.790   5.927  1.3004 -1.9851  1.9709
 4130SOL    HW223853   3.009   0.756   5.787 -0.0355 -1.1145  0.6685
 4131SOL     OW23854   2.460   4.055   4.410 -0.1848  0.5563  0.2719
 4131SOL    HW123855   2.513   3.976   4.421  1.1833  1.4777  0.3751
 4131SOL    HW223856   2.376   4.030   4.447 -1.2769  2.9674 -0.6082
 4132SOL     OW23857   2.405   2.636   4.436  0.0911  0.0978  0.0509
 4132SOL    HW123858   2.408   2.627   4.341  0.3230  1.6653 -0.0850
 4132SOL    HW223859   2.401   2.541   4.451 -0.4194  0.0521 -0.3629
 4133SOL     OW23860   0.040   2.911   3.963  0.2948  0.4976  0.1512
 4133SOL    HW123861   0.136   2.919   3.962  0.3904 -0.6104  0.3654
 4133SOL    HW223862   0.030   2.962   3.883  1.4762  2.2843  1.1469
 4134SOL     OW23863   0.319   3.420   9.206  0.0178  0.5892  0.1770
 4134SOL    HW123864   0.360   3.498   9.242 -0.1304  1.3979 -1.3954
 4134SOL    HW223865   0.298   3.449   9.117  1.3110 -3.2667 -1.3948
 4135SOL     OW23866   2.673   3.166   0.708  0.1777 -0.4851  0.8485
 4135SOL    HW123867   2.758   3.161   0.753  0.4134  0.7423  0.5256
 4135SOL    HW223868   2.632   3.247   0.737 -1.2866 -1.2398  0.8512
 4136SOL     OW23869   1.975   1.004   6.104  0.3291 -0.0846  0.2736
 4136SOL    HW123870   1.891   1.046   6.088 -0.6523 -1.4600  1.8790
 4136SOL    HW223871   1.981   0.941   6.032 -2.8766 -0.2203  0.1234
 4137SOL     OW23872   0.221   3.687   0.200 -0.3761 -0.7002  0.1630
 4137SOL    HW123873   0.311   3.696   0.168 -1.1097  0.3218 -1.6424
 4137SOL    HW223874   0.190   3.648   0.118 -2.1804 -1.1108  1.0447
 4138SOL     OW23875   3.558   4.272   8.048 -0.4658 -0.5088  0.1422
 4138SOL    HW123876   3.652   4.287   8.053 -0.9740  2.3691  1.1952
 4138SOL    HW223877   3.557   4.190   8.096 -0.4625 -0.9821 -0.6669
 4139SOL     OW23878   2.704   4.512   6.280 -0.2127 -0.4599 -0.2189
 4139SOL    HW123879   2.629   4.463   6.247 -0.5522 -0.4213  0.4795
 4139SOL    HW223880   2.667   4.596   6.308 -0.4993 -0.5130 -0.4373
 4140SOL     OW23881   1.705   0.964   7.933  0.4339 -0.5632  0.0298
 4140SOL    HW123882   1.656   1.046   7.939  0.6635 -0.3312 -1.4390
 4140SOL    HW223883   1.690   0.947   8.026  0.0829  2.0710  0.4524
 4141SOL     OW23884   0.569   3.432   2.084 -1.1324  0.7841 -0.1365
 4141SOL    HW123885   0.534   3.351   2.121  0.6322 -1.2992 -3.0603
 4141SOL    HW223886   0.496   3.472   2.036 -2.1384  0.5948  1.2370
 4142SOL     OW23887   0.512   3.266   3.529  0.2205 -0.0695  0.3002
 4142SOL    HW123888   0.513   3.316   3.611  2.3204 -2.3187  1.6271
 4142SOL    HW223889   0.581   3.314   3.482  0.3345 -0.0689  0.4718
 4143SOL     OW23890   1.028   1.531   9.571 -0.0670  0.4133 -0.1117
 4143SOL    HW123891   0.969   1.491   9.635  1.7255 -1.1065  0.5860
 4143SOL    HW223892   1.116   1.508   9.600 -0.1705 -0.2748 -0.3325
 4144SOL     OW23893   3.905   3.988   5.327 -0.3075 -0.4643  0.2956
 4144SOL    HW123894   3.843   3.953   5.391  0.5333  0.5716  1.6568
 4144SOL    HW223895   3.980   3.930   5.342  0.4073  0.0933 -1.0725
 4145SOL     OW23896   0.765   1.409   6.491 -0.6522  0.6449  0.0385
 4145SOL    HW123897   0.774   1.392   6.397 -0.6893  1.8621 -0.1774
 4145SOL    HW223898   0.797   1.326   6.527 -1.7649  1.1619  2.1847
 4146SOL     OW23899   3.689   1.919  11.450  0.8991  0.1547 -0.0720
 4146SOL    HW123900   3.627   1.992  11.456 -0.6776 -1.3222  1.8119
 4146SOL    HW223901   3.756   1.953  11.510  0.6700 -0.7417  0.6999
 4147SOL     OW23902   2.616   1.331   8.617 -0.4790 -0.5327  0.0900
 4147SOL    HW123903   2.629   1.259   8.679 -2.6200 -0.1203  1.0140
 4147SOL    HW223904   2.698   1.327   8.568  0.6551 -1.4883  2.0577
 4148SOL     OW23905   0.445   2.941  13.682  0.2015 -0.6017 -0.4765
 4148SOL    HW123906   0.411   3.023  13.718 -2.0992 -0.7902 -2.2617
 4148SOL    HW223907   0.506   2.982  13.621 -1.0655 -0.7609 -1.8420
 4149SOL     OW23908   3.007   0.566   5.113 -0.6660 -0.6546 -0.6054
 4149SOL    HW123909   2.963   0.635   5.063  0.8320 -0.3093 -1.4336
 4149SOL    HW223910   3.094   0.603   5.125 -1.9725  2.1591  0.2495
 4150SOL     OW23911   0.410   2.524   6.944  0.2680 -0.3202 -0.0342
 4150SOL    HW123912   0.322   2.491   6.962  0.2041 -0.1014  0.0572
 4150SOL    HW223913   0.459   2.443   6.931  0.5537 -0.0913 -0.4204
 4151SOL     OW23914   0.986   0.361   8.906  0.3270 -0.6335  0.4383
 4151SOL    HW123915   0.906   0.322   8.939 -1.7395  0.1232 -3.7124
 4151SOL    HW223916   0.957   0.425   8.842  2.1895 -0.1470  0.0605
 4152SOL     OW23917   0.625   0.686   6.977  0.0418  0.2252 -0.0400
 4152SOL    HW123918   0.650   0.596   6.956 -0.0513  0.0744  0.4841
 4152SOL    HW223919   0.699   0.712   7.031 -0.7610 -0.0987  1.2188
 4153SOL     OW23920   3.455   2.464   2.687 -0.0709  0.0848 -0.0146
 4153SOL    HW123921   3.479   2.434   2.600 -0.9176  1.9576 -0.9038
 4153SOL    HW223922   3.387   2.531   2.675 -0.2207 -0.6699 -3.4350
 4154SOL     OW23923   2.150   1.621   6.408 -0.0796  0.1777 -0.1561
 4154SOL    HW123924   2.123   1.670   6.485 -1.2744  1.4946 -1.4024
 4154SOL    HW223925   2.086   1.550   6.416 -0.0984  0.2368  0.2131
 4155SOL     OW23926   4.395   1.781   6.768 -1.4312 -0.3846 -0.0654
 4155SOL    HW123927   4.370   1.821   6.684 -0.2918  1.3574  0.4238
 4155SOL    HW223928   4.389   1.690   6.737 -0.6355 -0.9662  1.5341
 4156SOL     OW23929   0.799   2.994  16.896  0.1785 -0.8698  0.0842
 4156SOL    HW123930   0.887   3.023  16.876  0.6017 -0.0135  3.1586
 4156SOL    HW223931   0.763   3.082  16.882  1.7954 -0.5109 -1.8169
 4157SOL     OW23932   2.066   4.317   7.286  0.7403 -0.0565 -0.1799
 4157SOL    HW123933   2.096   4.229   7.264  2.4834  0.1747  1.2680
 4157SOL    HW223934   2.155   4.346   7.307  0.6612 -1.3344  1.8148
 4158SOL     OW23935   3.395   1.876   8.470 -0.4536  0.2270  0.8203
 4158SOL    HW123936   3.338   1.823   8.414 -0.4056 -0.0834  1.0640
 4158SOL    HW223937   3.447   1.927   8.408 -1.0726 -0.1743 -0.0432
 4159SOL     OW23938   3.662   2.253   0.691 -0.2173  0.7896  0.5014
 4159SOL    HW123939   3.621   2.339   0.693 -1.1646  0.3239  1.2470
 4159SOL    HW223940   3.664   2.251   0.595 -0.9212  0.4546  0.4893
 4160SOL     OW23941   2.123   3.102   1.962  0.1290  0.3930 -0.3400
 4160SOL    HW123942   2.047   3.160   1.957  0.0735  0.1455 -2.1574
 4160SOL    HW223943   2.189   3.153   1.916  1.7769 -0.9005  0.5716
 4161SOL     OW23944   3.095   0.770   2.002 -0.0832 -0.0754 -0.3279
 4161SOL    HW123945   3.050   0.855   2.003 -1.2914 -0.7488  2.8017
 4161SOL    HW223946   3.124   0.765   1.911  0.9718  1.4914 -0.0636
 4162SOL     OW23947   0.579   3.305   9.304 -0.1140  0.0620 -0.5475
 4162SOL    HW123948   0.547   3.373   9.364 -0.2568 -0.5852  0.0977
 4162SOL    HW223949   0.632   3.270   9.375 -0.3497 -0.9670 -0.8829
 4163SOL     OW23950   1.409   4.545   8.210 -0.4300 -0.3013  0.4267
 4163SOL    HW123951   1.385   4.461   8.248  0.0890 -1.0378 -0.9022
 4163SOL    HW223952   1.388   4.532   8.118 -0.1852 -1.5209  0.5484
 4164SOL     OW23953   3.229   1.763   4.021  0.1275 -0.0801 -0.0616
 4164SOL    HW123954   3.187   1.738   3.939  0.0890  0.3542 -0.1745
 4164SOL    HW223955   3.148   1.788   4.066 -0.6501  0.6575 -1.8602
 4165SOL     OW23956   1.073   3.763   0.652  0.3554 -0.5210 -0.1967
 4165SOL    HW123957   1.114   3.845   0.680  0.7662 -0.7674 -0.0882
 4165SOL    HW223958   1.000   3.764   0.714  0.7343 -1.9907  0.2622
 4166SOL     OW23959   0.126   0.925   1.605  0.5313 -1.0763  0.2643
 4166SOL    HW123960   0.202   0.925   1.546  0.1497 -1.6214 -0.2327
 4166SOL    HW223961   0.169   0.955   1.685  0.6506 -0.5649  0.0069
 4167SOL     OW23962   2.414   2.361   0.812  0.2913 -0.1964  0.3240
 4167SOL    HW123963   2.449   2.418   0.744  0.3704 -0.6761 -0.0371
 4167SOL    HW223964   2.329   2.402   0.826  0.2408  0.3121 -1.5594
 4168SOL     OW23965   4.453   0.290   7.022  0.3149 -0.4042 -0.7166
 4168SOL    HW123966   4.493   0.377   7.018  0.8707 -0.6105  0.4119
 4168SOL    HW223967   4.476   0.258   6.935 -1.4695 -1.5990 -0.7468
 4169SOL     OW23968   3.812   1.114   8.566 -0.0773  0.0036 -0.1245
 4169SOL    HW123969   3.803   1.056   8.642  1.6996 -0.8974 -0.5947
 4169SOL    HW223970   3.883   1.176   8.586 -0.7417  0.4193  0.9379
 4170SOL     OW23971   4.459   0.300  13.174 -0.0765  0.2069 -0.5348
 4170SOL    HW123972   4.375   0.264  13.146 -0.2220 -0.2387  0.4695
 4170SOL    HW223973   4.495   0.242  13.241  1.3944 -1.3243 -2.6554
 4171SOL     OW23974   3.590   2.838   6.713  0.3230  0.3587 -0.0938
 4171SOL    HW123975   3.583   2.752   6.756 -2.3701  1.7573  2.2969
 4171SOL    HW223976   3.545   2.880   6.787  0.0392  0.1303 -0.1360
 4172SOL     OW23977   1.284   3.567   7.252 -0.1587 -0.2977  0.5555
 4172SOL    HW123978   1.225   3.620   7.305  0.5369  0.0368  1.0090
 4172SOL    HW223979   1.226   3.492   7.242 -1.2131  0.2568  2.4821
 4173SOL     OW23980   0.059   0.383  12.586  0.4371  0.6188 -0.1425
 4173SOL    HW123981   0.034   0.295  12.614  0.3906  0.2408 -1.3677
 4173SOL    HW223982   0.097   0.367  12.499 -0.6212 -0.6277 -0.3786
 4174SOL     OW23983   0.532   0.204   6.036  0.4678  0.5460 -0.3476
 4174SOL    HW123984   0.607   0.188   6.093  0.9678 -3.3295 -2.1400
 4174SOL    HW223985   0.532   0.299   6.047 -0.6727  0.4756  0.2734
 4175SOL     OW23986   3.064   1.553  16.078 -0.1028  0.4421  0.3206
 4175SOL    HW123987   3.074   1.494  16.153  0.2649 -0.5952 -0.5452
 4175SOL    HW223988   3.008   1.510  16.014  1.7368 -0.6445 -0.5423
 4176SOL     OW23989   0.911   3.062   5.242  0.1435 -0.0859  0.3793
 4176SOL    HW123990   0.887   2.979   5.282 -1.8476  1.5467  2.5875
 4176SOL    HW223991   0.825   3.081   5.206  0.6619 -0.4505 -1.0356
 4177SOL     OW23992   0.749   3.859   5.906  0.1000  0.1028  0.3653
 4177SOL    HW123993   0.657   3.839   5.891  0.4336 -0.2314 -1.2609
 4177SOL    HW223994   0.793   3.787   5.860  1.2905 -0.3865  2.2476
 4178SOL     OW23995   3.410   3.828   4.600 -0.3326 -0.1189 -0.0269
 4178SOL    HW123996   3.361   3.760   4.553 -0.4449 -0.9611  1.3244
 4178SOL    HW223997   3.349   3.901   4.591  0.3524  0.7464  2.4246
 4179SOL     OW23998   1.878   0.668   2.725 -0.3967 -0.4200 -0.2831
 4179SOL    HW123999   1.800   0.638   2.773 -0.0152 -0.4749  0.3022
 4179SOL    HW224000   1.913   0.741   2.775  1.6488 -1.0305 -0.8290
 4180SOL     OW24001   1.305   0.997  15.982  0.3411 -0.8793 -0.0394
 4180SOL    HW124002   1.352   1.078  16.002  1.4576 -1.3463 -0.7597
 4180SOL    HW224003   1.236   1.011  16.047  1.2350  0.2397  0.6853
 4181SOL     OW24004   0.425   1.055   2.452  0.1267 -0.6082 -0.9684
 4181SOL    HW124005   0.394   1.096   2.532  1.0209 -1.6161 -0.1110
 4181SOL    HW224006   0.487   1.117   2.415  0.1675 -0.1082 -0.0427
 4182SOL     OW24007   0.986   3.872   2.640  0.3002  0.1097 -1.0628
 4182SOL    HW124008   0.971   3.853   2.548 -2.2040 -1.0258 -0.4037
 4182SOL    HW224009   1.052   3.942   2.647  1.3392 -1.4036  4.1994
 4183SOL     OW24010   3.658   4.375   0.444 -0.1417  0.0312 -0.0012
 4183SOL    HW124011   3.733   4.337   0.397  0.5164  0.3973  0.7747
 4183SOL    HW224012   3.600   4.298   0.453 -1.2586  0.3624 -4.1516
 4184SOL     OW24013   2.088   4.366   4.498  0.0659  0.3840 -0.0062
 4184SOL    HW124014   2.172   4.339   4.536 -1.2963 -1.4325  1.6719
 4184SOL    HW224015   2.046   4.280   4.497  1.5300 -0.2998 -1.8138
 4185SOL     OW24016   0.789   4.531   1.986  0.1047  0.3680  0.1247
 4185SOL    HW124017   0.734   4.539   2.064  0.4762 -1.2284  0.5422
 4185SOL    HW224018   0.741   4.469   1.931  4.2564 -1.4685 -1.3388
 4186SOL     OW24019   1.311   0.666   6.513 -0.3180 -0.4466  0.7752
 4186SOL    HW124020   1.396   0.629   6.487 -1.4875 -0.6711 -2.8229
 4186SOL    HW224021   1.319   0.752   6.471  0.2048 -0.3412  1.0828
 4187SOL     OW24022   1.702   3.710   4.488  1.0255 -0.2574  0.3539
 4187SOL    HW124023   1.606   3.716   4.489  0.8661 -2.6127 -0.6413
 4187SOL    HW224024   1.732   3.795   4.455 -0.2947 -0.6108 -1.7876
 4188SOL     OW24025   2.978   0.658  13.926 -0.3598 -0.0123  0.1831
 4188SOL    HW124026   2.993   0.600  14.001 -1.3258 -0.3832  0.0911
 4188SOL    HW224027   3.044   0.618  13.869 -0.3070 -0.9003  0.8735
 4189SOL     OW24028   4.084   3.509  16.698 -0.5788 -0.7187  0.3088
 4189SOL    HW124029   4.077   3.605  16.704  0.3998 -0.5093 -2.0473
 4189SOL    HW224030   4.028   3.492  16.623 -1.3339  2.9498  0.0200
 4190SOL     OW24031   2.544   0.863  13.334 -0.2675 -0.2118 -0.2181
 4190SOL    HW124032   2.556   0.956  13.350 -2.0514 -0.0901  0.3792
 4190SOL    HW224033   2.565   0.869  13.241 -0.9251  0.6205 -0.3074
 4191SOL     OW24034   1.950   4.368  11.967 -0.3997 -0.0880  0.3697
 4191SOL    HW124035   1.887   4.438  11.951  2.1219  1.6081 -2.0302
 4191SOL    HW224036   1.976   4.389  12.056  0.0812 -2.5536  0.8176
 4192SOL     OW24037   4.610   1.287   7.631  0.4236 -0.0426  0.1115
 4192SOL    HW124038   4.645   1.369   7.596  0.4869 -0.1170 -0.0012
 4192SOL    HW224039   4.676   1.267   7.697  0.0177 -1.9695 -0.0596
 4193SOL     OW24040   3.973   3.241  11.178 -0.1541 -0.5813  0.0908
 4193SOL    HW124041   4.050   3.267  11.128  0.3237  0.5005  1.3924
 4193SOL    HW224042   3.905   3.241  11.111  1.9567 -1.4410 -2.0858
 4194SOL     OW24043   0.661   1.119  12.623 -0.2785 -0.2914 -0.2540
 4194SOL    HW124044   0.617   1.202  12.602  0.7722  0.7800  1.8065
 4194SOL    HW224045   0.595   1.051  12.619 -2.2470  1.6245 -0.4537
 4195SOL     OW24046   0.640   0.700   5.096  0.2624  0.0312  0.1785
 4195SOL    HW124047   0.606   0.736   5.177 -0.6758 -2.0228  0.7095
 4195SOL    HW224048   0.713   0.652   5.134  0.9346 -0.1341 -1.3010
 4196SOL     OW24049   4.515   0.361   0.811 -0.1978  0.1081  0.6763
 4196SOL    HW124050   4.522   0.272   0.775 -2.2605  0.9024 -1.7118
 4196SOL    HW224051   4.434   0.389   0.768 -0.3446  0.8584  1.4410
 4197SOL     OW24052   4.696   1.475   1.918 -0.1347 -0.0228 -0.5755
 4197SOL    HW124053   4.606   1.457   1.892 -0.5728  0.6878  0.4565
 4197SOL    HW224054   4.689   1.511   2.006 -0.0020  0.5313 -0.7895
 4198SOL     OW24055   1.538   1.567   7.522  0.2284 -0.2760  0.6025
 4198SOL    HW124056   1.579   1.595   7.441 -0.0955 -1.1535  0.1273
 4198SOL    HW224057   1.582   1.482   7.523 -1.0100 -0.9204  0.9734
 4199SOL     OW24058   2.428   1.013   4.431  0.3476  0.6810  0.1303
 4199SOL    HW124059   2.419   1.082   4.497 -2.0060 -0.6469  1.2219
 4199SOL    HW224060   2.501   1.055   4.386  0.5087  1.3402  1.0103
 4200SOL     OW24061   1.998   0.398   9.054  0.1847 -0.1178 -0.0760
 4200SOL    HW124062   1.982   0.491   9.066  0.7868  0.4535 -3.9531
 4200SOL    HW224063   1.924   0.355   9.099 -0.9284  0.8282 -1.0083
 4201SOL     OW24064   1.358   0.336   0.435  0.3089 -0.1715  0.3137
 4201SOL    HW124065   1.407   0.255   0.450  0.7723 -0.4328 -2.6112
 4201SOL    HW224066   1.293   0.311   0.370  1.8917  0.5853 -1.5726
 4202SOL     OW24067   1.342   4.143   3.052 -0.2901 -0.2881 -0.2809
 4202SOL    HW124068   1.281   4.095   2.996 -0.2566 -0.6295 -0.0240
 4202SOL    HW224069   1.389   4.202   2.992 -1.0575 -2.2617 -2.8005
 4203SOL     OW24070   2.996   3.157   3.846 -0.3346  0.0560 -0.1910
 4203SOL    HW124071   2.960   3.189   3.929  0.3794 -0.9676  0.5200
 4203SOL    HW224072   2.921   3.171   3.788  1.2221 -0.5354 -2.3499
 4204SOL     OW24073   3.246   0.078  10.409 -0.5390  0.0901 -0.0409
 4204SOL    HW124074   3.160   0.045  10.383  0.6689 -1.9140 -1.5220
 4204SOL    HW224075   3.253   0.069  10.504  0.0399 -0.7917 -0.1671
 4205SOL     OW24076   3.077   0.452  14.111 -0.2161 -0.0578  0.0628
 4205SOL    HW124077   3.077   0.387  14.182  2.0698  1.0555  1.0681
 4205SOL    HW224078   3.003   0.418  14.061  0.5500 -2.3148  0.4566
 4206SOL     OW24079   0.388   0.824   2.709  0.2081 -0.6108  0.6382
 4206SOL    HW124080   0.365   0.880   2.635  0.2641  0.4414  1.4066
 4206SOL    HW224081   0.318   0.760   2.721 -1.5077  1.7420  3.3059
 4207SOL     OW24082   4.518   2.119   6.750 -0.5454 -0.1489 -0.2959
 4207SOL    HW124083   4.571   2.054   6.795 -1.3443 -1.3409 -1.0823
 4207SOL    HW224084   4.464   2.057   6.702  0.9295 -0.6132 -1.3652
 4208SOL     OW24085   1.515   0.694   4.096  0.3272 -0.3981  0.2773
 4208SOL    HW124086   1.596   0.658   4.060  0.0379 -2.1129  1.3898
 4208SOL    HW224087   1.457   0.683   4.021 -1.8565 -1.6425  2.1627
 4209SOL     OW24088   4.098   0.792   8.106 -0.0586 -0.5485  0.0242
 4209SOL    HW124089   4.119   0.796   8.012 -0.7704 -1.6256 -0.1723
 4209SOL    HW224090   4.019   0.845   8.116 -0.3007 -0.9744  0.3522
 4210SOL     OW24091   3.911   3.303  10.158  0.1057  0.3485 -0.0781
 4210SOL    HW124092   3.836   3.305  10.097  1.1095  1.3160 -1.2923
 4210SOL    HW224093   3.941   3.394  10.162  0.0763  0.4382 -1.5698
 4211SOL     OW24094   4.196   2.621  12.204  0.2372 -0.1643 -0.4556
 4211SOL    HW124095   4.122   2.566  12.228 -0.3000  1.3118  1.2626
 4211SOL    HW224096   4.258   2.589  12.269  1.8267  3.0905 -0.3809
 4212SOL     OW24097   0.802   1.539   8.887 -0.2644 -0.5119  0.1289
 4212SOL    HW124098   0.895   1.540   8.907 -0.0938  5.5070 -0.8863
 4212SOL    HW224099   0.783   1.450   8.916 -0.3567 -0.4112  0.3720
 4213SOL     OW24100   2.140   2.957   6.304  1.0268 -0.1189  0.2853
 4213SOL    HW124101   2.199   3.021   6.344 -0.0378  1.7905 -1.2054
 4213SOL    HW224102   2.134   2.999   6.218  0.8253 -0.0729  0.3220
 4214SOL     OW24103   1.034   1.005  12.386 -0.1486 -0.0268 -0.2603
 4214SOL    HW124104   0.977   1.069  12.429  0.3172 -0.7448  1.4281
 4214SOL    HW224105   0.995   1.008  12.299  1.0220  0.1557 -0.7792
 4215SOL     OW24106   1.694   4.145   5.404  0.2180 -0.1934 -0.2992
 4215SOL    HW124107   1.653   4.170   5.487 -1.3406 -1.5117 -0.6503
 4215SOL    HW224108   1.768   4.086   5.414 -0.5911 -1.5189 -2.1874
 4216SOL     OW24109   3.095   1.288  15.969 -0.1062  0.5965  0.1091
 4216SOL    HW124110   3.003   1.263  15.968 -0.0959  0.5037  1.9868
 4216SOL    HW224111   3.137   1.215  16.015 -2.5940 -0.9960 -0.1891
 4217SOL     OW24112   0.294   2.992   5.121 -0.1984  0.3479  0.0882
 4217SOL    HW124113   0.272   2.901   5.144  2.0340  0.8628  4.3531
 4217SOL    HW224114   0.356   3.009   5.192  2.1824  2.6366 -2.5421
 4218SOL     OW24115   0.357   1.608  17.624 -0.2783 -0.2453  0.2209
 4218SOL    HW124116   0.386   1.672  17.559  0.3383  0.0032  0.7344
 4218SOL    HW224117   0.327   1.665   0.009  0.0879 -2.7723  2.4190
 4219SOL     OW24118   4.522   0.572   8.145  0.0358  0.0214 -0.4153
 4219SOL    HW124119   4.446   0.516   8.128  0.4077  0.0610 -2.1845
 4219SOL    HW224120   4.529   0.564   8.240 -0.1770  0.3475 -0.3702
 4220SOL     OW24121   3.210   0.069  11.084  0.5426 -0.1149 -0.7590
 4220SOL    HW124122   3.198   0.149  11.033 -1.5380 -1.5352 -2.4770
 4220SOL    HW224123   3.121   0.033  11.088  0.2006  1.1094  3.1155
 4221SOL     OW24124   3.465   4.527   8.926  0.2086 -0.1200  0.0662
 4221SOL    HW124125   3.496   4.440   8.905 -0.0509 -0.3071  0.4504
 4221SOL    HW224126   3.517   4.549   9.004  1.7398 -2.1923 -0.3810
 4222SOL     OW24127   4.555   3.040  13.455  0.6794 -0.0571  0.1054
 4222SOL    HW124128   4.501   2.999  13.523 -0.0767  0.5026 -0.1585
 4222SOL    HW224129   4.540   2.972  13.389 -1.9203 -0.8557  1.5169
 4223SOL     OW24130   1.221   1.800   9.344 -0.0856  0.3017 -0.1613
 4223SOL    HW124131   1.243   1.714   9.308 -2.1878 -0.8506  1.2486
 4223SOL    HW224132   1.299   1.854   9.339 -0.6062  1.1985  1.4132
 4224SOL     OW24133   2.073   0.513   2.589  0.1782  0.3869 -0.2582
 4224SOL    HW124134   2.018   0.476   2.520  1.7662 -1.4228 -0.5361
 4224SOL    HW224135   2.015   0.581   2.622 -1.9742 -0.2114 -2.8249
 4225SOL     OW24136   3.848   0.034  14.663 -0.0729 -0.5128 -0.1526
 4225SOL    HW124137   3.785   0.065  14.598 -1.1362  0.3813  1.2908
 4225SOL    HW224138   3.785   4.696  14.707 -1.0552 -0.6312 -1.7152
 4226SOL     OW24139   0.425   1.984   8.932 -0.4203 -0.1528 -0.2962
 4226SOL    HW124140   0.392   2.028   9.010  0.8915 -1.2379  0.8636
 4226SOL    HW224141   0.489   2.046   8.897  1.5440 -1.7414  0.4838
 4227SOL     OW24142   2.774   2.474   5.409  0.1811 -0.1544  0.3353
 4227SOL    HW124143   2.697   2.424   5.382 -0.9577  1.7258  0.0546
 4227SOL    HW224144   2.851   2.421   5.390  0.0822  0.7273 -2.5609
 4228SOL     OW24145   4.633   1.029   3.541  0.0119 -0.0022  0.1676
 4228SOL    HW124146   4.619   0.999   3.631 -2.3766  2.2476  0.5611
 4228SOL    HW224147   4.564   1.094   3.533 -0.5312 -0.4521  1.1938
 4229SOL     OW24148   0.254   0.591   7.683 -0.0149 -0.2943 -0.2565
 4229SOL    HW124149   0.207   0.670   7.656  0.1616 -0.1874 -0.2512
 4229SOL    HW224150   0.287   0.625   7.766 -0.6321  1.0033 -0.5414
 4230SOL     OW24151   2.401   4.720   5.238 -0.2175  0.1864 -0.2174
 4230SOL    HW124152   2.372   4.700   5.327 -1.0708  2.2651 -0.0416
 4230SOL    HW224153   2.331   0.059   5.213 -1.4826 -0.5366  1.6409
 4231SOL     OW24154   0.220   4.075   1.302  0.4594 -0.0456  0.5012
 4231SOL    HW124155   0.204   4.010   1.233  2.6824  1.1465 -1.1493
 4231SOL    HW224156   0.153   4.056   1.367 -0.5164  1.0441 -0.1817
 4232SOL     OW24157   3.894   3.706   2.930 -0.0096 -0.2396 -0.2787
 4232SOL    HW124158   3.895   3.752   2.846 -0.6569  3.9087  2.0173
 4232SOL    HW224159   3.977   3.737   2.968 -0.7187  0.5265  0.6471
 4233SOL     OW24160   0.436   0.792  11.453 -0.6557 -0.4272  0.1346
 4233SOL    HW124161   0.364   0.849  11.482 -1.5609 -0.6054 -1.7296
 4233SOL    HW224162   0.520   0.811  11.493 -0.7134 -1.3378  0.6850
 4234SOL     OW24163   0.654   1.508   0.185 -0.2585 -0.0132 -0.4254
 4234SOL    HW124164   0.589   1.578   0.175 -0.9200 -0.6912 -0.9089
 4234SOL    HW224165   0.629   1.467   0.268 -1.5163 -0.1554 -0.8634
 4235SOL     OW24166   3.599   2.331  11.208  0.2167 -0.5509  1.0564
 4235SOL    HW124167   3.509   2.358  11.222  0.5252 -0.1198  2.1609
 4235SOL    HW224168   3.648   2.410  11.229  0.7263 -0.4819 -0.3527
 4236SOL     OW24169   2.089   2.957   7.376 -0.3497 -0.6069  0.2547
 4236SOL    HW124170   2.098   2.868   7.410 -1.2431 -0.0313  1.9952
 4236SOL    HW224171   2.149   2.954   7.302 -0.0298 -0.1202  0.4968
 4237SOL     OW24172   0.944   1.615   1.308 -0.1451 -0.2895  0.1674
 4237SOL    HW124173   0.904   1.584   1.389 -1.5290  0.7415 -0.1299
 4237SOL    HW224174   0.870   1.611   1.248 -0.2433  1.6198  0.1636
 4238SOL     OW24175   1.213   4.301   2.133 -0.1577  0.0212  0.1666
 4238SOL    HW124176   1.230   4.370   2.197  1.7144  0.8954 -1.2749
 4238SOL    HW224177   1.170   4.355   2.066 -0.3697  0.9990  1.0960
 4239SOL     OW24178   1.498   1.204   4.898 -0.5929 -0.0024 -0.0474
 4239SOL    HW124179   1.509   1.293   4.934  1.1135 -0.7352  1.2686
 4239SOL    HW224180   1.573   1.204   4.838 -0.4862 -0.0138  0.0829
 4240SOL     OW24181   0.077   2.582   1.994  0.2971 -0.3811 -0.1599
 4240SOL    HW124182   0.055   2.641   2.065  3.5873  0.3743  0.2461
 4240SOL    HW224183   0.079   2.641   1.918  3.4315 -2.0626 -1.4045
 4241SOL     OW24184   3.941   2.252  10.459 -0.2997 -0.4234 -0.4840
 4241SOL    HW124185   3.854   2.241  10.421 -0.8570  0.4582  0.5411
 4241SOL    HW224186   3.994   2.215  10.389 -0.4236 -0.5916 -0.4897
 4242SOL     OW24187   2.994   4.570  11.548 -0.0389 -0.1455  0.0159
 4242SOL    HW124188   2.967   4.505  11.612  1.4281 -2.7337 -2.0010
 4242SOL    HW224189   2.919   4.567  11.488 -0.9124  2.7675  0.9446
 4243SOL     OW24190   2.465   3.775   5.411 -0.0711 -0.1662  0.1647
 4243SOL    HW124191   2.502   3.827   5.338 -0.8323  1.5896  1.0279
 4243SOL    HW224192   2.501   3.687   5.405  0.6081  0.1862 -1.1759
 4244SOL     OW24193   2.681   1.546  10.517  0.1376 -0.0271 -0.5966
 4244SOL    HW124194   2.692   1.538  10.423 -0.5621 -1.1379 -0.5842
 4244SOL    HW224195   2.733   1.470  10.545 -1.3709 -1.3723 -1.4466
 4245SOL     OW24196   4.131   0.277  14.428 -0.1656 -0.0217 -0.0934
 4245SOL    HW124197   4.212   0.263  14.379 -0.8360  0.0069 -1.2023
 4245SOL    HW224198   4.155   0.347  14.488 -0.2366 -2.0884  2.3439
 4246SOL     OW24199   0.415   0.213   1.826 -0.3036 -0.0390 -0.0240
 4246SOL    HW124200   0.451   0.146   1.767  0.8164  1.1228 -0.6687
 4246SOL    HW224201   0.385   0.279   1.764  1.6745  2.7129  1.9738
 4247SOL     OW24202   3.458   3.884   8.812 -0.4912  0.5484 -0.3760
 4247SOL    HW124203   3.429   3.793   8.821  1.5818  0.0270  0.8604
 4247SOL    HW224204   3.392   3.930   8.865 -2.1643 -2.4609  0.1314
 4248SOL     OW24205   2.456   0.826   0.532 -0.0713  0.5333 -0.3451
 4248SOL    HW124206   2.412   0.816   0.448  1.0583 -2.8567 -0.5398
 4248SOL    HW224207   2.500   0.742   0.541  2.4547  1.6707 -2.3229
 4249SOL     OW24208   2.639   4.188   2.033 -0.1033 -0.2625 -0.6497
 4249SOL    HW124209   2.603   4.180   2.122 -2.3259 -0.7017 -1.5916
 4249SOL    HW224210   2.655   4.282   2.035  1.2772 -0.5125  0.1038
 4250SOL     OW24211   2.663   4.107   7.886  0.5961  0.8849 -0.1007
 4250SOL    HW124212   2.756   4.090   7.897  0.2771 -1.0048 -0.2643
 4250SOL    HW224213   2.631   4.087   7.974 -0.6453 -0.2527 -0.8048
 4251SOL     OW24214   0.722   1.452   4.408  0.1526 -0.1045  0.0432
 4251SOL    HW124215   0.769   1.384   4.361  0.4191  1.6914 -2.3065
 4251SOL    HW224216   0.785   1.483   4.473 -0.8047 -0.4335  1.1349
 4252SOL     OW24217   4.434   1.979   9.320  0.7932 -0.1570  0.1795
 4252SOL    HW124218   4.374   2.046   9.352 -0.8479 -2.4415  1.8301
 4252SOL    HW224219   4.513   2.033   9.320  1.4534 -1.1366 -0.6489
 4253SOL     OW24220   2.635   0.138   2.815  0.0659  0.5005  0.2239
 4253SOL    HW124221   2.564   0.199   2.833 -1.5440 -0.9232 -1.3193
 4253SOL    HW224222   2.608   0.092   2.736 -0.0888 -0.3843  0.8006
 4254SOL     OW24223   2.731   3.268   7.787  0.1472  0.0378 -0.7284
 4254SOL    HW124224   2.723   3.265   7.882  0.6519 -0.9670 -0.7131
 4254SOL    HW224225   2.736   3.362   7.771  1.4105 -0.0385 -0.7993
 4255SOL     OW24226   1.947   0.944  16.101 -0.1317  0.0851 -0.0151
 4255SOL    HW124227   2.026   0.929  16.049 -0.3103 -0.8021 -0.0356
 4255SOL    HW224228   1.987   1.014  16.152 -0.3402  0.2674 -0.1033
 4256SOL     OW24229   3.480   4.569  10.237 -0.6528  0.1336  0.1923
 4256SOL    HW124230   3.507   4.601  10.323  0.0590 -0.6973  0.2817
 4256SOL    HW224231   3.555   4.602  10.187 -0.2645  1.4642  1.6442
 4257SOL     OW24232   2.433   4.204   4.027  0.0133 -0.5015 -0.4341
 4257SOL    HW124233   2.478   4.140   4.081 -1.4830 -0.7303  0.5652
 4257SOL    HW224234   2.371   4.152   3.975  0.8310 -1.0068 -0.8930
 4258SOL     OW24235   2.620   1.597  11.980 -0.0433  0.3920  0.4653
 4258SOL    HW124236   2.568   1.590  12.060  0.0807  0.3774  0.5452
 4258SOL    HW224237   2.592   1.681  11.942  0.2350  0.0474 -0.4915
 4259SOL     OW24238   3.752   1.612   2.817 -0.0966 -0.1915 -0.2878
 4259SOL    HW124239   3.785   1.694   2.780 -2.0737 -0.0475 -1.6897
 4259SOL    HW224240   3.660   1.632   2.831 -0.2031 -1.5415  1.0109
 4260SOL     OW24241   3.418   2.021   6.790  0.1241  0.4928  0.5160
 4260SOL    HW124242   3.451   1.995   6.703  0.1793  0.6054  0.5031
 4260SOL    HW224243   3.503   2.040   6.830  0.2830  1.6365 -0.3288
 4261SOL     OW24244   2.482   3.894   4.055 -0.1703 -0.3192  0.0572
 4261SOL    HW124245   2.404   3.894   4.111 -0.5710  0.6780 -0.4971
 4261SOL    HW224246   2.512   3.803   4.051 -1.5341 -0.8326  1.6568
 4262SOL     OW24247   1.142   0.915   8.033  0.3399  0.2548  0.2853
 4262SOL    HW124248   1.120   0.847   8.097 -0.6853 -0.6299 -1.0166
 4262SOL    HW224249   1.232   0.932   8.060  0.6579  1.8737 -1.8024
 4263SOL     OW24250   3.465   0.363  13.543  0.6944 -0.4072 -0.2278
 4263SOL    HW124251   3.399   0.301  13.511 -1.0494  0.6447  1.3804
 4263SOL    HW224252   3.533   0.355  13.476  1.3839 -1.7700  0.6267
 4264SOL     OW24253   2.365   1.366   7.944 -0.1198  0.1445 -0.4166
 4264SOL    HW124254   2.304   1.440   7.951  2.6295  2.1505  1.9547
 4264SOL    HW224255   2.434   1.395   7.885 -0.4623  1.5278 -0.1334
 4265SOL     OW24256   1.257   0.477   7.848  0.2738 -0.1471 -0.1542
 4265SOL    HW124257   1.340   0.509   7.882  0.7501  0.2643 -1.7157
 4265SOL    HW224258   1.274   0.448   7.758  0.7726 -0.3405  0.0061
 4266SOL     OW24259   3.603   4.595   9.156  1.1900 -0.3082 -0.2926
 4266SOL    HW124260   3.627   4.648   9.232  0.6024  1.0453 -1.0532
 4266SOL    HW224261   3.670   4.527   9.163  0.2132 -1.3099 -0.6779
 4267SOL     OW24262   4.507   1.170   9.654  0.1366  0.3233  0.0457
 4267SOL    HW124263   4.479   1.259   9.635 -0.0878  0.2344 -0.0364
 4267SOL    HW224264   4.553   1.192   9.736  0.5450  0.8833 -0.3306
 4268SOL     OW24265   0.524   0.118   0.614 -0.2444 -0.1123 -0.3134
 4268SOL    HW124266   0.534   0.207   0.649  0.7535  0.0213 -0.9644
 4268SOL    HW224267   0.510   0.139   0.521  1.9539 -0.6408 -0.7564
 4269SOL     OW24268   0.135   3.295   7.400 -0.2892  0.1644  0.4981
 4269SOL    HW124269   0.092   3.381   7.401 -1.5910 -0.4848  0.4448
 4269SOL    HW224270   0.215   3.322   7.444 -0.7120  2.2785 -0.0409
 4270SOL     OW24271   1.020   2.695   6.156  0.1735 -0.2990 -0.3416
 4270SOL    HW124272   1.112   2.721   6.149  0.2004  0.0852  1.4488
 4270SOL    HW224273   0.989   2.773   6.203 -0.0072 -0.0300 -0.9064
 4271SOL     OW24274   1.774   1.443   9.447 -0.4036 -0.3036 -0.0182
 4271SOL    HW124275   1.763   1.477   9.536 -0.0716 -2.1310  0.7238
 4271SOL    HW224276   1.721   1.363   9.448 -0.4307 -0.2603  1.8671
 4272SOL     OW24277   0.908   4.132  16.836  0.0818 -0.3040 -0.3033
 4272SOL    HW124278   0.857   4.212  16.839 -1.8982 -1.5807 -0.1505
 4272SOL    HW224279   0.988   4.155  16.788 -0.6976  0.5098 -1.2129
 4273SOL     OW24280   2.085   1.468  12.332 -0.5594  0.4310 -0.5127
 4273SOL    HW124281   2.027   1.542  12.311 -0.0994  0.9324 -0.0132
 4273SOL    HW224282   2.062   1.457  12.424  0.5869 -0.4806 -0.3492
 4274SOL     OW24283   0.057   3.369   2.042 -0.8228  0.3966  0.3726
 4274SOL    HW124284   0.119   3.303   2.011  0.4273  0.8046  1.9919
 4274SOL    HW224285   0.008   3.329   2.114 -3.4204  2.3568 -0.2697
 4275SOL     OW24286   3.537   0.692   8.479  0.1135 -0.2756  0.1612
 4275SOL    HW124287   3.564   0.622   8.538 -1.5322 -1.0654 -0.0236
 4275SOL    HW224288   3.459   0.722   8.525  0.4747  1.2009 -0.1655
 4276SOL     OW24289   1.771   0.741  17.108 -0.1853 -0.0873  0.2749
 4276SOL    HW124290   1.719   0.780  17.037 -0.9152  0.5652  1.1700
 4276SOL    HW224291   1.712   0.759  17.181  0.2202  0.5772  0.4375
 4277SOL     OW24292   2.731   2.307  15.408 -0.0987 -0.5344  0.0015
 4277SOL    HW124293   2.768   2.347  15.487 -0.3879  0.9454 -0.6050
 4277SOL    HW224294   2.641   2.329  15.433  0.7744  3.1838 -0.1346
 4278SOL     OW24295   0.302   2.113   3.513 -0.5752  0.2804 -0.2902
 4278SOL    HW124296   0.268   2.185   3.567 -0.7059 -0.6179  0.8274
 4278SOL    HW224297   0.234   2.100   3.447 -0.7580  0.1746 -0.0823
 4279SOL     OW24298   3.208   2.501   5.251 -0.1646  0.0904  0.1605
 4279SOL    HW124299   3.217   2.587   5.291  1.7144 -0.1763  0.2976
 4279SOL    HW224300   3.282   2.509   5.190  0.4206 -1.3195  0.6635
 4280SOL     OW24301   0.075   1.853   7.913 -0.5182 -0.4485 -0.1371
 4280SOL    HW124302   0.068   1.761   7.938  2.6265 -0.6101  0.1092
 4280SOL    HW224303   4.719   1.878   7.963 -0.5010 -1.1109  0.2134
 4281SOL     OW24304   1.080   3.691   5.090  0.1785  0.0279 -0.7566
 4281SOL    HW124305   1.042   3.759   5.145  1.7420  0.5368 -0.3181
 4281SOL    HW224306   1.159   3.674   5.142  0.0129 -0.5080 -0.6704
 4282SOL     OW24307   3.393   4.367  11.348  0.2042 -0.2776 -0.2094
 4282SOL    HW124308   3.340   4.447  11.353  3.2076  1.7242 -0.2305
 4282SOL    HW224309   3.366   4.325  11.266 -0.9749 -0.0721  0.0690
 4283SOL     OW24310   3.821   2.572   2.529  0.2078  0.0257  0.5905
 4283SOL    HW124311   3.790   2.613   2.610 -1.7886 -0.7538  0.2235
 4283SOL    HW224312   3.852   2.486   2.557 -0.1284 -0.9087 -1.8703
 4284SOL     OW24313   0.127   4.259  10.512 -0.0664  0.1242 -0.0293
 4284SOL    HW124314   0.118   4.225  10.601  0.4701 -2.0735 -0.8094
 4284SOL    HW224315   0.043   4.225  10.481  0.3720 -1.6870  0.7559
 4285SOL     OW24316   2.429   0.996   5.154 -0.1656 -0.3881 -0.4613
 4285SOL    HW124317   2.365   1.040   5.211 -0.6955 -1.6283 -0.0860
 4285SOL    HW224318   2.397   0.905   5.160 -0.9806 -0.0889 -0.2320
 4286SOL     OW24319   2.088   2.818   9.522  0.1084  0.4270  0.4649
 4286SOL    HW124320   2.048   2.836   9.608 -2.0241  1.3882 -0.7195
 4286SOL    HW224321   2.171   2.778   9.548  0.0208 -0.9511 -1.3776
 4287SOL     OW24322   3.110   0.389   4.735  0.1896  0.1333  0.3826
 4287SOL    HW124323   3.090   0.357   4.648  1.6372 -0.4304  0.2573
 4287SOL    HW224324   3.205   0.397   4.749  0.4734  1.1562 -2.2324
 4288SOL     OW24325   2.913   2.575   9.114 -0.4005 -0.0077  0.3056
 4288SOL    HW124326   2.927   2.481   9.108  1.3567  0.3268 -0.7806
 4288SOL    HW224327   2.933   2.584   9.207  0.2187 -0.3866  0.2126
 4289SOL     OW24328   0.626   3.350   3.005  0.3317 -0.5773 -0.1395
 4289SOL    HW124329   0.683   3.419   2.971  0.7913 -1.2100 -0.6797
 4289SOL    HW224330   0.678   3.271   2.989  0.4632 -1.1613  3.3265
 4290SOL     OW24331   2.148   3.614   7.855 -0.3796 -0.2180  0.5833
 4290SOL    HW124332   2.055   3.593   7.853 -0.5168  0.6498 -1.9721
 4290SOL    HW224333   2.147   3.706   7.879 -1.7889 -0.1740  0.3426
 4291SOL     OW24334   0.149   2.814  11.951  0.1437 -0.4310  0.0545
 4291SOL    HW124335   0.206   2.745  11.916  1.2452 -0.0432  1.0751
 4291SOL    HW224336   0.189   2.886  11.901  1.0134 -2.1890 -1.7725
 4292SOL     OW24337   1.979   2.789  17.534  0.3272  0.5278  0.2942
 4292SOL    HW124338   2.023   2.764  17.615 -1.1102 -0.5533  0.7353
 4292SOL    HW224339   2.048   2.821  17.476 -0.0590 -0.7253 -0.8502
 4293SOL     OW24340   3.764   1.396   3.687  0.0946 -0.0164 -0.4325
 4293SOL    HW124341   3.742   1.369   3.599 -0.6016 -1.3746  0.1636
 4293SOL    HW224342   3.675   1.399   3.721  1.1935  1.1672  2.4180
 4294SOL     OW24343   3.836   4.114  13.509 -0.3687 -0.1576  0.4653
 4294SOL    HW124344   3.903   4.144  13.448 -0.2043 -1.6748 -0.1093
 4294SOL    HW224345   3.840   4.180  13.578 -1.7805 -0.5898  0.9678
 4295SOL     OW24346   2.117   2.601   6.890  0.0872  0.2398 -0.4644
 4295SOL    HW124347   2.100   2.600   6.984  0.3858  0.9609 -0.4004
 4295SOL    HW224348   2.208   2.632   6.889  0.3856 -0.6947 -3.3651
 4296SOL     OW24349   1.640   4.554   3.837  0.0644 -0.4505  0.2614
 4296SOL    HW124350   1.677   4.466   3.846  0.5344 -0.3139 -0.3209
 4296SOL    HW224351   1.548   4.527   3.831 -0.1712  0.4693 -0.2648
 4297SOL     OW24352   3.162   3.098   2.644 -0.1804 -0.5944  0.1919
 4297SOL    HW124353   3.087   3.156   2.631  1.3290  1.5657  0.9226
 4297SOL    HW224354   3.186   3.137   2.729 -0.4640 -0.3192  0.1457
 4298SOL     OW24355   0.950   1.489   2.295 -0.0085  0.1154  0.1368
 4298SOL    HW124356   0.869   1.529   2.264 -1.5251 -2.8580  0.3156
 4298SOL    HW224357   1.022   1.498   2.233 -1.1230  0.0075 -1.1696
 4299SOL     OW24358   3.706   3.259   3.342  0.7393  0.3928 -0.4846
 4299SOL    HW124359   3.660   3.258   3.258 -0.8568  0.2752  0.3898
 4299SOL    HW224360   3.702   3.352   3.366  0.9948  0.3311 -0.1980
 4300SOL     OW24361   3.310   0.677  15.692  0.2771 -0.3978 -0.2397
 4300SOL    HW124362   3.383   0.656  15.751  0.7486  1.1013 -0.3003
 4300SOL    HW224363   3.240   0.634  15.741  0.8866 -0.9552  0.1566
 4301SOL     OW24364   2.316   0.032  13.131  0.2630 -0.3092  0.1298
 4301SOL    HW124365   2.326   0.112  13.183  0.2108  0.0139 -0.3490
 4301SOL    HW224366   2.409   0.011  13.135  0.7806  1.9157  0.1129
 4302SOL     OW24367   1.865   1.596   8.017  0.0804 -0.1703  0.2841
 4302SOL    HW124368   1.831   1.678   7.983 -0.4296  0.5250  2.5009
 4302SOL    HW224369   1.850   1.600   8.111  0.0038  0.9651  0.2209
 4303SOL     OW24370   0.044   0.653   0.900  0.0418  0.2025  0.6864
 4303SOL    HW124371   0.028   0.635   0.992  1.5538  0.2332  0.9682
 4303SOL    HW224372   0.134   0.686   0.909  0.1633 -0.2214  0.9875
 4304SOL     OW24373   4.287   2.753   2.958 -0.3709  0.3522 -0.0784
 4304SOL    HW124374   4.281   2.657   2.949  1.1273  0.3995 -1.5870
 4304SOL    HW224375   4.263   2.776   2.868 -0.0436  0.1522 -0.2164
 4305SOL     OW24376   4.252   2.672   3.702 -0.1433 -1.1483 -0.2365
 4305SOL    HW124377   4.156   2.665   3.705 -0.1962  0.4181  1.5034
 4305SOL    HW224378   4.268   2.644   3.612  0.7842 -2.5092  0.3592
 4306SOL     OW24379   2.912   2.925  16.403  0.1070  0.2474  0.5851
 4306SOL    HW124380   2.905   2.930  16.308 -0.1510  0.1954  0.5995
 4306SOL    HW224381   2.984   2.863  16.410 -0.6939 -0.9057 -1.4642
 4307SOL     OW24382   2.175   0.615   4.946 -0.2090 -0.1486 -0.2214
 4307SOL    HW124383   2.208   0.526   4.933  0.8624  0.2147 -0.0211
 4307SOL    HW224384   2.202   0.660   4.866 -0.5554 -0.3780 -0.4675
 4308SOL     OW24385   1.353   3.374   1.554 -0.0752 -0.4984 -0.3751
 4308SOL    HW124386   1.281   3.432   1.532 -0.6162 -1.6034 -1.5538
 4308SOL    HW224387   1.371   3.403   1.643  0.0893 -1.6863 -0.0200
 4309SOL     OW24388   0.350   3.888   3.581 -0.0345  0.4381  0.3752
 4309SOL    HW124389   0.278   3.885   3.519  1.7561 -0.5265 -1.6753
 4309SOL    HW224390   0.362   3.794   3.590 -0.0056  0.5904  1.8552
 4310SOL     OW24391   1.251   2.668   5.996  0.3741 -0.2111 -0.0115
 4310SOL    HW124392   1.167   2.646   5.956 -0.1028 -2.3145  2.1347
 4310SOL    HW224393   1.273   2.751   5.953  1.3660  0.7184  2.2753
 4311SOL     OW24394   0.873   0.733  12.646  0.2545 -0.0433 -0.0234
 4311SOL    HW124395   0.841   0.814  12.685  0.2971 -0.2108  0.3639
 4311SOL    HW224396   0.797   0.675  12.654  1.6501 -1.8575  0.1764
 4312SOL     OW24397   4.003   3.217  16.599  0.3599 -0.1845 -0.2347
 4312SOL    HW124398   3.983   3.224  16.506 -2.3790 -1.7150  0.2637
 4312SOL    HW224399   4.065   3.144  16.595  0.4552 -0.1046 -0.2388
 4313SOL     OW24400   0.224   2.962  13.339  0.0610  0.2104 -0.3716
 4313SOL    HW124401   0.227   3.050  13.301  0.9954  0.1615 -0.4137
 4313SOL    HW224402   0.302   2.920  13.302 -1.3861 -1.1556 -1.8363
 4314SOL     OW24403   1.257   4.597   3.894  0.0859  1.3301  0.2429
 4314SOL    HW124404   1.280   4.515   3.850  0.0838  1.9303 -0.8788
 4314SOL    HW224405   1.291   4.588   3.983  1.9531 -0.1113 -0.5943
 4315SOL     OW24406   4.405   4.235  10.235  0.0356 -0.4070 -0.4244
 4315SOL    HW124407   4.394   4.301  10.167  1.1685 -0.3052 -0.5140
 4315SOL    HW224408   4.481   4.269  10.283  0.8030 -0.3582 -1.6858
 4316SOL     OW24409   1.030   3.694   4.786 -0.2851  0.1120  0.3189
 4316SOL    HW124410   1.106   3.649   4.821  1.0741 -0.8945 -3.8660
 4316SOL    HW224411   0.976   3.709   4.864 -1.4627 -0.0499 -0.4498
 4317SOL     OW24412   0.464   1.253  16.072 -0.3723  0.3208  0.0438
 4317SOL    HW124413   0.376   1.231  16.103 -0.9981  1.3727 -0.9614
 4317SOL    HW224414   0.513   1.179  16.106  1.5571  1.5428 -0.0847
 4318SOL     OW24415   4.608   0.680  10.885  0.2664  0.0426  0.5195
 4318SOL    HW124416   4.696   0.701  10.914 -0.2666 -0.4245  2.4828
 4318SOL    HW224417   4.556   0.685  10.966 -0.0474  0.0114  0.3190
 4319SOL     OW24418   1.595   2.979   1.513 -0.3706 -0.2410  0.1151
 4319SOL    HW124419   1.672   2.923   1.499 -0.2535  0.0584 -0.4303
 4319SOL    HW224420   1.580   2.999   1.420 -0.1862  1.4686  0.4504
 4320SOL     OW24421   2.691   4.079   2.933 -0.4464  0.0069 -0.5364
 4320SOL    HW124422   2.676   4.023   2.856  0.5292 -0.0833 -0.6615
 4320SOL    HW224423   2.615   4.133   2.913 -1.4657 -0.1014  3.0598
 4321SOL     OW24424   4.193   2.768   2.222 -0.0221 -0.0000 -0.1159
 4321SOL    HW124425   4.182   2.673   2.230  2.2084 -0.3074 -0.4886
 4321SOL    HW224426   4.119   2.787   2.279 -1.0430 -1.0254 -1.1007
 4322SOL     OW24427   4.204   4.086   7.265 -0.4290  0.2109  0.7553
 4322SOL    HW124428   4.142   4.134   7.319 -0.1511  0.4472  0.8641
 4322SOL    HW224429   4.217   4.154   7.198  2.1195  0.4090  1.4320
 4323SOL     OW24430   2.397   2.975   2.433  0.2461 -0.0519  0.0385
 4323SOL    HW124431   2.410   3.066   2.407  2.0959 -1.3689 -3.6300
 4323SOL    HW224432   2.482   2.961   2.473  0.2834  0.5767  0.1739
 4324SOL     OW24433   2.599   2.518   8.384 -0.3278  0.2427 -0.1526
 4324SOL    HW124434   2.513   2.521   8.343 -0.9386  3.4442  1.3578
 4324SOL    HW224435   2.594   2.572   8.463 -2.0721  1.5870 -1.2044
 4325SOL     OW24436   1.721   2.735   0.156  0.4034 -0.1822 -0.1090
 4325SOL    HW124437   1.632   2.767   0.168 -0.0588 -1.3251 -0.4689
 4325SOL    HW224438   1.729   2.694   0.070  3.6234  1.5862 -0.6732
 4326SOL     OW24439   4.422   0.557   6.487  0.3051 -0.1638  0.6407
 4326SOL    HW124440   4.402   0.596   6.402 -0.2227 -2.6460 -0.3538
 4326SOL    HW224441   4.393   0.470   6.461  1.1966 -0.6639  1.3203
 4327SOL     OW24442   2.148   1.808   8.987  0.2064  0.6711  0.1705
 4327SOL    HW124443   2.079   1.870   8.960  0.5945  0.0853 -2.1593
 4327SOL    HW224444   2.197   1.792   8.907 -0.1260 -0.4701  0.2022
 4328SOL     OW24445   4.598   0.707   2.300 -0.1483 -0.4282  0.2096
 4328SOL    HW124446   4.513   0.723   2.260 -0.9661  0.0887  2.1189
 4328SOL    HW224447   4.613   0.622   2.261  1.7156 -0.2986  0.5966
 4329SOL     OW24448   0.466   1.416   2.969  0.0204  0.1716 -0.1490
 4329SOL    HW124449   0.503   1.500   2.997  0.3737  0.0192 -0.1627
 4329SOL    HW224450   0.550   1.370   2.962 -1.0707 -1.5085 -2.0167
 4330SOL     OW24451   2.329   1.336  12.527 -0.0069  0.5312  0.4156
 4330SOL    HW124452   2.237   1.313  12.513 -0.0423  0.5380  0.6318
 4330SOL    HW224453   2.355   1.388  12.451  2.0727 -0.6244  0.3550
 4331SOL     OW24454   3.121   3.933  10.014  0.0596  0.1639  0.3796
 4331SOL    HW124455   3.047   3.985   9.981 -1.1168 -1.5594  0.3196
 4331SOL    HW224456   3.166   3.935   9.929 -0.0806  0.7279  0.3178
 4332SOL     OW24457   2.347   1.698  16.058  0.2469  0.6960  0.5280
 4332SOL    HW124458   2.397   1.634  16.007 -0.8887  0.4147 -0.2194
 4332SOL    HW224459   2.275   1.638  16.077  0.1717  1.0637  1.4293
 4333SOL     OW24460   1.875   2.626   8.376 -0.3497 -0.3888 -0.4888
 4333SOL    HW124461   1.833   2.656   8.457 -1.9784 -1.9477 -0.7640
 4333SOL    HW224462   1.863   2.707   8.326  1.0829  1.1441  1.6234
 4334SOL     OW24463   2.310   2.297  12.746 -0.3973  0.1325  0.8137
 4334SOL    HW124464   2.281   2.347  12.823  1.9532  0.6420  1.3678
 4334SOL    HW224465   2.244   2.230  12.729 -0.6268  0.7948 -0.9161
 4335SOL     OW24466   0.874   4.577   7.248  0.0015 -0.0701 -0.2830
 4335SOL    HW124467   0.913   4.513   7.308 -2.4144 -1.2310  0.0480
 4335SOL    HW224468   0.955   4.586   7.198  0.5996  0.1576  0.7254
 4336SOL     OW24469   0.194   1.678  11.242 -0.9157  0.0565  0.3344
 4336SOL    HW124470   0.169   1.757  11.195 -1.5561 -0.1724  0.2837
 4336SOL    HW224471   0.137   1.608  11.208  1.4667 -1.8524  0.2503
 4337SOL     OW24472   3.758   3.371   8.721 -0.8179  0.1553 -0.1179
 4337SOL    HW124473   3.807   3.453   8.729  0.8954 -0.9869  1.2379
 4337SOL    HW224474   3.742   3.367   8.627 -2.0346 -1.3645  0.1540
 4338SOL     OW24475   1.525   0.881   3.766  0.2989  0.0012 -0.0359
 4338SOL    HW124476   1.457   0.830   3.809  0.3200 -1.1793 -1.3706
 4338SOL    HW224477   1.575   0.802   3.744 -1.2671 -0.7712 -0.8604
 4339SOL     OW24478   2.938   1.503   3.315  0.1165  0.0169  0.7027
 4339SOL    HW124479   2.913   1.594   3.331 -3.3367 -0.6154 -0.9959
 4339SOL    HW224480   2.854   1.457   3.309  0.8901 -1.1965 -0.6674
 4340SOL     OW24481   0.794   3.431  17.387 -0.1627  0.1543  0.0405
 4340SOL    HW124482   0.843   3.401  17.310 -0.3954  0.3376 -0.1765
 4340SOL    HW224483   0.831   3.516  17.410 -3.4083  1.3502  0.7727
 4341SOL     OW24484   4.666   2.423   5.620  0.2913 -0.3755 -0.3186
 4341SOL    HW124485   4.650   2.404   5.712  2.3092  0.0363  0.1012
 4341SOL    HW224486   4.581   2.465   5.605 -0.1287  0.2541  3.9075
 4342SOL     OW24487   2.607   2.744   5.528  0.0396 -0.5955  0.3674
 4342SOL    HW124488   2.594   2.670   5.469  0.7672 -0.8490  0.5301
 4342SOL    HW224489   2.660   2.700   5.594 -0.4182 -0.0778  1.0902
 4343SOL     OW24490   4.031   0.327   6.804 -0.1925 -0.2726  0.0646
 4343SOL    HW124491   4.042   0.422   6.814 -0.7694 -0.3392  1.4064
 4343SOL    HW224492   4.086   0.304   6.880  0.5855  0.0464 -0.4073
 4344SOL     OW24493   2.919   2.369   3.854  0.4236  0.6604  0.3627
 4344SOL    HW124494   3.010   2.339   3.853 -0.5763 -2.4970  2.6317
 4344SOL    HW224495   2.917   2.422   3.934  1.4177  0.5145  0.4889
 4345SOL     OW24496   1.498   4.011   5.857 -0.2090 -0.2834 -0.5113
 4345SOL    HW124497   1.463   3.990   5.944 -0.5137 -2.2696 -1.1058
 4345SOL    HW224498   1.593   4.000   5.861 -0.0085  1.7490 -0.0053
 4346SOL     OW24499   1.998   4.532   7.151 -0.0126  0.0808 -0.0495
 4346SOL    HW124500   1.997   4.475   7.229  0.4512  1.6190  1.0794
 4346SOL    HW224501   2.026   4.468   7.086  1.0596 -0.4122  0.8950
 4347SOL     OW24502   3.772   0.533   7.004 -0.5533  0.3133 -0.3206
 4347SOL    HW124503   3.689   0.553   7.048  0.3165  1.3234  0.8665
 4347SOL    HW224504   3.774   0.440   7.025 -0.7379  0.3024 -0.3470
 4348SOL     OW24505   4.520   1.793  17.197  0.0227 -0.3844 -0.2729
 4348SOL    HW124506   4.505   1.762  17.108  1.3567  0.1454 -0.6871
 4348SOL    HW224507   4.426   1.800  17.214  0.7126 -0.9831  3.7346
 4349SOL     OW24508   2.957   4.471   3.426 -0.3592 -0.5109 -0.2541
 4349SOL    HW124509   2.863   4.459   3.438 -0.1536 -1.3536  0.4832
 4349SOL    HW224510   2.989   4.420   3.352 -4.0343 -1.2621 -1.3321
 4350SOL     OW24511   2.327   4.286   3.177 -0.0437  0.3226 -0.2412
 4350SOL    HW124512   2.412   4.260   3.213  0.3951  2.1277  0.0698
 4350SOL    HW224513   2.308   4.362   3.234  0.5871  0.0390  0.3475
 4351SOL     OW24514   1.458   0.248  11.945 -0.1031  0.4737 -0.0392
 4351SOL    HW124515   1.423   0.213  11.863 -1.2350  1.6531 -0.0619
 4351SOL    HW224516   1.481   0.163  11.985  0.6989 -0.2005 -1.9623
 4352SOL     OW24517   3.628   2.975   4.967  0.5796 -0.0730  0.1944
 4352SOL    HW124518   3.707   2.981   4.913  0.3687 -1.5134 -0.2771
 4352SOL    HW224519   3.657   2.908   5.029  0.9461  0.4488  0.5780
 4353SOL     OW24520   2.495   0.354   9.179  0.2592 -0.4853  0.1670
 4353SOL    HW124521   2.431   0.318   9.118  0.8829  2.0363 -1.9332
 4353SOL    HW224522   2.568   0.306   9.140  0.7369  0.9802 -0.7303
 4354SOL     OW24523   1.378   3.792   8.528 -0.0777 -0.1622 -0.2769
 4354SOL    HW124524   1.303   3.801   8.586 -0.8816 -1.1364 -1.1505
 4354SOL    HW224525   1.420   3.873   8.557  1.9314 -1.5376  0.6423
 4355SOL     OW24526   2.199   3.361   8.441  0.2858 -0.3752 -0.4042
 4355SOL    HW124527   2.262   3.410   8.388 -1.4831  2.2711 -0.0727
 4355SOL    HW224528   2.220   3.399   8.527 -0.4709 -0.5714 -0.1262
 4356SOL     OW24529   0.958   2.560   7.193  0.0946  0.0106 -0.1154
 4356SOL    HW124530   0.894   2.532   7.259  0.5621 -0.1201  0.2790
 4356SOL    HW224531   1.006   2.629   7.239  0.4796 -0.6012  0.4060
 4357SOL     OW24532   0.771   2.263   6.237 -0.6725 -0.3724 -0.3664
 4357SOL    HW124533   0.848   2.312   6.208 -1.9618  2.7141  1.4416
 4357SOL    HW224534   0.719   2.334   6.275  0.5513 -0.3323  1.2286
 4358SOL     OW24535   0.724   4.696   5.458  0.0574 -0.6264 -0.3702
 4358SOL    HW124536   0.704   4.610   5.496  0.0653  0.9658  3.2374
 4358SOL    HW224537   0.814   4.689   5.426  0.1369  0.1663 -0.3272
 4359SOL     OW24538   2.599   4.456  14.347 -0.4234 -0.5610  0.6878
 4359SOL    HW124539   2.549   4.455  14.429  0.6027 -2.5276  1.2896
 4359SOL    HW224540   2.683   4.482  14.386 -0.5471  0.4830  0.2631
 4360SOL     OW24541   2.533   3.589  17.126  0.4436  0.1754  0.1717
 4360SOL    HW124542   2.459   3.646  17.148  0.3627  0.1986 -0.1589
 4360SOL    HW224543   2.591   3.594  17.202  0.2350  1.1528  0.2645
 4361SOL     OW24544   1.385   1.404   8.022 -0.0931 -0.0736 -0.0865
 4361SOL    HW124545   1.292   1.406   8.002  0.2210  0.3965 -1.4805
 4361SOL    HW224546   1.418   1.464   7.955 -0.0426 -0.1268 -0.1087
 4362SOL     OW24547   4.663   2.810  15.989 -0.3706  0.6413 -0.1424
 4362SOL    HW124548   4.700   2.816  16.077 -0.2528  2.3692 -0.3116
 4362SOL    HW224549   4.577   2.770  16.000  1.2510 -3.4235 -2.1481
 4363SOL     OW24550   1.400   0.561  13.549 -0.4293 -0.3096  0.1638
 4363SOL    HW124551   1.389   0.656  13.549 -2.2328 -0.5343  3.7380
 4363SOL    HW224552   1.451   0.555  13.629 -1.0432  0.0037  0.5782
 4364SOL     OW24553   1.119   3.599   6.655 -0.1833  0.3573  0.4571
 4364SOL    HW124554   1.107   3.561   6.742  0.5263 -0.0583  0.3779
 4364SOL    HW224555   1.138   3.522   6.601  1.4849 -0.5011  2.2832
 4365SOL     OW24556   4.488   4.414   7.366 -0.0470 -0.0080  0.6438
 4365SOL    HW124557   4.509   4.357   7.292 -0.8896  1.7553 -0.9343
 4365SOL    HW224558   4.505   4.499   7.326 -0.0119 -0.6570 -0.7149
 4366SOL     OW24559   0.331   0.462  17.283  0.3256  0.1024 -0.6341
 4366SOL    HW124560   0.280   0.436  17.206 -2.0223 -1.1003  1.3410
 4366SOL    HW224561   0.283   0.411  17.348  0.8152  0.7346  0.2224
 4367SOL     OW24562   2.503   3.093   7.999 -0.5666 -0.1019  0.2723
 4367SOL    HW124563   2.418   3.106   8.042 -0.7205  0.1197 -0.1024
 4367SOL    HW224564   2.531   3.007   8.032 -3.6675 -1.3568 -0.3621
 4368SOL     OW24565   2.297   1.372  11.526  0.2512 -0.8989  0.0742
 4368SOL    HW124566   2.333   1.383  11.438  1.3255 -2.1914  0.3483
 4368SOL    HW224567   2.347   1.437  11.576 -0.6331 -0.7976  0.8170
 4369SOL     OW24568   4.623   1.617  10.503 -0.7388  0.2544  0.0453
 4369SOL    HW124569   4.663   1.574  10.428  1.6098  0.0675  1.3952
 4369SOL    HW224570   4.631   1.543  10.564  0.5710  1.5198  1.3933
 4370SOL     OW24571   0.418   2.034   2.798  0.0157  0.0795 -0.4559
 4370SOL    HW124572   0.387   2.113   2.842 -0.0474 -0.2499  0.0912
 4370SOL    HW224573   0.353   1.975   2.837  1.1045 -0.3915  0.6430
 4371SOL     OW24574   1.204   4.514   7.722  0.3802  0.2088  0.6591
 4371SOL    HW124575   1.281   4.482   7.675 -2.0985 -1.1413 -2.4541
 4371SOL    HW224576   1.231   4.496   7.812  0.7295 -0.8821  0.3312
 4372SOL     OW24577   3.591   3.369   1.552 -0.7365 -0.7309 -0.0491
 4372SOL    HW124578   3.579   3.454   1.595  1.0541 -0.3140 -0.3420
 4372SOL    HW224579   3.563   3.307   1.619  2.0367 -1.7596  0.1559
 4373SOL     OW24580   1.648   0.603  16.795 -0.2353 -0.0896  0.0342
 4373SOL    HW124581   1.741   0.621  16.787 -0.2399  0.1368  0.5144
 4373SOL    HW224582   1.608   0.689  16.785  2.8725  1.1270 -1.7231
 4374SOL     OW24583   0.515   2.645   0.615  0.3770  0.3465 -0.3784
 4374SOL    HW124584   0.431   2.690   0.615  1.0149  1.5113  0.9968
 4374SOL    HW224585   0.523   2.639   0.520 -3.2422 -0.3765 -0.6332
 4375SOL     OW24586   1.422   2.991   5.366 -0.5040 -0.3333 -0.0250
 4375SOL    HW124587   1.508   3.032   5.355 -0.2794 -0.7423  0.2064
 4375SOL    HW224588   1.380   3.045   5.300  1.0878 -0.7001 -1.3321
 4376SOL     OW24589   1.833   0.490   9.358  0.3619  0.3191  0.1230
 4376SOL    HW124590   1.852   0.433   9.433 -0.8337 -1.5217 -0.9776
 4376SOL    HW224591   1.824   0.428   9.286 -1.5586  1.3857 -0.5402
 4377SOL     OW24592   3.131   3.655  11.756  0.2160 -0.3228 -0.6757
 4377SOL    HW124593   3.201   3.721  11.756 -0.1434  0.0443  2.6114
 4377SOL    HW224594   3.070   3.687  11.822  0.7024 -1.1533  0.1861
 4378SOL     OW24595   2.130   1.681  13.539  0.0739  0.6586 -0.3741
 4378SOL    HW124596   2.059   1.722  13.590 -0.6147  1.6824 -2.1383
 4378SOL    HW224597   2.188   1.660  13.612  2.9318  0.3659 -2.7389
 4379SOL     OW24598   1.734   4.204  12.767  0.0206 -0.1266  0.1190
 4379SOL    HW124599   1.823   4.225  12.740  0.1582  0.6356  1.1672
 4379SOL    HW224600   1.715   4.293  12.797 -0.3275 -0.5514  1.1786
 4380SOL     OW24601   1.403   2.548   4.343 -1.0436 -0.1888  0.0990
 4380SOL    HW124602   1.477   2.510   4.296 -0.6132  0.6336  0.1224
 4380SOL    HW224603   1.329   2.496   4.311 -0.4134 -1.6879  1.0852
 4381SOL     OW24604   0.277   4.396   7.592 -0.8529 -0.1192 -0.5500
 4381SOL    HW124605   0.184   4.412   7.609 -0.4057 -0.6395  2.4108
 4381SOL    HW224606   0.320   4.392   7.677 -1.2126  0.8952 -0.3122
 4382SOL     OW24607   0.831   3.306   4.389  0.0550  0.0318  0.2785
 4382SOL    HW124608   0.786   3.268   4.313  2.0606 -1.4192 -0.1833
 4382SOL    HW224609   0.799   3.396   4.380 -0.5126 -0.1804  0.1295
 4383SOL     OW24610   3.599   0.940   7.036  0.4232  0.4356 -0.6280
 4383SOL    HW124611   3.685   0.946   7.078  0.8111 -0.2551 -1.3107
 4383SOL    HW224612   3.599   1.028   6.999 -1.3851 -0.5200 -2.8823
 4384SOL     OW24613   0.773   2.710   4.360  0.0465  0.0342 -0.3476
 4384SOL    HW124614   0.798   2.799   4.384  1.4697 -0.6659  0.7236
 4384SOL    HW224615   0.680   2.719   4.340 -0.3054 -2.0180  0.2887
 4385SOL     OW24616   4.072   3.868   6.432 -0.2045  0.3947 -0.1389
 4385SOL    HW124617   4.084   3.861   6.527  2.1157  1.2167 -0.3514
 4385SOL    HW224618   4.023   3.789   6.409 -1.4489  0.9757  0.5515
 4386SOL     OW24619   0.532   0.351  11.634  0.1322  0.5359  0.1211
 4386SOL    HW124620   0.464   0.295  11.671  0.5722  1.6654  2.6800
 4386SOL    HW224621   0.505   0.368  11.544  2.3248 -1.1947 -0.8472
 4387SOL     OW24622   4.158   0.019   5.181  0.5449 -0.1769  0.0523
 4387SOL    HW124623   4.064   0.034   5.185  0.4493 -0.7487 -0.1529
 4387SOL    HW224624   4.160   4.678   5.108 -2.4609 -1.0665  0.7252
 4388SOL     OW24625   3.120   0.419  12.433 -0.0224 -0.2325  0.5044
 4388SOL    HW124626   3.120   0.354  12.364  0.1598 -0.2108  0.4829
 4388SOL    HW224627   3.030   0.447  12.418 -0.1239 -1.2941 -0.8682
 4389SOL     OW24628   4.164   0.677   0.308  0.1701 -0.2675 -0.8637
 4389SOL    HW124629   4.173   0.632   0.223 -1.7762  0.9089 -1.7014
 4389SOL    HW224630   4.132   0.607   0.364  0.7332  2.1497  2.4584
 4390SOL     OW24631   1.473   1.564   8.846 -0.6033 -0.0057  0.2970
 4390SOL    HW124632   1.488   1.488   8.902 -1.7818 -1.4401 -1.3248
 4390SOL    HW224633   1.391   1.546   8.799 -0.5773  1.5978 -0.3741
 4391SOL     OW24634   0.573   2.049  12.123  0.3795 -0.2667  0.1902
 4391SOL    HW124635   0.523   2.003  12.191  1.2036  0.5779  1.3634
 4391SOL    HW224636   0.618   2.115  12.175  1.5356 -0.9142  0.0060
 4392SOL     OW24637   0.090   0.654  15.949  0.1996 -0.5472 -0.1134
 4392SOL    HW124638   0.178   0.672  15.916  0.7300  0.0326  1.6215
 4392SOL    HW224639   0.088   0.697  16.034  2.7936 -0.6571 -0.0049
 4393SOL     OW24640   1.645   3.627  17.518  0.2357  0.2758  0.1933
 4393SOL    HW124641   1.695   3.636  17.599 -0.1610  1.0790  0.3480
 4393SOL    HW224642   1.624   3.533  17.523  2.3415 -0.2143 -0.4070
 4394SOL     OW24643   3.435   4.291   5.667  0.1683 -0.1037 -0.3132
 4394SOL    HW124644   3.401   4.206   5.641 -2.7909  0.9154  0.2395
 4394SOL    HW224645   3.385   4.345   5.607 -1.6576 -0.4340  0.8997
 4395SOL     OW24646   1.673   4.592   9.396  0.3776  0.3488 -0.6598
 4395SOL    HW124647   1.590   4.545   9.386  1.0262 -0.5322 -1.9115
 4395SOL    HW224648   1.689   4.635   9.312 -3.0923  2.4558 -0.2205
 4396SOL     OW24649   2.714   2.817  15.243  0.2762  0.5195 -0.6987
 4396SOL    HW124650   2.663   2.759  15.186 -0.7985  0.4631  0.3064
 4396SOL    HW224651   2.662   2.897  15.235  0.0610  0.5886  1.1854
 4397SOL     OW24652   3.156   3.883  10.317 -0.3835 -0.2811  0.2318
 4397SOL    HW124653   3.138   3.929  10.235 -0.8402 -1.3545 -0.2676
 4397SOL    HW224654   3.176   3.797  10.281 -0.3650 -0.1716 -0.0188
 4398SOL     OW24655   0.392   1.839   4.293 -0.0575 -0.3233 -0.0069
 4398SOL    HW124656   0.446   1.795   4.228  2.6170 -0.3334  2.2589
 4398SOL    HW224657   0.449   1.859   4.367  0.8166  0.2878 -0.8570
 4399SOL     OW24658   2.207   0.912  16.840 -0.6207 -0.0175 -0.3250
 4399SOL    HW124659   2.184   1.004  16.853 -1.4056 -0.5820  2.2391
 4399SOL    HW224660   2.143   0.876  16.901  0.6214 -0.5017  0.6935
 4400SOL     OW24661   0.905   0.514   0.760 -0.1713  0.0691  0.5134
 4400SOL    HW124662   0.832   0.493   0.702  0.2663  0.8270 -0.3204
 4400SOL    HW224663   0.892   0.608   0.771 -1.4965 -0.1824  1.0650
 4401SOL     OW24664   4.472   3.172   6.786 -0.0096  0.7130 -0.1505
 4401SOL    HW124665   4.387   3.129   6.785  1.0291 -1.2960 -0.6608
 4401SOL    HW224666   4.485   3.190   6.693 -1.8746 -0.0647 -0.5494
 4402SOL     OW24667   1.690   2.956   8.202  0.1963 -0.1167  0.9815
 4402SOL    HW124668   1.669   3.041   8.240 -1.9676  0.0824 -0.6370
 4402SOL    HW224669   1.603   2.921   8.221 -0.3264  0.5108 -0.2297
 4403SOL     OW24670   0.248   1.881  11.452  0.0224  0.2697  0.2547
 4403SOL    HW124671   0.160   1.848  11.468 -0.1980  0.8382  0.2118
 4403SOL    HW224672   0.282   1.815  11.391  1.8854  1.3187  0.1468
 4404SOL     OW24673   1.124   2.579   5.027 -0.0472  0.4555 -0.0812
 4404SOL    HW124674   1.135   2.489   5.059 -1.3241 -0.3175 -1.8336
 4404SOL    HW224675   1.089   2.619   5.107  2.4557 -0.4024  1.4520
 4405SOL     OW24676   3.841   1.611   5.312  0.4833  0.0085 -0.2998
 4405SOL    HW124677   3.828   1.620   5.217 -1.2907  1.2765  0.0783
 4405SOL    HW224678   3.881   1.693   5.340  2.8520  0.4554 -4.9934
 4406SOL     OW24679   1.929   2.580  11.179 -0.3485  0.0881  0.4832
 4406SOL    HW124680   1.991   2.531  11.232  0.1110  0.0604 -0.0828
 4406SOL    HW224681   1.848   2.557  11.225  0.5026  0.0982  1.9882
 4407SOL     OW24682   2.023   2.874   3.369  0.3112 -0.0699  0.0034
 4407SOL    HW124683   2.049   2.912   3.286 -0.8816 -2.6971 -1.5657
 4407SOL    HW224684   2.082   2.928   3.422 -0.6515  2.2405 -1.3058
 4408SOL     OW24685   0.556   3.391   3.812  0.1373 -0.6939 -0.3457
 4408SOL    HW124686   0.580   3.483   3.819 -1.4621 -0.3314  0.4887
 4408SOL    HW224687   0.462   3.391   3.829  0.1904 -0.9839 -0.0712
 4409SOL     OW24688   1.388   3.731   1.895  0.3117 -0.0052  0.5464
 4409SOL    HW124689   1.477   3.729   1.931  0.1998 -1.3350  0.7312
 4409SOL    HW224690   1.339   3.681   1.960  0.1914 -0.8232 -0.1801
 4410SOL     OW24691   2.780   3.896   2.039 -0.1277 -0.5688  0.4737
 4410SOL    HW124692   2.870   3.928   2.046 -0.1641 -0.6173  1.1640
 4410SOL    HW224693   2.733   3.970   2.001 -0.6952  0.2935  2.8612
 4411SOL     OW24694   3.622   4.360   4.738  0.1161  0.0549 -0.0713
 4411SOL    HW124695   3.607   4.279   4.690  0.1694  1.7399 -2.9236
 4411SOL    HW224696   3.601   4.343   4.830  0.3330 -0.2162 -0.0752
 4412SOL     OW24697   2.009   0.070   2.446  0.0147 -0.0805  0.2408
 4412SOL    HW124698   2.037   0.093   2.535 -1.1191 -0.0373  0.5847
 4412SOL    HW224699   2.084   0.031   2.401 -0.5113 -0.7446 -0.0618
 4413SOL     OW24700   0.810   3.519   9.403 -0.5011  0.5551 -0.0826
 4413SOL    HW124701   0.901   3.513   9.372 -0.6543 -0.7507 -0.3041
 4413SOL    HW224702   0.757   3.481   9.332  0.6222  0.2812 -0.7846
 4414SOL     OW24703   1.896   1.974   6.277  0.6251 -0.1022 -0.7796
 4414SOL    HW124704   1.978   1.984   6.229  1.8204  2.2771  1.8198
 4414SOL    HW224705   1.843   2.053   6.271 -1.8442 -1.7118 -0.3808
 4415SOL     OW24706   3.931   0.222   8.174 -0.2487 -0.4184  0.0045
 4415SOL    HW124707   3.836   0.217   8.164 -0.3533 -0.1989  0.8557
 4415SOL    HW224708   3.945   0.135   8.212  0.9923 -0.0309  0.4364
 4416SOL     OW24709   0.280   1.827  16.650 -0.3240  0.0993 -0.3426
 4416SOL    HW124710   0.244   1.915  16.635 -1.1337  0.0849  1.5896
 4416SOL    HW224711   0.244   1.789  16.570  1.7785  0.2653 -1.3630
 4417SOL     OW24712   3.035   1.657  12.523  0.2309 -0.5724  0.6076
 4417SOL    HW124713   2.962   1.719  12.518  0.4756 -0.4947 -1.8909
 4417SOL    HW224714   2.998   1.580  12.479  0.0360  0.6498 -1.3489
 4418SOL     OW24715   0.894   2.861   8.337  0.4582 -0.4049 -0.4490
 4418SOL    HW124716   0.916   2.951   8.314  1.4459 -1.0098 -1.8609
 4418SOL    HW224717   0.879   2.820   8.252  0.0677  1.1192 -1.1084
 4419SOL     OW24718   0.975   1.402  14.208  0.1163 -0.4170 -0.2282
 4419SOL    HW124719   0.991   1.315  14.172  1.1178 -0.2309 -0.2238
 4419SOL    HW224720   0.917   1.437  14.140  0.5504  1.1540  0.2187
 4420SOL     OW24721   2.774   2.900   3.971  0.1351 -0.3552 -0.5611
 4420SOL    HW124722   2.865   2.931   3.975  0.0287  0.2194 -2.8898
 4420SOL    HW224723   2.736   2.964   3.911 -1.9022 -0.5283  0.5324
 4421SOL     OW24724   2.577   1.157  10.646 -0.1633  0.1912  0.0156
 4421SOL    HW124725   2.621   1.108  10.576 -2.2020 -1.1944 -0.3016
 4421SOL    HW224726   2.560   1.240  10.601 -2.2701  1.2155  2.7216
 4422SOL     OW24727   3.667   2.033   2.360  0.0178 -0.5354 -0.1174
 4422SOL    HW124728   3.625   2.098   2.304 -0.6418 -0.9024 -0.0416
 4422SOL    HW224729   3.753   2.025   2.318  0.5062 -1.5008  1.0478
 4423SOL     OW24730   4.175   4.387  11.216 -0.4451 -0.1266  0.8234
 4423SOL    HW124731   4.107   4.431  11.266 -2.1322 -0.9113 -0.7358
 4423SOL    HW224732   4.171   4.435  11.133  0.3708 -2.2241 -0.4281
 4424SOL     OW24733   1.633   0.144  15.233  0.3896  0.2477  0.2233
 4424SOL    HW124734   1.697   0.147  15.305  1.5724  0.3781 -0.8474
 4424SOL    HW224735   1.688   0.161  15.157 -1.2178 -1.4995 -1.2939
 4425SOL     OW24736   0.635   3.863   7.411  0.5322 -0.1465  0.2298
 4425SOL    HW124737   0.628   3.957   7.396 -2.4941 -0.5193 -0.8357
 4425SOL    HW224738   0.683   3.863   7.493  0.6624  0.9257  0.1524
 4426SOL     OW24739   4.088   3.757   5.023 -0.3714 -0.7040  0.2618
 4426SOL    HW124740   4.151   3.698   4.981 -0.2961  0.0488 -0.6810
 4426SOL    HW224741   4.033   3.695   5.072  0.9837 -2.1464 -0.0224
 4427SOL     OW24742   0.914   3.203   3.699  0.3967 -0.1600  0.0022
 4427SOL    HW124743   0.921   3.232   3.608  1.5169  1.7090  0.6773
 4427SOL    HW224744   1.002   3.164   3.707  0.1339 -0.5075  1.1784
 4428SOL     OW24745   0.289   2.488  16.850  0.0101  0.4085  0.6990
 4428SOL    HW124746   0.330   2.519  16.931  0.8944 -0.0706  0.4362
 4428SOL    HW224747   0.365   2.492  16.792 -0.2552 -1.9601  0.1596
 4429SOL     OW24748   0.595   1.360   5.045  0.2209  0.6218 -0.2813
 4429SOL    HW124749   0.638   1.300   4.984 -0.2405 -1.2696  1.2607
 4429SOL    HW224750   0.522   1.389   4.991 -1.2771  1.0881  1.9945
 4430SOL     OW24751   2.792   2.689   9.912 -0.0074 -0.3083 -0.8510
 4430SOL    HW124752   2.808   2.609   9.963  1.5096  0.3248 -0.3343
 4430SOL    HW224753   2.759   2.753   9.974  1.1533 -2.2006  1.7369
 4431SOL     OW24754   0.521   0.436   4.738  0.2224 -0.0567 -0.6007
 4431SOL    HW124755   0.554   0.358   4.692  0.1229 -0.8136  0.6274
 4431SOL    HW224756   0.514   0.408   4.829 -1.3272  0.4901 -0.5628
 4432SOL     OW24757   4.313   0.526   1.399 -0.0334  0.1107 -0.0722
 4432SOL    HW124758   4.392   0.537   1.451  0.1830  0.4297 -0.4650
 4432SOL    HW224759   4.311   0.610   1.353 -0.7619  0.5485  0.7819
 4433SOL     OW24760   4.641   3.505   7.424  0.0057 -0.1513  0.1077
 4433SOL    HW124761   4.594   3.538   7.501  0.3279 -1.9271  1.0694
 4433SOL    HW224762   4.594   3.556   7.358  0.0989  0.4114  0.4825
 4434SOL     OW24763   0.244   3.741   8.708  0.3425  0.4048  0.2190
 4434SOL    HW124764   0.324   3.772   8.666  1.2330 -0.6754  1.1047
 4434SOL    HW224765   0.245   3.807   8.778  1.2517  1.8293 -1.1550
 4435SOL     OW24766   3.795   3.638  15.404 -0.2109 -0.2658  0.1729
 4435SOL    HW124767   3.836   3.577  15.344 -0.0698  0.3359 -0.3484
 4435SOL    HW224768   3.865   3.694  15.437  0.4424 -1.3359  0.5730
 4436SOL     OW24769   0.234   3.976   9.682  0.4585  0.0514  0.4591
 4436SOL    HW124770   0.324   3.995   9.709  0.4529  1.1628 -0.2714
 4436SOL    HW224771   0.191   3.972   9.767 -1.4952 -1.8452 -0.6304
 4437SOL     OW24772   3.512   3.120  11.886  0.4958  0.2161 -0.7133
 4437SOL    HW124773   3.506   3.160  11.972  1.0661  0.3773 -0.7517
 4437SOL    HW224774   3.569   3.184  11.843  4.1993 -0.9702  2.5158
 4438SOL     OW24775   0.966   3.155   4.061 -0.9180  0.1208 -0.1692
 4438SOL    HW124776   0.897   3.169   3.996 -0.1401 -0.3464 -1.0823
 4438SOL    HW224777   1.000   3.069   4.035  1.1665 -0.0852  3.2918
 4439SOL     OW24778   0.375   1.530   8.381  0.1665 -0.7065  0.1704
 4439SOL    HW124779   0.445   1.574   8.332 -0.4169  0.6220  0.5325
 4439SOL    HW224780   0.292   1.547   8.337  0.0840 -1.7247 -0.0658
 4440SOL     OW24781   3.041   2.719  12.050 -1.0136  0.1914  0.0313
 4440SOL    HW124782   3.079   2.679  11.971  1.6215  1.7704  0.4816
 4440SOL    HW224783   2.948   2.720  12.028 -0.5982 -0.5454 -1.7702
 4441SOL     OW24784   2.735   0.459   8.507  0.4015  0.8666 -0.3404
 4441SOL    HW124785   2.829   0.446   8.500  0.4690  0.8522  0.5779
 4441SOL    HW224786   2.713   0.488   8.418 -2.7610  0.7191  0.3915
 4442SOL     OW24787   4.436   1.937   6.538  0.1296 -0.1182  0.4227
 4442SOL    HW124788   4.455   2.000   6.468 -0.4448 -0.2970  0.1057
 4442SOL    HW224789   4.516   1.884   6.533  0.3173  0.0653  1.5239
 4443SOL     OW24790   4.149   0.050   3.504  0.2732  0.5875 -0.2921
 4443SOL    HW124791   4.092   0.072   3.577  1.0795  2.2999 -0.1943
 4443SOL    HW224792   4.171   0.138   3.474 -1.1167 -0.0283 -3.1399
 4444SOL     OW24793   4.340   2.153  17.252  0.0879  0.3448 -0.2129
 4444SOL    HW124794   4.353   2.115  17.165 -0.5246 -1.1766  0.3553
 4444SOL    HW224795   4.276   2.092  17.289  0.6799 -0.2843 -0.2204
 4445SOL     OW24796   0.333   1.414   8.642 -0.0011 -0.1208 -0.0358
 4445SOL    HW124797   0.331   1.508   8.659 -2.5039 -0.0501 -0.7159
 4445SOL    HW224798   0.340   1.411   8.547 -3.3709  1.3789 -0.3416
 4446SOL     OW24799   2.666   4.031   1.129 -0.0840 -0.0117 -0.1328
 4446SOL    HW124800   2.729   4.100   1.106 -0.9430  0.9201  0.3352
 4446SOL    HW224801   2.607   4.058   1.058  0.1509  0.0682 -0.3022
 4447SOL     OW24802   3.355   1.855   3.430  0.5285  0.3433 -0.0995
 4447SOL    HW124803   3.271   1.878   3.468  0.1095  1.1845 -1.5161
 4447SOL    HW224804   3.370   1.769   3.470 -1.2610  0.9924  1.9186
 4448SOL     OW24805   2.264   2.949   9.755 -0.1522  0.3426 -0.5732
 4448SOL    HW124806   2.170   2.942   9.770  0.1055 -0.4900  0.7624
 4448SOL    HW224807   2.294   2.864   9.721  0.1454  0.0096  0.4954
 4449SOL     OW24808   1.703   4.489   4.229  0.1674 -0.2970 -0.1865
 4449SOL    HW124809   1.702   4.565   4.171 -1.7455  0.0771  0.3178
 4449SOL    HW224810   1.764   4.504   4.301  1.4925 -0.2529 -1.3109
 4450SOL     OW24811   1.891   0.506  12.750  0.2393  0.1038  0.1227
 4450SOL    HW124812   1.825   0.474  12.688  0.8504 -0.3021 -0.3248
 4450SOL    HW224813   1.938   0.424  12.767  0.0607  0.4191  2.1453
 4451SOL     OW24814   3.203   0.491  15.890 -0.1644  0.0488 -0.0071
 4451SOL    HW124815   3.297   0.503  15.898 -0.3672  3.3339 -2.4549
 4451SOL    HW224816   3.189   0.464  15.981 -1.5408  1.3692  0.1715
 4452SOL     OW24817   3.893   3.991  10.671 -0.3156 -0.3470 -0.2710
 4452SOL    HW124818   3.921   4.006  10.761 -1.5811 -0.6518  0.1664
 4452SOL    HW224819   3.806   3.953  10.681  0.1979 -1.8795 -1.5038
 4453SOL     OW24820   1.233   4.671   8.394 -0.3405  0.1663 -0.0712
 4453SOL    HW124821   1.307   4.662   8.334  1.7154 -1.8325  2.7657
 4453SOL    HW224822   1.209   4.578   8.403  0.1589  0.2123  1.6621
 4454SOL     OW24823   4.369   1.477  10.170  0.3285  0.1662  0.0386
 4454SOL    HW124824   4.452   1.445  10.135  0.2469 -1.1259  1.0433
 4454SOL    HW224825   4.383   1.465  10.264  0.4800  0.5031  0.0590
 4455SOL     OW24826   4.156   2.302   1.374 -0.6640 -0.1524  0.3362
 4455SOL    HW124827   4.099   2.356   1.429 -0.7838  0.1082 -0.0486
 4455SOL    HW224828   4.242   2.328   1.410 -0.3206 -0.3681 -0.3437
 4456SOL     OW24829   4.135   0.947  11.248  0.6964 -0.4254 -0.6877
 4456SOL    HW124830   4.185   0.914  11.173  2.8306  1.4983 -0.0895
 4456SOL    HW224831   4.201   1.011  11.276 -0.2527  1.1389 -2.1040
 4457SOL     OW24832   3.844   4.282   8.145 -0.0134 -0.4744  0.0831
 4457SOL    HW124833   3.872   4.373   8.141 -0.2782 -0.3981 -0.0380
 4457SOL    HW224834   3.846   4.258   8.238 -0.8042 -0.3266  0.1437
 4458SOL     OW24835   1.010   1.066   6.991 -0.0456  0.7521  0.1720
 4458SOL    HW124836   1.008   1.022   7.077 -2.3636 -1.5265 -1.0428
 4458SOL    HW224837   1.014   1.159   7.014 -2.8037  0.6372  1.1958
 4459SOL     OW24838   0.555   1.630   8.967  0.0429 -0.3119 -0.0659
 4459SOL    HW124839   0.647   1.604   8.975  0.2137  1.3198  3.0848
 4459SOL    HW224840   0.521   1.577   9.040  0.5187 -3.0852 -1.8621
 4460SOL     OW24841   1.074   3.085  17.026  0.5926  0.0173  0.5982
 4460SOL    HW124842   1.121   3.011  16.989 -3.8685 -2.4826 -0.1387
 4460SOL    HW224843   1.046   3.039  17.106 -0.2685 -1.3281 -0.4825
 4461SOL     OW24844   1.332   0.157  11.702  0.3619  0.5839 -0.2986
 4461SOL    HW124845   1.326   0.144  11.608 -2.3619  0.6495 -0.1465
 4461SOL    HW224846   1.301   0.248  11.707  0.6041  0.5889  1.3297
 4462SOL     OW24847   4.389   4.187   3.514  0.1223  0.3594  0.1174
 4462SOL    HW124848   4.397   4.118   3.448 -1.6816  0.6009 -0.3441
 4462SOL    HW224849   4.470   4.164   3.561 -1.3437  0.3708  2.6415
 4463SOL     OW24850   0.045   3.550   2.751  0.3476  0.2503  0.1365
 4463SOL    HW124851   0.081   3.638   2.755 -1.3835  0.9925 -0.5223
 4463SOL    HW224852   0.005   3.552   2.664 -0.4303  1.6762  0.5388
 4464SOL     OW24853   0.762   0.413  14.400 -0.2949 -0.2779 -0.1729
 4464SOL    HW124854   0.770   0.445  14.490  2.1980  1.3578 -0.9752
 4464SOL    HW224855   0.852   0.415  14.368  0.2381 -0.8423  1.2796
 4465SOL     OW24856   2.385   3.833   4.769 -0.5723  0.1017  0.2063
 4465SOL    HW124857   2.350   3.765   4.712 -1.5740  0.8423 -0.0742
 4465SOL    HW224858   2.441   3.875   4.703 -2.3188  2.3481  0.1318
 4466SOL     OW24859   3.207   4.450  15.952 -0.4015 -0.6786 -0.0311
 4466SOL    HW124860   3.227   4.487  15.866 -1.1529 -1.4376 -0.5253
 4466SOL    HW224861   3.207   4.528  16.008  1.7438 -0.5146 -0.2323
 4467SOL     OW24862   1.296   2.371   0.007  0.1651 -0.0764  0.2170
 4467SOL    HW124863   1.382   2.413   0.017  0.7741 -1.4913  0.8899
 4467SOL    HW224864   1.236   2.444   0.020  0.6092  0.6026 -1.4811
 4468SOL     OW24865   1.931   4.155   4.513  0.3446 -0.4347 -0.0060
 4468SOL    HW124866   1.897   4.102   4.586  0.7145  1.4875  1.5863
 4468SOL    HW224867   1.933   4.094   4.440 -4.8116  0.4981 -0.9375
 4469SOL     OW24868   0.766   4.084  13.852 -0.0511 -0.1862 -0.1545
 4469SOL    HW124869   0.832   4.152  13.842  2.4853 -2.3060  2.0851
 4469SOL    HW224870   0.795   4.013  13.795  1.7970  0.5040 -0.0842
 4470SOL     OW24871   0.690   3.318   8.820  0.0716 -0.2216  0.2787
 4470SOL    HW124872   0.709   3.283   8.733  0.8092  1.3267 -0.1884
 4470SOL    HW224873   0.772   3.365   8.832  0.8950 -1.0390 -2.2069
 4471SOL     OW24874   4.106   0.445   1.564 -0.5712  0.6282  0.5361
 4471SOL    HW124875   4.102   0.527   1.613  1.0509  1.0022  0.0514
 4471SOL    HW224876   4.187   0.454   1.513  0.3738  3.4310  2.5514
 4472SOL     OW24877   0.935   0.681   5.170  0.3062  0.5667  0.0235
 4472SOL    HW124878   0.913   0.774   5.163 -2.7126 -0.0795  0.8032
 4472SOL    HW224879   0.947   0.657   5.079 -1.3495  3.3080 -0.9474
 4473SOL     OW24880   2.492   4.390   3.685  0.1374 -0.2321  0.6673
 4473SOL    HW124881   2.547   4.317   3.714  0.7520 -1.1696 -2.8672
 4473SOL    HW224882   2.410   4.341   3.671  0.9070 -2.2388  3.1694
 4474SOL     OW24883   0.295   4.440   7.303  0.4565  0.0861 -0.7970
 4474SOL    HW124884   0.282   4.534   7.301  0.7824  0.1368 -0.5513
 4474SOL    HW224885   0.309   4.423   7.397  1.8130  0.0594 -0.9973
 4475SOL     OW24886   1.168   2.119   7.609  0.1021  0.1451  0.1396
 4475SOL    HW124887   1.164   2.173   7.688  0.5374 -0.0606  0.2999
 4475SOL    HW224888   1.147   2.034   7.646  0.0266  0.2274  0.2843
 4476SOL     OW24889   0.142   1.678   4.279 -0.2121  0.2170 -0.3873
 4476SOL    HW124890   0.136   1.772   4.292 -1.4494 -0.0004  0.6173
 4476SOL    HW224891   0.158   1.662   4.186  2.0835 -1.9264  0.3903
 4477SOL     OW24892   3.837   2.182   3.763  0.1924  0.0151 -0.1643
 4477SOL    HW124893   3.818   2.219   3.676 -4.0434 -0.8737  0.3661
 4477SOL    HW224894   3.890   2.254   3.798  1.9909 -2.0035  1.2200
 4478SOL     OW24895   2.448   3.107  16.922 -0.4778 -0.1271  0.1562
 4478SOL    HW124896   2.414   3.195  16.909 -2.1138 -0.7200  0.4993
 4478SOL    HW224897   2.427   3.072  16.836 -0.9943  3.0157 -1.0137
 4479SOL     OW24898   4.439   1.434   1.877  0.5355 -0.4932  0.4965
 4479SOL    HW124899   4.368   1.379   1.844  1.7730 -1.3400 -0.7915
 4479SOL    HW224900   4.449   1.383   1.957 -0.4802 -0.9962  0.3029
 4480SOL     OW24901   1.011   3.730   2.366 -0.3826  0.3131  0.1552
 4480SOL    HW124902   1.075   3.668   2.400 -0.9048 -1.0347 -1.3025
 4480SOL    HW224903   1.032   3.715   2.274 -0.7312 -0.3815  0.1860
 4481SOL     OW24904   3.799   1.602   5.997  0.1299  0.2242 -0.0201
 4481SOL    HW124905   3.888   1.635   6.004  0.7247 -1.0155 -1.6871
 4481SOL    HW224906   3.806   1.569   5.907  1.3557  1.8251 -0.5091
 4482SOL     OW24907   4.318   4.401   9.924  0.1511  0.1217  0.3082
 4482SOL    HW124908   4.327   4.447   9.840  0.9031  0.7092  0.7038
 4482SOL    HW224909   4.264   4.327   9.896  2.0003 -0.7537 -0.9870
 4483SOL     OW24910   0.600   2.747   2.801 -0.6768  0.1179 -0.5645
 4483SOL    HW124911   0.650   2.731   2.721 -2.8437 -2.4822 -1.4255
 4483SOL    HW224912   0.601   2.663   2.847  2.3810  1.5620  2.0136
 4484SOL     OW24913   2.293   1.363   2.956 -0.1130  0.3239 -1.2394
 4484SOL    HW124914   2.209   1.321   2.971 -0.7440  1.8224 -0.5657
 4484SOL    HW224915   2.359   1.305   2.994  0.1788  2.6183  1.7280
 4485SOL     OW24916   4.639   0.542   8.405 -0.3970  0.0882  0.5401
 4485SOL    HW124917   4.592   0.463   8.432 -1.5265  0.9587  1.1376
 4485SOL    HW224918   4.589   0.602   8.460 -1.9270 -0.4861 -0.2399
 4486SOL     OW24919   0.324   2.214   7.605  0.0997 -0.0092  0.0744
 4486SOL    HW124920   0.279   2.261   7.675 -1.4131 -1.1469 -0.1317
 4486SOL    HW224921   0.254   2.197   7.541  0.6984  1.0653 -0.8779
 4487SOL     OW24922   3.653   1.561   7.516 -0.2437 -0.2454  1.0762
 4487SOL    HW124923   3.706   1.600   7.585 -0.3584 -0.4639  1.2889
 4487SOL    HW224924   3.701   1.480   7.499  1.0993  0.7919 -0.1184
 4488SOL     OW24925   4.129   3.213   4.932  0.1106 -0.7067 -0.5534
 4488SOL    HW124926   4.080   3.220   5.014 -3.0684  0.3483 -2.5048
 4488SOL    HW224927   4.097   3.293   4.890 -0.8307  0.0753  1.6546
 4489SOL     OW24928   3.810   2.152  11.828 -0.2839  0.1376  0.4172
 4489SOL    HW124929   3.798   2.151  11.733 -3.7737 -1.5937  0.8535
 4489SOL    HW224930   3.896   2.188  11.850 -0.4550  0.7365  0.1067
 4490SOL     OW24931   3.847   1.507   0.722 -1.0084  0.1166  0.1728
 4490SOL    HW124932   3.763   1.461   0.725 -0.8269 -0.4447 -2.9545
 4490SOL    HW224933   3.900   1.458   0.660  0.4121  1.8883 -0.0000
 4491SOL     OW24934   3.467   0.139   9.039 -0.5018  0.3215 -0.0755
 4491SOL    HW124935   3.390   0.136   9.096 -0.8038 -1.8783 -0.6062
 4491SOL    HW224936   3.497   0.052   9.065  1.7295  0.1808 -3.1323
 4492SOL     OW24937   4.044   1.100   5.020  0.0864 -0.1578 -1.0451
 4492SOL    HW124938   4.029   1.194   5.014 -3.3022 -0.7286 -1.2797
 4492SOL    HW224939   3.977   1.072   4.958 -0.1259  1.1838 -1.4283
 4493SOL     OW24940   0.202   1.125   8.045 -0.1858 -0.0455  0.4015
 4493SOL    HW124941   0.198   1.217   8.072 -2.2341  0.6436 -2.2151
 4493SOL    HW224942   0.209   1.081   8.129 -0.0843 -0.2339  0.2929
 4494SOL     OW24943   0.603   0.940   8.213 -0.2703 -0.0925  0.1838
 4494SOL    HW124944   0.526   0.971   8.260 -0.4885 -0.5205  0.1063
 4494SOL    HW224945   0.653   0.902   8.286  0.9609 -0.0983 -0.6690
 4495SOL     OW24946   3.218   4.485   4.386  0.3567  0.5034  0.1000
 4495SOL    HW124947   3.164   4.561   4.367 -1.1130 -0.1612  1.5853
 4495SOL    HW224948   3.305   4.521   4.371  1.4948 -1.3692  2.1208
 4496SOL     OW24949   4.224   0.060  10.642  0.3944 -0.2026  0.1091
 4496SOL    HW124950   4.233   0.000  10.716  1.7124 -1.5020 -1.0990
 4496SOL    HW224951   4.309   0.102  10.636  0.6914 -0.7948  0.1985
 4497SOL     OW24952   4.116   2.778   4.088 -0.3432 -0.3833  0.1876
 4497SOL    HW124953   4.064   2.717   4.140 -3.0872  0.8369 -1.0709
 4497SOL    HW224954   4.200   2.735   4.078  0.2357  0.6546  0.6147
 4498SOL     OW24955   0.397   3.219   4.110  0.1973  0.0367 -0.0655
 4498SOL    HW124956   0.304   3.199   4.123 -0.6769  3.1820 -1.3671
 4498SOL    HW224957   0.407   3.201   4.016 -0.6121  0.8434 -0.3009
 4499SOL     OW24958   1.101   0.652   5.372  0.1004 -0.1672 -0.4897
 4499SOL    HW124959   1.084   0.597   5.448  2.3665 -0.9817 -0.5663
 4499SOL    HW224960   1.030   0.643   5.308  0.0191 -3.0872  0.0050
 4500SOL     OW24961   1.139   2.058   6.905 -0.1163 -0.2113 -0.6756
 4500SOL    HW124962   1.184   2.021   6.981  1.3758  1.1733 -0.8828
 4500SOL    HW224963   1.185   2.142   6.896 -1.7927  0.8383  0.7134
 4501SOL     OW24964   1.990   2.657   7.837 -0.0569  0.2970  0.1555
 4501SOL    HW124965   2.025   2.596   7.901  0.3725  0.7808  0.3771
 4501SOL    HW224966   1.973   2.590   7.771  1.9580  1.1799 -1.2678
 4502SOL     OW24967   4.285   1.595   2.270  0.4048  0.3341  0.8134
 4502SOL    HW124968   4.354   1.553   2.219  0.1132  0.2065  0.5270
 4502SOL    HW224969   4.252   1.511   2.300 -1.0697  0.7288  0.3209
 4503SOL     OW24970   2.045   1.156   8.774 -0.4564 -0.1745  0.1297
 4503SOL    HW124971   2.119   1.199   8.731  0.1593  0.5840  1.9259
 4503SOL    HW224972   2.089   1.095   8.833 -1.5864 -2.0779 -1.0137
 4504SOL     OW24973   3.361   2.960   2.210 -0.5445  0.0856  0.6621
 4504SOL    HW124974   3.382   3.053   2.221  1.6545 -0.1050 -2.1289
 4504SOL    HW224975   3.424   2.935   2.143 -0.6063  2.7065 -0.3716
 4505SOL     OW24976   2.028   2.569  14.444  0.3177 -0.0958  0.5575
 4505SOL    HW124977   2.123   2.574  14.431  0.1619 -2.2534 -1.4258
 4505SOL    HW224978   1.995   2.524  14.366 -0.9278  0.0686  0.9939
 4506SOL     OW24979   3.605   1.479  12.389 -0.2201  0.2161 -0.4583
 4506SOL    HW124980   3.686   1.529  12.394 -0.5337  0.7393 -0.6511
 4506SOL    HW224981   3.570   1.496  12.476 -2.4014 -0.0231 -1.2917
 4507SOL     OW24982   1.635   1.455   2.804 -0.1839  0.3284 -0.0289
 4507SOL    HW124983   1.661   1.472   2.713 -0.8683 -2.7259 -0.7923
 4507SOL    HW224984   1.714   1.464   2.857 -1.4304  0.7673  1.7352
 4508SOL     OW24985   2.763   3.635   8.954  0.0362 -0.4069  0.3757
 4508SOL    HW124986   2.707   3.710   8.936  0.6573  0.3079  1.4297
 4508SOL    HW224987   2.698   3.570   8.981 -0.9630 -0.4415 -2.1170
 4509SOL     OW24988   3.608   0.317   5.201  0.1133 -0.0560  0.0369
 4509SOL    HW124989   3.591   0.332   5.293  1.5735  2.4426 -0.0937
 4509SOL    HW224990   3.704   0.312   5.198  0.2070  1.2043  0.7103
 4510SOL     OW24991   3.897   2.146   3.252  0.3132  0.1345 -0.0750
 4510SOL    HW124992   3.847   2.099   3.186 -1.3563  2.0938 -0.2208
 4510SOL    HW224993   3.892   2.237   3.223  1.9434  0.5994  1.1625
 4511SOL     OW24994   2.459   0.708   0.091  0.0513 -0.2399  0.2833
 4511SOL    HW124995   2.509   0.629   0.112 -0.6585 -0.5955  0.6255
 4511SOL    HW224996   2.444   0.753   0.174 -0.7381 -0.4465  0.2479
 4512SOL     OW24997   2.571   2.723   7.541 -0.0852  0.6509 -0.1292
 4512SOL    HW124998   2.630   2.686   7.476  2.6096  4.4542  0.1799
 4512SOL    HW224999   2.529   2.799   7.502 -0.6379  0.9882  1.1078
 4513SOL     OW25000   3.580   3.232   0.891  0.2549  0.4557  0.3893
 4513SOL    HW125001   3.561   3.239   0.798  0.9561  4.2071  0.5468
 4513SOL    HW225002   3.506   3.179   0.923 -0.1903  1.0243  0.3017
 4514SOL     OW25003   0.784   0.952   2.692  0.3479 -0.1300  0.3883
 4514SOL    HW125004   0.841   1.025   2.718 -0.8979  1.5254 -1.6223
 4514SOL    HW225005   0.751   0.994   2.613 -1.8617 -0.8224  0.9519
 4515SOL     OW25006   2.181   1.522  17.675 -0.2957  0.0680 -0.1251
 4515SOL    HW125007   2.179   1.556  17.585 -1.6627  2.6521  0.9047
 4515SOL    HW225008   2.129   1.588   0.034 -2.3437 -0.6265 -1.4591
 4516SOL     OW25009   2.737   2.670   2.149 -0.6808 -0.1682  0.4880
 4516SOL    HW125010   2.745   2.715   2.233 -3.0421  0.4152  0.3937
 4516SOL    HW225011   2.793   2.723   2.092  0.6777 -1.3870  0.6874
 4517SOL     OW25012   3.596   0.458   8.622  0.2264  0.3817 -0.4447
 4517SOL    HW125013   3.554   0.458   8.708  1.1277 -2.4632 -0.0089
 4517SOL    HW225014   3.684   0.427   8.642 -0.4878  0.4893  2.8655
 4518SOL     OW25015   2.719   4.634   5.257  0.1851  0.3786  0.5018
 4518SOL    HW125016   2.754   4.654   5.344  2.8011 -1.3767 -0.1351
 4518SOL    HW225017   2.746   4.707   5.201 -0.7271  0.2968 -0.0549
 4519SOL     OW25018   2.926   4.084   3.059  0.4498  0.0520 -0.2619
 4519SOL    HW125019   2.942   4.067   2.966 -0.9421  0.5006 -0.5873
 4519SOL    HW225020   2.832   4.103   3.058  0.2177 -1.1381 -1.5788
 4520SOL     OW25021   3.136   2.475   7.280  0.1819 -0.3075  0.1948
 4520SOL    HW125022   3.122   2.474   7.375 -0.0894  1.8753  0.1736
 4520SOL    HW225023   3.044   2.462   7.257  0.1486  0.1401  0.0756
 4521SOL     OW25024   0.195   3.137   3.182  0.2461 -0.2968  0.2522
 4521SOL    HW125025   0.261   3.203   3.162  1.6841 -1.4050  1.3199
 4521SOL    HW225026   0.140   3.189   3.241 -0.3980 -1.2247  0.4836
 4522SOL     OW25027   3.246   3.881   3.858  0.3396 -0.1496 -0.5246
 4522SOL    HW125028   3.176   3.939   3.829  0.5109 -0.0210 -0.6843
 4522SOL    HW225029   3.319   3.941   3.846  0.5199 -0.1818  0.4166
 4523SOL     OW25030   1.017   2.205   2.754 -0.3843  0.0555 -0.2430
 4523SOL    HW125031   0.993   2.263   2.826  2.3083  1.4964 -0.5102
 4523SOL    HW225032   1.111   2.188   2.762  0.2128  2.1949 -2.7210
 4524SOL     OW25033   0.176   2.820  13.559 -0.0751  0.3437 -0.1157
 4524SOL    HW125034   0.262   2.830  13.600 -0.2688 -0.1404  0.4147
 4524SOL    HW225035   0.185   2.869  13.478  1.0078 -0.7233 -0.6537
 4525SOL     OW25036   4.684   1.547   7.562 -0.5728 -0.9654  0.5735
 4525SOL    HW125037   4.653   1.577   7.648 -0.0423  1.1276  0.0389
 4525SOL    HW225038   0.040   1.602   7.544 -1.4115  0.2509  0.7073
 4526SOL     OW25039   2.108   4.556  13.709  0.1661  0.5720  0.2453
 4526SOL    HW125040   2.182   4.495  13.708  0.3597  0.8096 -0.8544
 4526SOL    HW225041   2.042   4.498  13.747  1.3346 -1.0597 -0.1968
 4527SOL     OW25042   2.858   2.208   9.370 -0.0476  0.0784 -0.4400
 4527SOL    HW125043   2.900   2.161   9.442 -1.5323 -0.9893 -0.2596
 4527SOL    HW225044   2.764   2.192   9.380  0.3215 -2.2792 -0.7222
 4528SOL     OW25045   2.862   3.888   4.403  0.5303 -0.2823  0.1771
 4528SOL    HW125046   2.819   3.807   4.376 -0.2677  0.7360 -1.5575
 4528SOL    HW225047   2.919   3.909   4.329  0.3219  0.0091  0.1010
 4529SOL     OW25048   0.474   3.787   1.363 -0.3256 -0.6474 -0.2298
 4529SOL    HW125049   0.537   3.746   1.423 -2.1556 -0.1634  2.0374
 4529SOL    HW225050   0.403   3.724   1.360  0.2087 -1.3314  1.4804
 4530SOL     OW25051   0.178   0.388   2.635 -0.3791 -0.2619 -0.0237
 4530SOL    HW125052   0.194   0.354   2.547 -1.1534 -2.0788  0.5456
 4530SOL    HW225053   0.147   0.471   2.598 -1.6736 -0.0754  1.4495
 4531SOL     OW25054   1.207   3.979   0.746  0.0819 -0.2782  0.1628
 4531SOL    HW125055   1.279   3.986   0.684  0.0036  0.1451  0.1192
 4531SOL    HW225056   1.243   3.983   0.835  0.5338 -0.3273 -0.0241
 4532SOL     OW25057   0.661   1.141   5.220  0.1912 -0.3807  0.2492
 4532SOL    HW125058   0.580   1.176   5.182  0.3008 -0.6332 -0.2181
 4532SOL    HW225059   0.695   1.228   5.239  0.9500 -0.3883 -1.0561
 4533SOL     OW25060   2.197   0.177   4.271 -0.4024 -0.2837  0.2200
 4533SOL    HW125061   2.192   0.269   4.245 -0.3269  0.3322  2.3876
 4533SOL    HW225062   2.170   0.186   4.362 -0.2514  0.7641  0.1638
 4534SOL     OW25063   2.999   0.044  10.271  0.2137 -0.1575 -0.9762
 4534SOL    HW125064   2.950   4.683  10.282  2.9434 -1.6884 -0.4311
 4534SOL    HW225065   2.942   0.106  10.224 -0.8685 -0.8574 -0.5863
 4535SOL     OW25066   3.482   1.396   3.735  0.2222 -0.0477 -0.5821
 4535SOL    HW125067   3.402   1.427   3.777 -0.0729  0.6266 -1.6545
 4535SOL    HW225068   3.460   1.305   3.716  1.2973 -0.9098  2.2241
 4536SOL     OW25069   2.836   2.426   2.587 -0.0371  0.1413  0.1529
 4536SOL    HW125070   2.789   2.460   2.663  1.5665 -0.0865  1.2554
 4536SOL    HW225071   2.759   2.389   2.543  0.6133  0.2209 -1.0434
 4537SOL     OW25072   0.363   1.473   4.004  0.4129  0.3459 -0.1369
 4537SOL    HW125073   0.414   1.495   4.082 -1.4645  1.0035  0.9227
 4537SOL    HW225074   0.391   1.381   4.000 -1.5322 -0.2842  0.3421
 4538SOL     OW25075   2.002   3.139  16.878 -0.2563  0.4893  0.1251
 4538SOL    HW125076   2.040   3.183  16.954  1.3375 -1.1368  0.2720
 4538SOL    HW225077   2.059   3.175  16.811  0.3146  1.0488  0.9231
 4539SOL     OW25078   2.571   0.624   9.321  0.5588  0.1128 -0.1031
 4539SOL    HW125079   2.630   0.659   9.254 -1.1857  2.0136 -0.6270
 4539SOL    HW225080   2.532   0.548   9.277  1.3019  0.5781 -1.5947
 4540SOL     OW25081   2.875   2.422  15.631 -0.4675  0.3385  0.6357
 4540SOL    HW125082   2.967   2.439  15.611 -0.2046  0.5948  2.0726
 4540SOL    HW225083   2.879   2.337  15.675 -0.4112 -0.0654 -0.1504
 4541SOL     OW25084   0.807   1.595   8.627 -0.1378  0.0761  0.0585
 4541SOL    HW125085   0.812   1.564   8.717  1.6990  0.4635  0.0896
 4541SOL    HW225086   0.728   1.648   8.616  0.7541  1.4645  0.3569
 4542SOL     OW25087   0.692   4.426   7.552 -0.2005  0.1885  0.1221
 4542SOL    HW125088   0.740   4.371   7.614 -2.2458  0.4571  1.9554
 4542SOL    HW225089   0.648   4.495   7.603  0.2071  0.5167  0.0302
 4543SOL     OW25090   3.755   0.400   1.833  0.4570 -0.3139 -0.4673
 4543SOL    HW125091   3.800   0.480   1.863 -0.6623  0.2960 -0.4168
 4543SOL    HW225092   3.708   0.437   1.758 -2.3563 -1.3110  0.8243
 4544SOL     OW25093   2.028   0.339   6.289  0.3220 -0.1122 -0.5350
 4544SOL    HW125094   2.071   0.341   6.204  0.4341 -2.5546 -0.5529
 4544SOL    HW225095   2.102   0.329   6.348  1.7619  1.2800 -2.1351
 4545SOL     OW25096   0.685   0.431   3.526 -0.6019  0.4887  0.2209
 4545SOL    HW125097   0.729   0.433   3.441 -2.9145 -0.3614 -0.9990
 4545SOL    HW225098   0.606   0.485   3.523 -0.3625  0.9348  2.3309
 4546SOL     OW25099   1.595   3.527   3.242 -0.1295  0.4987 -0.0976
 4546SOL    HW125100   1.619   3.457   3.303  0.7388  0.5239 -0.4039
 4546SOL    HW225101   1.596   3.478   3.160 -1.2920 -1.0184  0.7913
 4547SOL     OW25102   0.062   0.572   9.415 -0.7929  0.7416  0.0807
 4547SOL    HW125103   0.137   0.630   9.400  0.1365 -0.9719 -1.9407
 4547SOL    HW225104   0.090   0.507   9.350 -1.2702 -0.4584  1.0696
 4548SOL     OW25105   3.525   2.257  13.537 -0.3505 -0.1029 -0.2648
 4548SOL    HW125106   3.478   2.202  13.474 -0.8957 -1.2832  1.1764
 4548SOL    HW225107   3.611   2.263  13.496 -0.3710 -0.0319 -0.2992
 4549SOL     OW25108   4.001   4.400  10.811  0.1503  0.5360  0.4030
 4549SOL    HW125109   4.086   4.384  10.771 -0.0172  3.4407 -1.1271
 4549SOL    HW225110   4.042   4.437  10.889 -1.6649  2.5551  0.4036
 4550SOL     OW25111   2.890   0.480   4.852  0.4230  0.1437  0.2064
 4550SOL    HW125112   2.830   0.417   4.812  0.3066 -0.3129  1.1108
 4550SOL    HW225113   2.973   0.471   4.804  0.0351 -1.3242 -0.1903
 4551SOL     OW25114   0.197   0.121  12.113  0.1164  0.0513 -0.6084
 4551SOL    HW125115   0.169   0.030  12.103  2.3249 -0.9940  2.4285
 4551SOL    HW225116   0.291   0.105  12.112 -0.0728 -1.1110 -0.3767
 4552SOL     OW25117   0.594   0.286   9.055  0.0331 -0.2632  0.1356
 4552SOL    HW125118   0.561   0.224   8.990 -1.8382 -0.1027  0.9465
 4552SOL    HW225119   0.529   0.270   9.124  1.3878 -1.0058  1.2361
 4553SOL     OW25120   1.253   2.529   5.552 -0.2281 -0.3294 -0.1184
 4553SOL    HW125121   1.305   2.567   5.623  0.1239  2.2125 -1.7226
 4553SOL    HW225122   1.256   2.595   5.482  1.1958  1.2949  1.4884
 4554SOL     OW25123   2.339   3.478   1.803 -0.4218  0.1090  0.9596
 4554SOL    HW125124   2.387   3.514   1.728 -2.0705  0.8409  0.2603
 4554SOL    HW225125   2.254   3.520   1.794 -0.7992 -0.4986  1.7094
 4555SOL     OW25126   1.143   0.096   7.635 -0.5324  0.5895 -0.2406
 4555SOL    HW125127   1.190   0.140   7.564  1.5894 -2.2534 -0.6188
 4555SOL    HW225128   1.147   0.006   7.602  0.3475  1.0683 -1.4487
 4556SOL     OW25129   0.661   2.832  17.079  0.0739 -0.3294 -0.6212
 4556SOL    HW125130   0.690   2.907  17.027  0.9973 -0.3611 -0.1359
 4556SOL    HW225131   0.685   2.861  17.167 -2.3432  0.8459 -0.3373
 4557SOL     OW25132   4.652   4.151   7.916  0.0514  0.0052  0.1590
 4557SOL    HW125133   4.640   4.232   7.867  5.1435  1.4546  1.3188
 4557SOL    HW225134   4.675   4.182   8.004  1.2865 -1.0184  0.2009
 4558SOL     OW25135   2.436   0.045   7.003 -0.4095 -0.4557 -0.1527
 4558SOL    HW125136   2.392   0.089   6.931 -0.3267 -1.3687 -0.7630
 4558SOL    HW225137   2.433   4.678   6.965  0.5010 -1.9336  3.1832
 4559SOL     OW25138   0.836   1.295   9.010  0.3474  0.2276  0.3578
 4559SOL    HW125139   0.881   1.321   9.091 -0.4970  0.1974  0.8418
 4559SOL    HW225140   0.851   1.201   9.015 -3.6346 -0.4628 -0.8726
 4560SOL     OW25141   2.968   2.891   3.123 -0.2911  0.5343  0.2569
 4560SOL    HW125142   2.882   2.929   3.102 -0.7432 -0.8965 -0.5174
 4560SOL    HW225143   2.961   2.806   3.167  1.1633  0.5888  0.5882
 4561SOL     OW25144   3.147   4.596   9.140 -0.0958  0.3209 -0.3901
 4561SOL    HW125145   3.226   4.542   9.135 -0.4080 -0.1460 -0.3906
 4561SOL    HW225146   3.115   4.566   9.225 -2.0947  0.2718 -1.1473
 4562SOL     OW25147   3.303   2.738  13.300 -0.0627 -0.5443 -0.3030
 4562SOL    HW125148   3.209   2.723  13.312 -0.4021  0.9403 -1.0106
 4562SOL    HW225149   3.333   2.727  13.390  1.1403  2.6468 -0.3316
 4563SOL     OW25150   1.854   2.384   2.658 -0.0030  0.0236 -0.0858
 4563SOL    HW125151   1.802   2.367   2.736  3.8083 -1.3016  2.1644
 4563SOL    HW225152   1.895   2.299   2.639  1.0938  0.5858 -0.2720
 4564SOL     OW25153   4.611   3.017   1.393 -0.2124  0.2877  0.2144
 4564SOL    HW125154   4.689   3.065   1.422 -0.7063  1.4883 -0.4324
 4564SOL    HW225155   4.551   3.054   1.458  0.0665  0.4042  0.4052
 4565SOL     OW25156   1.444   3.731   4.488  0.3428 -0.1056  0.3533
 4565SOL    HW125157   1.386   3.721   4.563 -1.7682 -0.0923 -1.2531
 4565SOL    HW225158   1.430   3.653   4.434  0.0000 -0.1965  0.5695
 4566SOL     OW25159   4.001   4.129  10.011  0.0007 -0.0622  0.3318
 4566SOL    HW125160   4.040   4.165   9.932 -1.0568 -0.8543 -0.5496
 4566SOL    HW225161   4.070   4.074  10.047 -1.5464 -1.6392  0.9023
 4567SOL     OW25162   1.968   4.600   5.050 -0.2345  0.1017  0.8474
 4567SOL    HW125163   2.029   4.629   4.981 -1.0685 -0.6190 -0.1910
 4567SOL    HW225164   1.913   4.534   5.008  1.6421 -0.3093 -0.9646
 4568SOL     OW25165   3.143   4.717   7.439  0.2833 -0.1209  0.3553
 4568SOL    HW125166   3.168   4.685   7.526 -0.4354 -0.9510  0.2600
 4568SOL    HW225167   3.175   0.086   7.443 -0.1532  0.0082  0.9392
 4569SOL     OW25168   3.892   3.851  10.053  0.6162 -0.1334 -0.1925
 4569SOL    HW125169   3.886   3.886  10.142 -0.7182  1.9339 -1.1002
 4569SOL    HW225170   3.897   3.927   9.996  1.5372  0.3475  0.5402
 4570SOL     OW25171   2.693   0.628  16.189  0.0922 -0.2760  0.5486
 4570SOL    HW125172   2.664   0.597  16.103  0.8601  0.2337  0.1051
 4570SOL    HW225173   2.749   0.559  16.224 -0.2273 -2.2174 -2.7415
 4571SOL     OW25174   2.124   3.265  11.165 -0.1820  0.3846  0.7895
 4571SOL    HW125175   2.120   3.172  11.189 -0.1261  0.0444 -0.5321
 4571SOL    HW225176   2.092   3.294  11.251 -0.5558 -0.0223  0.7914
 4572SOL     OW25177   0.866   0.103   6.571 -0.6240 -0.4676  0.0331
 4572SOL    HW125178   0.959   0.083   6.579 -0.3273  0.5586 -0.8417
 4572SOL    HW225179   0.829   0.016   6.559 -2.8356  0.5566 -0.5892
 4573SOL     OW25180   3.588   0.094  13.435  0.1708 -0.8023 -0.5716
 4573SOL    HW125181   3.671   0.055  13.460  0.1309  0.3659  1.3367
 4573SOL    HW225182   3.615   0.094  13.343  1.2400 -0.6599 -0.2594
 4574SOL     OW25183   0.714   3.705   1.449  0.0092  0.1069  0.4020
 4574SOL    HW125184   0.745   3.790   1.419 -0.6307  0.2709  0.2100
 4574SOL    HW225185   0.710   3.649   1.371  4.5000 -2.5857  2.0511
 4575SOL     OW25186   4.317   3.861   6.929  0.4951 -0.1636  0.4975
 4575SOL    HW125187   4.384   3.796   6.950  1.2344  0.5540  0.4008
 4575SOL    HW225188   4.269   3.868   7.011 -0.6090  0.3039 -0.1935
 4576SOL     OW25189   3.849   0.842  10.420 -0.2646  0.5260  0.6242
 4576SOL    HW125190   3.824   0.755  10.389  0.0204  0.5297  0.3823
 4576SOL    HW225191   3.763   0.860  10.458 -0.1629 -1.5437  1.8410
 4577SOL     OW25192   3.498   2.904   3.411 -0.3609  0.0190  0.5437
 4577SOL    HW125193   3.560   2.939   3.475  2.5395 -2.4965 -0.8830
 4577SOL    HW225194   3.417   2.929   3.457 -0.3213  0.0791  0.5811
 4578SOL     OW25195   4.304   1.636  11.216  0.0120 -0.1213 -0.7289
 4578SOL    HW125196   4.232   1.690  11.183  1.2227  1.2529 -1.0984
 4578SOL    HW225197   4.305   1.656  11.309 -1.3693  0.1751 -0.7831
 4579SOL     OW25198   1.927   0.366   4.495  0.3267 -0.1216  0.1181
 4579SOL    HW125199   1.999   0.320   4.537  1.9980  2.7736  0.4680
 4579SOL    HW225200   1.869   0.366   4.571  0.2369 -0.2645  0.0488
 4580SOL     OW25201   0.221   0.077  14.847  0.0872  0.2675  0.0149
 4580SOL    HW125202   0.279   0.032  14.785 -3.3940 -0.0276 -3.0213
 4580SOL    HW225203   0.271   0.159  14.849  0.6353 -0.1374  2.7094
 4581SOL     OW25204   1.751   3.120   5.941 -0.5195  0.4283 -0.1239
 4581SOL    HW125205   1.783   3.115   6.031 -0.9995 -0.2026  0.0117
 4581SOL    HW225206   1.838   3.145   5.911  0.2228 -3.2261 -0.9613
 4582SOL     OW25207   4.425   3.753   0.308 -0.4464 -0.3727 -0.0612
 4582SOL    HW125208   4.500   3.697   0.292 -0.3747  0.5740 -3.0144
 4582SOL    HW225209   4.400   3.736   0.398  0.4996  1.0383  0.4744
 4583SOL     OW25210   2.426   0.907   4.727  0.2072  0.3330 -0.2939
 4583SOL    HW125211   2.362   0.836   4.732  1.7254 -1.1606 -1.9428
 4583SOL    HW225212   2.416   0.938   4.637  1.3088 -2.8616 -1.5057
 4584SOL     OW25213   2.921   1.987   7.737 -0.0542  0.3926  0.0539
 4584SOL    HW125214   2.910   1.986   7.832  0.1368 -0.8541  0.0586
 4584SOL    HW225215   2.988   2.055   7.726 -1.2879  1.5974  0.0122
 4585SOL     OW25216   0.748   1.082  13.973 -0.0405  0.1736 -0.0776
 4585SOL    HW125217   0.780   1.160  13.928 -0.6010  0.3595 -0.1510
 4585SOL    HW225218   0.741   1.027  13.895  1.4953 -1.5761  1.0257
 4586SOL     OW25219   1.147   1.012   8.413  0.0366  0.0561 -0.2488
 4586SOL    HW125220   1.126   1.058   8.494  1.9907 -0.8661  0.7629
 4586SOL    HW225221   1.142   0.917   8.425 -0.3107 -0.0087 -0.9016
 4587SOL     OW25222   4.174   0.058   9.309 -0.0822 -0.1216 -0.3532
 4587SOL    HW125223   4.172   4.693   9.352 -2.1013 -0.7239 -1.6413
 4587SOL    HW225224   4.151   0.120   9.379  1.0217  0.1506 -0.2335
 4588SOL     OW25225   2.692   3.938  11.918  0.5568 -0.6694  0.0528
 4588SOL    HW125226   2.728   3.871  11.976  0.3702  0.0599  1.0214
 4588SOL    HW225227   2.764   4.000  11.928 -0.5258  0.8172 -1.3074
 4589SOL     OW25228   3.884   1.753   8.031  0.0021  0.5772  0.4254
 4589SOL    HW125229   3.944   1.693   7.985  0.3500  0.7940  0.5969
 4589SOL    HW225230   3.946   1.810   8.076  1.0672 -0.4404  0.2433
 4590SOL     OW25231   2.463   1.424  11.787 -0.4964 -0.2129 -0.4239
 4590SOL    HW125232   2.551   1.414  11.823 -0.7558  0.4154  0.3983
 4590SOL    HW225233   2.446   1.510  11.825 -0.9350 -0.9907  1.1575
 4591SOL     OW25234   1.866   2.517   6.750 -0.4259  0.3863 -0.1743
 4591SOL    HW125235   1.954   2.543   6.777 -0.4078 -1.4746  1.5052
 4591SOL    HW225236   1.849   2.593   6.694 -0.8009  0.6714  0.3177
 4592SOL     OW25237   1.861   4.067  15.781  0.2681  0.6133  0.2925
 4592SOL    HW125238   1.775   4.098  15.812  0.5074  1.6553 -0.0782
 4592SOL    HW225239   1.919   4.121  15.834 -0.5640  2.6255 -0.8145
 4593SOL     OW25240   0.386   1.387   1.272  0.5887  0.6422 -0.4787
 4593SOL    HW125241   0.424   1.475   1.271  0.7352  0.5846  0.8262
 4593SOL    HW225242   0.410   1.360   1.183  1.3550  0.5596 -0.2477
 4594SOL     OW25243   3.868   3.107   5.713 -0.2802 -0.9582  0.6452
 4594SOL    HW125244   3.804   3.174   5.737  0.2222 -0.5123  0.7302
 4594SOL    HW225245   3.933   3.115   5.783  2.8297 -1.4562 -2.1384
 4595SOL     OW25246   3.921   4.041   1.569  0.3859 -0.4122 -0.7664
 4595SOL    HW125247   3.929   4.019   1.476 -0.0511 -1.2169 -0.6101
 4595SOL    HW225248   3.904   4.135   1.576  0.0602 -0.5784  0.5670
 4596SOL     OW25249   3.370   3.130   1.032  0.2370  0.0544  0.1529
 4596SOL    HW125250   3.361   3.096   1.121  0.3242  1.5743  0.7399
 4596SOL    HW225251   3.287   3.177   1.040  1.5766  2.4187  0.2020
 4597SOL     OW25252   3.208   1.899   7.461  0.5064  0.0224 -0.0159
 4597SOL    HW125253   3.152   1.967   7.498 -0.1950 -1.6672  2.0324
 4597SOL    HW225254   3.223   1.940   7.376 -0.6245  0.4125 -0.0151
 4598SOL     OW25255   0.897   0.153  14.211  0.1612  0.1007  0.4735
 4598SOL    HW125256   0.848   0.207  14.273  0.0195  1.8655 -1.1488
 4598SOL    HW225257   0.981   0.154  14.257  0.4721 -0.4128 -0.0713
 4599SOL     OW25258   2.767   1.729   0.492  0.3373 -0.4513  0.0071
 4599SOL    HW125259   2.843   1.684   0.453 -1.4054 -2.1227 -1.4777
 4599SOL    HW225260   2.790   1.765   0.577  0.9987 -0.2279 -0.2644
 4600SOL     OW25261   2.048   1.806   2.835 -0.4919  0.1214  0.2685
 4600SOL    HW125262   2.119   1.756   2.796 -1.6712 -2.6824  1.7051
 4600SOL    HW225263   2.018   1.738   2.896 -1.5934  0.2013 -0.1834
 4601SOL     OW25264   0.067   2.253   2.820  0.1411 -0.4400 -0.2468
 4601SOL    HW125265   0.045   2.346   2.816  1.1176 -0.2274 -0.5293
 4601SOL    HW225266   0.132   2.244   2.890 -0.4070  0.1944  0.3442
 4602SOL     OW25267   1.922   0.517  17.401  0.3702  0.4383 -0.2243
 4602SOL    HW125268   2.001   0.550  17.445 -0.4463  0.8352  0.9425
 4602SOL    HW225269   1.863   0.535  17.474  1.6074 -0.7179  1.0652
 4603SOL     OW25270   3.241   0.369   2.506  0.2892  0.4715 -0.0007
 4603SOL    HW125271   3.302   0.434   2.541 -0.1700  1.0071 -0.1851
 4603SOL    HW225272   3.224   0.329   2.591  2.5971 -1.5862 -0.5190
 4604SOL     OW25273   4.608   2.745   7.167 -0.2330  0.1394 -0.1136
 4604SOL    HW125274   4.529   2.696   7.143  1.1078 -1.8158 -0.5162
 4604SOL    HW225275   4.633   2.701   7.249  1.4198  0.1844 -0.5915
 4605SOL     OW25276   4.515   2.371  11.899  0.1578 -0.0086  0.1905
 4605SOL    HW125277   4.510   2.332  11.812 -3.8465  0.0359  0.3917
 4605SOL    HW225278   4.519   2.289  11.949  0.4491 -0.7836 -1.1037
 4606SOL     OW25279   0.871   3.432  14.543  0.3025  0.4171  0.0958
 4606SOL    HW125280   0.781   3.427  14.572  0.8937 -0.9783  1.6541
 4606SOL    HW225281   0.902   3.347  14.574 -0.2320 -0.0826 -0.7233
 4607SOL     OW25282   3.995   3.304  10.699  0.3435  0.0760  0.0426
 4607SOL    HW125283   3.928   3.333  10.760 -0.1557 -0.1371 -0.4078
 4607SOL    HW225284   4.047   3.248  10.757  0.5351 -2.0202 -2.1368
 4608SOL     OW25285   0.612   2.963   4.968 -0.0947  0.2903  0.2125
 4608SOL    HW125286   0.550   2.895   4.942  1.0430 -1.0086  0.8803
 4608SOL    HW225287   0.690   2.936   4.919 -0.9973 -0.2122 -0.9325
 4609SOL     OW25288   1.554   0.121   1.833 -0.0591 -0.1323 -0.3687
 4609SOL    HW125289   1.618   0.147   1.900 -2.0216  0.2065  1.3691
 4609SOL    HW225290   1.611   0.131   1.756 -0.5854 -0.0937 -0.7547
 4610SOL     OW25291   2.101   1.211   8.427  0.6331 -0.8274 -0.2163
 4610SOL    HW125292   2.195   1.228   8.434  0.3882  0.2391  0.5021
 4610SOL    HW225293   2.092   1.175   8.339 -2.0532 -0.6617 -0.0084
 4611SOL     OW25294   4.325   4.119   8.760  0.2681 -0.1695 -0.2269
 4611SOL    HW125295   4.318   4.045   8.699 -1.7783 -0.1437 -0.0256
 4611SOL    HW225296   4.420   4.120   8.771  0.1928  1.8534  0.2307
 4612SOL     OW25297   4.175   1.964   5.078 -0.4652 -0.4883  0.4116
 4612SOL    HW125298   4.209   1.875   5.069 -0.2518 -0.4057  0.4060
 4612SOL    HW225299   4.092   1.963   5.030 -0.5181  2.1964  0.4827
 4613SOL     OW25300   3.291   0.669   5.829  0.2781 -0.0727  0.1996
 4613SOL    HW125301   3.203   0.705   5.842  0.2279  1.3290 -3.9171
 4613SOL    HW225302   3.269   0.576   5.816 -0.8277  0.2098  0.0620
 4614SOL     OW25303   0.238   4.351   3.057 -0.1464 -0.6666 -0.4891
 4614SOL    HW125304   0.255   4.402   3.137  0.6220  0.1073 -1.1461
 4614SOL    HW225305   0.240   4.259   3.081 -0.1836  0.1968  2.9598
 4615SOL     OW25306   1.511   3.864  12.803 -0.4634  0.7242 -0.3596
 4615SOL    HW125307   1.559   3.843  12.883  0.4314 -0.8147 -1.2970
 4615SOL    HW225308   1.587   3.865  12.744  0.1623 -1.6858  0.4482
 4616SOL     OW25309   2.069   4.708   8.106 -0.4570 -0.4094 -0.3513
 4616SOL    HW125310   1.995   0.030   8.063  1.3030  0.8251 -2.1821
 4616SOL    HW225311   2.041   4.618   8.121  1.1039 -0.7872  0.3068
 4617SOL     OW25312   2.530   4.373   1.119  0.4966 -0.5603 -0.1112
 4617SOL    HW125313   2.585   4.444   1.152 -0.1849 -0.5527  1.0075
 4617SOL    HW225314   2.528   4.395   1.025 -0.3118 -1.6279 -0.3356
 4618SOL     OW25315   2.492   2.753  17.263  0.1422  0.4026  0.0165
 4618SOL    HW125316   2.581   2.752  17.227 -0.3687 -3.2961 -1.1231
 4618SOL    HW225317   2.441   2.767  17.183  2.5537  1.2142 -1.3868
 4619SOL     OW25318   0.828   1.080  11.132  0.1726 -0.4093 -0.8051
 4619SOL    HW125319   0.756   1.018  11.127 -2.0587  2.0881  0.1754
 4619SOL    HW225320   0.814   1.116  11.220 -1.6291  0.3910 -1.4180
 4620SOL     OW25321   1.965   1.602   3.885 -0.4854 -0.8584 -0.5862
 4620SOL    HW125322   1.893   1.624   3.945  2.6376 -1.1161  3.2874
 4620SOL    HW225323   1.915   1.574   3.809  1.6202 -1.9284 -1.5791
 4621SOL     OW25324   1.105   2.314  17.127 -0.2686  0.1293 -0.0008
 4621SOL    HW125325   1.042   2.325  17.056 -0.1927  0.0192 -0.0846
 4621SOL    HW225326   1.187   2.345  17.089  0.0708 -1.8726 -0.8853
 4622SOL     OW25327   3.975   4.138  13.228  0.0860  0.8111 -0.0378
 4622SOL    HW125328   4.016   4.054  13.211  0.3960  1.1684 -1.0479
 4622SOL    HW225329   4.049   4.195  13.209  2.0846 -1.3706  1.3214
 4623SOL     OW25330   0.120   2.716   8.604  0.2736  0.1696 -0.5188
 4623SOL    HW125331   0.092   2.680   8.520 -2.3250  1.7159 -0.3348
 4623SOL    HW225332   0.182   2.784   8.577  0.5100  0.7294  1.4046
 4624SOL     OW25333   3.020   4.522  16.675 -0.1170 -0.3849  0.0075
 4624SOL    HW125334   3.048   4.570  16.753 -0.3506  0.2212 -0.2795
 4624SOL    HW225335   2.987   4.439  16.709 -2.3472  0.0397 -1.0942
 4625SOL     OW25336   4.594   1.702   4.099  0.6655 -0.2903 -0.0074
 4625SOL    HW125337   4.589   1.697   4.194  2.9450 -1.5365  0.0604
 4625SOL    HW225338   4.643   1.626   4.067  0.4779 -0.0091 -0.9751
 4626SOL     OW25339   2.197   2.339   4.610 -0.2886 -0.0220  0.2505
 4626SOL    HW125340   2.258   2.355   4.682 -1.3476  0.1174  1.1118
 4626SOL    HW225341   2.264   2.342   4.542  0.1891  2.4981  0.7998
 4627SOL     OW25342   1.202   3.053   0.040 -0.4014  0.3418 -0.2846
 4627SOL    HW125343   1.175   3.023  17.639 -2.9374  1.4312  0.1508
 4627SOL    HW225344   1.224   2.966   0.074  0.9027  0.2038 -1.4802
 4628SOL     OW25345   3.961   1.343   4.933  0.1749  0.1317 -0.2253
 4628SOL    HW125346   3.955   1.308   4.844 -0.5445  1.8148 -0.8310
 4628SOL    HW225347   3.871   1.357   4.963  0.1266  1.1148 -0.8342
 4629SOL     OW25348   0.608   1.710   5.012 -0.1707  0.3807 -0.4687
 4629SOL    HW125349   0.679   1.708   5.077  0.2656  2.2974 -0.8902
 4629SOL    HW225350   0.540   1.666   5.064  1.0895 -1.5555 -0.4630
 4630SOL     OW25351   0.798   2.775   5.988  0.2526 -0.8458 -0.3704
 4630SOL    HW125352   0.778   2.770   6.081 -1.2840  0.2849 -0.6467
 4630SOL    HW225353   0.761   2.859   5.961  2.3474  0.0317 -0.5630
 4631SOL     OW25354   0.364   0.160   7.657 -0.0956  0.3875 -0.8054
 4631SOL    HW125355   0.437   0.178   7.598 -0.6401  3.0621 -0.6726
 4631SOL    HW225356   0.367   0.065   7.650 -0.8346  0.1396  2.3548
 4632SOL     OW25357   4.097   3.289   6.160  0.2475 -0.6026 -0.0445
 4632SOL    HW125358   4.140   3.370   6.187  0.3728 -0.5803 -0.3091
 4632SOL    HW225359   4.171   3.228   6.161  0.5049 -0.2581  1.7544
 4633SOL     OW25360   2.260   2.111   8.328 -0.3430  0.2017 -0.5378
 4633SOL    HW125361   2.214   2.195   8.331 -0.3010  0.2023  0.0335
 4633SOL    HW225362   2.238   2.079   8.415  3.1600 -0.4913  0.1109
 4634SOL     OW25363   2.979   0.653  11.628 -0.0259 -0.2658 -0.4435
 4634SOL    HW125364   3.057   0.628  11.677  0.5059 -0.3673 -1.3370
 4634SOL    HW225365   2.985   0.586  11.560 -0.1089  0.2597 -0.9684
 4635SOL     OW25366   3.999   3.373   3.846  0.4479 -0.4582 -0.3038
 4635SOL    HW125367   4.041   3.318   3.913 -0.0840 -0.9981 -0.4155
 4635SOL    HW225368   4.070   3.425   3.807  0.6715 -2.4994 -2.6120
 4636SOL     OW25369   1.195   2.239   6.386 -0.3218  0.0502  0.5482
 4636SOL    HW125370   1.107   2.202   6.381 -0.1813  0.0183 -1.8311
 4636SOL    HW225371   1.239   2.157   6.409 -1.5658 -1.0957 -1.1676
 4637SOL     OW25372   0.167   2.655   3.342  0.0694 -0.1176 -0.1761
 4637SOL    HW125373   0.247   2.627   3.386  0.6335  3.2187  0.9273
 4637SOL    HW225374   0.201   2.736   3.305  2.1247 -1.2153 -0.6756
 4638SOL     OW25375   1.456   1.553   4.295  0.6267  0.0933  0.0019
 4638SOL    HW125376   1.432   1.487   4.360 -1.2249 -1.3589 -2.1492
 4638SOL    HW225377   1.452   1.496   4.218 -1.0125  1.2897 -0.8022
 4639SOL     OW25378   3.537   0.580   1.433  0.4209 -0.3496 -0.2583
 4639SOL    HW125379   3.597   0.588   1.507 -0.9193  1.4647  0.6243
 4639SOL    HW225380   3.602   0.561   1.365  0.2639 -1.6447 -0.0516
 4640SOL     OW25381   0.546   4.597   0.299 -0.2160 -0.1376  0.4580
 4640SOL    HW125382   0.574   4.679   0.339 -0.6103 -0.5458  1.6046
 4640SOL    HW225383   0.496   4.634   0.227  1.3568 -0.4683 -0.7959
 4641SOL     OW25384   1.312   0.907  10.041 -0.5528 -0.1036  0.7055
 4641SOL    HW125385   1.235   0.862  10.006  0.2839 -1.5527  0.7297
 4641SOL    HW225386   1.367   0.833  10.069  1.8062  1.0381 -0.9001
 4642SOL     OW25387   0.057   3.000   7.655  0.0182  0.5367 -0.1046
 4642SOL    HW125388   0.094   3.017   7.742  0.3057  0.3588 -0.1906
 4642SOL    HW225389   4.684   3.003   7.670 -0.1258 -0.0911 -0.8801
 4643SOL     OW25390   3.381   1.300  14.950  0.1786 -0.6839  0.5832
 4643SOL    HW125391   3.287   1.291  14.964 -0.0771  1.2177  0.1003
 4643SOL    HW225392   3.410   1.339  15.032  1.3238 -0.1231 -0.0761
 4644SOL     OW25393   0.896   4.325   7.045 -0.2066  0.3570  0.0791
 4644SOL    HW125394   0.938   4.281   6.972 -1.5910 -0.8532  0.0032
 4644SOL    HW225395   0.811   4.282   7.035 -0.2186  0.3379  0.2532
 4645SOL     OW25396   3.446   1.135   3.625 -0.3786 -0.1396  0.3005
 4645SOL    HW125397   3.468   1.086   3.546 -0.6285  1.4423 -0.7557
 4645SOL    HW225398   3.494   1.092   3.696 -0.9716  0.3295  0.9849
 4646SOL     OW25399   3.102   2.154   8.954  0.3043  0.8788  0.6149
 4646SOL    HW125400   3.105   2.073   9.005  0.9107 -1.6326 -3.3483
 4646SOL    HW225401   3.089   2.124   8.863  0.0724 -0.3389  1.0489
 4647SOL     OW25402   4.566   1.007   5.579  0.1457 -0.2481 -0.1950
 4647SOL    HW125403   4.588   1.075   5.643 -2.7647  0.2874  0.2707
 4647SOL    HW225404   4.480   1.042   5.553 -0.2400  0.0719  1.5145
 4648SOL     OW25405   4.019   1.336   0.614  0.1911 -0.4775 -0.5818
 4648SOL    HW125406   3.981   1.258   0.573 -0.6438  0.4191 -1.5242
 4648SOL    HW225407   4.065   1.294   0.686 -1.0550 -1.1408 -0.1792
 4649SOL     OW25408   3.567   1.917  10.128 -0.3169 -0.2714  0.1994
 4649SOL    HW125409   3.592   1.839  10.078  2.6827  1.8374 -1.6466
 4649SOL    HW225410   3.501   1.887  10.190 -2.0801  2.7822 -0.2150
 4650SOL     OW25411   3.177   2.474  15.820  0.5534 -0.4600  0.3018
 4650SOL    HW125412   3.112   2.541  15.842 -0.4532 -0.0204 -3.9248
 4650SOL    HW225413   3.139   2.396  15.860  0.8879 -0.9720 -0.3662
 4651SOL     OW25414   0.705   3.747   7.074 -0.0689 -0.0514 -1.1794
 4651SOL    HW125415   0.715   3.748   7.169  2.3104  1.8368 -1.4396
 4651SOL    HW225416   0.645   3.819   7.055  3.4957  2.7045 -1.8305
 4652SOL     OW25417   2.765   3.518   8.041 -0.2194  0.0122  0.5422
 4652SOL    HW125418   2.723   3.433   8.035  2.2169 -1.2144  1.0360
 4652SOL    HW225419   2.691   3.579   8.047 -1.0058 -0.9287  0.2921
 4653SOL     OW25420   4.043   3.140   9.044 -0.0395 -0.5882  0.0801
 4653SOL    HW125421   4.091   3.159   9.125 -0.5617 -0.3567  0.3328
 4653SOL    HW225422   3.963   3.182   9.076 -0.0801 -1.0544  0.5879
 4654SOL     OW25423   4.444   1.896   2.005 -0.6656 -0.6887 -0.3261
 4654SOL    HW125424   4.526   1.942   1.988 -0.1746 -1.9171 -1.2546
 4654SOL    HW225425   4.383   1.954   2.050  2.0192  2.6620 -0.9778
 4655SOL     OW25426   3.139   2.992   5.851 -0.5490 -0.4525 -0.6563
 4655SOL    HW125427   3.131   2.926   5.782 -0.3819 -1.5526  0.3735
 4655SOL    HW225428   3.085   3.064   5.817 -1.2008 -0.1735  0.9655
 4656SOL     OW25429   3.836   4.554   4.313  0.1158 -0.1241 -0.7577
 4656SOL    HW125430   3.868   4.479   4.264 -1.6678 -0.6685 -1.0823
 4656SOL    HW225431   3.865   4.620   4.250  1.3112  0.4067  0.3558
 4657SOL     OW25432   2.024   4.166   1.763  0.3702  0.1367  0.9388
 4657SOL    HW125433   2.014   4.116   1.682  1.4773 -1.0116  1.5180
 4657SOL    HW225434   2.112   4.140   1.789  0.8911  2.2015  1.2534
 4658SOL     OW25435   0.219   2.772  15.534 -0.5305 -0.2828 -0.3489
 4658SOL    HW125436   0.147   2.755  15.595 -0.6660 -1.2258 -0.7633
 4658SOL    HW225437   0.261   2.842  15.583  0.3459  0.7887 -2.6616
 4659SOL     OW25438   0.715   1.880  16.722 -0.1002  0.1418  0.2413
 4659SOL    HW125439   0.747   1.799  16.762  1.7711  1.4960  1.5021
 4659SOL    HW225440   0.621   1.878  16.734 -0.1114 -1.3749 -0.0844
 4660SOL     OW25441   0.730   4.429   5.517 -0.2350 -0.1118  0.0195
 4660SOL    HW125442   0.745   4.420   5.611  2.8652  0.5640 -0.3913
 4660SOL    HW225443   0.796   4.368   5.481 -0.9294 -2.3151  2.4551
 4661SOL     OW25444   3.431   4.712   2.604  0.4821 -0.2412  0.0838
 4661SOL    HW125445   3.357   0.050   2.622  0.4920  0.7343 -3.1155
 4661SOL    HW225446   3.385   4.645   2.554  0.4748 -0.3760  0.2711
 4662SOL     OW25447   1.198   0.459  10.909  0.5045  0.3224 -0.4156
 4662SOL    HW125448   1.188   0.498  10.996 -0.6425 -0.2790 -0.2776
 4662SOL    HW225449   1.262   0.394  10.938 -0.2197 -0.1746  0.0779
 4663SOL     OW25450   0.380   0.434   2.864  0.0222 -0.2995 -0.0234
 4663SOL    HW125451   0.401   0.345   2.893 -0.7930  0.0510  1.6154
 4663SOL    HW225452   0.400   0.427   2.770  0.6138  0.1887  0.0638
 4664SOL     OW25453   3.857   4.083   1.095 -0.0737 -0.1925  0.0954
 4664SOL    HW125454   3.949   4.087   1.067 -0.4649 -1.2017 -1.3430
 4664SOL    HW225455   3.810   4.123   1.022  0.4675 -0.4011 -0.3698
 4665SOL     OW25456   3.383   3.088  13.946 -0.6091  0.4048 -0.1150
 4665SOL    HW125457   3.303   3.062  13.991  0.1437 -0.6169  0.6390
 4665SOL    HW225458   3.346   3.156  13.890  0.2304  0.6646 -0.3530
 4666SOL     OW25459   2.952   1.289   4.649  0.1093  0.0081 -0.0833
 4666SOL    HW125460   3.029   1.301   4.593  0.9820  0.8003  1.2740
 4666SOL    HW225461   2.887   1.342   4.602  0.4105 -0.3341 -0.8861
 4667SOL     OW25462   3.192   0.938   2.436  0.1606 -0.2055  0.3121
 4667SOL    HW125463   3.240   1.015   2.468  2.0461 -0.4490 -1.9451
 4667SOL    HW225464   3.227   0.928   2.347  1.0383  0.3887  0.5864
 4668SOL     OW25465   2.862   4.158   3.569 -0.2324  0.3022  0.2273
 4668SOL    HW125466   2.913   4.191   3.494 -0.1905 -1.3054 -0.4542
 4668SOL    HW225467   2.857   4.068   3.536 -0.8964  0.1720  0.6976
 4669SOL     OW25468   4.352   0.081   0.636  0.0536  0.4887 -0.4145
 4669SOL    HW125469   4.312   0.122   0.712  0.2309 -2.8674  1.4824
 4669SOL    HW225470   4.397   0.007   0.677 -0.1484  0.7827  0.3293
 4670SOL     OW25471   2.943   2.756  15.462 -0.2381  0.1403  0.0165
 4670SOL    HW125472   2.848   2.746  15.472 -0.2905 -0.5936 -1.2586
 4670SOL    HW225473   2.970   2.667  15.483  1.0072  0.7059  0.8123
 4671SOL     OW25474   2.660   3.057  12.931  0.3142 -0.8183 -0.2564
 4671SOL    HW125475   2.629   3.145  12.910 -1.3245 -1.0640  1.1914
 4671SOL    HW225476   2.741   3.059  12.879  0.6249 -0.1523  0.2429
 4672SOL     OW25477   3.616   4.673   7.383  0.7411 -0.2825 -0.0050
 4672SOL    HW125478   3.561   4.690   7.307  0.2476 -0.8229  0.2368
 4672SOL    HW225479   3.679   0.025   7.389  1.1674 -0.5347 -1.5753
 4673SOL     OW25480   1.552   1.076   3.991  0.2294 -0.3207  0.0559
 4673SOL    HW125481   1.548   1.012   3.921  0.5669 -0.0692 -0.1917
 4673SOL    HW225482   1.629   1.034   4.029  0.9942  0.1666 -0.9764
 4674SOL     OW25483   1.987   3.929   0.358 -0.2891 -0.0510  0.3880
 4674SOL    HW125484   2.024   3.879   0.286  0.7890 -1.5694  2.0178
 4674SOL    HW225485   2.028   4.015   0.344  0.4911 -0.6748 -1.2033
 4675SOL     OW25486   2.454   1.446   8.844  0.2013 -0.3917  0.1323
 4675SOL    HW125487   2.486   1.439   8.754 -0.1150  2.2844 -0.1829
 4675SOL    HW225488   2.541   1.442   8.884 -0.0741 -0.6311  0.7001
 4676SOL     OW25489   3.513   0.123   7.926 -0.3858  0.1869  0.1288
 4676SOL    HW125490   3.490   0.082   7.843  1.4331  1.1770 -0.8693
 4676SOL    HW225491   3.532   0.041   7.973 -1.5727  0.6487  1.3977
 4677SOL     OW25492   3.908   0.402   2.525 -0.1828  0.3542  0.0448
 4677SOL    HW125493   3.934   0.317   2.559  0.9119  0.4169 -0.6496
 4677SOL    HW225494   3.816   0.414   2.549 -0.3976 -2.7991  0.6945
 4678SOL     OW25495   0.359   0.509   3.139  0.3240  0.5922  0.2034
 4678SOL    HW125496   0.401   0.595   3.132 -1.1104  1.1701 -1.4143
 4678SOL    HW225497   0.354   0.479   3.048  0.4720  0.1345  0.3440
 4679SOL     OW25498   2.569   1.863   5.220  0.2092 -0.7040  0.0139
 4679SOL    HW125499   2.643   1.823   5.266  0.0794 -2.8998 -1.6657
 4679SOL    HW225500   2.550   1.935   5.281 -2.0237 -2.5714  1.5325
 4680SOL     OW25501   1.111   4.570  17.676  0.1145  0.0421  0.0598
 4680SOL    HW125502   1.152   4.517  17.607  0.1727  1.1223 -0.7419
 4680SOL    HW225503   1.182   4.586   0.053  0.6280  1.5835 -0.9118
 4681SOL     OW25504   0.402   3.961  16.640  0.4711  0.0338  0.6611
 4681SOL    HW125505   0.407   4.044  16.593 -2.2528  0.6555  1.4282
 4681SOL    HW225506   0.306   3.960  16.645  0.3947  1.8995 -0.6076
 4682SOL     OW25507   0.255   1.910  12.716  0.8355 -0.0122 -0.3528
 4682SOL    HW125508   0.215   1.974  12.775 -0.5537 -1.1339 -0.0785
 4682SOL    HW225509   0.300   1.959  12.647  0.7019  1.7493  0.8238
 4683SOL     OW25510   0.324   1.038   9.273 -0.3292  0.4906 -0.1671
 4683SOL    HW125511   0.307   1.119   9.225 -1.7032  0.4684  0.2785
 4683SOL    HW225512   0.353   0.982   9.200 -3.4694  0.1637 -1.1725
 4684SOL     OW25513   4.081   3.470   7.095 -0.9324  0.0673 -0.1892
 4684SOL    HW125514   4.031   3.475   7.014  1.1547 -0.6113 -1.5193
 4684SOL    HW225515   4.105   3.378   7.095 -1.0464  0.0305  0.9202
 4685SOL     OW25516   4.220   2.317   8.893 -0.5691 -0.1478  0.1240
 4685SOL    HW125517   4.303   2.363   8.882 -0.6990 -0.4344 -1.9582
 4685SOL    HW225518   4.256   2.228   8.902 -0.5128  0.0221  1.6383
 4686SOL     OW25519   1.692   1.286   2.194  0.1399  1.0374 -1.2283
 4686SOL    HW125520   1.625   1.228   2.231  1.9409  0.5104  1.1823
 4686SOL    HW225521   1.698   1.257   2.102 -1.2375  0.5022 -1.1590
 4687SOL     OW25522   1.444   2.207  12.012  0.3174  0.3354  0.5528
 4687SOL    HW125523   1.449   2.142  11.942 -1.1857  0.1835  0.5902
 4687SOL    HW225524   1.538   2.221  12.023  0.6433 -0.8612 -0.7908
 4688SOL     OW25525   1.564   3.623   8.946  0.0479 -0.2303 -0.0427
 4688SOL    HW125526   1.611   3.562   8.890 -0.9327 -2.0666  1.1439
 4688SOL    HW225527   1.619   3.701   8.930 -0.3229 -0.2305 -1.2541
 4689SOL     OW25528   1.679   1.488   9.768  0.1637  0.7720  0.0335
 4689SOL    HW125529   1.700   1.397   9.789  0.1851  0.5311 -1.0250
 4689SOL    HW225530   1.750   1.535   9.811  0.7386 -0.8951  0.9022
 4690SOL     OW25531   1.837   3.619   8.202  0.2893 -0.3808 -0.1517
 4690SOL    HW125532   1.895   3.588   8.272  0.3741  0.3770  0.1151
 4690SOL    HW225533   1.854   3.713   8.203 -0.3701 -0.2618 -0.2497
 4691SOL     OW25534   0.536   1.035   1.220 -0.3340  0.1655  0.6634
 4691SOL    HW125535   0.603   1.103   1.215  0.1287 -0.2530  1.1002
 4691SOL    HW225536   0.528   1.012   1.128  1.4791  0.0653  0.5359
 4692SOL     OW25537   2.338   2.117   5.188 -0.7756 -0.2336 -0.3741
 4692SOL    HW125538   2.274   2.153   5.250 -1.2167  0.7227 -1.3815
 4692SOL    HW225539   2.412   2.101   5.247  0.1904 -1.6317 -1.9766
 4693SOL     OW25540   1.346   1.554   3.825 -0.1994 -0.5444 -0.1182
 4693SOL    HW125541   1.320   1.529   3.736  0.6711  0.5948 -0.6851
 4693SOL    HW225542   1.275   1.613   3.851 -0.4209 -1.1085  0.5847
 4694SOL     OW25543   1.555   3.177   5.587  0.0277  0.2851  0.4380
 4694SOL    HW125544   1.550   3.247   5.521 -1.5205  0.0059  0.2815
 4694SOL    HW225545   1.649   3.157   5.581  0.2331  1.7350 -1.1202
 4695SOL     OW25546   3.083   3.608   6.828  0.3419 -0.3339 -1.2157
 4695SOL    HW125547   3.170   3.586   6.860 -1.1856 -3.7442  0.6144
 4695SOL    HW225548   3.043   3.627   6.913 -1.1837  1.8907 -2.4417
 4696SOL     OW25549   3.728   0.151   1.032 -0.2686 -0.3795 -0.1586
 4696SOL    HW125550   3.774   0.078   1.073  0.4824  1.4044  2.2141
 4696SOL    HW225551   3.803   0.210   1.029 -0.1126 -0.6121 -0.7691
 4697SOL     OW25552   3.712   2.265  14.303 -0.3141  0.3273  0.3556
 4697SOL    HW125553   3.808   2.263  14.298 -0.3740 -2.0634  0.1278
 4697SOL    HW225554   3.700   2.188  14.247  3.7616 -1.4383  1.8725
 4698SOL     OW25555   1.420   4.490   7.555 -0.1524  0.1633 -0.7004
 4698SOL    HW125556   1.468   4.532   7.626 -1.9061 -0.0503  0.6252
 4698SOL    HW225557   1.422   4.558   7.487  0.9997 -0.9071 -1.7286
 4699SOL     OW25558   0.790   2.462  12.769 -0.4461 -0.0360  0.0564
 4699SOL    HW125559   0.812   2.544  12.812 -2.5963 -0.1864  1.4380
 4699SOL    HW225560   0.787   2.489  12.677  1.8214 -1.9329 -0.5915
 4700SOL     OW25561   2.416   1.707   4.222 -0.5130 -0.3364 -0.6067
 4700SOL    HW125562   2.423   1.646   4.148 -0.8383 -0.6923 -0.3473
 4700SOL    HW225563   2.462   1.663   4.293  2.1455  0.0989 -2.0540
 4701SOL     OW25564   3.522   1.069   6.198 -0.9034 -0.0661  0.3986
 4701SOL    HW125565   3.528   0.977   6.170  4.2331 -0.2610  2.2644
 4701SOL    HW225566   3.487   1.046   6.284  2.5345  0.5484  1.9373
 4702SOL     OW25567   3.643   1.667   0.137 -0.4318 -0.3580  0.4881
 4702SOL    HW125568   3.559   1.635   0.169 -0.3192 -1.9348 -0.7560
 4702SOL    HW225569   3.619   1.757   0.115  2.1639  0.1823 -0.1457
 4703SOL     OW25570   3.200   4.068   3.188  0.1936  0.2297 -0.2676
 4703SOL    HW125571   3.177   4.066   3.281 -2.9663  0.2939 -1.0521
 4703SOL    HW225572   3.136   4.007   3.152  1.2652  0.0442 -1.8860
 4704SOL     OW25573   1.130   3.262   1.783  0.2953  0.4307  0.0637
 4704SOL    HW125574   1.061   3.327   1.796 -1.3986 -0.9148 -2.1465
 4704SOL    HW225575   1.197   3.329   1.773 -0.8945  1.7387  0.7826
 4705SOL     OW25576   4.319   1.840  15.582 -0.1862  0.4963  0.1838
 4705SOL    HW125577   4.368   1.861  15.502  0.0475  0.0138  0.2028
 4705SOL    HW225578   4.245   1.901  15.574 -0.1320  0.5767  0.3027
 4706SOL     OW25579   1.191   4.403   8.717  0.8196  0.1264  0.0639
 4706SOL    HW125580   1.171   4.346   8.643 -1.8641  1.0265  0.0969
 4706SOL    HW225581   1.162   4.349   8.790 -0.3297  0.4232 -0.1721
 4707SOL     OW25582   0.386   1.985   7.780 -0.4628 -0.2094  0.3140
 4707SOL    HW125583   0.293   1.973   7.761 -0.7657 -0.6355  2.1014
 4707SOL    HW225584   0.396   2.052   7.712 -1.3749  1.2203  1.5931
 4708SOL     OW25585   0.487   3.307  16.440 -0.5733 -0.0398 -0.7595
 4708SOL    HW125586   0.536   3.339  16.515  1.8151 -0.1497 -2.2953
 4708SOL    HW225587   0.430   3.247  16.488 -0.9578  0.5117 -0.5254
 4709SOL     OW25588   2.337   4.079  15.719 -0.0870 -0.3353 -0.1746
 4709SOL    HW125589   2.383   4.086  15.802 -2.5928 -1.4855  1.3289
 4709SOL    HW225590   2.397   4.134  15.669 -0.0740 -1.1752 -1.0908
 4710SOL     OW25591   4.003   2.945   6.934  0.2248  0.1366  0.8197
 4710SOL    HW125592   3.935   3.009   6.914 -0.5116 -0.6778  0.7019
 4710SOL    HW225593   3.955   2.882   6.989 -1.1564 -0.8290 -1.5035
 4711SOL     OW25594   1.249   2.653  17.101  0.3957  0.0931  0.5749
 4711SOL    HW125595   1.244   2.568  17.056 -3.5223  2.3622 -3.3079
 4711SOL    HW225596   1.208   2.634  17.185 -1.9389  0.9156 -0.3835
 4712SOL     OW25597   4.455   0.094   7.858  0.2599  0.1048  0.1170
 4712SOL    HW125598   4.531   0.119   7.911 -0.0639  0.2603  0.5158
 4712SOL    HW225599   4.422   0.178   7.825  0.8300 -0.0194 -0.7577
 4713SOL     OW25600   2.740   0.696   7.737  0.7036 -0.5227 -0.0282
 4713SOL    HW125601   2.824   0.702   7.692  0.7641 -0.5120  0.0849
 4713SOL    HW225602   2.706   0.784   7.724  0.4504 -0.6295 -0.1014
 4714SOL     OW25603   1.938   1.122   9.178  0.3358 -0.1374 -0.0325
 4714SOL    HW125604   1.951   1.216   9.195  1.9086 -0.0467 -1.7542
 4714SOL    HW225605   1.934   1.090   9.269 -0.1920  2.1430  0.7583
 4715SOL     OW25606   0.657   4.718   2.956  0.4858  0.1936 -0.5860
 4715SOL    HW125607   0.674   4.704   2.863 -0.8002 -0.5568 -0.7116
 4715SOL    HW225608   0.677   4.640   3.008 -0.0650  0.4672  0.0441
 4716SOL     OW25609   0.748   3.784  12.557  0.2464  0.4220 -0.1459
 4716SOL    HW125610   0.780   3.698  12.529  2.0966 -0.3668  4.4379
 4716SOL    HW225611   0.806   3.811  12.628 -1.2481 -1.1674  1.6863
 4717SOL     OW25612   1.676   1.309   4.037  0.1685  0.1532 -0.0669
 4717SOL    HW125613   1.623   1.229   4.032  0.8459 -0.2692 -0.5188
 4717SOL    HW225614   1.605   1.360   4.075 -1.6406 -1.7076 -0.9081
 4718SOL     OW25615   4.157   0.078  10.262  0.7381  0.2721 -0.7070
 4718SOL    HW125616   4.233   0.125  10.225  1.5795 -1.7495 -1.5332
 4718SOL    HW225617   4.198   4.713  10.248 -1.9336 -1.1068  0.1261
 4719SOL     OW25618   1.394   1.026   4.447  0.1277 -0.2153 -0.2529
 4719SOL    HW125619   1.345   1.023   4.365  2.1254 -0.8671 -1.3965
 4719SOL    HW225620   1.432   0.938   4.441  1.6164  0.3040  1.7518
 4720SOL     OW25621   3.996   2.228  14.209 -0.0280  0.0156 -0.8734
 4720SOL    HW125622   4.087   2.252  14.193  0.6035 -1.2979  0.7164
 4720SOL    HW225623   4.015   2.134  14.205  1.0434  0.1846  0.3301
 4721SOL     OW25624   2.329   3.396   8.684  0.0373 -0.0249 -0.2150
 4721SOL    HW125625   2.326   3.446   8.766  0.3284 -2.2927  1.1809
 4721SOL    HW225626   2.364   3.311   8.711 -1.3395 -0.1285  1.2251
 4722SOL     OW25627   4.520   1.597   1.669  0.1460 -0.0387  0.2219
 4722SOL    HW125628   4.600   1.549   1.650  0.0643 -0.2223  0.3301
 4722SOL    HW225629   4.488   1.545   1.743 -0.0553  1.6205  1.2972
 4723SOL     OW25630   2.809   2.595   6.417 -0.2974 -0.2656  0.0148
 4723SOL    HW125631   2.737   2.646   6.380  1.1973  1.7863 -0.0567
 4723SOL    HW225632   2.766   2.532   6.475 -0.8041  0.2461  0.1942
 4724SOL     OW25633   3.172   1.494   7.553 -0.3690  0.7329 -0.0809
 4724SOL    HW125634   3.201   1.458   7.469 -0.0257 -1.3401  0.9246
 4724SOL    HW225635   3.248   1.482   7.611  1.6577  1.2619 -2.6159
 4725SOL     OW25636   2.372   0.450   8.271 -0.2660  0.3560  0.1956
 4725SOL    HW125637   2.306   0.411   8.215  2.0818 -2.7344 -0.3965
 4725SOL    HW225638   2.390   0.523   8.212  0.3840 -0.7673 -0.9944
 4726SOL     OW25639   3.434   2.899   4.125  0.3444  0.0663  0.1578
 4726SOL    HW125640   3.363   2.927   4.183 -0.0913  0.7388 -0.6993
 4726SOL    HW225641   3.384   2.903   4.043 -1.7175 -0.3614  1.4006
 4727SOL     OW25642   4.450   4.134   8.411 -0.0978  0.2304  0.4599
 4727SOL    HW125643   4.389   4.063   8.391 -1.8770  1.6074  0.9501
 4727SOL    HW225644   4.526   4.093   8.453  0.3971  0.4651 -0.2123
 4728SOL     OW25645   1.615   0.954   8.708 -0.1293  0.0235 -0.3605
 4728SOL    HW125646   1.672   0.933   8.634 -1.5393 -0.3609 -1.3432
 4728SOL    HW225647   1.617   0.879   8.768  2.1177  0.4845  0.1431
 4729SOL     OW25648   3.784   4.283   7.276  0.3665  0.2436  0.4292
 4729SOL    HW125649   3.705   4.294   7.223  0.1287 -4.0556 -0.1348
 4729SOL    HW225650   3.788   4.188   7.266 -1.3976  0.3968 -1.6068
 4730SOL     OW25651   1.000   0.952   3.663  0.3592  0.2484  0.0027
 4730SOL    HW125652   1.090   0.966   3.632  1.0218 -2.2645  0.7373
 4730SOL    HW225653   0.982   0.858   3.659 -2.5872  0.8720 -1.2977
 4731SOL     OW25654   3.626   0.981   4.315  0.3274 -0.7031 -0.4420
 4731SOL    HW125655   3.550   0.923   4.312  1.0896 -1.8024  1.3176
 4731SOL    HW225656   3.676   0.952   4.392  1.1045 -0.8654 -0.9985
 4732SOL     OW25657   1.510   3.540  16.711  0.6160  0.4379  0.1015
 4732SOL    HW125658   1.437   3.561  16.653  1.0261  0.2861 -0.4753
 4732SOL    HW225659   1.497   3.613  16.771  0.1757  1.1129 -0.8119
 4733SOL     OW25660   3.815   3.225   0.546  0.2224 -0.3094 -0.2760
 4733SOL    HW125661   3.868   3.286   0.598  0.1522 -1.5128  1.1976
 4733SOL    HW225662   3.831   3.257   0.457  1.2113  0.6249  0.2424
 4734SOL     OW25663   2.505   2.912   4.058 -0.4316  0.4465 -0.6595
 4734SOL    HW125664   2.599   2.926   4.046  0.0420 -1.5063  0.8438
 4734SOL    HW225665   2.459   2.975   4.003 -1.5806 -0.2339 -0.4831
 4735SOL     OW25666   3.252   3.765  15.004 -0.0695 -0.0531 -0.1697
 4735SOL    HW125667   3.190   3.694  15.015  0.9647 -0.7368  1.1866
 4735SOL    HW225668   3.312   3.751  15.077  1.0999  1.2497 -0.8664
 4736SOL     OW25669   2.888   3.630   4.143 -0.4611  0.0371 -0.2447
 4736SOL    HW125670   2.938   3.554   4.173 -2.0682 -1.2564 -0.8870
 4736SOL    HW225671   2.828   3.650   4.215  0.9194  1.2097  0.5915
 4737SOL     OW25672   1.207   0.327  14.904 -0.2103 -0.0397 -0.3470
 4737SOL    HW125673   1.202   0.347  14.810  1.4832  0.9881 -0.2215
 4737SOL    HW225674   1.165   0.241  14.907  0.0226 -0.2151 -1.8532
 4738SOL     OW25675   2.457   2.972  14.115 -0.2495  0.2309  0.4257
 4738SOL    HW125676   2.441   2.878  14.116 -0.5902  0.2393 -3.2450
 4738SOL    HW225677   2.378   3.016  14.148 -0.9107 -0.9509  0.3945
 4739SOL     OW25678   3.835   0.956   2.504  0.0250  0.4258 -0.1643
 4739SOL    HW125679   3.860   0.967   2.596 -1.0186  0.2205  0.1354
 4739SOL    HW225680   3.796   0.869   2.498 -0.4095  0.6535 -0.5562
 4740SOL     OW25681   4.166   4.617   5.530  0.5506 -0.3119  0.3497
 4740SOL    HW125682   4.191   4.707   5.511  0.4657 -0.6414 -1.3113
 4740SOL    HW225683   4.187   4.614   5.624  0.9930 -0.5699  0.2375
 4741SOL     OW25684   2.943   1.717   5.598 -0.1754  0.0661  0.1039
 4741SOL    HW125685   2.925   1.786   5.662  2.5666  0.2941  0.6390
 4741SOL    HW225686   2.859   1.673   5.581  0.9902 -1.2904 -2.2506
 4742SOL     OW25687   3.893   1.426   3.334  0.2242  0.8767 -0.6455
 4742SOL    HW125688   3.929   1.447   3.420  0.2629  1.6742 -0.8558
 4742SOL    HW225689   3.931   1.503   3.291  2.1372 -0.6981 -1.7744
 4743SOL     OW25690   3.418   4.380   5.945 -0.9010  0.1059  0.1405
 4743SOL    HW125691   3.426   4.364   5.851  0.2437 -1.9606  0.5828
 4743SOL    HW225692   3.373   4.464   5.945  1.2184  1.2402  2.0689
 4744SOL     OW25693   1.078   2.941   8.643 -0.3236  0.2541  0.1309
 4744SOL    HW125694   1.023   2.869   8.675 -0.3592  1.0418  1.8064
 4744SOL    HW225695   1.134   2.961   8.718 -0.9491 -1.6695  1.1289
 4745SOL     OW25696   1.809   0.752  11.668 -0.1510  0.2963 -0.1881
 4745SOL    HW125697   1.827   0.721  11.580  1.0473  0.8473 -0.1353
 4745SOL    HW225698   1.858   0.835  11.666 -0.6043  0.4847 -2.8781
 4746SOL     OW25699   2.111   0.898   5.642  0.5362  0.2483  0.5987
 4746SOL    HW125700   2.197   0.917   5.603 -0.4423 -0.6486 -2.0047
 4746SOL    HW225701   2.090   0.985   5.674 -0.4875  0.0800  0.3835
 4747SOL     OW25702   1.731   0.205   2.079 -0.9102 -0.2014 -0.0097
 4747SOL    HW125703   1.784   0.204   2.159 -2.2872 -1.6092  0.8917
 4747SOL    HW225704   1.771   0.274   2.028  0.9230 -0.2343  1.3823
 4748SOL     OW25705   2.281   1.631   8.481 -0.4061  0.3350 -0.0110
 4748SOL    HW125706   2.367   1.645   8.519 -0.6247 -3.8965  2.1425
 4748SOL    HW225707   2.298   1.550   8.432  1.2386  0.7606 -0.1284
 4749SOL     OW25708   2.967   0.132   8.200  0.3306 -0.0593  0.2088
 4749SOL    HW125709   3.043   0.140   8.257 -0.3480  2.0279  0.8092
 4749SOL    HW225710   2.915   0.066   8.246 -1.9008  0.8712 -0.9636
 4750SOL     OW25711   1.930   2.640   6.112 -0.4206 -0.1303 -0.7220
 4750SOL    HW125712   1.842   2.603   6.120  0.2999 -1.3913  1.3707
 4750SOL    HW225713   1.959   2.614   6.025  0.3056  0.8618 -0.7677
 4751SOL     OW25714   4.597   0.478   7.306  0.6032  0.0916 -0.4507
 4751SOL    HW125715   4.688   0.504   7.313  1.2269 -2.0345 -0.5874
 4751SOL    HW225716   4.578   0.476   7.400 -1.5481 -1.4397 -0.9054
 4752SOL     OW25717   4.051   1.100   7.337 -0.3401  1.3089 -0.5785
 4752SOL    HW125718   4.071   1.142   7.421 -0.2657 -2.1904  1.1656
 4752SOL    HW225719   4.066   1.010   7.365 -2.4885  1.3209  0.6132
 4753SOL     OW25720   4.107   2.366   3.168 -0.1944  0.5012  0.5085
 4753SOL    HW125721   4.139   2.287   3.123  0.2994  1.2513 -0.4597
 4753SOL    HW225722   4.181   2.388   3.225 -0.4343  1.5785  0.3910
 4754SOL     OW25723   1.234   2.749  14.071 -0.1995 -0.2472  0.1527
 4754SOL    HW125724   1.176   2.696  14.015  0.8430  0.9445 -2.0588
 4754SOL    HW225725   1.178   2.826  14.061  1.8830  1.1535 -0.8440
 4755SOL     OW25726   1.496   2.824   9.693 -0.4304  0.0409  0.0029
 4755SOL    HW125727   1.562   2.796   9.630  0.6472  1.9875  0.2848
 4755SOL    HW225728   1.514   2.916   9.678  3.3592 -0.5254  1.2123
 4756SOL     OW25729   4.484   2.017   7.270 -0.0012  0.1241  0.7297
 4756SOL    HW125730   4.496   1.930   7.232  0.7137  0.5273  0.0447
 4756SOL    HW225731   4.521   2.072   7.202  0.4101  3.6921  3.8267
 4757SOL     OW25732   0.805   2.811   5.284 -0.2596  0.0611  0.1198
 4757SOL    HW125733   0.736   2.830   5.348  1.9761 -1.2943  2.9575
 4757SOL    HW225734   0.779   2.732   5.237  2.6346 -1.3375  0.8285
 4758SOL     OW25735   3.953   1.034   6.270  0.5202  0.0778  0.3699
 4758SOL    HW125736   3.887   1.091   6.310  1.8192  1.5593  0.4054
 4758SOL    HW225737   4.011   1.092   6.222 -1.2887  0.1124 -1.7843
 4759SOL     OW25738   1.239   1.133   6.414  0.0788 -0.0462 -0.6733
 4759SOL    HW125739   1.240   1.218   6.457  2.4788 -0.4703  0.0797
 4759SOL    HW225740   1.285   1.153   6.332 -0.4631 -3.6782 -1.8687
 4760SOL     OW25741   1.917   2.264  14.945  0.4839 -0.0629 -0.1104
 4760SOL    HW125742   1.946   2.243  14.857 -0.9568  0.0891 -0.6095
 4760SOL    HW225743   1.994   2.298  14.991  0.3722  0.4975 -0.3422
 4761SOL     OW25744   3.814   3.843   3.647 -0.3860 -0.3894 -0.2558
 4761SOL    HW125745   3.748   3.809   3.707 -1.2333 -2.0868 -2.1327
 4761SOL    HW225746   3.894   3.821   3.695 -0.2411  0.9809  0.1413
 4762SOL     OW25747   0.571   1.063   4.573 -0.4252 -0.0195 -0.2300
 4762SOL    HW125748   0.530   1.146   4.549  1.4873  1.5079  1.8183
 4762SOL    HW225749   0.506   0.994   4.562 -0.4459 -0.1048  0.4042
 4763SOL     OW25750   1.187   2.253  15.332  0.1996  0.4097  0.1728
 4763SOL    HW125751   1.218   2.262  15.422 -1.6231 -1.3604  0.9808
 4763SOL    HW225752   1.147   2.336  15.307  0.0214  0.0981 -0.5597
 4764SOL     OW25753   4.438   2.101   3.317  0.0150 -0.1870 -0.1615
 4764SOL    HW125754   4.457   2.184   3.362 -1.6589 -0.8102  1.7293
 4764SOL    HW225755   4.504   2.093   3.248  1.1066 -0.3199  0.8957
 4765SOL     OW25756   4.633   2.080   7.046  0.1798 -0.5976 -0.1011
 4765SOL    HW125757   4.648   2.030   6.966  1.3414  0.2355 -0.4100
 4765SOL    HW225758   4.704   2.048   7.102 -0.0851  0.9321  1.1323
 4766SOL     OW25759   3.363   2.911  12.010  0.2863  0.6047  0.0011
 4766SOL    HW125760   3.317   2.958  12.080 -0.9565 -0.8714  0.1528
 4766SOL    HW225761   3.423   2.981  11.982 -3.6245  2.7848 -2.8293
 4767SOL     OW25762   4.291   3.085   2.736  0.0664 -0.5848  0.4212
 4767SOL    HW125763   4.382   3.077   2.706  0.0223  0.3261  0.0421
 4767SOL    HW225764   4.258   3.001   2.705 -0.7225 -0.1370  0.0521
 4768SOL     OW25765   4.239   4.502   6.972 -0.0946  0.1714  0.0734
 4768SOL    HW125766   4.240   4.556   7.050 -0.9923 -0.4837  0.5247
 4768SOL    HW225767   4.175   4.437   7.001  1.4398 -1.9385 -1.2416
 4769SOL     OW25768   3.677   2.945   5.317 -0.0014 -0.0240  0.2229
 4769SOL    HW125769   3.737   2.999   5.370 -0.6312 -0.0379  0.9445
 4769SOL    HW225770   3.606   3.004   5.294 -0.4188 -0.8449 -0.6120
 4770SOL     OW25771   3.967   2.318   9.153  0.3619  0.7055  0.4033
 4770SOL    HW125772   4.004   2.335   9.066  2.2445  1.0856  1.2996
 4770SOL    HW225773   3.875   2.318   9.124 -0.2626  2.9600  2.3991
 4771SOL     OW25774   3.864   1.419   6.543 -0.1785  0.1144 -0.7994
 4771SOL    HW125775   3.803   1.373   6.485 -0.4040  0.0358 -0.4946
 4771SOL    HW225776   3.907   1.484   6.487  0.6764 -0.6447 -1.0274
 4772SOL     OW25777   1.482   4.623   6.652 -0.0942  0.6447  0.6167
 4772SOL    HW125778   1.425   4.697   6.671  0.6501  1.6705 -1.0576
 4772SOL    HW225779   1.565   4.670   6.662 -0.7336  1.4152  2.2930
 4773SOL     OW25780   2.231   1.217  14.013  0.6435 -0.2415  0.2907
 4773SOL    HW125781   2.253   1.140  13.960  1.9378 -1.4244  2.5718
 4773SOL    HW225782   2.247   1.178  14.099  0.0146  0.9897  0.9698
 4774SOL     OW25783   3.990   3.376   5.302 -0.2392  0.3486  0.1006
 4774SOL    HW125784   4.078   3.413   5.296 -0.6562  1.0206 -2.0843
 4774SOL    HW225785   4.001   3.300   5.359 -1.1393  0.5878  0.6044
 4775SOL     OW25786   4.013   1.025   5.860 -0.4625  0.4219 -0.4453
 4775SOL    HW125787   3.921   1.011   5.883  0.5309  0.2202  3.4365
 4775SOL    HW225788   4.052   0.958   5.917  1.2576  2.1675  0.4215
 4776SOL     OW25789   2.408   1.468   1.337  0.1134 -0.6327  0.0692
 4776SOL    HW125790   2.493   1.508   1.355  1.4975 -2.5964 -2.1154
 4776SOL    HW225791   2.434   1.395   1.281 -1.3598 -2.1806  1.4066
 4777SOL     OW25792   0.838   0.246  11.792  0.1217  0.3515  0.0106
 4777SOL    HW125793   0.919   0.250  11.842  0.3066 -2.4473 -0.0514
 4777SOL    HW225794   0.858   0.208  11.706  0.7836  1.0508 -0.1388
 4778SOL     OW25795   2.864   2.419   7.274 -0.2798 -0.2641  0.2736
 4778SOL    HW125796   2.800   2.447   7.339  1.3422  2.3158  0.7672
 4778SOL    HW225797   2.829   2.333   7.251 -0.5209  0.3047 -1.4848
 4779SOL     OW25798   4.384   3.641  16.152  0.1137 -0.1088  0.0691
 4779SOL    HW125799   4.373   3.702  16.225 -1.7269 -0.3729  0.0168
 4779SOL    HW225800   4.439   3.573  16.192 -0.9088 -0.8320  0.2317
 4780SOL     OW25801   4.596   3.545   5.627 -0.1991  0.8438 -0.2252
 4780SOL    HW125802   4.663   3.613   5.631  1.3950 -0.8715  2.3365
 4780SOL    HW225803   4.511   3.590   5.626 -0.5635  0.1583  0.3978
 4781SOL     OW25804   4.428   1.405  11.289  0.2073 -0.5098  0.3139
 4781SOL    HW125805   4.445   1.450  11.371 -1.5068 -1.1536  1.0267
 4781SOL    HW225806   4.395   1.480  11.239  1.0468  1.1206  2.2080
 4782SOL     OW25807   4.387   0.170   4.357  0.0290  0.1690  0.0478
 4782SOL    HW125808   4.369   0.264   4.355  0.9078  0.3175 -1.5841
 4782SOL    HW225809   4.396   0.159   4.451 -3.9098  0.6041  0.4665
 4783SOL     OW25810   0.202   0.892   2.086  0.0890 -0.0011 -0.1279
 4783SOL    HW125811   0.228   0.916   1.997  0.3305 -0.4991 -0.1960
 4783SOL    HW225812   0.289   0.868   2.120  1.0984  0.2024 -2.5881
 4784SOL     OW25813   3.486   3.174   4.258 -0.2280  0.2107  0.2352
 4784SOL    HW125814   3.391   3.173   4.269 -0.2453 -2.2993 -0.1408
 4784SOL    HW225815   3.498   3.088   4.219  1.4800  0.2763  0.5971
 4785SOL     OW25816   2.798   0.696  14.769 -0.2542  0.3657 -0.0015
 4785SOL    HW125817   2.730   0.763  14.769 -0.1600  0.4792  1.4152
 4785SOL    HW225818   2.821   0.716  14.860  0.9597 -0.6726 -0.0712
 4786SOL     OW25819   3.343   0.212   8.155  0.5595 -0.3452 -0.2004
 4786SOL    HW125820   3.434   0.182   8.154  0.5188 -0.4689 -0.0046
 4786SOL    HW225821   3.345   0.306   8.136 -2.6487  0.1397  1.8810
 4787SOL     OW25822   1.751   3.477  16.782 -0.4870 -0.2239  0.4858
 4787SOL    HW125823   1.656   3.483  16.769 -0.0641  1.0533 -2.0413
 4787SOL    HW225824   1.763   3.546  16.848  1.0979  0.2591 -0.3048
 4788SOL     OW25825   4.392   2.825  13.404  0.6153 -0.0773 -0.3903
 4788SOL    HW125826   4.425   2.754  13.458 -0.6107  0.2030  0.7413
 4788SOL    HW225827   4.332   2.783  13.343 -2.0222  1.1171  1.3471
 4789SOL     OW25828   2.373   2.536   2.785  0.2856  0.1229  0.4884
 4789SOL    HW125829   2.330   2.514   2.867  0.3046 -2.2931 -0.1477
 4789SOL    HW225830   2.312   2.499   2.721 -2.7234  1.7236  2.4136
 4790SOL     OW25831   0.711   4.413   5.814  0.4355 -0.0924 -0.4250
 4790SOL    HW125832   0.642   4.346   5.805 -1.4768  1.9823 -1.2806
 4790SOL    HW225833   0.790   4.366   5.839 -1.3511 -1.9673  1.7178
 4791SOL     OW25834   1.786   0.234   3.621  0.7113  0.3141 -0.6667
 4791SOL    HW125835   1.715   0.170   3.617 -0.1010  1.2582 -1.5532
 4791SOL    HW225836   1.807   0.233   3.714  0.9122  1.0343 -0.7024
 4792SOL     OW25837   4.233   0.832   9.260 -0.0427 -0.2511 -0.1269
 4792SOL    HW125838   4.278   0.885   9.326  0.8974 -2.3243  0.9196
 4792SOL    HW225839   4.154   0.803   9.306 -0.4393 -2.5738 -2.3059
 4793SOL     OW25840   4.331   1.267   7.675  0.1773 -0.1600 -0.4056
 4793SOL    HW125841   4.421   1.253   7.646  0.1880  2.1827 -1.5301
 4793SOL    HW225842   4.330   1.363   7.681 -1.1950 -0.3882  2.6876
 4794SOL     OW25843   3.275   4.166   1.679 -0.0353  0.1864 -0.2206
 4794SOL    HW125844   3.352   4.133   1.632 -0.9190 -0.3663 -1.2747
 4794SOL    HW225845   3.306   4.252   1.707  2.6234 -1.2677  1.3207
 4795SOL     OW25846   0.219   0.147  13.610 -0.9970 -0.1943 -0.0852
 4795SOL    HW125847   0.255   0.066  13.645 -1.5088 -0.4595 -0.1712
 4795SOL    HW225848   0.198   0.200  13.688  2.5263  1.2686 -0.1238
 4796SOL     OW25849   4.573   3.709   7.229 -0.0085 -0.1321 -1.1398
 4796SOL    HW125850   4.653   3.723   7.178  1.4538  0.0631  1.2231
 4796SOL    HW225851   4.528   3.793   7.217 -1.6252 -0.3087  3.5336
 4797SOL     OW25852   0.159   1.285   3.872 -0.1204  0.0530 -0.1829
 4797SOL    HW125853   0.241   1.276   3.922 -1.9082 -3.9127  2.0613
 4797SOL    HW225854   0.189   1.328   3.792  0.0664 -0.1074 -0.2002
 4798SOL     OW25855   2.525   0.531   0.317 -0.1468  0.0175  0.8731
 4798SOL    HW125856   2.501   0.546   0.408  0.6683  0.5657  0.9937
 4798SOL    HW225857   2.438   0.503   0.288 -0.6526  0.6127  1.8252
 4799SOL     OW25858   0.674   4.291   7.934 -0.1426 -0.3106 -0.2820
 4799SOL    HW125859   0.596   4.345   7.924  0.2097 -0.2698 -2.8323
 4799SOL    HW225860   0.669   4.249   8.020 -0.0938  1.8655  0.7827
 4800SOL     OW25861   4.437   0.517  13.745  0.2033 -0.4122  0.2175
 4800SOL    HW125862   4.519   0.515  13.696 -0.6558  0.1813 -1.2404
 4800SOL    HW225863   4.385   0.454  13.696 -1.2107  0.8242  0.1258
 4801SOL     OW25864   4.389   4.081   3.838  0.0534 -0.9876 -0.7227
 4801SOL    HW125865   4.303   4.086   3.882  1.1618  0.6475  1.2506
 4801SOL    HW225866   4.374   4.005   3.782  1.8275 -1.1668 -0.9437
 4802SOL     OW25867   1.592   4.427   7.302  0.3424 -0.2149 -0.4160
 4802SOL    HW125868   1.519   4.488   7.317  1.9752  2.1971 -2.1692
 4802SOL    HW225869   1.573   4.337   7.327  2.4066  0.0349  1.9862
 4803SOL     OW25870   4.718   2.515   7.659 -0.4465  0.0039 -0.2558
 4803SOL    HW125871   0.043   2.437   7.690 -0.7674  0.2957  0.9589
 4803SOL    HW225872   0.056   2.581   7.697  0.8308 -1.2712 -0.0636
 4804SOL     OW25873   1.513   4.449   0.312 -0.2522  0.1582  0.1631
 4804SOL    HW125874   1.607   4.431   0.306 -0.5668 -1.4778  0.0259
 4804SOL    HW225875   1.520   4.519   0.376  1.4747  1.5124 -1.5080
 4805SOL     OW25876   4.255   0.900   1.561  0.3492  0.2056  0.1458
 4805SOL    HW125877   4.276   0.850   1.482  0.0460 -0.8629  0.7391
 4805SOL    HW225878   4.284   0.989   1.541 -1.3432  1.1654  1.9586
 4806SOL     OW25879   0.534   0.656   8.787 -0.3464  0.1088 -0.0192
 4806SOL    HW125880   0.466   0.715   8.757 -2.1953 -1.6318  0.7704
 4806SOL    HW225881   0.582   0.713   8.847 -1.0485  0.2900  0.3720
 4807SOL     OW25882   0.930   0.475   7.125  0.1447  0.0820 -0.3985
 4807SOL    HW125883   0.970   0.409   7.069 -0.9930  0.8994 -2.1660
 4807SOL    HW225884   0.837   0.457   7.116  0.0730 -1.0541  2.4601
 4808SOL     OW25885   2.275   2.640  17.368  0.0523  0.5471 -0.1953
 4808SOL    HW125886   2.361   2.655  17.330 -0.0697 -2.2016 -1.5087
 4808SOL    HW225887   2.292   2.593  17.450  0.6452  2.1424  0.6029
 4809SOL     OW25888   2.973   2.064  17.668  0.0215 -0.1160  0.0329
 4809SOL    HW125889   3.018   2.148  17.667 -1.5900  0.7360 -1.4601
 4809SOL    HW225890   2.899   2.077  17.609  1.5646 -0.2321 -1.9232
 4810SOL     OW25891   4.270   4.543   1.281  0.2737  0.0577  0.2780
 4810SOL    HW125892   4.333   4.530   1.352  0.2309 -0.6181  0.1972
 4810SOL    HW225893   4.193   4.494   1.308  0.7493  1.3458  4.0239
 4811SOL     OW25894   3.481   2.152  13.793  0.2166 -0.6555 -0.2337
 4811SOL    HW125895   3.429   2.231  13.804 -1.1264 -1.2558 -2.1768
 4811SOL    HW225896   3.500   2.154  13.699 -0.1663 -2.6154 -0.3617
 4812SOL     OW25897   4.294   4.035   6.376  0.1011 -0.1154  0.2505
 4812SOL    HW125898   4.354   3.974   6.331  0.1616  0.0104  0.1603
 4812SOL    HW225899   4.227   3.969   6.394  2.3456 -2.2630  0.8199
 4813SOL     OW25900   3.499   4.345   2.065 -0.0227  0.6131 -0.2668
 4813SOL    HW125901   3.410   4.360   2.035  0.5141  2.0177 -1.1745
 4813SOL    HW225902   3.489   4.317   2.156 -2.1914 -0.7321 -0.9495
 4814SOL     OW25903   0.319   0.738  15.817  0.4509 -0.1048 -0.9077
 4814SOL    HW125904   0.367   0.820  15.808 -2.1581  1.4766 -0.3467
 4814SOL    HW225905   0.370   0.682  15.758 -0.4485 -1.3982 -0.4584
 4815SOL     OW25906   0.589   0.586   0.892 -0.5393 -0.5755 -0.3051
 4815SOL    HW125907   0.546   0.644   0.955  1.8784 -0.9103  1.6356
 4815SOL    HW225908   0.609   0.654   0.827 -2.2853  0.1231 -0.1048
 4816SOL     OW25909   1.278   2.284   6.876  0.5714 -0.2811  0.5622
 4816SOL    HW125910   1.326   2.269   6.795 -0.9443  0.3636 -0.4692
 4816SOL    HW225911   1.225   2.355   6.839 -1.0382 -1.6036  0.3260
 4817SOL     OW25912   1.424   3.008   5.059  0.3335 -0.2464 -0.3713
 4817SOL    HW125913   1.444   2.927   5.011 -0.8846 -0.6180 -0.2483
 4817SOL    HW225914   1.332   2.990   5.078 -0.0912  0.9624 -1.3546
 4818SOL     OW25915   1.702   2.128   5.031 -0.1021  0.0407  0.4050
 4818SOL    HW125916   1.754   2.093   4.959  2.6655  2.0603  1.4180
 4818SOL    HW225917   1.626   2.173   4.997 -0.0976 -1.1391 -1.1496
 4819SOL     OW25918   4.355   1.122  11.251 -0.3443 -0.3079 -0.4212
 4819SOL    HW125919   4.392   1.210  11.248 -1.2537  0.1204  0.6206
 4819SOL    HW225920   4.409   1.078  11.187  1.8349 -0.7439  1.7101
 4820SOL     OW25921   3.533   3.484   4.266  0.4485  0.3686 -0.0512
 4820SOL    HW125922   3.612   3.464   4.316  2.1137  0.6667 -2.5605
 4820SOL    HW225923   3.467   3.449   4.326 -1.0236  1.7015 -0.8962
 4821SOL     OW25924   0.035   1.956   3.933  0.1669 -0.0579 -0.0729
 4821SOL    HW125925   4.720   2.011   4.003  0.8217  1.0009 -0.5753
 4821SOL    HW225926   0.087   1.898   3.989  2.6410 -0.2363 -2.5877
 4822SOL     OW25927   2.192   1.336   4.298 -0.1884  0.4772 -0.3274
 4822SOL    HW125928   2.174   1.367   4.386 -0.4762  0.5460 -0.4077
 4822SOL    HW225929   2.106   1.363   4.266 -1.0237 -2.6629 -0.8036
 4823SOL     OW25930   2.506   0.582   5.873  0.2724  0.2471 -0.1974
 4823SOL    HW125931   2.576   0.538   5.824 -0.3472 -0.3851 -0.5070
 4823SOL    HW225932   2.450   0.625   5.809  0.1401 -0.4831 -0.5630
 4824SOL     OW25933   2.478   2.695   8.120 -0.4724 -0.3765  0.0372
 4824SOL    HW125934   2.523   2.652   8.047 -0.2223 -0.8511  0.4732
 4824SOL    HW225935   2.421   2.755   8.072 -0.6310  0.0658  0.7739
 4825SOL     OW25936   3.792   1.770  17.177 -0.1812 -0.1263 -0.1861
 4825SOL    HW125937   3.797   1.862  17.151 -2.1409 -0.1358 -0.5823
 4825SOL    HW225938   3.720   1.773  17.240 -1.3863  1.3923 -1.6468
 4826SOL     OW25939   2.656   1.569  12.394  0.3814  0.2667 -0.3311
 4826SOL    HW125940   2.645   1.483  12.352 -2.3501  0.2083  0.4658
 4826SOL    HW225941   2.712   1.536  12.464  0.5711 -2.0693 -1.5750
 4827SOL     OW25942   2.469   1.166   9.608 -0.5736  0.0285 -0.3628
 4827SOL    HW125943   2.502   1.124   9.528  0.3111  1.6517 -0.8520
 4827SOL    HW225944   2.550   1.185   9.655 -0.6853  0.9672 -0.5427
 4828SOL     OW25945   4.210   0.315   3.204  0.0694 -0.7771 -0.3053
 4828SOL    HW125946   4.264   0.250   3.248  1.1731 -1.3546 -2.5357
 4828SOL    HW225947   4.170   0.360   3.279  0.5039  0.6717 -0.9399
 4829SOL     OW25948   4.679   3.425   5.296  0.3837  0.3070  0.0261
 4829SOL    HW125949   4.628   3.505   5.283  0.7567  0.9275  2.4164
 4829SOL    HW225950   0.041   3.472   5.308  2.2204 -2.2899 -2.4455
 4830SOL     OW25951   0.687   1.496   0.898  0.1463  0.4293  0.6799
 4830SOL    HW125952   0.722   1.418   0.855  0.2594  0.4609  0.7146
 4830SOL    HW225953   0.705   1.564   0.832 -2.5527 -1.1823 -1.7114
 4831SOL     OW25954   2.640   1.720  17.099  0.3159 -0.4191 -0.0146
 4831SOL    HW125955   2.650   1.815  17.107  0.4484 -0.3940 -0.4812
 4831SOL    HW225956   2.631   1.709  17.194 -2.9012  1.5547 -0.0836
 4832SOL     OW25957   1.294   4.334  10.556  0.0821 -0.0338 -0.5889
 4832SOL    HW125958   1.233   4.299  10.622 -1.4066  2.3341 -0.7443
 4832SOL    HW225959   1.314   4.254  10.507  1.1124 -0.2881  0.2491
 4833SOL     OW25960   3.971   0.722   6.992 -0.0060 -0.0205  0.6432
 4833SOL    HW125961   4.052   0.672   6.979  0.2481  1.1539 -2.1839
 4833SOL    HW225962   3.904   0.654   6.984  0.0936 -0.1985  1.2862
 4834SOL     OW25963   2.983   3.154   4.217  0.3455  0.0800 -0.0134
 4834SOL    HW125964   2.948   3.139   4.305 -1.0105 -3.1382 -1.1060
 4834SOL    HW225965   2.898   3.162   4.173  1.0884  2.0081 -1.1092
 4835SOL     OW25966   2.650   3.592   5.670  0.5037 -0.0701  0.1331
 4835SOL    HW125967   2.683   3.608   5.581 -0.0545 -0.3334 -0.1178
 4835SOL    HW225968   2.632   3.677   5.710  0.8479 -0.3772  0.9310
 4836SOL     OW25969   2.541   3.134   6.798  0.2800 -0.3968  0.1693
 4836SOL    HW125970   2.490   3.173   6.727  0.2998  2.2288  1.5862
 4836SOL    HW225971   2.562   3.055   6.748 -1.5662 -1.1496  0.5896
 4837SOL     OW25972   4.060   1.248   7.585 -0.2634  0.0165 -0.1826
 4837SOL    HW125973   4.155   1.261   7.580  0.0075 -1.0535  1.9833
 4837SOL    HW225974   4.035   1.314   7.650  0.3793 -0.1039  0.1832
 4838SOL     OW25975   0.601   4.313   2.378 -0.4385  0.0933  0.1555
 4838SOL    HW125976   0.597   4.333   2.471  0.9569  1.2971 -0.0400
 4838SOL    HW225977   0.697   4.307   2.378 -0.6014 -2.6046  2.0738
 4839SOL     OW25978   3.326   1.065   8.514  0.4433 -0.1299  0.3551
 4839SOL    HW125979   3.378   1.055   8.594  0.4051  2.6157  0.7174
 4839SOL    HW225980   3.248   1.012   8.531  0.7805 -0.7760 -0.1067
 4840SOL     OW25981   0.981   2.436   6.168  0.2993 -0.1362  0.0047
 4840SOL    HW125982   0.985   2.532   6.174 -0.4812 -0.1433  0.5582
 4840SOL    HW225983   1.044   2.421   6.097 -0.6182  0.4086 -0.9239
 4841SOL     OW25984   2.173   4.319   7.753 -0.5413  0.1592 -0.1709
 4841SOL    HW125985   2.200   4.334   7.662  0.6750 -0.3123  0.1130
 4841SOL    HW225986   2.256   4.319   7.801  0.2652 -0.7989 -1.5481
 4842SOL     OW25987   2.865   0.998   2.287  0.7305  0.2276  0.4923
 4842SOL    HW125988   2.843   1.091   2.289 -0.1112  0.0421 -0.4102
 4842SOL    HW225989   2.867   0.973   2.195 -0.8832 -0.4320  0.6298
 4843SOL     OW25990   4.302   3.250   4.551  0.0461  0.0251 -0.2009
 4843SOL    HW125991   4.368   3.319   4.559  1.6504 -1.5810  0.2966
 4843SOL    HW225992   4.352   3.169   4.543  0.1526  0.2795 -1.9341
 4844SOL     OW25993   2.302   2.238   6.757 -0.1288 -0.2861  0.0110
 4844SOL    HW125994   2.362   2.168   6.782  1.3857  1.2058  0.5928
 4844SOL    HW225995   2.299   2.273   6.847 -0.8412  1.0946 -0.5482
 4845SOL     OW25996   4.158   4.173   1.808  0.2460  0.5342  0.7935
 4845SOL    HW125997   4.190   4.166   1.898  1.9269 -1.6984  0.0295
 4845SOL    HW225998   4.127   4.086   1.783  1.0450  0.5014 -0.1028
 4846SOL     OW25999   3.827   2.153  11.556 -0.1882 -0.1693 -0.9815
 4846SOL    HW126000   3.755   2.194  11.509  1.0410  2.4878 -0.5537
 4846SOL    HW226001   3.894   2.218  11.536 -0.7217  0.3390 -1.1031
 4847SOL     OW26002   0.347   1.084   6.642  0.2052  0.5415 -0.1180
 4847SOL    HW126003   0.384   1.144   6.707  0.1355 -0.5983  0.9630
 4847SOL    HW226004   0.393   1.123   6.567  0.3845  3.1767  1.3763
 4848SOL     OW26005   2.712   0.800   1.774  0.1978 -0.2964 -1.0285
 4848SOL    HW126006   2.774   0.847   1.718 -0.3267 -1.3508 -2.4744
 4848SOL    HW226007   2.693   0.720   1.725 -3.6897  0.1200 -0.1964
 4849SOL     OW26008   2.012   3.076   2.884  0.2941  0.8752  0.0310
 4849SOL    HW126009   2.107   3.069   2.875  0.1955  1.7865 -1.6637
 4849SOL    HW226010   2.002   3.002   2.944  0.0366  2.6767  2.2313
 4850SOL     OW26011   2.682   2.419   6.572 -0.0940 -0.6105 -0.0017
 4850SOL    HW126012   2.658   2.398   6.662 -0.0447 -0.7291 -0.0171
 4850SOL    HW226013   2.739   2.344   6.555 -0.9179 -0.8100 -1.8779
 4851SOL     OW26014   0.525   0.633  12.925 -0.2669 -0.0601 -0.5696
 4851SOL    HW126015   0.431   0.651  12.921 -0.2775  0.6262  2.6694
 4851SOL    HW226016   0.553   0.719  12.955  1.0721 -0.6174 -0.2354
 4852SOL     OW26017   1.065   2.677   8.549 -0.1965  0.2354 -0.0814
 4852SOL    HW126018   1.028   2.746   8.495  2.4423  0.5009 -1.5474
 4852SOL    HW226019   1.028   2.596   8.513  1.4664  0.5990 -2.6001
 4853SOL     OW26020   3.825   1.560   5.739  0.1738  0.0689  0.2798
 4853SOL    HW126021   3.832   1.646   5.697  0.4134 -0.0482  0.0846
 4853SOL    HW226022   3.912   1.524   5.723 -0.8828 -1.2588 -2.5628
 4854SOL     OW26023   4.675   0.799   5.348  0.0873 -0.1578 -0.1966
 4854SOL    HW126024   0.038   0.798   5.395  0.9081 -0.1976 -1.6545
 4854SOL    HW226025   4.700   0.716   5.307 -0.5909 -1.9464  3.0459
 4855SOL     OW26026   2.398   1.409   8.404 -0.2453  0.1737 -0.3948
 4855SOL    HW126027   2.452   1.359   8.343  0.2732 -0.8103  0.8855
 4855SOL    HW226028   2.455   1.396   8.479 -1.0064 -0.8794 -0.0141
 4856SOL     OW26029   3.355   3.838   1.392  0.1140  0.0928  0.4616
 4856SOL    HW126030   3.381   3.805   1.306 -1.9078  0.7059 -0.3805
 4856SOL    HW226031   3.278   3.783   1.404  0.1776  0.3441  2.1077
 4857SOL     OW26032   3.718   0.715   2.773  0.0245  0.0289 -0.0569
 4857SOL    HW126033   3.649   0.772   2.806 -0.3821 -1.0207  0.8836
 4857SOL    HW226034   3.790   0.774   2.751 -0.7233  0.7819 -0.5219
 4858SOL     OW26035   1.980   3.531   5.624  0.2002  0.2627 -0.1324
 4858SOL    HW126036   2.001   3.565   5.537  0.7422  1.9156  0.6508
 4858SOL    HW226037   2.037   3.455   5.613 -0.1304 -0.0530  0.3686
 4859SOL     OW26038   3.431   1.743   4.657 -0.0778 -0.1072  0.1434
 4859SOL    HW126039   3.461   1.653   4.653 -2.1046 -0.7680 -0.0674
 4859SOL    HW226040   3.458   1.787   4.576  0.7371  0.4969  0.7396
 4860SOL     OW26041   0.054   0.678   1.948 -0.0930  0.0608 -0.4046
 4860SOL    HW126042   0.107   0.744   1.992  0.2485  0.4310 -1.3881
 4860SOL    HW226043   4.684   0.702   1.965 -0.0566 -0.9442  1.2673
 4861SOL     OW26044   3.355   2.171  12.097  0.4643  0.1846 -0.0509
 4861SOL    HW126045   3.347   2.076  12.083 -0.0593 -0.0183  1.6528
 4861SOL    HW226046   3.331   2.212  12.014 -0.7280 -0.1539  0.1215
 4862SOL     OW26047   1.275   1.381  12.295 -0.2898 -0.1272  0.8029
 4862SOL    HW126048   1.326   1.345  12.367 -1.3739 -2.1234  0.5756
 4862SOL    HW226049   1.315   1.468  12.289 -2.2934  0.5019 -3.2236
 4863SOL     OW26050   2.448   4.237   6.368  0.2966 -0.2412  0.6042
 4863SOL    HW126051   2.499   4.200   6.295  0.1454  0.2756  0.2378
 4863SOL    HW226052   2.485   4.186   6.440 -0.9251 -1.4103  0.3915
 4864SOL     OW26053   4.580   4.252   9.814  0.0908 -0.1974  0.5784
 4864SOL    HW126054   4.533   4.317   9.866 -2.1326 -3.1755  2.2781
 4864SOL    HW226055   4.670   4.262   9.845  0.2395 -0.7266  0.3127
 4865SOL     OW26056   0.798   2.536   2.803 -0.2917 -0.4690 -0.0466
 4865SOL    HW126057   0.744   2.458   2.794  1.9768 -2.1849  1.2416
 4865SOL    HW226058   0.792   2.560   2.710 -0.6534 -0.4393 -0.0165
 4866SOL     OW26059   2.209   0.322   7.213 -0.5952  0.2989  0.2516
 4866SOL    HW126060   2.211   0.329   7.118 -0.3582 -1.6617  0.1190
 4866SOL    HW226061   2.286   0.265   7.219 -0.2507  0.6512 -0.9264
 4867SOL     OW26062   0.250   2.313   5.666 -0.1180  0.6323 -0.5007
 4867SOL    HW126063   0.193   2.265   5.726 -0.6350  1.4057 -0.3664
 4867SOL    HW226064   0.197   2.391   5.649 -1.6574 -0.2660  0.2096
 4868SOL     OW26065   2.070   0.712  12.791  0.1490 -0.6686  0.0959
 4868SOL    HW126066   1.987   0.672  12.765  0.0916 -0.8464  0.5538
 4868SOL    HW226067   2.051   0.786  12.849 -0.3806 -1.2543  0.6653
 4869SOL     OW26068   4.214   2.893   8.006 -0.2190  0.0015 -0.1504
 4869SOL    HW126069   4.121   2.913   7.997 -1.0216 -3.8831 -0.4335
 4869SOL    HW226070   4.241   2.921   8.093 -2.1903  0.2040  0.3981
 4870SOL     OW26071   3.357   0.732  14.839 -0.0337  0.1632  0.1903
 4870SOL    HW126072   3.429   0.781  14.879  2.0830 -1.4492 -1.6783
 4870SOL    HW226073   3.345   0.780  14.757 -0.9257 -2.7551 -1.3599
 4871SOL     OW26074   1.975   0.447  10.446  0.2116 -0.6374  0.7677
 4871SOL    HW126075   1.989   0.455  10.541 -0.5128 -2.1086  0.9940
 4871SOL    HW226076   1.904   0.508  10.427  3.2088  2.4306 -0.5211
 4872SOL     OW26077   3.784   3.565   8.095  0.3126 -0.6406  0.2750
 4872SOL    HW126078   3.712   3.502   8.095 -0.1301 -0.1328  1.5582
 4872SOL    HW226079   3.782   3.593   8.004 -2.2880  0.5251  0.7093
 4873SOL     OW26080   1.609   3.040   9.126  0.9829 -0.5242  0.1837
 4873SOL    HW126081   1.629   2.970   9.063  2.7974  0.0149  0.1537
 4873SOL    HW226082   1.675   3.032   9.196 -0.2370 -2.5213  1.1350
 4874SOL     OW26083   0.422   1.938   5.831 -0.1383  0.5542 -0.5954
 4874SOL    HW126084   0.420   1.989   5.750 -1.7110 -0.1690 -1.0047
 4874SOL    HW226085   0.391   2.005   5.892 -1.7840 -0.5290 -0.2528
 4875SOL     OW26086   0.149   0.139   5.863 -0.2013 -0.2022 -0.4171
 4875SOL    HW126087   0.118   0.149   5.773 -0.7522  0.4730 -0.1583
 4875SOL    HW226088   0.242   0.122   5.850  0.4479  2.3553  0.7732
 4876SOL     OW26089   2.238   0.756   0.347  0.4095  0.6386 -0.2839
 4876SOL    HW126090   2.147   0.788   0.349 -0.0440 -0.6232 -0.8519
 4876SOL    HW226091   2.221   0.664   0.328  0.3551  0.5932 -0.0225
 4877SOL     OW26092   1.288   3.996   0.995  0.3760  0.1876  0.6423
 4877SOL    HW126093   1.262   3.952   1.076  0.7272  1.7208  1.5821
 4877SOL    HW226094   1.324   4.076   1.032 -1.7849  1.3868  0.1352
 4878SOL     OW26095   2.344   1.000  11.913 -0.2532 -0.6839 -0.0158
 4878SOL    HW126096   2.342   1.067  11.844  0.4148 -0.5503  0.0951
 4878SOL    HW226097   2.275   0.942  11.881  1.0490 -2.2100 -0.0473
 4879SOL     OW26098   2.423   1.046   2.722  0.5162  0.5244 -0.3940
 4879SOL    HW126099   2.429   1.010   2.810 -0.4365  2.0159  0.2914
 4879SOL    HW226100   2.515   1.072   2.713  0.0965  1.4167 -2.2093
 4880SOL     OW26101   0.491   1.523   4.287  0.0319 -0.4057 -0.2185
 4880SOL    HW126102   0.573   1.509   4.335 -0.3614  2.3302  1.2532
 4880SOL    HW226103   0.497   1.616   4.266  2.3098 -0.7568 -1.1043
 4881SOL     OW26104   2.581   4.171   5.423 -0.0556  0.1075 -0.1854
 4881SOL    HW126105   2.663   4.125   5.438  1.1328  2.0588 -0.7417
 4881SOL    HW226106   2.525   4.096   5.444  0.7147 -0.3385  0.2609
 4882SOL     OW26107   3.149   3.019   8.923  0.1187  0.3460  0.1291
 4882SOL    HW126108   3.157   3.101   8.972 -1.5281  1.0964 -0.8721
 4882SOL    HW226109   3.211   2.966   8.975  0.8363  0.1900 -0.8767
 4883SOL     OW26110   1.243   4.613   5.932 -0.2369  0.2480  0.0710
 4883SOL    HW126111   1.166   4.654   5.894  0.1077  0.6915 -0.1472
 4883SOL    HW226112   1.281   4.586   5.849  0.6523 -1.5733  1.0560
 4884SOL     OW26113   0.946   0.712   8.940  0.0892  0.2603 -0.1680
 4884SOL    HW126114   1.034   0.676   8.949 -0.2697 -1.1738 -2.3162
 4884SOL    HW226115   0.900   0.649   8.884  1.7088 -0.7886 -0.3234
 4885SOL     OW26116   0.648   2.532  12.252 -0.4211 -0.0156  0.4378
 4885SOL    HW126117   0.692   2.552  12.169 -1.1585  0.3824  0.1407
 4885SOL    HW226118   0.572   2.590  12.239  0.3182  0.7884 -0.3057
 4886SOL     OW26119   0.233   0.646   6.686  0.9095 -0.0229  0.6191
 4886SOL    HW126120   0.235   0.551   6.674  2.1870  0.0337  0.3762
 4886SOL    HW226121   0.157   0.673   6.634  0.6462 -1.7938  0.1012
 4887SOL     OW26122   1.211   3.109  14.701  0.0159  0.1465  0.3047
 4887SOL    HW126123   1.209   3.197  14.738 -0.1882  0.2813 -0.0258
 4887SOL    HW226124   1.304   3.092  14.693  0.1841  0.0211  2.5413
 4888SOL     OW26125   3.846   4.515  10.333 -0.1353 -0.1270 -0.4891
 4888SOL    HW126126   3.831   4.446  10.268 -0.2775 -0.8958  0.3705
 4888SOL    HW226127   3.858   4.587  10.271 -0.5755  0.0827 -0.3276
 4889SOL     OW26128   2.950   3.378  17.378  0.1008  0.3833 -0.1017
 4889SOL    HW126129   2.897   3.328  17.440  0.4281  1.4507  1.0413
 4889SOL    HW226130   2.998   3.311  17.330 -1.5739 -0.1738 -1.0206
 4890SOL     OW26131   4.186   2.321  11.605  0.4799 -0.3380 -0.8195
 4890SOL    HW126132   4.168   2.382  11.677 -1.0207 -2.1956  0.3678
 4890SOL    HW226133   4.133   2.357  11.534  1.4380  0.0851 -1.3174
 4891SOL     OW26134   3.477   0.537  15.872 -0.1400  0.2842  0.7975
 4891SOL    HW126135   3.504   0.545  15.963 -1.0061  1.8688  0.9085
 4891SOL    HW226136   3.558   0.498  15.836 -1.3193 -1.2992 -0.1399
 4892SOL     OW26137   3.968   2.581   7.433  0.0629  0.0662 -0.2443
 4892SOL    HW126138   3.894   2.581   7.493  0.4105 -4.1004  0.2373
 4892SOL    HW226139   3.977   2.673   7.409  0.9258 -0.2382 -1.1223
 4893SOL     OW26140   4.661   3.974   9.124 -0.0846 -0.2005 -0.0956
 4893SOL    HW126141   4.702   3.916   9.188  0.3082  0.0830 -0.0898
 4893SOL    HW226142   4.581   3.926   9.101 -0.7222  1.8904 -2.2228
 4894SOL     OW26143   2.287   1.330   9.507 -0.5380 -0.1838  0.1727
 4894SOL    HW126144   2.322   1.254   9.555  1.9397  0.4978 -0.5143
 4894SOL    HW226145   2.364   1.385   9.489 -0.0371 -0.8361  0.3057
 4895SOL     OW26146   0.327   2.064   5.366  0.1976 -0.4048  0.2199
 4895SOL    HW126147   0.381   2.131   5.325  1.6290 -0.5545  1.8471
 4895SOL    HW226148   0.272   2.027   5.297  0.0585 -0.0937  0.1676
 4896SOL     OW26149   1.509   2.651  14.777  0.1492  0.2286 -0.1359
 4896SOL    HW126150   1.597   2.684  14.762  0.6324 -0.7705  0.4999
 4896SOL    HW226151   1.471   2.677  14.693  0.8300  0.4741 -0.3636
 4897SOL     OW26152   0.963   2.650  17.302  0.1294  0.5684 -0.2287
 4897SOL    HW126153   0.917   2.663  17.385  1.5983  2.8226  0.2337
 4897SOL    HW226154   1.020   2.578  17.329 -2.5120 -0.9576  1.2952
 4898SOL     OW26155   3.430   4.105   6.485 -0.0990 -0.7462 -0.1163
 4898SOL    HW126156   3.423   4.184   6.430 -1.6537 -0.8617 -0.0864
 4898SOL    HW226157   3.512   4.115   6.533 -1.2119  0.9412  1.4710
 4899SOL     OW26158   1.646   4.202   3.342 -0.8429 -0.3669  0.0901
 4899SOL    HW126159   1.573   4.264   3.342 -1.9320 -1.6537  0.9283
 4899SOL    HW226160   1.706   4.252   3.286 -1.4981  1.9759  1.4568
 4900SOL     OW26161   0.846   0.227   9.093  0.4716 -0.4752  0.4062
 4900SOL    HW126162   0.856   0.288   9.166 -0.5490  0.1444  0.0230
 4900SOL    HW226163   0.753   0.237   9.075  0.6247  0.9693  0.4500
 4901SOL     OW26164   1.941   0.637   8.933 -0.2416  0.0517  0.2580
 4901SOL    HW126165   2.011   0.591   8.888 -0.4854 -0.0342 -0.0345
 4901SOL    HW226166   1.913   0.704   8.871  1.6369  1.4598  0.9483
 4902SOL     OW26167   0.860   2.523   3.444 -0.3004  0.4297  0.2593
 4902SOL    HW126168   0.945   2.512   3.402  0.0424 -0.2260  1.1171
 4902SOL    HW226169   0.861   2.619   3.454  2.4928  0.4827 -0.5543
 4903SOL     OW26170   0.294   0.981   5.282 -0.2236 -0.7802  0.1149
 4903SOL    HW126171   0.243   0.978   5.201 -0.5581  1.3443  0.2549
 4903SOL    HW226172   0.241   1.045   5.330 -0.6182  1.1352 -2.8894
 4904SOL     OW26173   2.488   3.951   1.919 -0.2658  0.1820  0.6101
 4904SOL    HW126174   2.509   3.914   2.005  0.4239 -0.6528  0.0848
 4904SOL    HW226175   2.533   4.035   1.928  0.4132 -0.0468 -0.5483
 4905SOL     OW26176   4.167   4.229   8.131 -0.5011  0.3448 -0.2117
 4905SOL    HW126177   4.176   4.316   8.092  0.9237 -0.0774 -0.8335
 4905SOL    HW226178   4.167   4.169   8.056 -0.1728 -1.1210  0.9571
 4906SOL     OW26179   3.026   4.061   6.157 -0.0084 -0.4819  0.1252
 4906SOL    HW126180   3.080   4.130   6.117 -0.8509 -0.6025 -1.2312
 4906SOL    HW226181   2.961   4.111   6.206  0.7850  1.0326 -0.3619
 4907SOL     OW26182   0.288   2.702   2.999 -0.5686  0.1366 -0.0659
 4907SOL    HW126183   0.286   2.795   3.024  0.2275 -0.1914  1.2214
 4907SOL    HW226184   0.382   2.683   2.996 -0.8137 -1.2196  0.6745
 4908SOL     OW26185   1.757   3.556   6.069  0.3535 -0.5645 -0.1552
 4908SOL    HW126186   1.792   3.545   5.981 -0.4875  0.9453 -0.6719
 4908SOL    HW226187   1.788   3.644   6.090  0.1043  0.3032 -3.4749
 4909SOL     OW26188   4.679   3.343   7.674 -0.0169 -0.1249 -0.0885
 4909SOL    HW126189   4.674   3.256   7.714  0.0943  0.6744  1.6684
 4909SOL    HW226190   4.638   3.334   7.588 -0.6696  2.6269 -0.0584
 4910SOL     OW26191   1.525   0.884   5.374  0.0348  0.2808 -0.9483
 4910SOL    HW126192   1.437   0.899   5.410  0.2565 -2.8056  0.9253
 4910SOL    HW226193   1.504   0.812   5.315  0.4728  1.6975 -2.8038
 4911SOL     OW26194   2.547   0.816   2.278  0.4518 -0.0720  0.1150
 4911SOL    HW126195   2.556   0.890   2.338 -1.6384 -0.1722  0.5762
 4911SOL    HW226196   2.520   0.854   2.194  2.7303  1.5770  0.1407
 4912SOL     OW26197   2.888   2.341   5.105 -0.2318 -0.3821  0.3331
 4912SOL    HW126198   2.873   2.313   5.195 -0.7108 -1.6711 -0.1600
 4912SOL    HW226199   2.900   2.434   5.124 -1.9189 -0.0811 -0.0717
 4913SOL     OW26200   3.089   2.526  15.495 -0.6685 -0.3498 -0.0374
 4913SOL    HW126201   3.087   2.560  15.405 -0.8973 -1.9708 -0.6595
 4913SOL    HW226202   3.125   2.437  15.486 -2.7551 -1.1419 -0.6102
 4914SOL     OW26203   2.574   0.563  12.059 -0.1561 -0.1897 -0.0785
 4914SOL    HW126204   2.555   0.641  12.006  3.9219  1.2435  0.5430
 4914SOL    HW226205   2.650   0.525  12.016 -0.5590 -1.0632 -0.0180
 4915SOL     OW26206   0.537   0.537  11.363 -0.7032 -0.5812  0.2339
 4915SOL    HW126207   0.508   0.570  11.448  0.7467  0.9233  0.1399
 4915SOL    HW226208   0.630   0.555  11.354 -1.3711  1.9677 -1.5046
 4916SOL     OW26209   3.148   1.611   4.652 -0.1457  0.0257 -0.1936
 4916SOL    HW126210   3.110   1.558   4.722  0.4174  1.6032  1.2944
 4916SOL    HW226211   3.166   1.536   4.595 -0.3334  0.1917 -0.4707
 4917SOL     OW26212   1.471   3.878  16.678  0.0557 -0.5052 -0.3642
 4917SOL    HW126213   1.428   3.872  16.763 -0.2060  2.1358 -0.3083
 4917SOL    HW226214   1.391   3.866  16.628  0.0007 -1.8130  0.0233
 4918SOL     OW26215   1.670   0.139   0.643  0.0643  0.1560  0.2381
 4918SOL    HW126216   1.740   0.112   0.701  1.5363  0.3246 -1.4586
 4918SOL    HW226217   1.639   0.055   0.607  0.5807  0.7929 -1.7012
 4919SOL     OW26218   3.671   0.660   3.130 -0.2646  0.5038 -0.5926
 4919SOL    HW126219   3.733   0.694   3.194  1.2090 -1.0845 -1.1833
 4919SOL    HW226220   3.646   0.737   3.078  3.3837  1.8536 -0.3497
 4920SOL     OW26221   3.939   3.867   4.410 -0.2197 -0.1934 -0.7876
 4920SOL    HW126222   3.949   3.777   4.379  1.4349 -0.4428  0.4700
 4920SOL    HW226223   3.845   3.868   4.429 -0.7510 -1.0371 -3.4019
 4921SOL     OW26224   3.556   2.009   6.560  0.1648 -0.7525  0.5302
 4921SOL    HW126225   3.522   2.069   6.495 -0.2517 -0.5314  0.9497
 4921SOL    HW226226   3.646   2.008   6.527  0.4489  2.3279  1.2060
 4922SOL     OW26227   1.757   2.829   6.228 -0.3378 -0.6213  0.5939
 4922SOL    HW126228   1.845   2.794   6.213  0.1390  0.8819 -0.0617
 4922SOL    HW226229   1.776   2.845   6.321 -0.6606 -0.7062  0.6741
 4923SOL     OW26230   0.464   4.174   2.211  0.1987  0.5343  0.1096
 4923SOL    HW126231   0.506   4.090   2.195 -0.1909  0.2198  0.7455
 4923SOL    HW226232   0.523   4.236   2.255 -1.3632 -0.0890  3.1075
 4924SOL     OW26233   4.685   1.448   5.224  0.0183  0.1204  0.2306
 4924SOL    HW126234   4.613   1.510   5.234  0.0027  0.3335 -1.1814
 4924SOL    HW226235   4.636   1.368   5.206 -0.6150  0.0498  2.2605
 4925SOL     OW26236   3.075   2.603   8.347 -0.3979  0.1189 -0.1918
 4925SOL    HW126237   3.047   2.662   8.277 -0.3141  2.2982  1.6391
 4925SOL    HW226238   3.091   2.662   8.420 -1.6621  0.4334 -0.1795
 4926SOL     OW26239   3.068   2.224  13.910 -0.3899  0.0043 -0.6108
 4926SOL    HW126240   3.064   2.175  13.828  0.2776  1.0546 -1.2762
 4926SOL    HW226241   3.143   2.280  13.888  0.3490 -0.5827  0.3892
 4927SOL     OW26242   4.033   2.108   2.491 -0.0293 -0.1796 -0.2517
 4927SOL    HW126243   4.011   2.037   2.430 -1.4859 -1.7041  2.0468
 4927SOL    HW226244   4.021   2.179   2.428 -0.1104 -0.1775 -0.2332
 4928SOL     OW26245   4.530   2.661   3.041 -0.4614  0.3621 -0.2129
 4928SOL    HW126246   4.585   2.699   2.973 -1.4286 -0.8517 -1.6487
 4928SOL    HW226247   4.457   2.722   3.027 -0.2244  0.2528 -1.8698
 4929SOL     OW26248   0.956   3.672   4.339 -0.0750 -0.2885 -0.4998
 4929SOL    HW126249   0.876   3.646   4.384 -0.8500  2.5581 -0.1869
 4929SOL    HW226250   1.014   3.641   4.408  1.0020  4.1130  0.6288
 4930SOL     OW26251   3.441   3.660   5.533  0.3647  0.7214  0.2096
 4930SOL    HW126252   3.533   3.646   5.555  0.0265 -1.9497 -0.0987
 4930SOL    HW226253   3.411   3.634   5.621 -0.5705  1.5047  0.1186
 4931SOL     OW26254   1.416   4.168   7.335 -0.0303  0.0347 -0.7229
 4931SOL    HW126255   1.360   4.246   7.335  0.5229  0.4332  0.1875
 4931SOL    HW226256   1.406   4.152   7.242 -1.1464 -3.1946 -0.0459
 4932SOL     OW26257   1.639   0.398   0.723  0.3671 -0.4759 -0.2004
 4932SOL    HW126258   1.553   0.440   0.722  1.2799  1.3657  0.1994
 4932SOL    HW226259   1.628   0.314   0.678  0.4083  0.5029 -2.0260
 4933SOL     OW26260   1.255   1.998  10.313 -0.6362  0.1789  0.3982
 4933SOL    HW126261   1.238   1.946  10.234 -1.7215  1.6376 -0.3334
 4933SOL    HW226262   1.303   2.072  10.277  0.8542 -1.7446 -1.6016
 4934SOL     OW26263   1.196   2.615   1.937  0.0268  0.1127  0.0799
 4934SOL    HW126264   1.186   2.559   1.861  0.3718  1.9299 -1.3069
 4934SOL    HW226265   1.221   2.697   1.894 -0.8167  0.7369  0.7783
 4935SOL     OW26266   2.810   3.909   3.536  0.3707  0.0837 -0.0461
 4935SOL    HW126267   2.719   3.899   3.506  0.3680 -0.4653  0.1310
 4935SOL    HW226268   2.855   3.828   3.512 -0.0272 -0.7321  1.9314
 4936SOL     OW26269   0.123   2.260   3.169  0.0771  0.2702  0.2870
 4936SOL    HW126270   0.214   2.285   3.182  0.1915  0.3926 -0.6852
 4936SOL    HW226271   0.105   2.342   3.122 -0.5364  0.0144  0.0811
 4937SOL     OW26272   1.910   3.311   7.707 -0.1693 -0.7264  0.0864
 4937SOL    HW126273   1.924   3.342   7.797  0.4136 -0.8674  0.0457
 4937SOL    HW226274   1.852   3.235   7.706 -0.8667 -0.1957  0.4449
 4938SOL     OW26275   4.376   0.191  14.311 -0.1457 -0.3688  0.3701
 4938SOL    HW126276   4.399   0.099  14.320  0.2381 -0.2366  0.7862
 4938SOL    HW226277   4.461   0.233  14.295 -1.3778  1.7148 -0.6852
 4939SOL     OW26278   2.651   3.919   4.581 -0.7699  0.3730  0.0453
 4939SOL    HW126279   2.715   3.935   4.650 -1.1178 -1.0323  0.6706
 4939SOL    HW226280   2.708   3.917   4.503 -2.6931  0.0286 -1.3527
 4940SOL     OW26281   0.955   1.236  15.436 -0.1318 -0.2740  0.0536
 4940SOL    HW126282   1.034   1.237  15.489 -0.4033 -1.8998  0.4922
 4940SOL    HW226283   0.955   1.145  15.405  0.2865  0.4443 -2.0924
 4941SOL     OW26284   1.670   4.051  16.752 -0.6362 -0.9073  0.6606
 4941SOL    HW126285   1.734   3.982  16.772  0.5425  0.1351  0.4895
 4941SOL    HW226286   1.608   3.993  16.707 -2.6440  1.4395  0.4534
 4942SOL     OW26287   4.297   1.963  10.098  1.0296  0.2049 -0.0633
 4942SOL    HW126288   4.365   1.899  10.117  1.1019 -0.3023 -1.9622
 4942SOL    HW226289   4.238   1.911  10.044  0.7250  0.5044 -0.0157
 4943SOL     OW26290   3.229   4.099   5.554  0.1281  0.3871  0.0341
 4943SOL    HW126291   3.166   4.171   5.551  0.4607  0.7760  1.9390
 4943SOL    HW226292   3.246   4.072   5.464  0.9529 -1.4759  0.7555
 4944SOL     OW26293   0.479   4.536   1.081  0.0611 -0.0555 -0.1825
 4944SOL    HW126294   0.460   4.600   1.012 -2.7903 -0.3749  0.2972
 4944SOL    HW226295   0.403   4.478   1.077 -0.1957  0.4132 -2.2096
 4945SOL     OW26296   1.234   0.286  17.434 -0.5680  0.0118  0.1540
 4945SOL    HW126297   1.289   0.360  17.408 -1.1106  0.7462  1.0736
 4945SOL    HW226298   1.280   0.225  17.377  0.3969  0.7505  0.1299
 4946SOL     OW26299   2.914   0.645   3.895 -0.4636  0.4799  0.3926
 4946SOL    HW126300   2.846   0.712   3.884  0.3102  0.9666 -1.5609
 4946SOL    HW226301   2.863   0.569   3.923 -0.9115  0.0781 -1.5047
 4947SOL     OW26302   1.852   4.680   0.422 -0.3139  0.0339 -0.2941
 4947SOL    HW126303   1.902   0.003   0.491 -0.6964 -1.1230  0.7026
 4947SOL    HW226304   1.766   4.670   0.462 -0.9494  3.9467 -0.6365
 4948SOL     OW26305   1.527   3.777   9.695  0.3347 -0.1823  0.1590
 4948SOL    HW126306   1.520   3.727   9.613  0.1631 -1.3973  0.9183
 4948SOL    HW226307   1.620   3.795   9.701  0.5536 -1.3003  0.2132
 4949SOL     OW26308   0.769   0.448   3.784 -0.7835  0.0821  0.2272
 4949SOL    HW126309   0.746   0.448   3.691  0.3112  1.9501 -0.0480
 4949SOL    HW226310   0.863   0.433   3.775 -1.1331 -1.2810 -1.1820
 4950SOL     OW26311   4.228   2.805   0.859 -0.7366  0.5006 -0.5342
 4950SOL    HW126312   4.132   2.807   0.854 -0.8774 -2.7881  1.1013
 4950SOL    HW226313   4.248   2.898   0.849 -0.7370  0.4748 -0.7868
 4951SOL     OW26314   3.387   1.353   0.918 -0.7728  0.0023 -0.0090
 4951SOL    HW126315   3.346   1.400   0.990 -0.1980 -0.1214  0.3995
 4951SOL    HW226316   3.364   1.269   0.956 -0.0162 -0.5118 -0.6895
 4952SOL     OW26317   0.716   2.256  12.255 -0.3935 -0.0892  0.3143
 4952SOL    HW126318   0.728   2.244  12.350 -1.8393 -3.3800  0.1086
 4952SOL    HW226319   0.689   2.347  12.248 -0.4201 -0.3616 -3.1226
 4953SOL     OW26320   3.394   0.255  16.075  0.3762 -0.0225  0.0872
 4953SOL    HW126321   3.472   0.199  16.080  1.5959  1.7202  0.5843
 4953SOL    HW226322   3.422   0.345  16.092 -0.8626  0.7624 -1.9979
 4954SOL     OW26323   0.595   0.125   7.157 -0.2898 -0.4484  0.2630
 4954SOL    HW126324   0.610   0.117   7.251 -0.4727  0.1777  0.3445
 4954SOL    HW226325   0.685   0.123   7.125 -0.1178 -1.6487  0.8257
 4955SOL     OW26326   3.083   3.519   9.317 -0.0804 -0.2212  0.6466
 4955SOL    HW126327   3.020   3.568   9.263 -1.4500 -0.6171  1.8794
 4955SOL    HW226328   3.159   3.577   9.319  0.3110 -0.7080 -0.4937
 4956SOL     OW26329   3.352   4.089   1.004 -0.0286 -0.6008  0.1276
 4956SOL    HW126330   3.303   4.168   0.984 -0.3704 -1.2306 -1.5350
 4956SOL    HW226331   3.291   4.032   1.052 -0.1377 -0.5610  0.0355
 4957SOL     OW26332   3.406   2.280   2.884 -0.2891  0.5822  0.0208
 4957SOL    HW126333   3.340   2.325   2.937  0.0888  3.5304 -1.9722
 4957SOL    HW226334   3.427   2.346   2.818  1.0659 -1.3070 -1.4557
 4958SOL     OW26335   4.379   3.652   9.772 -0.4133  0.4242 -0.1549
 4958SOL    HW126336   4.450   3.591   9.793  0.1964  1.0439 -0.4043
 4958SOL    HW226337   4.416   3.739   9.789 -2.3328  1.0117  1.0322
 4959SOL     OW26338   1.546   4.480   2.265  0.4399 -0.0353 -0.1116
 4959SOL    HW126339   1.455   4.460   2.288  1.2914 -1.9931  1.5137
 4959SOL    HW226340   1.536   4.498   2.171 -1.3888 -1.5272 -0.2108
 4960SOL     OW26341   2.336   1.286   5.512  0.4486 -0.4031  0.1824
 4960SOL    HW126342   2.422   1.245   5.507 -0.4481 -2.1061 -1.3686
 4960SOL    HW226343   2.346   1.337   5.592  1.7006 -0.1188 -0.1625
 4961SOL     OW26344   4.199   2.542   7.969 -0.2020 -0.6982  0.3012
 4961SOL    HW126345   4.206   2.577   8.058 -1.0909  1.4473 -0.4445
 4961SOL    HW226346   4.149   2.461   7.978 -0.7729 -0.5017 -1.0994
 4962SOL     OW26347   0.595   1.859   1.105 -0.1617 -0.4852 -0.1473
 4962SOL    HW126348   0.606   1.919   1.179 -0.1956  0.2971 -0.7742
 4962SOL    HW226349   0.632   1.911   1.034 -1.3967 -0.9840 -1.1588
 4963SOL     OW26350   1.563   2.044   1.226  0.5075 -0.3695  1.0532
 4963SOL    HW126351   1.531   2.078   1.309  0.3945  0.0705  0.8302
 4963SOL    HW226352   1.513   1.962   1.224  2.9706 -1.7863 -3.4758
 4964SOL     OW26353   4.014   2.704  15.834  0.1340  0.4106 -0.3733
 4964SOL    HW126354   4.004   2.611  15.814  0.0890  0.7016 -1.7082
 4964SOL    HW226355   3.950   2.752  15.782 -0.6544 -1.6484 -1.2817
 4965SOL     OW26356   1.984   0.508   2.321  0.6350 -0.0041  0.3858
 4965SOL    HW126357   1.916   0.528   2.256 -0.0239  1.6897  1.6109
 4965SOL    HW226358   2.047   0.469   2.260  1.5675  0.6765  0.9272
 4966SOL     OW26359   4.233   2.177   3.546  0.6925 -0.0779  0.1683
 4966SOL    HW126360   4.241   2.110   3.478 -1.8286 -0.7510  0.5120
 4966SOL    HW226361   4.314   2.166   3.595  1.6494  1.5077 -1.0794
 4967SOL     OW26362   1.209   1.538   3.507 -0.0125  0.0545  0.0330
 4967SOL    HW126363   1.274   1.608   3.517 -0.2575  0.1200  1.0774
 4967SOL    HW226364   1.148   1.559   3.577 -0.3509 -1.7164  0.2530
 4968SOL     OW26365   3.859   1.957   6.671 -0.2095  0.1717  0.3520
 4968SOL    HW126366   3.828   1.944   6.582 -0.8217 -1.3227  0.7949
 4968SOL    HW226367   3.780   1.945   6.724 -1.0374  2.5647 -0.3260
 4969SOL     OW26368   0.326   4.166   7.496  0.0836 -0.1180 -0.1289
 4969SOL    HW126369   0.305   4.258   7.513  2.2317  0.4768 -0.7134
 4969SOL    HW226370   0.237   4.133   7.478  0.0398  0.2602 -0.5949
 4970SOL     OW26371   3.735   2.493   9.424  0.0802  0.3040  0.3494
 4970SOL    HW126372   3.641   2.479   9.414  0.2448 -1.1675  0.9925
 4970SOL    HW226373   3.749   2.424   9.488 -0.7580 -1.4560 -1.3623
 4971SOL     OW26374   0.623   1.336   6.230 -0.2127  0.8654  0.2673
 4971SOL    HW126375   0.568   1.410   6.206 -1.7855  0.2287  1.9088
 4971SOL    HW226376   0.649   1.307   6.143 -1.4864  0.6108 -0.0244
 4972SOL     OW26377   3.146   4.196   3.760  0.1143  0.0902  0.2543
 4972SOL    HW126378   3.230   4.228   3.729  0.0568 -0.0379 -0.0395
 4972SOL    HW226379   3.086   4.256   3.715  1.9764  1.5227 -0.3091
 4973SOL     OW26380   3.784   3.831   2.688  0.0299  0.3900 -0.2690
 4973SOL    HW126381   3.708   3.775   2.673  0.2100  0.3531 -1.0389
 4973SOL    HW226382   3.807   3.867   2.603 -0.4732 -0.5243 -0.7931
 4974SOL     OW26383   2.734   1.010  15.997  0.1615 -0.7422 -0.2890
 4974SOL    HW126384   2.766   1.094  15.965  0.6200 -0.6904  0.3075
 4974SOL    HW226385   2.644   1.005  15.965 -0.0306  2.2995 -0.1697
 4975SOL     OW26386   0.167   4.691   9.368  0.6372  0.3760  0.5354
 4975SOL    HW126387   0.074   4.715   9.369  0.3454 -0.5827 -3.0778
 4975SOL    HW226388   0.217   0.049   9.388 -0.3498  1.0739  0.2617
 4976SOL     OW26389   1.929   0.919  12.599 -0.3050 -0.0586 -0.2253
 4976SOL    HW126390   1.886   0.887  12.519 -0.7674 -0.6421  0.2570
 4976SOL    HW226391   1.982   0.842  12.621  0.2340  1.0994  2.5095
 4977SOL     OW26392   3.513   0.082  10.606  0.5356 -0.2372  0.3628
 4977SOL    HW126393   3.540   0.013  10.546 -0.9438 -0.0372 -0.5235
 4977SOL    HW226394   3.595   0.132  10.610 -0.1539  0.7824  1.8474
 4978SOL     OW26395   3.846   4.548   4.591 -0.0885 -0.2209 -0.3672
 4978SOL    HW126396   3.822   4.582   4.505 -1.6574  1.2346  0.6433
 4978SOL    HW226397   3.753   4.533   4.607 -0.7371 -0.2658 -4.1014
 4979SOL     OW26398   3.604   2.804   0.423 -0.2570  0.4841  0.9693
 4979SOL    HW126399   3.543   2.762   0.362  1.0456  0.5375 -0.3756
 4979SOL    HW226400   3.643   2.722   0.456 -1.8756 -0.4697  0.4995
 4980SOL     OW26401   3.301   4.086   4.130 -0.1574 -0.5464  0.1318
 4980SOL    HW126402   3.305   4.180   4.147  1.9952 -1.3025  3.7440
 4980SOL    HW226403   3.348   4.085   4.047 -0.1323  0.2502  0.1388
 4981SOL     OW26404   0.849   4.497  13.179 -0.0486 -0.6111 -0.0836
 4981SOL    HW126405   0.790   4.422  13.189 -2.0874  0.9703 -0.0537
 4981SOL    HW226406   0.789   4.559  13.137 -0.7975  0.5154  2.6324
 4982SOL     OW26407   1.437   4.257   8.771 -0.0425  0.1750  0.0406
 4982SOL    HW126408   1.387   4.320   8.720  0.6353 -0.1858 -1.0667
 4982SOL    HW226409   1.444   4.308   8.852 -1.6058 -1.2335  1.0659
 4983SOL     OW26410   2.881   3.576  16.789  0.6668 -0.1304  0.1988
 4983SOL    HW126411   2.934   3.506  16.751  0.2517 -0.0425 -0.5457
 4983SOL    HW226412   2.834   3.600  16.708  1.8103 -1.7188 -0.9353
 4984SOL     OW26413   0.145   0.468   7.968  0.1810 -0.5518  0.2521
 4984SOL    HW126414   0.197   0.388   7.957  2.3721  0.9869 -0.5541
 4984SOL    HW226415   0.099   0.480   7.885  0.9811  0.8728  0.0204
 4985SOL     OW26416   1.832   0.032   6.896  1.0297  0.2853  0.2771
 4985SOL    HW126417   1.827   0.111   6.950 -2.0103  1.3000 -1.5047
 4985SOL    HW226418   1.926   0.013   6.902  1.5211  3.0163  1.2045
 4986SOL     OW26419   3.749   2.573  11.192 -0.1835  0.3487  0.2879
 4986SOL    HW126420   3.752   2.564  11.097  0.8590  0.5821  0.2926
 4986SOL    HW226421   3.820   2.638  11.192 -0.0631  0.2101 -1.5236
 4987SOL     OW26422   2.529   1.568  13.781  0.6956 -0.3315 -0.1157
 4987SOL    HW126423   2.474   1.527  13.848 -0.7872  0.9154 -0.5712
 4987SOL    HW226424   2.481   1.650  13.770  0.5423 -0.5385 -0.9833
 4988SOL     OW26425   3.614   2.809   3.149  0.1396 -0.0623 -0.1145
 4988SOL    HW126426   3.697   2.813   3.197 -0.5147  1.0774  0.9166
 4988SOL    HW226427   3.557   2.854   3.211 -1.0311  1.3273 -2.2004
 4989SOL     OW26428   3.828   4.509   7.464  0.9846  0.7961 -0.5548
 4989SOL    HW126429   3.825   4.445   7.393  1.4154 -0.1814  0.3112
 4989SOL    HW226430   3.754   4.569   7.450  0.4122  0.6056  1.5876
 4990SOL     OW26431   2.038   0.821   3.097 -0.3470  0.2799 -0.0220
 4990SOL    HW126432   1.985   0.893   3.131  0.8615  2.7928 -3.3616
 4990SOL    HW226433   2.023   0.835   3.003  0.9832 -1.7861 -0.5300
 4991SOL     OW26434   1.681   0.733  11.893 -0.2868 -0.2890  0.6075
 4991SOL    HW126435   1.726   0.744  11.809  0.5516  2.9254  1.4526
 4991SOL    HW226436   1.626   0.812  11.894  1.6655  1.1052 -3.5642
 4992SOL     OW26437   0.082   0.603  17.643  0.3811 -0.2128  0.1309
 4992SOL    HW126438   0.050   0.689  17.617  0.9775 -0.2959 -0.8623
 4992SOL    HW226439   0.021   0.548  17.592 -1.9858  1.7267  0.9123
 4993SOL     OW26440   1.015   1.724   2.508 -0.1912  0.3405 -0.7703
 4993SOL    HW126441   1.046   1.744   2.419  3.4506 -1.5585  0.0977
 4993SOL    HW226442   0.920   1.733   2.495 -0.5314 -1.4481  0.4660
 4994SOL     OW26443   4.047   2.434   2.723  0.0460  0.1525 -0.4042
 4994SOL    HW126444   4.017   2.517   2.759 -1.3499 -0.1740 -0.7848
 4994SOL    HW226445   4.132   2.428   2.766 -0.2742  1.1675  0.3555
 4995SOL     OW26446   3.666   1.422   2.660  0.7301  0.7479 -0.2879
 4995SOL    HW126447   3.614   1.379   2.728 -0.0311  1.2441 -0.5485
 4995SOL    HW226448   3.728   1.477   2.708  1.9608 -1.4914  0.6835
 4996SOL     OW26449   1.082   2.921   4.820  0.1400  0.5598 -0.2682
 4996SOL    HW126450   1.098   2.909   4.914 -0.3964 -2.4348 -0.5566
 4996SOL    HW226451   1.102   3.014   4.818  1.7249  0.2301  0.2707
 4997SOL     OW26452   2.598   3.849  12.306  0.3232 -0.1464 -0.7358
 4997SOL    HW126453   2.564   3.914  12.244  0.3544 -0.2510 -0.8614
 4997SOL    HW226454   2.624   3.774  12.253 -1.8404 -0.8645 -0.7812
 4998SOL     OW26455   1.478   1.941   2.633 -0.5098 -0.4707  0.2330
 4998SOL    HW126456   1.555   1.996   2.618 -1.2703  0.5894  0.2144
 4998SOL    HW226457   1.489   1.899   2.719 -2.4325  0.6996  1.0373
 4999SOL     OW26458   0.697   0.721   7.793  0.4467  0.3425  0.0173
 4999SOL    HW126459   0.623   0.769   7.832  2.0319  4.7163 -2.3333
 4999SOL    HW226460   0.772   0.780   7.798  0.9193 -0.0482 -2.5324
 5000SOL     OW26461   4.194   2.972   2.028  0.3875  0.6963 -0.0746
 5000SOL    HW126462   4.149   2.923   1.959 -0.0344  0.5300  0.3230
 5000SOL    HW226463   4.173   2.909   2.097  0.7811  0.8782  0.2070
 5001SOL     OW26464   4.694   2.603  14.733 -0.0643 -0.3829  0.5237
 5001SOL    HW126465   4.675   2.598  14.827 -1.5428  0.0425  0.2469
 5001SOL    HW226466   0.018   2.688  14.733  0.3659 -0.6028  1.8820
 5002SOL     OW26467   3.481   2.466   4.676 -0.0900  0.0022  0.1787
 5002SOL    HW126468   3.517   2.446   4.762 -0.8262  1.0921  0.7402
 5002SOL    HW226469   3.400   2.512   4.696  0.0430  0.0748  0.5493
 5003SOL     OW26470   1.860   1.020   1.291  0.4335 -0.5886 -0.4856
 5003SOL    HW126471   1.867   0.956   1.362  1.0791 -0.7806 -0.7246
 5003SOL    HW226472   1.926   1.083   1.317  1.9730 -2.3618 -0.1434
 5004SOL     OW26473   3.321   0.914   3.893 -0.3377  0.0865 -0.5713
 5004SOL    HW126474   3.278   0.837   3.930 -0.4085  0.6410  0.5032
 5004SOL    HW226475   3.248   0.947   3.842  0.0220 -0.1864 -1.2617
 5005SOL     OW26476   3.376   3.607   3.884 -0.1691  0.3610 -0.2358
 5005SOL    HW126477   3.331   3.557   3.953 -0.7005 -2.2812 -2.5108
 5005SOL    HW226478   3.305   3.667   3.863  2.3374  3.2494 -0.5177
 5006SOL     OW26479   1.548   0.363   3.533  0.4410  0.4147  0.0487
 5006SOL    HW126480   1.515   0.291   3.479 -1.4184  2.6285 -1.7570
 5006SOL    HW226481   1.638   0.334   3.521  1.0083  1.3830  1.9131
 5007SOL     OW26482   3.491   1.655  10.545 -0.0120 -0.0137 -0.2486
 5007SOL    HW126483   3.430   1.690  10.610  2.4792 -0.1606  2.1787
 5007SOL    HW226484   3.547   1.592  10.591  1.5335  0.0428 -2.0687
 5008SOL     OW26485   3.596   2.565  13.725 -0.0111 -0.3838 -0.3473
 5008SOL    HW126486   3.605   2.471  13.742 -1.0341 -0.4201 -0.0168
 5008SOL    HW226487   3.611   2.590  13.816 -3.6050  5.0819 -1.2415
 5009SOL     OW26488   3.719   2.717  10.291 -0.2485 -0.0884 -0.3351
 5009SOL    HW126489   3.735   2.675  10.376  1.1218  0.4551 -0.3291
 5009SOL    HW226490   3.776   2.668  10.231  2.0245  1.2244  0.7681
 5010SOL     OW26491   4.211   1.247   2.160  0.1116  0.2584 -0.2903
 5010SOL    HW126492   4.194   1.196   2.081  2.0450 -0.3493 -0.3348
 5010SOL    HW226493   4.307   1.245   2.151 -0.0616 -1.1848 -1.8424
 5011SOL     OW26494   4.178   4.663   4.329 -0.5425  0.0402  0.4608
 5011SOL    HW126495   4.253   4.688   4.275  0.0287  0.5045  1.4703
 5011SOL    HW226496   4.121   0.018   4.314 -0.9408 -0.1422  1.0666
 5012SOL     OW26497   0.695   2.759  10.487 -0.5725 -0.2305  0.6137
 5012SOL    HW126498   0.615   2.759  10.538 -1.6220  1.3252 -1.0330
 5012SOL    HW226499   0.755   2.799  10.550  0.9676  1.7719 -2.0906
 5013SOL     OW26500   0.464   4.384  12.956  0.4445 -0.3254 -0.2625
 5013SOL    HW126501   0.537   4.444  12.936 -0.8928  1.9273  1.6741
 5013SOL    HW226502   0.445   4.342  12.872 -0.0298  1.3178 -0.9709
 5014SOL     OW26503   0.430   0.395   4.177 -0.5381 -0.5243  0.0049
 5014SOL    HW126504   0.485   0.469   4.204 -0.7657 -0.2592 -0.2429
 5014SOL    HW226505   0.341   0.428   4.187 -0.2124  0.9574 -1.9120
 5015SOL     OW26506   3.008   1.810   1.433 -0.6067  0.1128  0.8650
 5015SOL    HW126507   3.023   1.852   1.518 -2.6409 -1.3276  1.9221
 5015SOL    HW226508   2.953   1.735   1.456  1.1158 -0.9900  1.3711
 5016SOL     OW26509   1.079   1.613  10.947  0.5020 -0.2468 -0.7491
 5016SOL    HW126510   1.128   1.585  11.024  0.4521  0.5083 -0.4427
 5016SOL    HW226511   0.993   1.573  10.955  0.0299  0.8815 -0.1230
 5017SOL     OW26512   0.240   4.048   2.148 -0.3993 -0.2985  0.1658
 5017SOL    HW126513   0.318   4.101   2.165 -1.1374  0.5848  0.7946
 5017SOL    HW226514   0.180   4.121   2.129  0.2772  0.7804  2.1876
 5018SOL     OW26515   1.905   1.558   5.494 -0.0194 -0.0183  0.4613
 5018SOL    HW126516   1.952   1.630   5.452 -0.4327  0.4733  0.8486
 5018SOL    HW226517   1.824   1.556   5.441 -1.6148 -0.1201  2.9145
 5019SOL     OW26518   1.604   3.799   7.026  0.4205  0.0219  0.1405
 5019SOL    HW126519   1.650   3.881   7.042 -2.3162  1.4623  0.5470
 5019SOL    HW226520   1.624   3.779   6.935 -2.2243  2.6003 -1.0025
 5020SOL     OW26521   2.471   4.302   0.362 -0.3147  0.2489  0.0437
 5020SOL    HW126522   2.397   4.265   0.410 -0.3053 -0.0590 -0.1737
 5020SOL    HW226523   2.424   4.353   0.297 -0.3512  1.9368  1.4132
 5021SOL     OW26524   3.243   2.905  16.155 -0.0028  0.1384 -0.1350
 5021SOL    HW126525   3.148   2.910  16.162  0.2958  1.5720  2.8574
 5021SOL    HW226526   3.266   2.946  16.238  2.8025 -0.3717 -0.6512
 5022SOL     OW26527   0.653   1.214   2.060  0.2975 -0.2585 -0.2917
 5022SOL    HW126528   0.634   1.260   2.142  1.9686 -0.9116  0.4682
 5022SOL    HW226529   0.625   1.287   2.005  0.2704 -0.5351 -0.6428
 5023SOL     OW26530   0.759   1.129   7.964  0.1051 -0.5075 -0.3984
 5023SOL    HW126531   0.838   1.153   8.012 -0.1355  0.5989 -0.5603
 5023SOL    HW226532   0.796   1.074   7.895 -0.2217  0.0540 -1.0288
 5024SOL     OW26533   3.182   2.262  13.200 -0.8935  0.2889  0.1556
 5024SOL    HW126534   3.201   2.169  13.216  0.5837  0.0294 -3.1642
 5024SOL    HW226535   3.224   2.293  13.281 -0.7290  0.5289 -0.0224
 5025SOL     OW26536   2.967   1.914   8.819  0.0245  0.0382 -0.2012
 5025SOL    HW126537   3.008   1.865   8.748 -1.2864 -2.4454  0.7610
 5025SOL    HW226538   2.887   1.935   8.771 -0.5726  0.5408  1.0203
 5026SOL     OW26539   2.653   1.580   1.354 -0.3190  0.4067  0.4453
 5026SOL    HW126540   2.725   1.544   1.407  1.1651  0.0006 -1.8351
 5026SOL    HW226541   2.696   1.635   1.289  1.5145 -0.6843  0.7077
 5027SOL     OW26542   2.352   2.695  15.182  0.0906  0.2473  0.2259
 5027SOL    HW126543   2.432   2.675  15.133 -1.0153 -1.8657 -0.6888
 5027SOL    HW226544   2.332   2.782  15.147 -2.1616  0.7539  2.7522
 5028SOL     OW26545   1.113   2.341  14.340  0.5939  0.0842  0.3527
 5028SOL    HW126546   1.035   2.366  14.291  0.3813  1.4036  1.3625
 5028SOL    HW226547   1.085   2.250  14.351 -1.1437  0.5601 -0.1662
 5029SOL     OW26548   2.189   1.763   6.986  0.0439  0.1153  0.9004
 5029SOL    HW126549   2.270   1.773   6.935 -1.2514 -0.7079 -1.2833
 5029SOL    HW226550   2.215   1.690   7.043  1.4715  1.5578  2.1012
 5030SOL     OW26551   0.307   1.630   4.685 -0.3182 -0.4683 -0.5402
 5030SOL    HW126552   0.249   1.621   4.610  0.8041  1.6975 -1.6710
 5030SOL    HW226553   0.252   1.605   4.760 -1.4775  1.2943 -0.8022
 5031SOL     OW26554   1.827   2.223   3.534  0.1545  0.2258 -0.3460
 5031SOL    HW126555   1.817   2.136   3.573 -0.9772  0.2766 -0.5282
 5031SOL    HW226556   1.916   2.207   3.501  0.0316  0.7583 -0.9476
 5032SOL     OW26557   2.926   2.580   9.401 -0.1718  0.2737 -0.1353
 5032SOL    HW126558   3.007   2.631   9.404 -0.4295  0.7374 -0.9400
 5032SOL    HW226559   2.959   2.505   9.450 -0.0274  2.1581  2.6399
 5033SOL     OW26560   2.802   2.586   8.724  0.3571  0.8545 -0.3637
 5033SOL    HW126561   2.893   2.608   8.703  0.2862 -0.1368 -1.6766
 5033SOL    HW226562   2.796   2.624   8.811 -0.0966 -0.8227  0.3291
 5034SOL     OW26563   3.455   0.316   5.756  0.3614 -0.1806 -0.1846
 5034SOL    HW126564   3.478   0.239   5.807  4.0716  1.3997  0.4950
 5034SOL    HW226565   3.502   0.383   5.805 -2.2913  0.5575  1.3730
 5035SOL     OW26566   3.481   3.926   2.472  0.3698  0.1687 -0.1924
 5035SOL    HW126567   3.486   3.898   2.380 -1.1968  0.1301 -0.2642
 5035SOL    HW226568   3.439   3.848   2.507  0.1585  1.0368  1.4611
 5036SOL     OW26569   2.495   1.346   6.486  0.2710 -0.2913  0.1613
 5036SOL    HW126570   2.466   1.350   6.577  0.4289 -0.5061  0.2216
 5036SOL    HW226571   2.577   1.298   6.498 -0.1781 -1.5172 -1.7263
 5037SOL     OW26572   4.288   2.998   4.866  0.0653 -0.0454 -0.1773
 5037SOL    HW126573   4.222   3.067   4.865 -0.1614 -0.2696 -0.7989
 5037SOL    HW226574   4.314   3.002   4.958  0.0242  1.0432 -0.2211
 5038SOL     OW26575   3.665   4.684   3.477 -0.3217  0.0886  0.3044
 5038SOL    HW126576   3.683   4.690   3.571 -1.6577  2.0803  0.4426
 5038SOL    HW226577   3.639   4.593   3.463  0.5286 -0.4124  2.0071
 5039SOL     OW26578   0.942   0.183   5.941 -0.4117  0.1463 -0.6076
 5039SOL    HW126579   0.865   0.126   5.947  0.5274 -0.9691  0.8538
 5039SOL    HW226580   0.941   0.194   5.846 -2.1434  0.0898 -0.5904
 5040SOL     OW26581   3.630   2.252   8.264  0.2287  0.3122  0.2515
 5040SOL    HW126582   3.673   2.337   8.273  0.1394  0.4596 -0.7145
 5040SOL    HW226583   3.574   2.246   8.341 -0.4719 -1.7190 -0.4306
 5041SOL     OW26584   0.693   4.515  12.898 -0.3905 -0.5370  0.5341
 5041SOL    HW126585   0.704   4.594  12.951 -0.8151  0.1063 -0.3482
 5041SOL    HW226586   0.777   4.502  12.854 -0.5735 -0.4971  0.1752
 5042SOL     OW26587   1.292   3.566   4.813  0.8238  0.2495  0.4502
 5042SOL    HW126588   1.359   3.513   4.771  0.4688  2.4262 -2.8575
 5042SOL    HW226589   1.305   3.538   4.904 -2.8486 -1.4831  0.4675
 5043SOL     OW26590   0.699   0.670   2.099  0.3710 -0.2791 -0.1884
 5043SOL    HW126591   0.752   0.715   2.165 -0.4859 -0.5435  0.6892
 5043SOL    HW226592   0.744   0.686   2.017  2.4621  0.0808  1.0393
 5044SOL     OW26593   3.328   4.652  15.063  0.0386  0.1852 -0.3664
 5044SOL    HW126594   3.285   4.599  14.996 -0.0856  1.1397 -1.0311
 5044SOL    HW226595   3.404   4.675  15.010 -0.3270  2.3542  0.0566
 5045SOL     OW26596   2.064   2.287   5.699 -0.7069 -0.3638  0.2850
 5045SOL    HW126597   2.119   2.250   5.768  1.2999  3.4921  0.7764
 5045SOL    HW226598   1.983   2.236   5.703 -1.8285  1.5951  2.0954
 5046SOL     OW26599   0.573   0.915   0.117  0.1198 -0.2340  0.1503
 5046SOL    HW126600   0.587   0.850   0.049  0.1999  0.4172 -0.4643
 5046SOL    HW226601   0.543   0.991   0.067  0.0377  0.4620  1.2508
 5047SOL     OW26602   0.744   0.471  12.431  0.4887  0.1833  0.0121
 5047SOL    HW126603   0.650   0.472  12.418  0.2225  0.3795  1.9935
 5047SOL    HW226604   0.750   0.495  12.523  0.7884  0.8360 -0.1765
 5048SOL     OW26605   2.499   1.387  16.934  0.6296  0.7176  0.4081
 5048SOL    HW126606   2.522   1.447  16.862  0.6933  0.2297  0.0233
 5048SOL    HW226607   2.491   1.300  16.894  0.2065  0.9250  0.0328
 5049SOL     OW26608   1.955   1.437   6.509 -0.1931  0.2815  0.4047
 5049SOL    HW126609   1.975   1.344   6.516 -0.9765  0.0712 -0.1532
 5049SOL    HW226610   1.968   1.481   6.593 -0.2164 -1.8619  1.5302
 5050SOL     OW26611   4.584   3.387   3.184 -0.0773  0.4809  0.0255
 5050SOL    HW126612   4.632   3.361   3.263  0.0499  2.3004  0.5490
 5050SOL    HW226613   4.547   3.464   3.227 -0.3730 -0.8132  2.1525
 5051SOL     OW26614   0.680   0.743   3.691 -0.1889 -0.4385 -0.5533
 5051SOL    HW126615   0.628   0.676   3.734 -2.8473  0.3196 -2.6227
 5051SOL    HW226616   0.678   0.707   3.602 -0.7050 -1.0016 -0.3126
 5052SOL     OW26617   4.559   0.765   7.527  0.3067 -0.3995 -0.6631
 5052SOL    HW126618   4.647   0.761   7.566  0.9242  0.9050 -1.9158
 5052SOL    HW226619   4.534   0.855   7.548  1.3611 -0.2866  0.1566
 5053SOL     OW26620   3.635   0.062   8.481  0.0988  0.5877  0.0413
 5053SOL    HW126621   3.689   0.119   8.536  2.2133 -1.4329  0.0913
 5053SOL    HW226622   3.579   0.012   8.541  2.1650 -1.3579  0.3522
 5054SOL     OW26623   0.533   4.544  14.271 -0.1751 -0.3495  0.0416
 5054SOL    HW126624   0.598   4.531  14.202 -0.4761  1.7182 -0.6235
 5054SOL    HW226625   0.467   4.485  14.236  0.0567 -0.8213  0.4007
 5055SOL     OW26626   2.490   0.456   6.574  0.2767 -0.0976 -0.4278
 5055SOL    HW126627   2.499   0.549   6.592 -2.9239  0.1617 -0.2066
 5055SOL    HW226628   2.486   0.453   6.479 -0.1379  1.2169 -0.4391
 5056SOL     OW26629   2.209   3.395   2.606  0.5556 -0.0576 -0.5568
 5056SOL    HW126630   2.148   3.358   2.541  0.0306  0.6228 -0.4483
 5056SOL    HW226631   2.240   3.472   2.559  3.5523 -1.6507 -1.1709
 5057SOL     OW26632   4.067   0.158   7.131  0.1032  0.0951 -0.2093
 5057SOL    HW126633   4.137   0.101   7.163 -1.7472 -1.3962  1.2505
 5057SOL    HW226634   3.997   0.097   7.106  1.1339 -1.4512  0.6084
 5058SOL     OW26635   1.465   1.471   5.389  0.3440  0.0721  0.4774
 5058SOL    HW126636   1.417   1.523   5.454  0.6513  0.2008  0.6025
 5058SOL    HW226637   1.500   1.397   5.438  1.6012  0.7894  0.6437
 5059SOL     OW26638   3.678   2.787   2.852  0.0647 -0.5051 -0.3348
 5059SOL    HW126639   3.631   2.777   2.935  0.9101 -0.5134  0.1465
 5059SOL    HW226640   3.769   2.769   2.874  0.0803 -0.4736 -0.3740
 5060SOL     OW26641   0.827   3.637   8.117 -0.6223 -0.1715 -0.1582
 5060SOL    HW126642   0.852   3.691   8.192  1.5838  0.2560 -1.2151
 5060SOL    HW226643   0.815   3.554   8.163  4.5667 -1.8923 -1.9553
 5061SOL     OW26644   0.267   4.584   2.436 -0.4443 -0.0894  0.6316
 5061SOL    HW126645   0.237   4.604   2.347 -0.7557 -0.9859  0.5358
 5061SOL    HW226646   0.277   4.489   2.423 -2.6949 -0.3329  0.6169
 5062SOL     OW26647   2.433   3.373   5.588  0.5316  0.2215  0.0274
 5062SOL    HW126648   2.475   3.457   5.605  2.1967 -0.8099  1.0148
 5062SOL    HW226649   2.473   3.323   5.660 -0.2834 -3.4173 -2.0282
 5063SOL     OW26650   3.442   3.872  17.509  0.7339  0.0835  0.3084
 5063SOL    HW126651   3.515   3.925  17.542 -0.6637  2.0006  0.3510
 5063SOL    HW226652   3.409   3.916  17.430  2.4236 -1.2059 -1.1257
 5064SOL     OW26653   1.596   0.624   1.152 -0.0645  0.3961 -0.1149
 5064SOL    HW126654   1.510   0.593   1.123 -0.6477  0.9196  1.0812
 5064SOL    HW226655   1.646   0.543   1.138  0.0251  0.3261  0.6332
 5065SOL     OW26656   0.459   3.380   4.351  0.6647 -0.2417 -0.1690
 5065SOL    HW126657   0.505   3.456   4.316 -3.2083  2.2055  0.0774
 5065SOL    HW226658   0.435   3.340   4.267  0.1400  2.1741 -1.1619
 5066SOL     OW26659   3.344   4.251   7.482 -0.2090 -0.1042 -0.0152
 5066SOL    HW126660   3.276   4.236   7.417  0.1882  0.3058 -0.5264
 5066SOL    HW226661   3.403   4.314   7.439  0.7259 -1.3709 -0.5797
 5067SOL     OW26662   3.467   0.341   7.522 -0.5672 -0.0425  0.1162
 5067SOL    HW126663   3.511   0.372   7.601  0.3815  0.2948 -0.5347
 5067SOL    HW226664   3.465   0.429   7.484 -1.4996  0.0465  0.3821
 5068SOL     OW26665   1.965   3.860  15.944  0.0175 -0.4278 -0.9047
 5068SOL    HW126666   1.950   3.785  15.886  0.7381 -1.8829  0.7846
 5068SOL    HW226667   1.907   3.930  15.915  2.2613  1.3991 -1.0232
 5069SOL     OW26668   4.517   1.710   8.781  0.1972 -0.1714  0.0678
 5069SOL    HW126669   4.468   1.785   8.746  0.2136 -0.4220 -0.4965
 5069SOL    HW226670   4.474   1.692   8.864  1.9975 -2.8185  0.4097
 5070SOL     OW26671   2.369   1.172  11.700  0.1741  0.0178 -0.2822
 5070SOL    HW126672   2.328   1.207  11.621  0.3081 -0.4238 -0.5494
 5070SOL    HW226673   2.407   1.252  11.737  0.6031  0.2607 -1.2552
 5071SOL     OW26674   2.117   4.099   2.950  0.4351  0.2958  0.2178
 5071SOL    HW126675   2.114   4.192   2.927  1.7561 -0.0730 -1.5525
 5071SOL    HW226676   2.188   4.074   2.891  1.5779  0.8726  1.3430
 5072SOL     OW26677   4.419   1.012  10.141  0.7171 -0.3311 -0.4428
 5072SOL    HW126678   4.390   1.002  10.050  2.3800 -1.7276 -0.8006
 5072SOL    HW226679   4.352   1.076  10.167  1.1011 -0.5320  1.0218
 5073SOL     OW26680   3.456   3.519  15.672  0.3589  0.2003 -0.6499
 5073SOL    HW126681   3.472   3.434  15.713  0.7422 -0.0588 -1.3385
 5073SOL    HW226682   3.363   3.538  15.688 -0.2434 -0.2622 -3.5919
 5074SOL     OW26683   0.873   1.216   8.734  0.0151  0.3413  0.4318
 5074SOL    HW126684   0.891   1.229   8.827  1.3424  0.5143  0.1498
 5074SOL    HW226685   0.965   1.200   8.711  0.1264  1.1082  0.3201
 5075SOL     OW26686   1.618   0.053  12.068 -0.4753 -0.2133  0.0443
 5075SOL    HW126687   1.639   4.682  12.049 -0.3443 -0.0546 -0.5748
 5075SOL    HW226688   1.689   0.095  12.020  0.6408 -4.2085 -1.7633
 5076SOL     OW26689   0.558   0.242   8.262 -0.5590 -0.6783 -0.0520
 5076SOL    HW126690   0.621   0.174   8.286  0.0816  0.2459  0.9527
 5076SOL    HW226691   0.475   0.197   8.276  0.2457 -1.9991  0.5175
 5077SOL     OW26692   3.399   2.753   8.164 -0.0242 -0.0966  0.6455
 5077SOL    HW126693   3.437   2.668   8.185  3.7909  1.9771  2.3568
 5077SOL    HW226694   3.470   2.804   8.125 -1.2272  0.3077 -0.9775
 5078SOL     OW26695   2.095   1.718   8.308 -0.5027  0.0456 -0.5579
 5078SOL    HW126696   2.055   1.632   8.322 -0.4368  0.2955  1.1571
 5078SOL    HW226697   2.161   1.713   8.377  0.5072  0.1391 -1.5111
 5079SOL     OW26698   3.695   2.172  12.083  0.1393 -0.2549  0.5271
 5079SOL    HW126699   3.776   2.168  12.133 -0.7234  1.0200  2.0248
 5079SOL    HW226700   3.718   2.140  11.996 -2.0191 -0.4931  0.0257
 5080SOL     OW26701   3.449   1.186   3.260  0.5149  0.2707 -0.7359
 5080SOL    HW126702   3.386   1.124   3.296  1.6341 -0.2231  0.3974
 5080SOL    HW226703   3.454   1.153   3.170  0.5786 -0.7192 -0.3685
 5081SOL     OW26704   2.739   4.582  11.435 -0.8828 -0.0377  0.0030
 5081SOL    HW126705   2.673   4.512  11.430 -0.2941 -0.6207  0.4351
 5081SOL    HW226706   2.745   4.594  11.340 -1.2840 -1.8057 -0.2470
 5082SOL     OW26707   0.338   3.440   2.467 -1.1832 -0.3300 -0.0450
 5082SOL    HW126708   0.417   3.393   2.442 -0.3657  0.8568  0.3536
 5082SOL    HW226709   0.269   3.381   2.436 -1.5102 -1.2814  2.5272
 5083SOL     OW26710   3.249   0.262   2.759  0.0952  0.5634 -0.0711
 5083SOL    HW126711   3.192   0.234   2.830 -1.9861  0.7723 -1.6694
 5083SOL    HW226712   3.333   0.260   2.805 -0.4001  1.6619  0.8758
 5084SOL     OW26713   2.881   2.920   9.252 -0.5751 -0.3783 -0.8497
 5084SOL    HW126714   2.956   2.962   9.294 -0.0563  1.3007 -3.4243
 5084SOL    HW226715   2.921   2.833   9.244 -0.5303 -0.6754  2.7050
 5085SOL     OW26716   4.380   0.851  11.088  0.1977  0.2560 -0.2419
 5085SOL    HW126717   4.369   0.865  10.994 -1.8648  1.7116  0.2204
 5085SOL    HW226718   4.381   0.755  11.085 -0.8690  0.1851  1.9031
 5086SOL     OW26719   3.774   1.280   8.177  0.2876  0.1461  0.1287
 5086SOL    HW126720   3.770   1.193   8.137  0.1087 -0.0344  0.5401
 5086SOL    HW226721   3.709   1.269   8.246  0.0205  0.6214 -0.0461
 5087SOL     OW26722   0.161   0.788   4.398  0.1342 -0.0283 -0.1193
 5087SOL    HW126723   0.191   0.837   4.321 -0.6566 -0.0387 -0.4323
 5087SOL    HW226724   0.233   0.731   4.426  1.8025  1.3664 -1.5991
 5088SOL     OW26725   4.314   2.979   8.289  1.0339 -0.2847 -0.3277
 5088SOL    HW126726   4.345   3.044   8.226  0.8467  0.7259  0.6378
 5088SOL    HW226727   4.379   2.997   8.357  1.3233 -1.1370 -0.3789
 5089SOL     OW26728   4.348   1.144   5.636  0.1071 -0.2752  0.2544
 5089SOL    HW126729   4.365   1.224   5.585 -0.2345 -0.4759 -0.1688
 5089SOL    HW226730   4.308   1.169   5.719 -1.4134  0.5557 -0.7397
 5090SOL     OW26731   2.256   0.412  13.481  0.0146 -0.2206 -0.1479
 5090SOL    HW126732   2.290   0.385  13.566 -0.1897  0.0378  0.0164
 5090SOL    HW226733   2.279   0.504  13.470 -1.9786  0.1444 -1.3561
 5091SOL     OW26734   3.427   2.783   7.546  0.1845  0.5913  0.4628
 5091SOL    HW126735   3.478   2.727   7.487 -0.3777  3.3550 -2.6637
 5091SOL    HW226736   3.340   2.783   7.504  0.7641 -0.1310 -0.7333
 5092SOL     OW26737   4.362   3.600   6.666  0.2477 -1.0055  0.2383
 5092SOL    HW126738   4.455   3.598   6.687  0.0247 -0.7545  1.2123
 5092SOL    HW226739   4.353   3.537   6.594 -0.7883  0.9445 -1.3476
 5093SOL     OW26740   0.053   4.554   2.874 -0.1668 -0.4640 -0.1405
 5093SOL    HW126741   0.065   4.553   2.969 -0.8520 -0.7041 -0.0560
 5093SOL    HW226742   0.145   4.553   2.849 -0.5505 -1.0182 -1.5296
 5094SOL     OW26743   4.347   3.403   6.489  0.3491 -0.4437  0.1859
 5094SOL    HW126744   4.336   3.447   6.406 -0.3568  0.4402  0.7503
 5094SOL    HW226745   4.428   3.356   6.470  0.6011  0.2073 -0.3216
 5095SOL     OW26746   1.979   4.573   3.121  0.2901 -0.8100 -0.2460
 5095SOL    HW126747   2.066   4.556   3.087  1.1837  0.8333  1.2225
 5095SOL    HW226748   1.971   4.669   3.123  0.1494 -0.9222  3.5787
 5096SOL     OW26749   1.982   3.870  14.064 -0.6961  0.1256  0.0064
 5096SOL    HW126750   2.026   3.883  13.980 -0.0813  1.7191  0.5740
 5096SOL    HW226751   2.057   3.858  14.123 -1.1119  1.3951  0.7891
 5097SOL     OW26752   0.412   1.117   0.926  0.0336  0.1402 -0.6811
 5097SOL    HW126753   0.351   1.090   0.995 -2.3742  3.1286 -1.6081
 5097SOL    HW226754   0.430   1.204   0.961 -2.1133 -0.4158  1.8175
 5098SOL     OW26755   3.213   3.326   4.148 -0.5389 -0.5208  0.0915
 5098SOL    HW126756   3.153   3.383   4.198 -0.4110 -0.5133  0.2359
 5098SOL    HW226757   3.157   3.250   4.135  0.4183 -1.1797 -0.1439
 5099SOL     OW26758   1.979   0.838   6.335 -0.3316  0.0883 -0.7082
 5099SOL    HW126759   1.980   0.915   6.391 -0.7315 -0.8030  0.5309
 5099SOL    HW226760   2.008   0.867   6.249  1.6495  1.7994  0.5558
 5100SOL     OW26761   0.950   2.235  15.533  0.5271  0.3212 -0.0116
 5100SOL    HW126762   0.981   2.312  15.486  0.9544  1.4729  2.1216
 5100SOL    HW226763   0.856   2.239  15.521  0.4014  0.3330  0.9474
 5101SOL     OW26764   2.175   4.179   5.315  0.1507 -0.1679 -0.0600
 5101SOL    HW126765   2.246   4.233   5.350 -0.3672  0.1019  0.5759
 5101SOL    HW226766   2.132   4.152   5.396  0.6567  0.0471  0.2788
 5102SOL     OW26767   4.218   4.549  15.484  0.0952  0.1730  0.0315
 5102SOL    HW126768   4.139   4.496  15.477  2.4906 -3.2590 -0.9162
 5102SOL    HW226769   4.248   4.530  15.573 -0.9728 -0.5332  0.2384
 5103SOL     OW26770   4.096   2.010   9.572 -0.2500  0.0446  0.3673
 5103SOL    HW126771   4.097   1.917   9.593 -0.5814  0.1352  0.7728
 5103SOL    HW226772   4.131   2.049   9.652 -1.7403  0.3359  0.8635
 5104SOL     OW26773   3.968   2.201  12.180 -0.5949 -0.4910 -0.0409
 5104SOL    HW126774   3.956   2.290  12.213 -1.7228 -0.4118 -0.6886
 5104SOL    HW226775   4.007   2.213  12.093 -0.6948 -0.7002 -0.1161
 5105SOL     OW26776   4.474   2.700   1.698 -0.3983 -0.0062 -0.5235
 5105SOL    HW126777   4.570   2.700   1.708 -0.2737  1.2441 -1.7687
 5105SOL    HW226778   4.462   2.673   1.607 -1.1571 -0.3698 -0.3173
 5106SOL     OW26779   1.592   2.475   6.381 -0.1933 -0.4212 -0.6578
 5106SOL    HW126780   1.625   2.451   6.467 -0.9463  1.8361  0.2428
 5106SOL    HW226781   1.551   2.392   6.353 -1.4958  1.0630 -3.2123
 5107SOL     OW26782   1.765   1.258  12.482 -0.3923  0.1832  0.0921
 5107SOL    HW126783   1.747   1.192  12.550 -0.5991 -1.7234 -1.8297
 5107SOL    HW226784   1.715   1.332  12.516 -1.9648 -0.4835 -0.8159
 5108SOL     OW26785   1.444   3.877   2.314 -0.4001  0.0428  0.7207
 5108SOL    HW126786   1.419   3.852   2.403 -2.2122  1.7065  0.6719
 5108SOL    HW226787   1.454   3.791   2.275  1.7878  1.2020 -1.2924
 5109SOL     OW26788   4.502   0.550   3.117 -0.0303  0.1241 -0.1054
 5109SOL    HW126789   4.497   0.504   3.201  1.0801 -1.5023 -0.9214
 5109SOL    HW226790   4.433   0.505   3.068  0.3210  1.0003 -1.4051
 5110SOL     OW26791   1.571   3.857  14.797 -0.5907  0.1749  0.1797
 5110SOL    HW126792   1.575   3.777  14.849 -1.3206  1.0468  1.5802
 5110SOL    HW226793   1.661   3.862  14.767 -1.1461  1.6578 -1.2416
 5111SOL     OW26794   4.299   2.159  12.409  0.5490  0.1354 -0.0145
 5111SOL    HW126795   4.364   2.202  12.353  2.3168 -2.5974 -0.0252
 5111SOL    HW226796   4.229   2.221  12.392 -0.5385 -1.3288 -0.8547
 5112SOL     OW26797   2.217   2.920   0.763 -0.1445  0.0472  0.1017
 5112SOL    HW126798   2.128   2.942   0.733 -0.4688  0.6923  1.5568
 5112SOL    HW226799   2.265   2.976   0.704  0.1980  1.3384  1.6149
 5113SOL     OW26800   1.826   3.236   2.596  0.1083  1.1149  0.2106
 5113SOL    HW126801   1.785   3.227   2.511  1.2082 -0.9098 -0.0989
 5113SOL    HW226802   1.836   3.144   2.621  2.4121  1.7211  1.6122
 5114SOL     OW26803   1.096   0.385  15.649 -0.2761  0.0572  0.8948
 5114SOL    HW126804   1.155   0.429  15.711  0.0361  0.3658  0.3778
 5114SOL    HW226805   1.014   0.377  15.698 -0.6574 -0.2518  0.2014
 5115SOL     OW26806   0.152   1.477   4.464 -1.0307 -0.2408  0.1421
 5115SOL    HW126807   0.203   1.409   4.419 -2.3326 -0.6573 -0.7000
 5115SOL    HW226808   0.162   1.552   4.405  0.0639  0.3099  1.0139
 5116SOL     OW26809   1.684   1.563   7.057  0.2679  0.3880 -0.0300
 5116SOL    HW126810   1.695   1.600   7.145  0.7854 -0.1426  0.1232
 5116SOL    HW226811   1.775   1.577   7.032  0.4393 -0.0900  0.3335
 5117SOL     OW26812   1.538   3.118   4.380  0.7115 -0.3578  0.4276
 5117SOL    HW126813   1.537   3.026   4.355 -0.7183 -0.4759  0.9395
 5117SOL    HW226814   1.445   3.134   4.391  1.1554  0.9990  2.1779
 5118SOL     OW26815   2.905   0.573   6.749  0.2175  0.2702  0.2950
 5118SOL    HW126816   2.847   0.629   6.698 -0.7457 -1.3862 -0.4140
 5118SOL    HW226817   2.876   0.490   6.712 -1.5934  1.4532 -0.9119
 5119SOL     OW26818   1.097   4.114   6.247 -0.2484 -0.5878  0.1331
 5119SOL    HW126819   1.137   4.143   6.165  0.2832 -1.4843  0.0707
 5119SOL    HW226820   1.147   4.036   6.271 -1.3696 -0.9820  1.1367
 5120SOL     OW26821   0.281   1.872   7.459  0.3159 -0.1038  0.1042
 5120SOL    HW126822   0.220   1.835   7.524  0.8291 -0.7291  0.2351
 5120SOL    HW226823   0.274   1.967   7.460 -0.2070 -0.1236 -1.0700
 5121SOL     OW26824   2.841   0.503  12.972  0.0002  0.9094  0.5389
 5121SOL    HW126825   2.865   0.595  12.976  0.5940  0.7414  0.7811
 5121SOL    HW226826   2.828   0.492  12.878 -0.7873 -0.3755  0.7890
 5122SOL     OW26827   4.536   2.097   5.187  0.2820  0.2194 -0.0415
 5122SOL    HW126828   4.625   2.102   5.153  0.3778 -0.1499  0.1593
 5122SOL    HW226829   4.497   2.027   5.136  1.6371 -0.5072 -0.0689
 5123SOL     OW26830   1.114   3.988   4.466  0.6949 -0.3726 -0.4164
 5123SOL    HW126831   1.048   3.961   4.530  0.6911  0.4267 -0.0912
 5123SOL    HW226832   1.180   4.007   4.534 -0.3382  0.7426  0.2541
 5124SOL     OW26833   3.467   2.378   1.594  0.7121 -0.1956 -0.3084
 5124SOL    HW126834   3.408   2.409   1.663  1.9001 -0.1462  0.6812
 5124SOL    HW226835   3.478   2.461   1.547 -0.2019  0.3995  0.5048
 5125SOL     OW26836   1.306   2.407   3.160 -0.7375 -0.0320  0.0251
 5125SOL    HW126837   1.371   2.469   3.194  1.0315 -2.2180  0.6733
 5125SOL    HW226838   1.351   2.364   3.088  0.1797  0.0631  0.5351
 5126SOL     OW26839   1.808   0.167   6.247 -0.2850  0.0074 -0.0076
 5126SOL    HW126840   1.877   0.233   6.256  0.9492 -1.4307  1.2404
 5126SOL    HW226841   1.793   0.160   6.153 -0.1202  1.4944 -0.1350
 5127SOL     OW26842   1.360   3.862  10.356  0.1346 -0.2085  0.4721
 5127SOL    HW126843   1.417   3.846  10.281 -0.2754  0.8812 -0.0750
 5127SOL    HW226844   1.418   3.819  10.419 -0.7028  0.2335  1.5420
 5128SOL     OW26845   1.713   1.054  13.942 -0.1300  0.0907  0.5038
 5128SOL    HW126846   1.737   1.117  13.874  0.6208  0.9948  1.5998
 5128SOL    HW226847   1.690   0.971  13.900  0.7390 -0.2135  0.6130
 5129SOL     OW26848   0.352   1.397   4.894 -0.6206  0.0037 -0.3008
 5129SOL    HW126849   0.302   1.363   4.819 -0.0472  0.5262 -0.9128
 5129SOL    HW226850   0.284   1.405   4.961 -0.3084  0.2956 -0.0279
 5130SOL     OW26851   3.556   2.917   8.032  0.7535 -0.3903  0.2193
 5130SOL    HW126852   3.637   2.944   8.075 -0.2122 -1.2934  2.6016
 5130SOL    HW226853   3.513   3.000   8.008  0.4326  0.2084  2.8500
 5131SOL     OW26854   3.230   0.907   1.112  0.5127  0.6514 -0.5552
 5131SOL    HW126855   3.257   0.853   1.038 -0.9341 -0.3525 -0.3682
 5131SOL    HW226856   3.135   0.903   1.099  0.1679  1.6004  1.6048
 5132SOL     OW26857   1.763   2.763   5.147  0.2678 -0.3581  0.1170
 5132SOL    HW126858   1.854   2.791   5.159  0.3946 -0.3467 -0.8576
 5132SOL    HW226859   1.759   2.673   5.178  0.0936  0.7377  3.2302
 5133SOL     OW26860   2.718   0.288   4.729 -0.2524  0.0052  0.1179
 5133SOL    HW126861   2.763   0.203   4.735 -0.5708 -0.1916 -0.2129
 5133SOL    HW226862   2.757   0.315   4.646  1.3576  1.6656  1.4266
 5134SOL     OW26863   4.435   3.963  16.131 -0.2069  0.5682 -0.7214
 5134SOL    HW126864   4.421   3.912  16.210  0.4224 -2.5270 -2.6057
 5134SOL    HW226865   4.348   3.992  16.103 -1.2871 -1.4875  0.5200
 5135SOL     OW26866   1.489   0.480   1.884  0.1948 -0.4324 -0.1023
 5135SOL    HW126867   1.582   0.493   1.863  0.2543 -0.7782 -0.0485
 5135SOL    HW226868   1.473   0.407   1.825  0.5909 -0.4264 -0.2213
 5136SOL     OW26869   1.889   1.179   3.901  0.4493  0.2952  0.1894
 5136SOL    HW126870   1.824   1.241   3.934  0.4892  1.4282 -1.8789
 5136SOL    HW226871   1.928   1.152   3.984 -0.5034 -0.6643  0.3265
 5137SOL     OW26872   0.316   2.544   9.073  0.2222  0.2349  0.8397
 5137SOL    HW126873   0.226   2.560   9.102  0.0311  0.4682  0.1209
 5137SOL    HW226874   0.353   2.629   9.098  1.5800 -0.0484 -0.2460
 5138SOL     OW26875   0.817   1.515  12.245 -0.2140  0.4551 -0.3162
 5138SOL    HW126876   0.876   1.519  12.321 -0.9896  0.1668  0.3005
 5138SOL    HW226877   0.750   1.459  12.284 -0.6895  0.2144 -1.5062
 5139SOL     OW26878   3.998   3.551   0.666  0.0459  0.4053  0.0624
 5139SOL    HW126879   4.017   3.465   0.703  1.2227  0.4555 -0.4551
 5139SOL    HW226880   4.028   3.538   0.576  1.7625  2.8818  0.3012
 5140SOL     OW26881   0.263   0.228   0.354 -0.7004  0.0728 -0.4184
 5140SOL    HW126882   0.270   0.311   0.306  0.8687  0.4320  0.4254
 5140SOL    HW226883   0.257   0.257   0.444 -0.0859 -0.2381 -0.2757
 5141SOL     OW26884   1.691   1.015   6.647 -0.5120 -0.1190  0.4504
 5141SOL    HW126885   1.687   0.942   6.586 -1.7180  0.5665 -0.2848
 5141SOL    HW226886   1.631   0.982   6.714 -0.8437  1.5550  0.9970
 5142SOL     OW26887   0.600   0.712  17.610 -0.1027 -0.5312 -0.1627
 5142SOL    HW126888   0.579   0.700  17.517 -0.1957  1.0383 -0.3541
 5142SOL    HW226889   0.514   0.692  17.648 -1.3867  6.4475  0.6673
 5143SOL     OW26890   0.045   3.582   7.861 -0.0623 -0.1430  0.6782
 5143SOL    HW126891   0.052   3.540   7.947  0.3030 -0.5809  0.4331
 5143SOL    HW226892   0.094   3.660   7.887 -0.4888  0.5090 -0.4678
 5144SOL     OW26893   3.961   3.488   8.295 -0.2895  0.8085 -0.2799
 5144SOL    HW126894   3.914   3.537   8.363  1.8585 -0.3729  2.0661
 5144SOL    HW226895   3.900   3.504   8.223 -0.2684  0.0841 -0.4632
 5145SOL     OW26896   0.722   2.296   6.744 -0.4845  0.4205 -0.7220
 5145SOL    HW126897   0.760   2.221   6.789  2.5813  2.2494 -0.2134
 5145SOL    HW226898   0.780   2.366   6.777 -1.7107  1.9184 -1.7458
 5146SOL     OW26899   0.604   2.136   3.505  0.3907  0.0033  0.3417
 5146SOL    HW126900   0.698   2.136   3.484 -0.0410 -0.5402 -1.5902
 5146SOL    HW226901   0.592   2.067   3.571  0.4293  1.1237  1.5305
 5147SOL     OW26902   0.891   1.272   5.545 -0.6481  0.2752  0.1386
 5147SOL    HW126903   0.803   1.303   5.523 -1.5230 -1.8734  0.5265
 5147SOL    HW226904   0.942   1.352   5.534 -0.4245 -0.2262 -2.5426
 5148SOL     OW26905   1.897   1.040   3.159 -0.0403 -0.0496 -0.2263
 5148SOL    HW126906   1.882   1.073   3.247  3.4579  0.3653  0.2153
 5148SOL    HW226907   1.852   1.107   3.108 -1.3584 -0.5465  0.2931
 5149SOL     OW26908   0.205   0.734  14.157  0.1372 -0.6002 -0.9795
 5149SOL    HW126909   0.280   0.709  14.212  0.4176  0.0031 -1.0920
 5149SOL    HW226910   0.228   0.819  14.120  0.5586 -0.1685  0.2545
 5150SOL     OW26911   0.763   0.940  17.409  0.2839  0.6304  0.4325
 5150SOL    HW126912   0.797   1.011  17.463 -2.0454  2.6363 -0.7133
 5150SOL    HW226913   0.843   0.896  17.380 -0.6755  0.5810 -2.0963
 5151SOL     OW26914   2.371   3.809   1.668  0.3237  0.4088 -0.2093
 5151SOL    HW126915   2.440   3.743   1.658 -0.5417 -0.3196 -1.3930
 5151SOL    HW226916   2.396   3.872   1.599  0.2443  0.1339 -0.4889
 5152SOL     OW26917   2.641   3.839   6.617  0.0188 -0.6119 -0.4092
 5152SOL    HW126918   2.701   3.896   6.666 -0.3503 -2.3514  2.0527
 5152SOL    HW226919   2.684   3.754   6.627  1.2819  0.2164  1.3591
 5153SOL     OW26920   1.156   3.487   8.355 -0.0601 -0.1582  0.3222
 5153SOL    HW126921   1.084   3.469   8.415  1.0933 -0.1546  1.7184
 5153SOL    HW226922   1.227   3.441   8.399  1.6419  0.4287 -1.7857
 5154SOL     OW26923   4.209   2.757  15.504  0.1991 -0.0581  0.5413
 5154SOL    HW126924   4.253   2.761  15.589  0.7491  0.9858  0.2087
 5154SOL    HW226925   4.186   2.664  15.505 -1.6967  0.4306  1.8841
 5155SOL     OW26926   3.564   0.414  13.146  0.1201 -0.2716 -0.1500
 5155SOL    HW126927   3.510   0.494  13.140  0.8539  0.3561  1.5931
 5155SOL    HW226928   3.630   0.446  13.085 -0.4045 -1.3581 -1.2766
 5156SOL     OW26929   0.292   4.717  11.434  0.2014 -0.2057  0.0222
 5156SOL    HW126930   0.258   0.085  11.432  0.0108 -0.2768  0.1381
 5156SOL    HW226931   0.373   0.006  11.383  0.9606 -0.1499  1.2231
 5157SOL     OW26932   0.093   0.110   3.999  0.1392 -0.0371  0.4172
 5157SOL    HW126933   0.011   0.153   4.025  0.7298  0.2441  1.8186
 5157SOL    HW226934   0.104   0.147   3.911 -1.8329  0.0774  0.2066
 5158SOL     OW26935   0.974   0.953   6.756 -0.4418 -0.0959  0.5941
 5158SOL    HW126936   0.993   0.985   6.844 -0.2798  0.7122  0.2712
 5158SOL    HW226937   0.901   0.899   6.787  1.5030 -4.1738 -2.0457
 5159SOL     OW26938   3.456   2.447   5.884 -0.1736  0.3758 -0.3972
 5159SOL    HW126939   3.527   2.510   5.894 -0.4897  0.2049  3.2445
 5159SOL    HW226940   3.397   2.479   5.952  1.8004 -1.1117  2.0183
 5160SOL     OW26941   2.948   4.477   8.884 -0.4747 -0.5306 -0.4898
 5160SOL    HW126942   2.934   4.565   8.848 -0.3309  0.0494  0.8533
 5160SOL    HW226943   3.042   4.472   8.863 -0.3283  1.6758 -0.4166
 5161SOL     OW26944   4.480   1.210  15.319 -0.5229  0.4234  0.1057
 5161SOL    HW126945   4.441   1.297  15.311 -2.0145 -0.2555 -0.0882
 5161SOL    HW226946   4.466   1.195  15.412  5.7931  1.1734  1.1518
 5162SOL     OW26947   3.012   2.471   6.554  0.0475  0.4098  0.4591
 5162SOL    HW126948   2.946   2.537   6.534  1.1309  0.7073 -2.1940
 5162SOL    HW226949   2.992   2.444   6.643 -0.3591 -0.4575  0.1060
 5163SOL     OW26950   0.178   3.391   8.421  0.0535  0.0608 -0.7332
 5163SOL    HW126951   0.093   3.362   8.455  0.7877 -2.0838 -0.7633
 5163SOL    HW226952   0.232   3.379   8.500 -0.4445  1.5190 -0.1644
 5164SOL     OW26953   4.409   3.779   8.060  0.4059  0.1167 -0.1530
 5164SOL    HW126954   4.492   3.795   8.014  0.8236  1.0827  0.9185
 5164SOL    HW226955   4.382   3.692   8.030  1.1827 -0.6511  1.3205
 5165SOL     OW26956   4.173   0.061   8.490 -0.1370  0.2412 -0.0591
 5165SOL    HW126957   4.186   4.717   8.560  1.4288 -0.0883 -0.6528
 5165SOL    HW226958   4.131   0.128   8.544  0.2403 -0.5444  1.2309
 5166SOL     OW26959   4.132   4.716   2.209 -0.1985  0.0380 -0.0340
 5166SOL    HW126960   4.082   4.697   2.130 -2.0400  3.0426  0.3947
 5166SOL    HW226961   4.082   4.677   2.280 -0.6588 -2.7123 -1.8675
 5167SOL     OW26962   1.715   1.577   9.212 -0.2740  0.3391  0.2925
 5167SOL    HW126963   1.794   1.629   9.196  1.5419 -2.2065  1.0367
 5167SOL    HW226964   1.746   1.534   9.291  0.0413  1.1114  0.5961
 5168SOL     OW26965   1.154   3.642  16.027 -0.1451  0.7722  0.6634
 5168SOL    HW126966   1.119   3.586  16.097 -1.9275 -0.4026 -1.1486
 5168SOL    HW226967   1.074   3.673  15.984 -0.6816  1.0664  1.8750
 5169SOL     OW26968   0.196   4.635   2.192 -0.2681  0.3272  0.2608
 5169SOL    HW126969   0.252   4.648   2.115 -0.6506  0.9227  0.0845
 5169SOL    HW226970   0.118   4.631   2.137  1.0686 -0.3590 -1.5887
 5170SOL     OW26971   4.253   3.561   9.130 -0.0202 -0.2603 -0.4922
 5170SOL    HW126972   4.169   3.543   9.088 -0.8719  0.3608  0.9480
 5170SOL    HW226973   4.237   3.651   9.159  0.0478 -0.3350 -0.2142
 5171SOL     OW26974   4.574   2.346   9.907  0.1202  0.1790 -0.6267
 5171SOL    HW126975   4.490   2.357   9.862 -2.3417 -1.2599  3.6164
 5171SOL    HW226976   4.549   2.299   9.986 -1.9265 -0.7833 -1.8345
 5172SOL     OW26977   1.720   1.921   3.868  0.3256  0.2327  0.2295
 5172SOL    HW126978   1.743   1.838   3.910  0.0923  0.2896  0.4670
 5172SOL    HW226979   1.634   1.917   3.827  0.0760  0.1115  0.7703
 5173SOL     OW26980   0.956   4.467   7.729 -0.0154  0.4451  0.4689
 5173SOL    HW126981   0.967   4.429   7.817  1.7585  1.7015  0.7909
 5173SOL    HW226982   1.045   4.499   7.710 -0.3652  0.3859 -1.2309
 5174SOL     OW26983   1.995   2.133   7.559  0.2167  0.4247  0.7596
 5174SOL    HW126984   1.933   2.071   7.597 -0.7957 -0.0039 -1.5707
 5174SOL    HW226985   1.951   2.162   7.479 -0.2631  0.2871  0.9760
 5175SOL     OW26986   4.640   1.244   0.022 -0.0021  0.5601  0.0152
 5175SOL    HW126987   4.555   1.283   0.041 -1.3802 -0.9619 -2.8720
 5175SOL    HW226988   4.694   1.322   0.028 -0.3585  0.7903  0.2320
 5176SOL     OW26989   4.536   3.653   9.295 -0.8245 -0.3422 -0.3670
 5176SOL    HW126990   4.603   3.684   9.356 -0.2613  0.0380 -1.1723
 5176SOL    HW226991   4.456   3.659   9.348 -0.1739  0.5353  0.5153
 5177SOL     OW26992   2.695   0.178  13.216 -0.4085 -0.4385 -0.2886
 5177SOL    HW126993   2.678   0.264  13.179 -1.4600 -1.0220 -1.1550
 5177SOL    HW226994   2.612   0.169  13.264  0.4984  0.5441  1.4846
 5178SOL     OW26995   3.580   0.968   5.560 -0.1477  0.8038  0.1442
 5178SOL    HW126996   3.638   0.892   5.568  0.1225  0.8870 -1.0572
 5178SOL    HW226997   3.644   1.038   5.573 -0.2511  1.0794 -0.8474
 5179SOL     OW26998   3.904   2.240   7.586 -0.5624  0.4697  0.1711
 5179SOL    HW126999   3.848   2.202   7.653  1.7836 -1.3479  1.1278
 5179SOL    HW227000   3.927   2.163   7.535  1.2415  1.7183 -0.9102
 5180SOL     OW27001   2.663   4.470   2.410 -0.0150  0.0721  0.4599
 5180SOL    HW127002   2.570   4.490   2.411 -0.4712 -2.0196 -0.5918
 5180SOL    HW227003   2.665   4.391   2.464  0.8900  0.2664  0.7162
 5181SOL     OW27004   1.992   4.178  13.226 -0.4106  0.0587 -0.0557
 5181SOL    HW127005   2.020   4.143  13.142  0.4956  1.6914 -0.4165
 5181SOL    HW227006   2.077   4.209  13.256 -0.8471  1.1856  0.0263
 5182SOL     OW27007   1.931   3.893   8.857 -0.3465  0.3287 -0.2959
 5182SOL    HW127008   1.856   3.837   8.836  1.6358 -2.5243  0.1262
 5182SOL    HW227009   1.910   3.979   8.821  0.5330 -0.2951 -2.2869
 5183SOL     OW27010   0.557   2.917   3.699  0.0096  0.2916  0.1854
 5183SOL    HW127011   0.640   2.873   3.715  0.6272  1.1099 -0.7457
 5183SOL    HW227012   0.494   2.849   3.721  0.7212  0.1705  1.8385
 5184SOL     OW27013   3.346   1.346   4.090  0.0744 -0.1467  0.5207
 5184SOL    HW127014   3.420   1.406   4.077 -0.0046 -0.6178 -2.2191
 5184SOL    HW227015   3.293   1.375   4.016  0.2847  1.5059  1.0228
 5185SOL     OW27016   0.481   0.679  11.131  0.0214  0.3276 -0.0483
 5185SOL    HW127017   0.511   0.610  11.191 -0.2776  0.0599 -0.2082
 5185SOL    HW227018   0.391   0.698  11.154  0.8257  2.9636  0.8941
 5186SOL     OW27019   1.958   3.213   8.943  0.1143 -0.2238 -0.3515
 5186SOL    HW127020   1.986   3.283   9.002  0.5441 -0.4072 -0.3376
 5186SOL    HW227021   1.993   3.135   8.986 -1.0518 -0.6856 -0.2559
 5187SOL     OW27022   4.467   4.112   4.711  0.5084 -0.1283  0.2386
 5187SOL    HW127023   4.497   4.030   4.750  3.0687  1.3996  1.5097
 5187SOL    HW227024   4.489   4.178   4.777  1.4877 -0.0778 -0.1413
 5188SOL     OW27025   1.081   1.902   8.217  0.0066 -0.9310  0.0292
 5188SOL    HW127026   1.022   1.838   8.177 -2.0431  0.4234  0.8772
 5188SOL    HW227027   1.042   1.900   8.305 -0.9345 -2.4141 -0.4150
 5189SOL     OW27028   0.462   2.425   8.883 -0.6026 -0.1681  0.1795
 5189SOL    HW127029   0.407   2.450   8.957  0.0243  0.7863  0.3214
 5189SOL    HW227030   0.434   2.490   8.818 -1.3707  0.2907  0.9624
 5190SOL     OW27031   3.655   3.638   4.553 -0.0052  0.2388  0.2291
 5190SOL    HW127032   3.713   3.661   4.626  1.1281 -0.3292 -0.4761
 5190SOL    HW227033   3.622   3.725   4.531 -0.1827 -0.0065 -0.4771
 5191SOL     OW27034   1.587   3.722   4.903 -0.5735  0.2386  0.0864
 5191SOL    HW127035   1.601   3.633   4.869 -0.0580 -0.5040  2.2708
 5191SOL    HW227036   1.678   3.746   4.919 -0.5674  1.6323 -1.9613
 5192SOL     OW27037   3.827   2.113   8.494  0.7633  0.8787  0.0550
 5192SOL    HW127038   3.788   2.201   8.497  0.2549  0.5821  1.9418
 5192SOL    HW227039   3.882   2.117   8.416 -0.4504 -0.1777 -0.8523
 5193SOL     OW27040   4.581   1.131  10.489  0.0026  0.2794 -0.0034
 5193SOL    HW127041   4.647   1.075  10.530  0.3466  1.0642  0.5084
 5193SOL    HW227042   4.499   1.083  10.500 -0.4230  0.7056 -1.3236
 5194SOL     OW27043   3.542   3.411   4.794 -0.6498 -0.0063 -0.3187
 5194SOL    HW127044   3.504   3.482   4.846  0.1479 -0.7297  1.2668
 5194SOL    HW227045   3.495   3.418   4.711  1.5457 -0.6786 -1.6087
 5195SOL     OW27046   0.130   3.840   7.611 -0.1778  0.3010  0.7593
 5195SOL    HW127047   0.151   3.782   7.537 -0.9573  1.4117 -0.3341
 5195SOL    HW227048   0.089   3.909   7.559  1.4952 -0.8179 -2.0391
 5196SOL     OW27049   2.383   0.693  16.807 -0.1386 -0.5155 -0.3382
 5196SOL    HW127050   2.371   0.640  16.885  1.7526  1.1397  1.0946
 5196SOL    HW227051   2.316   0.761  16.814 -1.1843 -1.4896 -0.9470
 5197SOL     OW27052   3.199   0.154  11.567  0.1351  0.2777  0.4162
 5197SOL    HW127053   3.252   0.232  11.581 -0.9864  1.2545 -0.7877
 5197SOL    HW227054   3.116   0.175  11.610 -0.0867  0.7383 -0.2452
 5198SOL     OW27055   3.971   4.294  15.191  0.0950  0.5166  0.2264
 5198SOL    HW127056   4.005   4.373  15.147  0.0691 -0.2209 -1.1106
 5198SOL    HW227057   3.998   4.221  15.135  0.4440 -0.3638  1.5425
 5199SOL     OW27058   2.650   1.880  12.279 -0.2240  0.0832 -0.8152
 5199SOL    HW127059   2.681   1.810  12.336 -0.3734  1.2726  0.7322
 5199SOL    HW227060   2.734   1.922  12.261  0.3852 -1.7505 -2.2138
 5200SOL     OW27061   0.128   1.614   5.964  0.4234 -0.0868  0.0235
 5200SOL    HW127062   0.081   1.547   6.014  1.0001 -0.5577 -0.0590
 5200SOL    HW227063   0.215   1.589   5.996  0.5333  1.7434  1.1282
 5201SOL     OW27064   0.432   3.067   5.328  0.4256  0.0835  0.2543
 5201SOL    HW127065   0.368   3.115   5.381  0.3064  0.1138  0.0818
 5201SOL    HW227066   0.481   3.140   5.291  0.2245  0.2373  0.2900
 5202SOL     OW27067   2.049   0.112  14.025 -0.4522  0.0266 -0.3644
 5202SOL    HW127068   2.109   0.114  13.950 -0.7605  1.4294 -0.5848
 5202SOL    HW227069   2.114   0.090  14.092 -1.7243  0.4592  1.0076
 5203SOL     OW27070   2.994   4.021   5.785  0.0809  0.1788  0.0656
 5203SOL    HW127071   2.933   4.086   5.820 -2.7611 -1.6034 -1.5792
 5203SOL    HW227072   2.989   4.036   5.690  1.5035 -1.7532 -0.3169
 5204SOL     OW27073   3.281   2.187   3.662 -0.3941  0.4531 -0.1119
 5204SOL    HW127074   3.247   2.206   3.750 -1.3044 -2.2516  0.1150
 5204SOL    HW227075   3.374   2.181   3.687 -0.3229  0.3092 -0.4109
 5205SOL     OW27076   2.627   2.100   6.392 -0.5464  0.2223 -0.4287
 5205SOL    HW127077   2.710   2.135   6.361 -1.3707  1.1341 -1.6446
 5205SOL    HW227078   2.645   2.085   6.485  2.0953 -0.7223 -1.1002
 5206SOL     OW27079   2.898   4.607   6.089 -0.1086 -0.5610 -0.6000
 5206SOL    HW127080   2.933   4.535   6.037  0.7564 -1.3735  1.1089
 5206SOL    HW227081   2.838   4.567   6.151  0.9468 -0.0443  0.7864
 5207SOL     OW27082   1.600   3.620   3.626 -0.4315 -0.1658  0.3899
 5207SOL    HW127083   1.533   3.657   3.568  1.2604  0.3238 -1.2705
 5207SOL    HW227084   1.672   3.598   3.567  0.0503  0.3710  0.7805
 5208SOL     OW27085   0.164   3.655   4.285  0.2616  0.4697 -0.3701
 5208SOL    HW127086   0.188   3.675   4.195  0.5106 -1.4321 -0.7353
 5208SOL    HW227087   0.243   3.689   4.325 -0.1827 -1.9515  2.5686
 5209SOL     OW27088   1.946   2.432  14.015  0.1598  0.4382 -0.5907
 5209SOL    HW127089   1.955   2.524  13.990  0.7928  0.1430 -1.4514
 5209SOL    HW227090   2.036   2.405  14.033  0.6981  1.2311 -2.0953
 5210SOL     OW27091   2.165   4.396   6.966 -0.1129  0.1052  0.1521
 5210SOL    HW127092   2.144   4.356   6.881  4.6076 -0.6872 -0.6751
 5210SOL    HW227093   2.201   4.319   7.010 -3.8792 -1.5417  0.3694
 5211SOL     OW27094   3.799   0.182   7.376  0.0049  0.3017 -0.3447
 5211SOL    HW127095   3.784   0.239   7.451  0.8137 -0.6522  0.5395
 5211SOL    HW227096   3.892   0.184   7.352 -0.2425  0.7727 -1.2920
 5212SOL     OW27097   0.439   1.616   9.462 -0.7397 -0.2512 -0.0935
 5212SOL    HW127098   0.343   1.622   9.461 -0.8709 -2.5080 -0.8968
 5212SOL    HW227099   0.463   1.585   9.549 -1.8341 -1.8579 -0.3621
 5213SOL     OW27100   3.503   4.078  11.210  0.1344  0.0487 -0.1028
 5213SOL    HW127101   3.541   4.084  11.122 -1.2940  3.7186 -0.4683
 5213SOL    HW227102   3.545   4.150  11.256  1.5840 -0.2140 -1.0002
 5214SOL     OW27103   0.021   2.075   4.201  0.4060  0.2629 -0.1027
 5214SOL    HW127104   0.035   2.031   4.285 -0.3528  0.5056  0.1512
 5214SOL    HW227105   4.648   2.095   4.212  0.6229 -0.1069  2.3699
 5215SOL     OW27106   0.688   0.406   6.993  0.6042  0.0073  0.1710
 5215SOL    HW127107   0.715   0.320   6.962 -1.2640 -1.1002  1.6438
 5215SOL    HW227108   0.633   0.375   7.065 -1.4064 -0.2680 -1.4638
 5216SOL     OW27109   3.012   2.485   1.133  0.0151  0.2241  0.0193
 5216SOL    HW127110   3.027   2.427   1.207 -0.1834  1.3511  0.9424
 5216SOL    HW227111   2.948   2.547   1.167  1.6872  0.8900  1.9407
 5217SOL     OW27112   2.536   0.510   4.383  0.2000 -0.0663  0.2275
 5217SOL    HW127113   2.582   0.550   4.457  0.3802 -1.7081  1.0157
 5217SOL    HW227114   2.606   0.458   4.343 -0.4269 -1.4195  0.8763
 5218SOL     OW27115   3.405   2.370   9.645  0.9216  0.4563 -0.3785
 5218SOL    HW127116   3.433   2.451   9.688 -2.0730  1.7114 -0.7830
 5218SOL    HW227117   3.439   2.309   9.711  0.7962  0.3435 -0.4186
 5219SOL     OW27118   3.430   1.619   7.066 -0.9040  0.2326  0.1621
 5219SOL    HW127119   3.408   1.598   7.157 -0.4239  0.6002  0.3635
 5219SOL    HW227120   3.370   1.691   7.046 -0.4652 -0.0957 -2.3828
 5220SOL     OW27121   0.206   0.921  17.587 -0.2838 -0.2757  0.0936
 5220SOL    HW127122   0.213   0.990  17.521 -0.3429  2.3581  2.8996
 5220SOL    HW227123   0.211   0.968  17.670  0.1619  1.6041 -1.0088
 5221SOL     OW27124   2.924   4.306   2.189  0.4129 -0.8549  0.1304
 5221SOL    HW127125   2.866   4.372   2.150 -0.8251 -1.7690  0.3849
 5221SOL    HW227126   2.966   4.368   2.248  1.6872 -2.2489  0.6789
 5222SOL     OW27127   0.243   3.756   9.487  0.2094 -0.3028 -0.4268
 5222SOL    HW127128   0.212   3.801   9.408  0.8491 -0.5348 -0.8099
 5222SOL    HW227129   0.296   3.826   9.524 -0.1562  0.4724 -1.3813
 5223SOL     OW27130   2.396   0.600   7.494  0.0913  0.1547  0.0597
 5223SOL    HW127131   2.471   0.579   7.438 -0.7348 -1.4942 -0.4386
 5223SOL    HW227132   2.400   0.695   7.494 -0.1494  0.1652  0.6635
 5224SOL     OW27133   1.451   2.657   8.481 -0.4398  0.2998  0.1269
 5224SOL    HW127134   1.393   2.583   8.466 -1.8871  1.7434 -1.3885
 5224SOL    HW227135   1.533   2.610   8.494  0.7455  2.1748 -0.5004
 5225SOL     OW27136   1.884   4.233   5.709 -0.2879 -0.3390 -0.4575
 5225SOL    HW127137   1.897   4.276   5.624  0.1071  0.4365 -0.0093
 5225SOL    HW227138   1.858   4.310   5.760 -2.7852 -0.8945 -0.8922
 5226SOL     OW27139   0.859   1.647   7.757 -0.3212  0.1527  0.2615
 5226SOL    HW127140   0.925   1.716   7.754  0.5856 -0.7695 -0.6604
 5226SOL    HW227141   0.786   1.676   7.703  0.1406  0.6806 -0.0721
 5227SOL     OW27142   4.359   3.862   2.705 -0.2448 -0.0589 -0.1908
 5227SOL    HW127143   4.401   3.818   2.631  0.4261 -0.8730  0.6622
 5227SOL    HW227144   4.287   3.905   2.659  1.1304  0.3808 -1.9293
 5228SOL     OW27145   0.576   0.960   6.983  0.7655 -0.2558  0.9316
 5228SOL    HW127146   0.503   0.956   6.922 -0.2476  0.4839  2.0948
 5228SOL    HW227147   0.591   0.866   6.996  0.3323 -0.5632 -0.7813
 5229SOL     OW27148   0.752   2.512  12.522 -0.6535  0.2595 -0.1137
 5229SOL    HW127149   0.723   2.452  12.453 -1.9035 -1.4009  1.8765
 5229SOL    HW227150   0.728   2.597  12.485  0.1855  0.8355  0.6537
 5230SOL     OW27151   0.955   4.297   5.959 -0.1476  0.5457  0.4592
 5230SOL    HW127152   1.000   4.367   6.006  0.1468  1.7984 -1.7085
 5230SOL    HW227153   0.891   4.267   6.024 -0.6950  2.0343  0.6022
 5231SOL     OW27154   0.367   4.545   1.415  0.3112  0.2073  0.4443
 5231SOL    HW127155   0.414   4.496   1.482  1.4133  3.4503  2.0173
 5231SOL    HW227156   0.303   4.486   1.376 -0.6291  1.3484  0.2626
 5232SOL     OW27157   2.331   3.465   6.195 -0.2832  0.0238  0.0713
 5232SOL    HW127158   2.246   3.508   6.192 -0.0460  0.5771  1.3217
 5232SOL    HW227159   2.303   3.376   6.216  1.2971 -0.4158  0.3587
 5233SOL     OW27160   2.611   0.814   0.870 -0.5421  0.4287  0.0523
 5233SOL    HW127161   2.569   0.730   0.852 -3.6378  1.2246  3.6268
 5233SOL    HW227162   2.617   0.823   0.965 -0.9671  1.6577 -0.0393
 5234SOL     OW27163   4.586   1.222   6.994 -0.2443 -0.0701 -0.3763
 5234SOL    HW127164   4.601   1.130   6.972 -1.8724 -0.8926  1.8495
 5234SOL    HW227165   4.648   1.258   6.932  0.1783 -1.5695 -0.8320
 5235SOL     OW27166   2.349   1.694   6.681  1.0357 -0.2141 -0.0575
 5235SOL    HW127167   2.254   1.702   6.679  0.9216 -1.6067 -0.5175
 5235SOL    HW227168   2.359   1.599   6.673  0.0805 -0.3738  0.6892
 5236SOL     OW27169   0.010   1.967  15.165  0.0926 -0.1356 -0.1214
 5236SOL    HW127170   4.643   1.966  15.127  0.5128 -3.1259 -0.9971
 5236SOL    HW227171   0.001   2.044  15.222 -3.3949 -0.5854 -0.0640
 5237SOL     OW27172   2.608   0.725  16.642 -0.4851 -0.3302 -0.1561
 5237SOL    HW127173   2.567   0.689  16.562 -1.8423  0.5204  0.1668
 5237SOL    HW227174   2.537   0.712  16.705 -1.2712 -2.5153 -1.4641
 5238SOL     OW27175   2.292   1.163   5.832  0.2527  0.2503  0.1533
 5238SOL    HW127176   2.208   1.173   5.789 -0.6796 -1.4882  1.5869
 5238SOL    HW227177   2.333   1.243   5.799  0.0758  1.2991  2.4991
 5239SOL     OW27178   3.152   2.439  16.804 -0.0877  0.0227 -0.1602
 5239SOL    HW127179   3.148   2.455  16.710  1.3732  0.7271 -0.1030
 5239SOL    HW227180   3.063   2.458  16.834 -0.5987 -1.9492 -0.4130
 5240SOL     OW27181   0.735   0.519   2.620 -0.4942 -0.4325 -0.3413
 5240SOL    HW127182   0.770   0.450   2.675 -2.6780  0.6201  2.4190
 5240SOL    HW227183   0.712   0.596   2.673 -2.3091 -0.5344 -0.9762
 5241SOL     OW27184   0.992   3.293  13.087  0.4877  0.3705  0.5399
 5241SOL    HW127185   0.928   3.222  13.099  1.4402 -0.5995 -0.1024
 5241SOL    HW227186   0.978   3.336  13.003 -2.0247  1.0267  1.2807
 5242SOL     OW27187   2.583   4.667   8.575  0.2567 -0.1457  0.0362
 5242SOL    HW127188   2.556   4.705   8.492  2.7113  1.1663 -0.1383
 5242SOL    HW227189   2.648   0.006   8.612  0.8633 -1.1298  0.5601
 5243SOL     OW27190   1.893   1.354   2.580  0.2484 -0.1536 -0.2228
 5243SOL    HW127191   1.804   1.385   2.565  0.9364  2.1455  0.3959
 5243SOL    HW227192   1.929   1.376   2.494 -0.4830 -0.2691 -0.5550
 5244SOL     OW27193   4.660   2.774   0.451 -0.4380  0.2404 -0.3703
 5244SOL    HW127194   0.023   2.761   0.407 -0.3109  3.4481 -1.1055
 5244SOL    HW227195   4.673   2.742   0.540  0.0570 -1.7027 -1.1585
 5245SOL     OW27196   3.248   4.373   8.841  0.3481 -0.4423 -0.0043
 5245SOL    HW127197   3.286   4.406   8.759  1.0321  0.4325  0.6701
 5245SOL    HW227198   3.277   4.431   8.911  2.4493 -0.0509 -1.1883
 5246SOL     OW27199   0.752   3.918   1.261  0.3155  0.0982 -0.5415
 5246SOL    HW127200   0.665   3.951   1.283  0.2229 -0.1589 -0.5129
 5246SOL    HW227201   0.794   3.979   1.200  1.0951  0.1499  0.0517
 5247SOL     OW27202   2.338   4.009   2.839  0.3307 -0.3100 -0.3144
 5247SOL    HW127203   2.396   3.949   2.792 -1.1375 -2.3291  0.4756
 5247SOL    HW227204   2.337   4.067   2.762  0.6252 -2.9223 -2.3120
 5248SOL     OW27205   2.853   1.526   8.725 -0.8672  0.3155 -0.9635
 5248SOL    HW127206   2.788   1.546   8.657 -0.9124 -1.5818 -1.4947
 5248SOL    HW227207   2.799   1.490   8.795  2.1242  0.7726  1.5660
 5249SOL     OW27208   4.134   4.234   2.925 -0.1504  0.2726 -0.1411
 5249SOL    HW127209   4.110   4.156   2.876 -0.8127  1.0435 -1.0340
 5249SOL    HW227210   4.226   4.213   2.942 -0.0952  0.2867 -0.4217
 5250SOL     OW27211   2.239   0.097   7.463  0.4746  0.3320 -0.1635
 5250SOL    HW127212   2.229   0.191   7.482 -2.7691 -0.6862  3.1778
 5250SOL    HW227213   2.295   0.104   7.386 -0.2993  1.2164 -0.6536
 5251SOL     OW27214   3.917   1.142   4.545 -0.2445 -0.2183 -0.1151
 5251SOL    HW127215   3.852   1.202   4.583 -2.2224 -1.3549 -1.6932
 5251SOL    HW227216   3.875   1.057   4.528  0.2350 -0.3822 -0.4754
 5252SOL     OW27217   1.483   1.893   5.005  0.1941 -0.2157 -0.0014
 5252SOL    HW127218   1.455   1.844   4.928 -0.7061 -0.0352  0.2060
 5252SOL    HW227219   1.399   1.934   5.026 -0.3761  0.9587 -4.6018
 5253SOL     OW27220   3.203   1.943   2.771 -0.0722  0.5936  0.0310
 5253SOL    HW127221   3.118   1.949   2.816 -0.5673  0.9679 -0.9548
 5253SOL    HW227222   3.271   1.961   2.835  0.3279  0.4334 -0.3524
 5254SOL     OW27223   0.545   1.380   7.053 -0.2072 -0.1781 -0.1902
 5254SOL    HW127224   0.578   1.464   7.085 -1.5371  0.2218  0.1400
 5254SOL    HW227225   0.455   1.396   7.083 -0.1144  0.8031 -0.4526
 5255SOL     OW27226   3.991   1.170   6.608  1.4187  0.2410  0.0445
 5255SOL    HW127227   4.014   1.204   6.694  3.5213 -2.2310  0.4367
 5255SOL    HW227228   3.953   1.246   6.562 -1.3465 -0.7525  0.6498
 5256SOL     OW27229   1.203   2.591  12.239 -0.2404  0.7312  0.1399
 5256SOL    HW127230   1.235   2.638  12.315  1.1897  2.8854 -1.7928
 5256SOL    HW227231   1.280   2.552  12.198 -1.2174 -1.6164  0.5614
 5257SOL     OW27232   0.930   2.543   4.547 -0.2083 -0.3899 -0.5481
 5257SOL    HW127233   0.878   2.606   4.497  1.3056  0.7525 -0.6793
 5257SOL    HW227234   1.002   2.597   4.577 -1.0260  0.3328  0.1152
 5258SOL     OW27235   3.820   1.321   1.914  0.4756 -0.0483 -0.7736
 5258SOL    HW127236   3.853   1.296   1.827  2.2511 -1.0864  0.1904
 5258SOL    HW227237   3.880   1.390   1.941  0.4805  0.2526 -1.5534
 5259SOL     OW27238   0.347   1.918   4.781 -0.1994  0.0750  0.1730
 5259SOL    HW127239   0.363   1.835   4.737  1.1485  0.4883 -0.1066
 5259SOL    HW227240   0.264   1.902   4.825 -0.8803  1.6620 -0.5304
 5260SOL     OW27241   2.171   2.363   3.625 -0.7078 -0.4790 -0.4406
 5260SOL    HW127242   2.161   2.339   3.533  0.1040  1.1502 -0.9678
 5260SOL    HW227243   2.092   2.413   3.644 -1.4603 -2.2387  0.9991
 5261SOL     OW27244   1.553   1.224  11.585 -0.4335  0.4194  0.0321
 5261SOL    HW127245   1.474   1.171  11.596  0.7243 -1.2099  0.3865
 5261SOL    HW227246   1.597   1.222  11.670  0.5759  0.4212 -0.4930
 5262SOL     OW27247   3.933   1.206   2.214  0.0570 -0.4385  0.4262
 5262SOL    HW127248   4.015   1.156   2.212  0.1035 -0.2522 -1.6652
 5262SOL    HW227249   3.968   1.279   2.163 -0.6069 -0.6081 -0.2700
 5263SOL     OW27250   3.625   2.175   6.032  0.0094 -0.3687 -0.3479
 5263SOL    HW127251   3.717   2.148   6.038 -0.2748 -0.6060  2.9292
 5263SOL    HW227252   3.627   2.239   5.960  2.4560  0.7754  0.7206
 5264SOL     OW27253   4.628   1.500   9.985 -0.2892 -0.2182  0.8123
 5264SOL    HW127254   4.687   1.571  10.011 -1.2256  0.5298  0.9278
 5264SOL    HW227255   4.574   1.550   9.924 -1.4603 -1.2507  1.0025
 5265SOL     OW27256   4.145   3.206   7.065  0.1412  0.2918 -0.3317
 5265SOL    HW127257   4.138   3.149   7.142  0.2860 -0.5638 -0.9523
 5265SOL    HW227258   4.086   3.158   7.007 -1.6766  1.3784  0.6384
 5266SOL     OW27259   1.831   4.390   4.604  0.6264 -0.2721  1.2376
 5266SOL    HW127260   1.819   4.296   4.586 -0.2465 -0.3134  2.0679
 5266SOL    HW227261   1.909   4.404   4.550  0.5457 -1.4115  0.8183
 5267SOL     OW27262   0.678   0.877  11.580  0.3204  0.0081 -0.4702
 5267SOL    HW127263   0.722   0.933  11.644  0.9069  1.8140 -2.4366
 5267SOL    HW227264   0.707   0.923  11.501  0.1520  0.8055 -0.0726
 5268SOL     OW27265   3.201   0.922  12.949  0.3785  0.3619 -0.1187
 5268SOL    HW127266   3.243   0.919  13.036 -0.4256 -1.8826  0.1688
 5268SOL    HW227267   3.245   0.999  12.912 -0.1099  0.9805  0.5785
 5269SOL     OW27268   1.143   2.595   8.264 -0.6302 -0.3725  0.4631
 5269SOL    HW127269   1.223   2.554   8.232 -0.9775 -0.6371 -0.0490
 5269SOL    HW227270   1.094   2.532   8.318 -0.7805 -0.9224 -0.3144
 5270SOL     OW27271   0.880   0.502   5.532 -0.2823  0.0518 -0.2110
 5270SOL    HW127272   0.833   0.452   5.599 -1.5400 -1.2272 -2.0477
 5270SOL    HW227273   0.820   0.507   5.458  0.5287  1.7261 -0.7668
 5271SOL     OW27274   2.918   2.370   8.420  0.0358 -0.2621  0.4397
 5271SOL    HW127275   2.973   2.364   8.498  0.0804 -0.7400  0.3729
 5271SOL    HW227276   2.940   2.459   8.394 -1.5299  0.1751  0.5840
 5272SOL     OW27277   4.094   0.873   6.078  0.0815 -0.4998  0.0211
 5272SOL    HW127278   4.055   0.938   6.137 -0.7493  0.4128 -1.5376
 5272SOL    HW227279   4.069   0.793   6.123 -0.3710 -0.1022  0.4723
 5273SOL     OW27280   3.012   1.063   7.971 -0.3961 -0.0875  0.1955
 5273SOL    HW127281   3.103   1.090   7.980 -0.6230  0.5106  0.6767
 5273SOL    HW227282   2.983   1.128   7.907  0.1715  1.8342  1.9003
 5274SOL     OW27283   2.484   0.384   5.524 -0.5124 -0.3477  0.2817
 5274SOL    HW127284   2.525   0.333   5.594 -0.3467 -1.0138 -0.2955
 5274SOL    HW227285   2.530   0.335   5.455 -0.8540 -1.8132  1.0955
 5275SOL     OW27286   0.048   0.580   3.025  0.4190  0.3887  0.0425
 5275SOL    HW127287   4.675   0.578   3.047  0.6325 -2.2205  0.8103
 5275SOL    HW227288   0.073   0.497   3.067  1.1887 -0.4487 -2.0697
 5276SOL     OW27289   4.173   3.438   8.812  0.5338 -0.2744  0.5159
 5276SOL    HW127290   4.143   3.368   8.755 -0.6865  0.2382  0.5414
 5276SOL    HW227291   4.187   3.505   8.745 -1.8349 -0.0939  0.2134
 5277SOL     OW27292   0.244   0.193   2.266  0.4804  0.1662 -0.2530
 5277SOL    HW127293   0.203   0.108   2.248 -2.3297  0.9548  2.3537
 5277SOL    HW227294   0.211   0.251   2.197 -0.0039  1.6111  1.1909
 5278SOL     OW27295   1.965   1.930   7.007 -0.2790 -0.9982 -0.0283
 5278SOL    HW127296   2.033   1.863   7.020  0.3733 -0.5168 -0.9738
 5278SOL    HW227297   1.959   1.936   6.911  0.8726  0.9568  0.0362
 5279SOL     OW27298   1.619   1.143   3.641  0.6770  0.2503 -0.7253
 5279SOL    HW127299   1.594   1.067   3.693  0.8907 -0.2041 -1.2955
 5279SOL    HW227300   1.544   1.174   3.592  0.1695 -0.8297 -0.6208
 5280SOL     OW27301   0.886   0.784   5.708 -0.1700  0.7970  0.6298
 5280SOL    HW127302   0.908   0.790   5.616  2.1316 -3.7784  0.8737
 5280SOL    HW227303   0.918   0.698   5.737  0.0818  0.3688 -0.9118
 5281SOL     OW27304   1.874   3.510   0.792  0.2529  0.4287  0.4285
 5281SOL    HW127305   1.899   3.547   0.707  0.4647 -0.0501  0.2851
 5281SOL    HW227306   1.951   3.535   0.843  1.2226 -0.8214 -0.4445
 5282SOL     OW27307   0.004   2.196  10.706  0.8097  0.1898 -0.0969
 5282SOL    HW127308   4.709   2.272  10.650  3.8790  1.6943  1.1160
 5282SOL    HW227309   4.646   2.190  10.761  1.5152  1.0898  1.0045
 5283SOL     OW27310   0.738   0.655   1.630 -0.2179 -0.4036  0.5159
 5283SOL    HW127311   0.687   0.728   1.666  0.4230 -0.5013  1.6303
 5283SOL    HW227312   0.696   0.579   1.670  0.9528 -1.3074  0.0279
 5284SOL     OW27313   4.122   3.571   7.980  0.2833 -0.1730  0.4079
 5284SOL    HW127314   4.039   3.558   7.934  1.9879 -0.1788 -2.6769
 5284SOL    HW227315   4.184   3.561   7.908  0.8952 -3.1667  1.3458
 5285SOL     OW27316   1.547   1.781   2.237  0.3055  0.1176  0.2079
 5285SOL    HW127317   1.607   1.785   2.162 -1.2794  1.5804 -0.9946
 5285SOL    HW227318   1.609   1.782   2.310  0.8974  1.4612 -0.3151
 5286SOL     OW27319   0.751   3.009   4.221 -0.3583 -0.3294 -0.7543
 5286SOL    HW127320   0.806   2.955   4.164  1.0607  1.8301 -1.4797
 5286SOL    HW227321   0.768   3.094   4.180  0.2263 -0.3193 -0.5017
 5287SOL     OW27322   3.966   0.101   3.259 -0.0723  0.3357  0.1409
 5287SOL    HW127323   4.054   0.080   3.290  0.1926  0.7193 -0.3517
 5287SOL    HW227324   3.910   0.024   3.272 -1.5816  1.7298  1.8541
 5288SOL     OW27325   3.474   0.566   4.438 -0.1159  0.0061 -0.7105
 5288SOL    HW127326   3.454   0.478   4.470 -0.8839 -0.0836 -1.4495
 5288SOL    HW227327   3.405   0.573   4.372 -0.5395 -3.2246 -0.6244
 5289SOL     OW27328   4.092   2.684   8.942  0.0279  0.6209  0.2653
 5289SOL    HW127329   4.158   2.667   8.875  0.4199 -2.0976  1.3184
 5289SOL    HW227330   4.026   2.745   8.908  2.1636  1.2615 -2.7227
 5290SOL     OW27331   2.221   1.611  11.188 -0.3598  0.4531 -0.0214
 5290SOL    HW127332   2.270   1.533  11.214 -1.3764 -0.4661 -0.8506
 5290SOL    HW227333   2.133   1.573  11.190  0.7984 -2.2305 -0.0115
 5291SOL     OW27334   1.390   3.076   3.597  0.0674 -0.3175 -0.3988
 5291SOL    HW127335   1.412   3.158   3.641 -0.3328 -0.3625 -0.1085
 5291SOL    HW227336   1.301   3.066   3.633  0.7818  1.4216  1.8857
 5292SOL     OW27337   2.783   0.987   8.331  0.4107  0.0782 -0.0150
 5292SOL    HW127338   2.761   0.894   8.331 -0.9993  0.4185 -1.4930
 5292SOL    HW227339   2.703   1.027   8.364  0.8595 -1.0925  2.5145
 5293SOL     OW27340   3.080   3.856   4.983  0.0451  0.0087 -0.1187
 5293SOL    HW127341   3.139   3.915   5.030 -1.8759  1.3244  0.6344
 5293SOL    HW227342   3.122   3.770   4.989  0.6500  0.5544  3.4715
 5294SOL     OW27343   3.379   2.075   4.899  0.1419 -0.2048 -0.4085
 5294SOL    HW127344   3.323   2.000   4.881  2.2897 -1.8283 -0.3090
 5294SOL    HW227345   3.324   2.117   4.964 -0.6557 -4.6435  1.7623
 5295SOL     OW27346   1.923   3.507  13.670 -0.2219  0.7333 -0.2914
 5295SOL    HW127347   1.917   3.549  13.756 -0.3693  2.4500 -1.1372
 5295SOL    HW227348   1.983   3.562  13.620 -0.6716  1.1861 -0.3416
 5296SOL     OW27349   1.770   1.933  16.356  0.3787  0.2823  0.1316
 5296SOL    HW127350   1.697   1.894  16.405  0.2472  0.6498  0.2287
 5296SOL    HW227351   1.732   1.960  16.273 -1.9745  1.6039  1.6367
 5297SOL     OW27352   3.422   3.136   0.416  0.4019  0.1778  0.1374
 5297SOL    HW127353   3.332   3.106   0.429  0.5729 -0.9306 -1.2861
 5297SOL    HW227354   3.430   3.084   0.336 -1.4014  0.7451 -0.4108
 5298SOL     OW27355   3.152   2.932  15.764  0.6474 -0.1758  0.0001
 5298SOL    HW127356   3.207   2.900  15.693 -1.3274 -2.6229 -0.4132
 5298SOL    HW227357   3.141   3.022  15.731 -2.1811 -1.0989 -1.5446
 5299SOL     OW27358   2.957   0.253   2.124  0.2874 -0.9807 -0.5806
 5299SOL    HW127359   2.894   0.249   2.052 -0.0310  0.4602 -0.3808
 5299SOL    HW227360   2.968   0.348   2.126  0.1358 -0.9731 -0.0687
 5300SOL     OW27361   3.300   0.219   3.438  0.1397  0.3727 -0.0897
 5300SOL    HW127362   3.379   0.204   3.489  0.1415  0.8176  0.0418
 5300SOL    HW227363   3.234   0.193   3.503  0.3625 -1.1720 -0.4823
 5301SOL     OW27364   1.533   0.876   2.474 -0.0545  0.1797  0.1634
 5301SOL    HW127365   1.623   0.848   2.456  1.1041  3.0161  1.6859
 5301SOL    HW227366   1.489   0.803   2.429  1.6376 -0.8603  0.1880
 5302SOL     OW27367   4.009   0.141   6.379 -0.3168 -0.0722  0.3528
 5302SOL    HW127368   3.919   0.122   6.407  0.1645 -0.5410  1.5843
 5302SOL    HW227369   4.054   0.142   6.464 -0.1162 -0.4420  0.2499
 5303SOL     OW27370   3.608   4.579   2.762  0.0826 -0.8522 -0.1922
 5303SOL    HW127371   3.551   4.502   2.760 -0.3149 -0.5605 -0.1088
 5303SOL    HW227372   3.560   4.646   2.714 -0.9630 -0.4040  1.4704
 5304SOL     OW27373   1.644   2.437   3.172  0.7204 -0.0470  0.1107
 5304SOL    HW127374   1.620   2.493   3.098 -0.1880 -1.3566 -0.5741
 5304SOL    HW227375   1.594   2.480   3.242 -0.6740 -1.9187  0.2357
 5305SOL     OW27376   1.434   0.237  15.464 -0.2166  0.2171 -0.2273
 5305SOL    HW127377   1.511   0.205  15.416 -0.8696 -1.9308  0.1830
 5305SOL    HW227378   1.405   0.312  15.411 -0.8209  0.8537  0.9931
 5306SOL     OW27379   4.163   4.169   1.234 -0.3089 -0.3035  0.8507
 5306SOL    HW127380   4.109   4.230   1.285  0.2772  0.4048  0.6299
 5306SOL    HW227381   4.163   4.188   1.140  1.0713 -1.3037  0.6471
 5307SOL     OW27382   3.777   3.339   1.796  0.4524  0.0251 -0.2152
 5307SOL    HW127383   3.749   3.318   1.707 -0.6502  0.2585  0.0733
 5307SOL    HW227384   3.834   3.415   1.784  1.3719 -0.6141  0.1421
 5308SOL     OW27385   4.431   2.496   8.849  0.6870  0.1103  0.8463
 5308SOL    HW127386   4.491   2.442   8.799  0.6720 -0.6839  1.6999
 5308SOL    HW227387   4.486   2.525   8.922 -0.3500  1.4591  1.1087
 5309SOL     OW27388   2.541   2.979   3.397 -0.6201  0.3856 -0.1484
 5309SOL    HW127389   2.521   3.026   3.478  0.1271  2.1096 -0.9715
 5309SOL    HW227390   2.622   2.931   3.413  0.1554  0.9838 -2.3222
 5310SOL     OW27391   3.332   3.565   5.770 -0.0136  0.0354 -0.2922
 5310SOL    HW127392   3.304   3.613   5.848 -1.9986  0.3283 -1.1858
 5310SOL    HW227393   3.360   3.484   5.813  1.1322 -1.2330 -3.3998
 5311SOL     OW27394   1.417   3.730   2.600 -0.2282 -0.3573  0.2557
 5311SOL    HW127395   1.374   3.794   2.656  0.4742 -1.6491  2.2996
 5311SOL    HW227396   1.503   3.770   2.616 -1.2521  2.1473 -0.5636
 5312SOL     OW27397   3.768   0.354   3.230 -0.2293 -0.2780 -0.0948
 5312SOL    HW127398   3.742   0.263   3.245 -1.5569  0.0666 -0.3419
 5312SOL    HW227399   3.680   0.391   3.226  0.8204  2.0270 -1.7851
 5313SOL     OW27400   4.221   3.479   8.236 -0.6297 -0.2274 -0.0958
 5313SOL    HW127401   4.232   3.527   8.154  1.1476  0.8746  0.7914
 5313SOL    HW227402   4.126   3.468   8.231 -0.4160 -2.1602  0.1361
 5314SOL     OW27403   3.115   2.849   0.171  0.1240  0.0197  0.1394
 5314SOL    HW127404   3.126   2.754   0.168  2.4355  0.3569 -2.1401
 5314SOL    HW227405   3.022   2.858   0.190  0.3102  0.9038  0.6337
 5315SOL     OW27406   2.984   1.383   5.857  0.2521  0.4662 -0.1503
 5315SOL    HW127407   3.060   1.439   5.845  0.1288  1.1289  2.1828
 5315SOL    HW227408   2.941   1.436   5.924  0.9907  1.3075 -0.3415
 5316SOL     OW27409   2.725   2.106  17.552  0.1132  0.2856 -0.1538
 5316SOL    HW127410   2.677   2.065  17.480 -1.4353  1.8316 -0.0084
 5316SOL    HW227411   2.669   2.101  17.629  0.5672  2.3341  0.3162
 5317SOL     OW27412   3.758   3.296   9.821  0.0858  0.0664 -0.5715
 5317SOL    HW127413   3.845   3.264   9.798 -0.0838  0.1713 -1.3464
 5317SOL    HW227414   3.761   3.378   9.772 -2.1117  0.5391  0.0812
 5318SOL     OW27415   3.520   3.077  11.583 -0.1618  0.3719  0.5845
 5318SOL    HW127416   3.612   3.088  11.607 -0.0141  0.5262 -0.0628
 5318SOL    HW227417   3.476   3.102  11.664  0.5268 -0.9215  1.3631
 5319SOL     OW27418   2.038   3.406   5.165  0.2002 -0.4448 -0.2676
 5319SOL    HW127419   2.077   3.354   5.095 -2.7225 -1.5108 -1.0971
 5319SOL    HW227420   2.120   3.453   5.182  0.5323 -0.8490 -0.7311
 5320SOL     OW27421   4.705   1.205  15.157 -0.1371  0.4269  0.1994
 5320SOL    HW127422   4.657   1.242  15.232 -0.5277 -0.3315  0.3215
 5320SOL    HW227423   4.685   1.276  15.096  0.4903 -0.3986 -0.9503
 5321SOL     OW27424   2.367   0.560  14.981 -0.0980 -0.4028 -0.4963
 5321SOL    HW127425   2.347   0.513  15.062  0.9909 -1.3449 -0.7802
 5321SOL    HW227426   2.294   0.622  14.987 -0.7720 -0.9000 -3.4343
 5322SOL     OW27427   0.554   3.664   5.808 -0.1348 -0.2143  0.6258
 5322SOL    HW127428   0.532   3.592   5.868  1.9344 -0.3086  1.2668
 5322SOL    HW227429   0.576   3.612   5.731  0.6765  2.9912 -1.3028
 5323SOL     OW27430   4.017   4.636  10.570 -0.3003  0.2073  0.1400
 5323SOL    HW127431   3.979   4.691  10.639  1.6038 -0.1730  1.4900
 5323SOL    HW227432   4.108   4.668  10.573  0.2162 -1.5193  2.5041
 5324SOL     OW27433   2.252   3.042   2.817  0.0163 -0.9579 -0.0021
 5324SOL    HW127434   2.309   3.086   2.753 -2.0594  1.0326 -0.4632
 5324SOL    HW227435   2.319   2.990   2.862  0.6850  1.6804  2.1218
 5325SOL     OW27436   0.612   0.421   8.512  0.2861  0.3658 -0.1454
 5325SOL    HW127437   0.600   0.355   8.444 -1.3588 -1.7569  2.1771
 5325SOL    HW227438   0.577   0.501   8.473 -0.3740 -0.1683 -0.6391
 5326SOL     OW27439   4.483   0.322   8.470  0.1668 -0.1932 -0.0678
 5326SOL    HW127440   4.450   0.271   8.543 -2.2836  0.2462 -0.8599
 5326SOL    HW227441   4.462   0.256   8.404  0.6049 -0.0609 -0.3441
 5327SOL     OW27442   2.206   0.274   2.217  0.0912  0.1344  0.5020
 5327SOL    HW127443   2.297   0.303   2.214 -0.3597  1.6315  1.3855
 5327SOL    HW227444   2.208   0.206   2.284 -1.4631 -0.9952 -0.5872
 5328SOL     OW27445   1.807   2.492  14.600  0.5986 -0.2425  0.1016
 5328SOL    HW127446   1.895   2.516  14.572  0.4384 -0.1764 -0.3470
 5328SOL    HW227447   1.755   2.489  14.520  0.3085 -0.2661  0.2891
 5329SOL     OW27448   4.683   0.385   9.603  0.0739 -0.1520 -0.2383
 5329SOL    HW127449   4.713   0.460   9.552  3.4343 -1.5686 -0.3399
 5329SOL    HW227450   4.593   0.415   9.615  0.2435  0.3018 -0.1175
 5330SOL     OW27451   2.932   4.058   5.147 -0.2482 -0.5009  0.7558
 5330SOL    HW127452   3.013   4.092   5.184 -0.7460  0.1983  1.1954
 5330SOL    HW227453   2.957   3.977   5.102 -1.3622 -0.5771  0.2664
 5331SOL     OW27454   4.047   1.914  12.206  0.3319  0.2294 -0.1757
 5331SOL    HW127455   3.995   1.992  12.188  0.9841  0.7736  0.2694
 5331SOL    HW227456   4.054   1.884  12.116 -2.0415 -2.2345  0.4620
 5332SOL     OW27457   0.476   0.972   5.883  0.1802 -0.0596  0.3425
 5332SOL    HW127458   0.488   0.942   5.793 -0.4892 -0.4734  0.3966
 5332SOL    HW227459   0.420   0.908   5.927  0.8290 -0.3220  0.7923
 5333SOL     OW27460   0.104   3.104   5.324  0.7603 -0.2067 -0.0727
 5333SOL    HW127461   0.111   3.040   5.253 -2.9478 -1.9232  1.1464
 5333SOL    HW227462   0.043   3.060   5.382 -0.9412 -0.0245 -1.7117
 5334SOL     OW27463   3.933   4.006   0.239  0.0065 -0.6006  0.1965
 5334SOL    HW127464   3.966   4.096   0.239  0.3088 -0.7012 -2.9714
 5334SOL    HW227465   4.000   3.961   0.187  2.1746  1.8077  0.8980
 5335SOL     OW27466   0.414   1.198   7.538  0.5079  0.3022  0.4732
 5335SOL    HW127467   0.433   1.271   7.597  0.2882  0.3610  0.4716
 5335SOL    HW227468   0.493   1.210   7.485 -0.0547 -3.0842 -1.1473
 5336SOL     OW27469   0.790   2.434  10.659 -0.1556  0.5428 -0.3302
 5336SOL    HW127470   0.759   2.376  10.590 -1.6489  1.1969 -0.2109
 5336SOL    HW227471   0.736   2.511  10.643 -0.3393  0.4707 -0.0630
 5337SOL     OW27472   4.571   4.147  15.978  0.3498  0.1221  0.3639
 5337SOL    HW127473   4.626   4.070  15.967 -0.6017 -0.6198  0.8171
 5337SOL    HW227474   4.508   4.104  16.037  0.0646 -0.6237 -0.4920
 5338SOL     OW27475   2.281   2.521   5.178 -0.3258  0.2624 -0.0745
 5338SOL    HW127476   2.208   2.478   5.133 -1.1021 -0.6147  2.0311
 5338SOL    HW227477   2.298   2.585   5.109  1.1678 -1.1136 -1.0016
 5339SOL     OW27478   3.261   2.714  12.260 -0.0094 -0.3569  0.0505
 5339SOL    HW127479   3.218   2.796  12.235 -1.4073 -0.7163  1.3285
 5339SOL    HW227480   3.214   2.714  12.344  0.4372  3.0995  0.3075
 5340SOL     OW27481   2.460   1.577   2.577 -0.2902  0.8709  0.0738
 5340SOL    HW127482   2.425   1.501   2.622 -0.0335  0.9146  0.3521
 5340SOL    HW227483   2.550   1.549   2.564 -0.7826  0.7614 -2.9192
 5341SOL     OW27484   1.074   0.321   6.940 -0.3583 -0.2494  0.4785
 5341SOL    HW127485   1.119   0.240   6.962 -1.2143  0.0344  3.2892
 5341SOL    HW227486   1.076   0.314   6.845  0.5476  2.1297  0.3360
 5342SOL     OW27487   4.471   4.452  10.491  0.1327  0.0780 -0.2480
 5342SOL    HW127488   4.510   4.457  10.404  1.0891 -0.1684  0.1678
 5342SOL    HW227489   4.474   4.542  10.522 -1.0960 -0.7798  2.3801
 5343SOL     OW27490   3.577   4.118  13.103  0.6990 -0.7593 -0.5485
 5343SOL    HW127491   3.513   4.120  13.174 -1.5089 -0.0354 -2.5846
 5343SOL    HW227492   3.639   4.180  13.142  0.2524  0.5065 -1.8360
 5344SOL     OW27493   2.651   2.683   5.101  0.1377  0.6358 -0.8539
 5344SOL    HW127494   2.699   2.603   5.119 -0.2870  0.7279  0.7143
 5344SOL    HW227495   2.698   2.747   5.156  2.4088  0.2215 -2.3389
 5345SOL     OW27496   4.125   3.434   3.180  0.1736  0.4669 -0.5622
 5345SOL    HW127497   4.033   3.456   3.169  0.2257  0.7751 -0.3791
 5345SOL    HW227498   4.169   3.470   3.103  0.2882  0.0220 -0.7022
 5346SOL     OW27499   2.954   2.857   7.921  0.2144  0.8229 -0.0494
 5346SOL    HW127500   3.041   2.823   7.903  0.0404  0.0851  0.5118
 5346SOL    HW227501   2.897   2.820   7.854  1.8512  1.2112 -1.6452
 5347SOL     OW27502   4.509   2.709   5.586  0.5473 -0.0262 -0.4353
 5347SOL    HW127503   4.511   2.711   5.490 -0.3424 -0.5191 -0.4588
 5347SOL    HW227504   4.421   2.738   5.609  0.9298 -0.3006  1.3526
 5348SOL     OW27505   1.102   3.147   2.663  0.5378 -0.5637  0.0264
 5348SOL    HW127506   1.016   3.183   2.686  0.4115 -0.4446 -0.6503
 5348SOL    HW227507   1.069   3.084   2.599  0.4427 -0.5871  0.0988
 5349SOL     OW27508   0.984   2.381   2.518  0.1025  0.5378 -0.5023
 5349SOL    HW127509   1.010   2.326   2.592  0.1901  0.3618 -0.6654
 5349SOL    HW227510   0.891   2.366   2.502  0.6166 -1.1000 -1.8290
 5350SOL     OW27511   0.557   4.060  17.055  0.1686  0.2916  0.0788
 5350SOL    HW127512   0.608   4.076  17.135  1.3363  4.1951 -1.4215
 5350SOL    HW227513   0.466   4.056  17.083  0.3532  0.4204  0.7176
 5351SOL     OW27514   2.866   3.906   1.584 -0.1474 -0.0823 -0.1575
 5351SOL    HW127515   2.805   3.976   1.608 -0.7272 -0.7409  0.2865
 5351SOL    HW227516   2.809   3.847   1.534  0.2235 -1.3459  0.9048
 5352SOL     OW27517   1.127   4.057   7.415 -0.7136  0.3396  0.1090
 5352SOL    HW127518   1.154   4.044   7.506  1.2387  1.4773 -0.3111
 5352SOL    HW227519   1.195   4.119   7.390  0.3994 -0.3574  1.3911
 5353SOL     OW27520   3.189   1.904   5.075 -0.2454 -0.4705  0.9554
 5353SOL    HW127521   3.181   1.893   4.980 -2.5689  0.7359  1.0024
 5353SOL    HW227522   3.283   1.893   5.086 -0.1251  0.6291  0.9673
 5354SOL     OW27523   3.771   1.276   5.770 -0.8210 -0.1408 -0.4259
 5354SOL    HW127524   3.784   1.229   5.687  0.1995  0.2087 -0.4591
 5354SOL    HW227525   3.801   1.364   5.750  0.7929 -0.5357  0.3056
 5355SOL     OW27526   3.354   0.673  11.671  0.4443 -0.6942  0.4526
 5355SOL    HW127527   3.283   0.706  11.726  1.3513 -0.5601  1.5204
 5355SOL    HW227528   3.424   0.712  11.723 -0.2095  0.7966  0.2047
 5356SOL     OW27529   1.636   1.942  12.265  0.4596 -0.0179  0.0278
 5356SOL    HW127530   1.550   1.935  12.224  0.9872  0.2990 -1.1281
 5356SOL    HW227531   1.645   2.035  12.286 -1.3872  0.3643 -0.8699
 5357SOL     OW27532   0.778   1.621   4.058 -0.3570 -0.7135 -0.3147
 5357SOL    HW127533   0.857   1.613   4.112  0.0780 -1.0212 -0.9818
 5357SOL    HW227534   0.760   1.528   4.045  0.7606 -0.8343 -1.0404
 5358SOL     OW27535   2.763   1.383   5.209  0.2197  0.2181 -0.2731
 5358SOL    HW127536   2.789   1.336   5.130  1.1993  1.4439 -0.6693
 5358SOL    HW227537   2.682   1.417   5.172  0.7917  1.4943 -0.3481
 5359SOL     OW27538   2.359   0.228  15.842  0.1272  0.2899  0.1462
 5359SOL    HW127539   2.270   0.252  15.817  0.0937 -0.0396 -0.0456
 5359SOL    HW227540   2.364   0.141  15.803  1.2863  0.5943 -0.3669
 5360SOL     OW27541   1.738   0.419  16.125  0.1297  0.2293 -0.3034
 5360SOL    HW127542   1.698   0.381  16.204 -1.6133 -0.2313 -1.4132
 5360SOL    HW227543   1.712   0.354  16.060 -1.3512 -1.3712  1.8651
 5361SOL     OW27544   0.244   2.186   6.744 -0.7907  0.0211  0.4497
 5361SOL    HW127545   0.330   2.199   6.783 -1.8938  0.1368  2.8833
 5361SOL    HW227546   0.198   2.265   6.775  0.3867  0.7774  0.2540
 5362SOL     OW27547   3.214   3.472   8.341  0.2241  0.1614 -0.1245
 5362SOL    HW127548   3.127   3.497   8.311 -0.4051 -1.7786  0.1463
 5362SOL    HW227549   3.224   3.557   8.384  2.2045  0.0524 -0.3717
 5363SOL     OW27550   0.247   4.468  15.244 -0.3740 -0.5345  0.4065
 5363SOL    HW127551   0.234   4.507  15.157  2.0497 -1.2131 -0.2401
 5363SOL    HW227552   0.238   4.376  15.221 -0.7906 -0.3528 -0.1626
 5364SOL     OW27553   1.147   0.429   9.128 -0.6789 -1.0383 -0.4261
 5364SOL    HW127554   1.168   0.361   9.193  0.3967 -0.4490 -0.1507
 5364SOL    HW227555   1.075   0.387   9.081 -1.6007 -0.1465  0.2214
 5365SOL     OW27556   2.218   0.384   7.571 -0.5455 -0.1125 -0.3217
 5365SOL    HW127557   2.274   0.451   7.534  0.9782 -1.3049 -0.2042
 5365SOL    HW227558   2.134   0.417   7.538 -1.4719 -1.2975  0.7996
 5366SOL     OW27559   0.338   0.308   1.567  0.4521 -0.3769  0.3878
 5366SOL    HW127560   0.301   0.220   1.556 -0.1984 -0.0311 -0.1598
 5366SOL    HW227561   0.359   0.335   1.478 -0.8149 -2.0799 -0.4343
 5367SOL     OW27562   0.104   2.991  13.980 -0.3740 -0.4289 -0.9501
 5367SOL    HW127563   0.054   2.929  14.033  0.4591  0.2574  0.6169
 5367SOL    HW227564   0.029   3.048  13.961 -1.3330 -0.6432  2.2532
 5368SOL     OW27565   0.530   4.575   4.439 -0.2436  0.4576 -0.0694
 5368SOL    HW127566   0.580   4.493   4.432 -1.4882 -0.2609 -0.5843
 5368SOL    HW227567   0.503   4.597   4.350 -2.7829  0.9466  0.8252
 5369SOL     OW27568   0.347   2.940   4.250  0.1968 -0.2779 -0.2948
 5369SOL    HW127569   0.316   2.925   4.339  1.2899 -1.3575 -0.0970
 5369SOL    HW227570   0.365   3.034   4.258 -0.6856 -0.3383  2.1763
 5370SOL     OW27571   1.153   2.474   7.696  0.3876  0.4578  0.3760
 5370SOL    HW127572   1.157   2.418   7.774 -0.6482 -0.0560  0.0538
 5370SOL    HW227573   1.072   2.447   7.652  0.3849  0.6021  0.2945
 5371SOL     OW27574   4.240   1.102   8.780  0.0350  0.0886  0.3170
 5371SOL    HW127575   4.206   1.162   8.846  2.8711 -1.0416  2.7755
 5371SOL    HW227576   4.174   1.100   8.711  1.4627 -3.2801 -0.9807
 5372SOL     OW27577   2.062   2.448  11.396 -0.2793 -0.0766 -0.5982
 5372SOL    HW127578   2.152   2.420  11.379 -0.8506 -1.5017 -1.1805
 5372SOL    HW227579   2.008   2.369  11.394 -2.8571  1.7165 -1.8041
 5373SOL     OW27580   1.663   4.652  10.124  0.2139  0.0153  0.2034
 5373SOL    HW127581   1.646   0.025  10.119 -0.9031 -0.1629  0.7347
 5373SOL    HW227582   1.750   4.661  10.162  1.3619 -0.5833 -2.2694
 5374SOL     OW27583   3.513   3.971   7.338 -0.0191  0.9592 -0.3607
 5374SOL    HW127584   3.452   3.897   7.344  0.9512  0.0396 -1.8374
 5374SOL    HW227585   3.501   4.009   7.424 -2.8257 -1.2164  0.2251
 5375SOL     OW27586   3.670   4.447   5.666  0.2746 -0.0327  0.0568
 5375SOL    HW127587   3.641   4.534   5.640 -1.8316 -0.8330 -0.2939
 5375SOL    HW227588   3.608   4.385   5.629 -1.7531  1.7529  0.4668
 5376SOL     OW27589   2.912   0.710  14.480 -0.3034 -0.2075 -0.2696
 5376SOL    HW127590   2.866   0.707  14.564 -3.1096 -1.1985 -1.8403
 5376SOL    HW227591   2.993   0.756  14.502 -0.6006 -0.7695  2.0338
 5377SOL     OW27592   1.832   1.872   4.242  0.0769  0.5643  0.1239
 5377SOL    HW127593   1.910   1.849   4.294 -0.4560 -1.5234 -0.0247
 5377SOL    HW227594   1.799   1.949   4.289  1.5622  1.8275 -0.9156
 5378SOL     OW27595   4.467   0.559   9.772  0.1502  0.6817 -0.6782
 5378SOL    HW127596   4.496   0.639   9.728  1.7900 -0.8881 -2.4143
 5378SOL    HW227597   4.545   0.525   9.815  0.0610 -0.0593 -1.1036
 5379SOL     OW27598   0.425   2.809   4.882  0.1336  0.3676  0.4696
 5379SOL    HW127599   0.356   2.763   4.931  2.2998 -0.1184  3.0902
 5379SOL    HW227600   0.373   2.858   4.818 -0.1447 -0.1445  0.2998
 5380SOL     OW27601   0.978   2.051   5.948 -0.2489 -0.0409 -0.0303
 5380SOL    HW127602   0.989   2.143   5.925 -1.1955 -0.1316 -0.8521
 5380SOL    HW227603   0.908   2.056   6.013  0.0171 -3.1398  0.5170
 5381SOL     OW27604   0.579   1.125   3.166 -0.0913  0.3495  0.0856
 5381SOL    HW127605   0.632   1.052   3.197 -0.4130  0.1518  0.1594
 5381SOL    HW227606   0.547   1.094   3.081  1.1224  0.4065 -0.3929
 5382SOL     OW27607   1.217   4.201   5.296  0.6993  0.5761  0.0537
 5382SOL    HW127608   1.253   4.113   5.292  2.0015  1.0375  1.9813
 5382SOL    HW227609   1.171   4.201   5.211 -0.8519 -0.2991  0.8839
 5383SOL     OW27610   0.742   1.844   6.039 -0.5346  0.3545  0.4594
 5383SOL    HW127611   0.725   1.935   6.016  0.9222  0.7100  0.8286
 5383SOL    HW227612   0.676   1.836   6.108 -2.6879 -1.1641 -1.7518
 5384SOL     OW27613   0.498   0.664  15.601  0.1121  1.0596 -0.2183
 5384SOL    HW127614   0.585   0.632  15.576 -1.0491 -1.2619 -1.2799
 5384SOL    HW227615   0.445   0.585  15.592  0.7770  0.4626  1.1263
 5385SOL     OW27616   3.616   3.754   3.818  0.0787 -0.6137  0.8379
 5385SOL    HW127617   3.534   3.705   3.831 -1.2521  1.0969 -1.0491
 5385SOL    HW227618   3.669   3.716   3.888 -2.1225 -0.8720  2.3455
 5386SOL     OW27619   0.550   1.420  10.579 -0.2330  0.6941 -0.1823
 5386SOL    HW127620   0.469   1.371  10.563  0.8259 -1.5611  1.3367
 5386SOL    HW227621   0.594   1.411  10.494 -0.1452  0.2311 -0.0907
 5387SOL     OW27622   1.940   0.762   0.316  0.4553 -0.0113  0.0565
 5387SOL    HW127623   1.845   0.752   0.309  0.5458  1.3153 -3.0563
 5387SOL    HW227624   1.946   0.851   0.349  0.7284 -0.5916  1.5578
 5388SOL     OW27625   1.161   3.353  17.096  0.6713  0.0162  0.0935
 5388SOL    HW127626   1.118   3.274  17.061  2.9182 -1.0288 -0.3816
 5388SOL    HW227627   1.247   3.336  17.055  0.7710 -0.6116  0.5545
 5389SOL     OW27628   1.123   2.066   4.810 -0.1660  0.4541 -0.2702
 5389SOL    HW127629   1.142   2.111   4.728  1.6816  1.5857  0.7735
 5389SOL    HW227630   1.060   2.127   4.847  0.4545  0.2225  1.1717
 5390SOL     OW27631   3.006   3.481  12.598 -0.6966  0.3480  0.3332
 5390SOL    HW127632   3.073   3.533  12.553 -1.3494  1.3928  0.5586
 5390SOL    HW227633   2.966   3.434  12.525  1.6663  0.4127 -0.9903
 5391SOL     OW27634   0.304   3.215  12.027  0.2399 -0.1433 -0.1237
 5391SOL    HW127635   0.288   3.192  12.119 -1.3629 -1.2180 -0.6803
 5391SOL    HW227636   0.287   3.132  11.982 -0.6899 -0.5490  0.9732
 5392SOL     OW27637   0.995   1.516  11.601 -0.6633  0.4224 -0.4476
 5392SOL    HW127638   1.012   1.530  11.508 -2.5993 -2.7791 -1.2903
 5392SOL    HW227639   1.042   1.587  11.644 -0.8978 -0.0139  0.5341
 5393SOL     OW27640   1.324   1.951   3.993 -0.1962  0.5515 -0.5393
 5393SOL    HW127641   1.250   1.953   3.933 -1.6485  1.3582  1.2706
 5393SOL    HW227642   1.279   1.898   4.058  0.7331 -1.1514 -1.2792
 5394SOL     OW27643   0.374   0.604   7.058 -0.4127  0.1719  0.4426
 5394SOL    HW127644   0.450   0.617   7.001 -0.6852 -1.7037 -0.3455
 5394SOL    HW227645   0.391   0.663   7.132  0.1923  1.5136 -0.7707
 5395SOL     OW27646   1.635   4.465   5.482  0.4153 -0.5419 -0.0049
 5395SOL    HW127647   1.612   4.550   5.445  1.7393 -0.2748 -0.2310
 5395SOL    HW227648   1.552   4.419   5.469 -0.7504  1.0671  1.8107
 5396SOL     OW27649   0.894   4.093   7.947  0.5862 -0.0311 -0.1494
 5396SOL    HW127650   0.823   4.081   7.884 -0.1210  0.3033  0.5747
 5396SOL    HW227651   0.852   4.143   8.018  1.5082 -0.0462  0.4074
 5397SOL     OW27652   1.833   3.782  12.358  0.1233 -0.4350 -0.2165
 5397SOL    HW127653   1.926   3.791  12.375 -0.3594  2.7443  0.8359
 5397SOL    HW227654   1.802   3.698  12.392 -1.9368  0.2804 -0.2599
 5398SOL     OW27655   2.711   1.831  11.719  0.0210 -0.2735 -0.3365
 5398SOL    HW127656   2.803   1.807  11.732  0.9622  4.4252  1.6219
 5398SOL    HW227657   2.695   1.867  11.806 -2.7150 -0.6124 -0.7019
 5399SOL     OW27658   0.390   1.885   5.142 -0.0162  0.2303  0.0591
 5399SOL    HW127659   0.410   1.793   5.160  1.5711 -0.0408 -3.1324
 5399SOL    HW227660   0.432   1.928   5.216 -1.1719  0.3641  0.6327
 5400SOL     OW27661   2.463   1.555  12.794 -0.5684 -0.3866  0.5955
 5400SOL    HW127662   2.492   1.628  12.739  0.0455 -0.7368  0.4631
 5400SOL    HW227663   2.517   1.563  12.872  1.2628  1.0846 -0.8172
 5401SOL     OW27664   2.059   4.417  16.754  0.4637  0.1812  0.6987
 5401SOL    HW127665   2.106   4.389  16.675  0.0930  0.3416  0.4241
 5401SOL    HW227666   1.986   4.356  16.742  2.5234 -1.8610 -1.4096
 5402SOL     OW27667   3.452   0.231   5.009 -0.0843  0.0648  0.3495
 5402SOL    HW127668   3.518   0.258   5.073 -0.8650  0.7808  0.8366
 5402SOL    HW227669   3.502   0.161   4.968  0.7185  0.2038  1.0941
 5403SOL     OW27670   2.366   0.803   7.747 -0.8374 -0.2443 -0.1676
 5403SOL    HW127671   2.407   0.722   7.776 -1.6849 -0.1575  1.2407
 5403SOL    HW227672   2.321   0.837   7.824 -2.3911 -3.4102  0.3315
 5404SOL     OW27673   3.316   1.332  14.147  0.3669  0.2823  0.3237
 5404SOL    HW127674   3.389   1.395  14.146 -0.3583  1.1154  0.3324
 5404SOL    HW227675   3.365   1.255  14.176  1.0476 -0.0731 -1.7440
 5405SOL     OW27676   4.194   4.372   6.728 -0.2227  0.5012 -0.0246
 5405SOL    HW127677   4.274   4.400   6.683 -0.4578 -0.1294 -0.8324
 5405SOL    HW227678   4.212   4.414   6.812  0.5059 -1.0004  0.5740
 5406SOL     OW27679   1.201   1.752  10.449 -0.1469 -0.1936  0.3920
 5406SOL    HW127680   1.130   1.759  10.512  0.3001  0.4446  0.8187
 5406SOL    HW227681   1.213   1.836  10.406 -2.9027 -1.2934 -2.5319
 5407SOL     OW27682   4.104   3.933   7.686  0.1869  0.3376 -0.4262
 5407SOL    HW127683   4.191   3.944   7.647  1.1727 -0.6452  1.4563
 5407SOL    HW227684   4.068   4.018   7.660  2.9179  1.1075 -1.6373
 5408SOL     OW27685   2.976   3.309   7.641 -0.1267 -0.4033  0.0201
 5408SOL    HW127686   2.901   3.347   7.687  0.5131 -0.6837  1.2964
 5408SOL    HW227687   3.032   3.299   7.718 -0.2512  1.3229  0.3357
 5409SOL     OW27688   4.359   1.396   6.907  0.6521  0.3523 -0.6470
 5409SOL    HW127689   4.422   1.333   6.940 -0.3515  0.0034  0.5861
 5409SOL    HW227690   4.321   1.350   6.832 -0.5187 -0.8449  0.6788
 5410SOL     OW27691   0.312   1.817   0.953  0.6143  0.1879 -0.0296
 5410SOL    HW127692   0.395   1.819   1.002 -0.3280  2.3724  1.5084
 5410SOL    HW227693   0.292   1.910   0.944 -0.9666 -0.3277 -1.8465
 5411SOL     OW27694   4.207   1.158   1.072  0.6063 -0.2780 -0.1715
 5411SOL    HW127695   4.257   1.236   1.096 -1.5373  1.1085 -0.2044
 5411SOL    HW227696   4.162   1.146   1.156 -2.2931 -0.2451 -1.7363
 5412SOL     OW27697   1.357   0.141  17.235  0.3638 -0.3375  0.6867
 5412SOL    HW127698   1.340   0.071  17.171  0.1691  1.7322 -1.5241
 5412SOL    HW227699   1.447   0.162  17.210 -0.0217 -0.3415 -0.7093
 5413SOL     OW27700   3.471   4.054   1.487 -0.3234 -0.4047 -0.7732
 5413SOL    HW127701   3.434   3.974   1.449 -0.9580 -1.5097  2.1485
 5413SOL    HW227702   3.564   4.043   1.467  0.3411  1.8988  1.1083
 5414SOL     OW27703   4.437   3.822   5.629 -0.4547 -0.7285 -0.4158
 5414SOL    HW127704   4.423   3.899   5.684  1.5866  2.2772 -4.0559
 5414SOL    HW227705   4.514   3.853   5.582 -0.0161  0.0089  0.7990
 5415SOL     OW27706   1.841   2.580   8.831  0.0847  0.3163 -0.0891
 5415SOL    HW127707   1.896   2.597   8.909  1.3784 -0.8972 -0.7329
 5415SOL    HW227708   1.849   2.662   8.783  0.8652  1.3918  1.8282
 5416SOL     OW27709   2.172   0.344   7.818  0.2095 -0.3620  0.5243
 5416SOL    HW127710   2.115   0.408   7.861 -2.6116 -2.7422  0.3498
 5416SOL    HW227711   2.186   0.371   7.727  0.3345 -1.1204  0.3214
 5417SOL     OW27712   4.219   3.713   2.221 -0.0754  1.3063  0.1710
 5417SOL    HW127713   4.158   3.669   2.163 -0.7496  0.3036  1.6410
 5417SOL    HW227714   4.294   3.722   2.162 -0.8890 -1.4897 -1.2527
 5418SOL     OW27715   1.269   2.501   6.423  0.0037  0.1679  0.1613
 5418SOL    HW127716   1.224   2.574   6.382  2.7546  1.6788 -0.2155
 5418SOL    HW227717   1.211   2.426   6.412  2.2103 -1.6235  0.6004
 5419SOL     OW27718   1.045   2.876   2.528  0.2265 -0.6219  0.0089
 5419SOL    HW127719   1.070   2.866   2.620  1.3180  0.1773 -0.1887
 5419SOL    HW227720   1.009   2.791   2.504 -0.9279  0.3780 -1.7883
 5420SOL     OW27721   0.175   3.281   0.255  0.7786 -0.0456 -0.6427
 5420SOL    HW127722   0.197   3.192   0.284 -1.2814 -0.7570 -1.3238
 5420SOL    HW227723   0.229   3.284   0.176  1.2864  1.8957 -0.2312
 5421SOL     OW27724   3.154   2.845   4.960  0.2676  0.2546 -0.3780
 5421SOL    HW127725   3.195   2.779   4.905  0.0079  0.2123 -0.5186
 5421SOL    HW227726   3.228   2.887   5.003  0.8655 -2.6795  1.4377
 5422SOL     OW27727   2.606   4.355   8.204  0.0268  0.1294  0.3746
 5422SOL    HW127728   2.590   4.366   8.297  0.1334  0.9541  0.2922
 5422SOL    HW227729   2.612   4.442   8.164 -0.7218 -0.5147 -1.1706
 5423SOL     OW27730   4.562   1.554  11.477  0.3920 -0.4623 -0.7100
 5423SOL    HW127731   4.620   1.630  11.469 -0.7842  0.4837 -0.2870
 5423SOL    HW227732   4.636   1.497  11.494 -0.1931 -2.1445 -3.7265
 5424SOL     OW27733   0.914   0.919   1.948  0.2084 -0.1666 -0.4714
 5424SOL    HW127734   0.905   0.961   1.863  1.1032  0.3044 -0.3468
 5424SOL    HW227735   0.961   0.837   1.931  1.1159 -0.0019  1.2214
 5425SOL     OW27736   1.926   0.824   4.077 -0.0904 -0.5242 -0.3954
 5425SOL    HW127737   1.937   0.913   4.110  0.8133 -0.5770 -0.5737
 5425SOL    HW227738   1.839   0.803   4.111 -0.1263  0.5606  0.1742
 5426SOL     OW27739   2.891   0.244   5.600 -0.1510 -0.3023 -0.0166
 5426SOL    HW127740   2.975   0.209   5.572 -1.5023 -3.1293 -0.5736
 5426SOL    HW227741   2.883   0.319   5.541  0.1868 -0.3549 -0.1258
 5427SOL     OW27742   2.140   0.511  15.247 -0.1241  0.8431 -0.1025
 5427SOL    HW127743   2.049   0.512  15.275 -0.3763  1.2374 -0.9502
 5427SOL    HW227744   2.132   0.565  15.169 -0.0833 -1.2397 -1.5342
 5428SOL     OW27745   2.988   3.334   5.006 -0.8796  0.0373  0.2478
 5428SOL    HW127746   2.981   3.426   5.029 -1.0104  0.2148 -0.4883
 5428SOL    HW227747   3.069   3.326   4.955 -0.3057 -1.2837  1.3813
 5429SOL     OW27748   1.007   1.202   5.985  0.1123  0.2162  0.5088
 5429SOL    HW127749   0.995   1.107   5.996 -0.5555  0.2063 -0.3428
 5429SOL    HW227750   1.070   1.204   5.914 -0.2266 -2.5344  0.1321
 5430SOL     OW27751   0.719   1.619   9.338  0.0984 -0.3611 -0.1307
 5430SOL    HW127752   0.748   1.528   9.344  0.1464 -0.4514 -1.9585
 5430SOL    HW227753   0.649   1.627   9.403  1.2570 -1.8204  1.3168
 5431SOL     OW27754   4.278   3.118   3.327  0.2089  0.0768 -0.0177
 5431SOL    HW127755   4.298   3.025   3.328  1.1777  0.2806 -1.7001
 5431SOL    HW227756   4.196   3.106   3.280  0.2597  3.6751 -1.0586
 5432SOL     OW27757   0.709   1.494  14.508 -0.3984  0.1838  0.1250
 5432SOL    HW127758   0.621   1.493  14.548  0.2693 -0.6835  1.5874
 5432SOL    HW227759   0.736   1.403  14.520  0.6417  0.2455 -1.7677
 5433SOL     OW27760   3.920   4.278   4.949 -0.3535  0.5211  0.3998
 5433SOL    HW127761   3.898   4.221   5.022 -2.2903 -0.6909 -1.1248
 5433SOL    HW227762   3.842   4.272   4.894  0.0489 -0.8326 -0.0265
 5434SOL     OW27763   1.519   0.848   6.851  0.4286 -0.2327 -0.0643
 5434SOL    HW127764   1.444   0.906   6.848  0.7933  0.3001  0.9957
 5434SOL    HW227765   1.482   0.760   6.841 -0.4515  0.2249 -0.7792
 5435SOL     OW27766   3.805   0.670   5.276  0.1195 -0.2954  0.9380
 5435SOL    HW127767   3.832   0.588   5.236  0.3079  1.1476 -1.9248
 5435SOL    HW227768   3.751   0.636   5.346 -1.0722  1.2808  0.7875
 5436SOL     OW27769   0.596   1.150   9.034  0.0879 -0.2960  0.1396
 5436SOL    HW127770   0.667   1.215   9.031  1.5393 -1.8562  0.3332
 5436SOL    HW227771   0.535   1.190   8.973  0.2381  1.4141  1.1163
 5437SOL     OW27772   2.648   0.155   7.367  0.4216 -0.3634 -0.8576
 5437SOL    HW127773   2.672   0.211   7.441  1.2195 -1.9911  0.1420
 5437SOL    HW227774   2.720   0.092   7.372  0.2644 -0.5173 -0.5358
 5438SOL     OW27775   2.720   1.638   6.430 -0.2416 -0.0228 -0.2732
 5438SOL    HW127776   2.653   1.657   6.495  0.7580 -1.8820  1.2845
 5438SOL    HW227777   2.709   1.712   6.370 -2.4964 -1.3265 -1.4419
 5439SOL     OW27778   4.330   4.394  15.289  0.5780 -0.5288 -0.3263
 5439SOL    HW127779   4.304   4.434  15.372 -1.0805  0.7881 -1.4877
 5439SOL    HW227780   4.292   4.454  15.226 -0.0284 -2.6929 -2.0034
 5440SOL     OW27781   0.284   0.464   0.216  0.0881 -0.1856  0.2429
 5440SOL    HW127782   0.226   0.535   0.244 -0.4522 -1.2468  1.8021
 5440SOL    HW227783   0.324   0.501   0.137  0.0373 -0.5368  0.0501
 5441SOL     OW27784   2.255   0.024   8.559  0.3635  0.4513 -0.1871
 5441SOL    HW127785   2.327   4.690   8.528  0.0854  1.0008 -1.8218
 5441SOL    HW227786   2.225   0.074   8.483  1.4963 -0.5461 -1.2735
 5442SOL     OW27787   3.882   4.268   2.986 -0.3536 -0.2082  0.2357
 5442SOL    HW127788   3.891   4.359   3.016 -0.8203  0.8145 -2.7833
 5442SOL    HW227789   3.973   4.249   2.967 -0.9461 -2.5397 -0.3348
 5443SOL     OW27790   0.680   0.189   6.279 -0.2885 -0.1147  0.2166
 5443SOL    HW127791   0.665   0.134   6.356 -0.1715  0.0554  0.3619
 5443SOL    HW227792   0.772   0.215   6.282 -0.1677 -0.5228  0.0259
 5444SOL     OW27793   1.747   0.905   8.209 -0.0204  0.2085  0.0260
 5444SOL    HW127794   1.687   0.860   8.269 -2.1624  2.7392 -0.2190
 5444SOL    HW227795   1.752   0.986   8.259  2.2079 -0.4943  0.9099
 5445SOL     OW27796   3.882   2.031  17.107 -0.0538 -0.0188 -0.5242
 5445SOL    HW127797   3.872   2.110  17.054  1.5630  1.3215  1.1552
 5445SOL    HW227798   3.969   2.015  17.071 -0.0139 -0.0536 -0.4127
 5446SOL     OW27799   1.351   2.724   8.022 -0.0749  0.0082 -0.1919
 5446SOL    HW127800   1.435   2.757   8.054 -0.5228 -0.6846  1.7063
 5446SOL    HW227801   1.290   2.779   8.071  0.0180  0.0386 -0.1100
 5447SOL     OW27802   3.204   3.754   6.376  0.1182  0.4655 -0.5507
 5447SOL    HW127803   3.214   3.660   6.387  0.5234  0.3626 -1.7964
 5447SOL    HW227804   3.293   3.787   6.360 -0.5824  1.7135 -1.9084
 5448SOL     OW27805   0.208   2.993   8.314  0.1013 -0.1585  0.4342
 5448SOL    HW127806   0.160   3.075   8.304  2.2530  0.9460 -0.8518
 5448SOL    HW227807   0.218   2.995   8.409 -0.1744 -0.1162  0.4639
 5449SOL     OW27808   3.431   1.283   4.917 -0.1050  0.0727 -0.0520
 5449SOL    HW127809   3.464   1.240   4.838  1.6174  0.2583  0.5650
 5449SOL    HW227810   3.359   1.225   4.944 -0.5937  0.7523  0.1200
 5450SOL     OW27811   0.776   2.397   4.136 -0.0065 -0.2176  0.4675
 5450SOL    HW127812   0.689   2.420   4.168 -1.5309 -1.5384 -2.7456
 5450SOL    HW227813   0.784   2.303   4.156 -0.0354 -0.5369 -1.0181
 5451SOL     OW27814   3.071   2.414   4.394  0.0913 -0.2188 -0.3606
 5451SOL    HW127815   3.015   2.388   4.467  0.3811  1.2558  0.3993
 5451SOL    HW227816   3.126   2.485   4.427  0.4361 -0.0367 -1.3404
 5452SOL     OW27817   0.857   4.232   0.057 -0.2533  0.1375 -0.5410
 5452SOL    HW127818   0.767   4.263   0.064 -0.7560 -1.6690  0.9486
 5452SOL    HW227819   0.903   4.299   0.107  1.8628 -1.0566 -0.8714
 5453SOL     OW27820   3.873   3.597   1.782 -0.2234 -0.1663 -0.1038
 5453SOL    HW127821   3.966   3.582   1.800  0.3898  2.6040 -1.0245
 5453SOL    HW227822   3.853   3.675   1.833 -1.6200  1.9373 -3.8890
 5454SOL     OW27823   3.975   0.983   0.009  0.4646 -0.1265  0.0386
 5454SOL    HW127824   3.971   0.939   0.094 -0.6665 -1.6249 -0.8072
 5454SOL    HW227825   4.010   0.918  17.634  1.2768  2.3779 -2.1917
 5455SOL     OW27826   0.491   2.157   3.226 -0.3690  0.0923 -0.1449
 5455SOL    HW127827   0.576   2.200   3.218 -0.1724 -0.2837 -0.1015
 5455SOL    HW227828   0.488   2.146   3.321 -0.4936 -0.3512 -0.2001
 5456SOL     OW27829   4.364   4.720  15.273 -0.1315  0.3967  0.0385
 5456SOL    HW127830   4.431   0.040  15.219  1.3712  0.4639  1.9291
 5456SOL    HW227831   4.341   4.651  15.212 -0.2918 -1.4917  2.2445
 5457SOL     OW27832   3.533   2.226   4.008 -0.5634  0.3247 -0.3554
 5457SOL    HW127833   3.452   2.175   4.018 -0.2726  0.0837  0.7001
 5457SOL    HW227834   3.535   2.270   4.093  0.2494 -1.3680  0.4834
 5458SOL     OW27835   0.855   2.517  15.667 -0.3047  0.1174  0.1203
 5458SOL    HW127836   0.834   2.610  15.656  0.9518  0.3478 -0.2741
 5458SOL    HW227837   0.912   2.501  15.592 -1.0705 -0.1500 -0.4072
 5459SOL     OW27838   1.877   3.743  16.235 -0.7128  0.3435  0.1460
 5459SOL    HW127839   1.863   3.784  16.150  1.2840 -0.7685 -0.7216
 5459SOL    HW227840   1.789   3.754  16.271 -0.6320 -0.8401  0.6921
 5460SOL     OW27841   1.152   2.044   3.804  0.1836  0.0537 -0.4872
 5460SOL    HW127842   1.190   2.054   3.717  0.5153  0.8870 -0.2504
 5460SOL    HW227843   1.150   2.138   3.821 -0.2535 -0.2427  1.1260
 5461SOL     OW27844   2.824   0.719   4.963  0.3295 -0.1408 -0.4011
 5461SOL    HW127845   2.799   0.758   4.880 -2.5040  1.4852  1.2290
 5461SOL    HW227846   2.846   0.629   4.938 -2.5453 -1.7094  2.7020
 5462SOL     OW27847   1.280   2.482   2.826 -0.7255  0.5543 -0.3008
 5462SOL    HW127848   1.315   2.464   2.738 -0.0515  2.6799 -0.4764
 5462SOL    HW227849   1.325   2.420   2.883 -1.7202 -0.2274 -0.3696
 5463SOL     OW27850   1.725   1.964   9.482 -0.3901 -0.4074  0.4242
 5463SOL    HW127851   1.817   1.970   9.510 -0.6584 -1.2171  1.4705
 5463SOL    HW227852   1.687   1.983   9.567 -1.2871  0.0262 -0.0754
 5464SOL     OW27853   0.946   4.203   3.906  0.3682  0.5161 -0.0816
 5464SOL    HW127854   0.938   4.129   3.845 -1.0673  1.3057 -0.8664
 5464SOL    HW227855   0.854   4.227   3.921 -0.0915 -0.3425 -1.4919
 5465SOL     OW27856   1.630   1.203   4.630 -0.0016  0.1883  0.6101
 5465SOL    HW127857   1.600   1.293   4.638  0.1400  0.3421 -0.6336
 5465SOL    HW227858   1.552   1.166   4.589 -0.3826  0.9224  0.6709
 5466SOL     OW27859   0.748   4.117   6.062  0.1899  0.5148  0.0841
 5466SOL    HW127860   0.753   4.033   6.015  2.0794  1.0133 -0.6308
 5466SOL    HW227861   0.663   4.126   6.104 -0.3349  1.1196 -1.0947
 5467SOL     OW27862   4.228   1.604  14.901  0.4176 -0.0859 -0.0377
 5467SOL    HW127863   4.268   1.521  14.929 -1.3082 -0.1724  2.1790
 5467SOL    HW227864   4.248   1.593  14.808 -1.0358 -0.2644 -0.3153
 5468SOL     OW27865   3.847   1.022   7.154 -0.3051  0.3276  0.4813
 5468SOL    HW127866   3.780   1.083   7.184  0.7165  1.7946 -0.2007
 5468SOL    HW227867   3.919   1.020   7.217 -1.2586  3.0910  1.6649
 5469SOL     OW27868   3.896   2.943   2.275  0.1313 -0.4269  0.1017
 5469SOL    HW127869   3.871   2.891   2.199  1.6085  1.3207 -1.5983
 5469SOL    HW227870   3.819   2.928   2.329 -0.0960 -1.1339 -0.4205
 5470SOL     OW27871   4.244   0.873   4.700 -1.0605  0.3045 -0.0287
 5470SOL    HW127872   4.205   0.956   4.673 -2.6643 -0.2029  0.7081
 5470SOL    HW227873   4.262   0.879   4.794 -2.4445  3.0175  0.0436
 5471SOL     OW27874   1.166   0.288   0.243 -0.1654  0.0147 -0.5180
 5471SOL    HW127875   1.163   0.268   0.149  0.8630 -0.6558 -0.4065
 5471SOL    HW227876   1.115   0.211   0.267  1.3206 -0.8620 -0.1575
 5472SOL     OW27877   2.679   3.959   5.996 -0.4737  0.1458 -0.0339
 5472SOL    HW127878   2.599   4.005   6.022 -0.9741 -0.5256 -0.3988
 5472SOL    HW227879   2.692   3.905   6.074 -0.4583  0.8045  0.4273
 5473SOL     OW27880   2.948   0.433   7.152  0.3478 -0.0397  0.5085
 5473SOL    HW127881   2.957   0.527   7.139 -2.4293  0.0379 -0.9029
 5473SOL    HW227882   2.856   0.414   7.134  0.8438 -0.1671 -1.9352
 5474SOL     OW27883   1.423   1.262   2.821 -0.4335  0.3151 -0.2703
 5474SOL    HW127884   1.491   1.319   2.785 -0.9848 -0.8478 -3.1228
 5474SOL    HW227885   1.464   1.215   2.894 -1.0718 -0.4703 -0.4082
 5475SOL     OW27886   2.195   1.483   8.867  0.1996  0.5863  0.5516
 5475SOL    HW127887   2.179   1.498   8.960 -0.0482 -2.9768  1.0854
 5475SOL    HW227888   2.289   1.464   8.865 -0.1336 -0.8855 -1.8847
 5476SOL     OW27889   2.653   1.329  12.259  0.2368 -0.0093  0.2912
 5476SOL    HW127890   2.632   1.299  12.170 -0.4895 -0.3258  0.5775
 5476SOL    HW227891   2.624   1.252  12.308 -2.6990  0.8097 -0.1583
 5477SOL     OW27892   2.128   3.733   0.218  0.1738  0.0244 -0.1979
 5477SOL    HW127893   2.156   3.780   0.140 -2.6427  0.6961 -0.7814
 5477SOL    HW227894   2.116   3.646   0.180  2.1939  0.4303 -1.7364
 5478SOL     OW27895   2.604   4.561   4.895 -0.2882 -0.1075 -0.2731
 5478SOL    HW127896   2.620   4.603   4.810 -0.1375  0.0108 -0.1863
 5478SOL    HW227897   2.514   4.537   4.874  0.3724 -2.2686 -0.6702
 5479SOL     OW27898   3.469   2.379   9.383 -0.5623  0.3542 -0.1918
 5479SOL    HW127899   3.448   2.389   9.476  1.7871 -0.7195  0.4526
 5479SOL    HW227900   3.498   2.288   9.388  0.4355  0.7676  1.4477
 5480SOL     OW27901   4.649   2.727   8.803 -0.0473  0.4011  0.0662
 5480SOL    HW127902   4.715   2.745   8.736 -1.3712 -1.5796 -1.7353
 5480SOL    HW227903   4.575   2.777   8.767 -2.5301 -2.1565  1.5978
 5481SOL     OW27904   0.950   0.942   4.855 -0.3290  0.2188 -0.0838
 5481SOL    HW127905   1.005   0.983   4.921  0.3928 -0.7731 -0.0558
 5481SOL    HW227906   0.999   0.861   4.837  1.2612  1.2030 -0.1306
 5482SOL     OW27907   1.393   1.996   8.656  0.2290  0.4596 -0.2874
 5482SOL    HW127908   1.332   2.010   8.729  0.1365  2.0995 -0.6796
 5482SOL    HW227909   1.468   2.036   8.701 -0.2033 -0.1459  0.9790
 5483SOL     OW27910   3.367   2.612   6.083  0.3266 -0.2629 -0.2368
 5483SOL    HW127911   3.329   2.699   6.084  1.5877  0.2943 -0.4688
 5483SOL    HW227912   3.371   2.582   6.174 -1.5275  0.9918  0.2544
 5484SOL     OW27913   2.753   0.378   5.077 -0.2735 -0.0039 -0.3785
 5484SOL    HW127914   2.667   0.406   5.046 -1.6463 -3.9791 -0.2019
 5484SOL    HW227915   2.811   0.404   5.005  1.4072 -0.1870  0.9216
 5485SOL     OW27916   3.791   3.095   6.908 -0.4467  0.2690  0.4836
 5485SOL    HW127917   3.709   3.056   6.939 -0.2009 -0.2138  0.5308
 5485SOL    HW227918   3.745   3.148   6.843 -1.5665 -1.1397  0.1363
 5486SOL     OW27919   3.005   2.014   3.315  0.0066  0.5138  0.4552
 5486SOL    HW127920   2.963   2.098   3.334  0.2496  0.7339  0.0196
 5486SOL    HW227921   3.059   2.029   3.237 -1.1834 -0.0510 -0.4601
 5487SOL     OW27922   2.258   4.121   5.003  0.6981 -0.8251  0.0406
 5487SOL    HW127923   2.181   4.177   4.989  0.7901 -0.6546  0.2177
 5487SOL    HW227924   2.263   4.133   5.098  0.0021  0.9836 -0.1600
 5488SOL     OW27925   2.560   1.947   0.097  0.0052 -0.1839  0.4404
 5488SOL    HW127926   2.481   1.922   0.050 -0.0099  1.2819 -0.3139
 5488SOL    HW227927   2.542   1.930   0.189 -0.8608  1.8174  0.6345
 5489SOL     OW27928   3.441   3.287  13.131  0.1873 -0.1639  0.0749
 5489SOL    HW127929   3.410   3.225  13.066  0.5592  2.7940 -2.9461
 5489SOL    HW227930   3.506   3.341  13.085  1.2568 -2.1270 -0.7384
 5490SOL     OW27931   0.219   1.741   4.006 -0.1080 -0.3378  0.3503
 5490SOL    HW127932   0.309   1.769   4.027 -0.3446 -2.5729  4.2373
 5490SOL    HW227933   0.238   1.668   3.948 -0.7579 -0.4261  0.2589
 5491SOL     OW27934   2.976   1.099   5.109 -0.3851 -0.1238 -0.1325
 5491SOL    HW127935   2.994   1.073   5.199  1.0040  1.6858  0.1000
 5491SOL    HW227936   2.886   1.067   5.102 -1.5311  3.2488 -0.5150
 5492SOL     OW27937   2.811   2.167   3.717 -0.0739  0.2648  0.1338
 5492SOL    HW127938   2.841   2.233   3.779 -0.4445 -0.6337  1.2565
 5492SOL    HW227939   2.872   2.184   3.644  0.8366 -0.8078  0.6558
 5493SOL     OW27940   0.602   2.298  10.905  0.0754  0.0474  0.3710
 5493SOL    HW127941   0.571   2.270  10.991 -1.0204 -0.0254 -0.0443
 5493SOL    HW227942   0.663   2.365  10.933  1.6148 -2.0648  2.0422
 5494SOL     OW27943   0.147   2.908   6.153  0.4053 -0.0046 -0.2509
 5494SOL    HW127944   0.127   2.908   6.247  0.1823 -2.0324 -0.3088
 5494SOL    HW227945   0.078   2.848   6.125 -0.2623  1.6090 -2.0486
 5495SOL     OW27946   4.331   4.289   2.291  0.4099  0.4707 -0.0562
 5495SOL    HW127947   4.345   4.205   2.247 -1.0936  0.3696 -0.3403
 5495SOL    HW227948   4.236   4.300   2.279  0.7455  2.0035 -1.2837
 5496SOL     OW27949   0.767   1.487   5.264  0.3795 -0.1618  0.2580
 5496SOL    HW127950   0.695   1.460   5.208  0.8800 -0.5305 -0.2123
 5496SOL    HW227951   0.788   1.579   5.245 -1.5182  0.4461  1.1724
 5497SOL     OW27952   0.968   3.772  13.337 -0.2600  0.4392 -0.3217
 5497SOL    HW127953   0.993   3.856  13.299  1.7909 -0.5647 -1.1965
 5497SOL    HW227954   0.956   3.717  13.260 -1.8558 -1.6151  1.3910
 5498SOL     OW27955   4.001   3.401   4.529 -0.0462 -0.2141  0.3514
 5498SOL    HW127956   4.043   3.449   4.458 -0.7287  1.2511  0.9317
 5498SOL    HW227957   3.910   3.419   4.506  0.2110  0.0887 -0.4115
 5499SOL     OW27958   2.102   2.964   0.449  0.1813  0.0436 -0.2531
 5499SOL    HW127959   2.062   3.000   0.528  0.1826  0.1789 -0.3152
 5499SOL    HW227960   2.046   2.889   0.426  0.7756 -1.0405  1.8569
 5500SOL     OW27961   1.108   3.902  10.225 -0.0575  0.1777 -0.1318
 5500SOL    HW127962   1.195   3.900  10.265 -0.3696  0.1723  0.5342
 5500SOL    HW227963   1.085   3.812  10.247  0.6416  0.4468  1.7454
 5501SOL     OW27964   2.911   2.081   2.418  0.0689  0.1675 -0.2692
 5501SOL    HW127965   2.842   2.101   2.480 -0.5678  0.9462 -1.2236
 5501SOL    HW227966   2.986   2.076   2.477 -0.0212  0.3272 -0.1433
 5502SOL     OW27967   3.414   4.044   7.906 -0.6525 -0.2661 -0.5499
 5502SOL    HW127968   3.319   4.038   7.909 -0.6526  0.2216  0.3676
 5502SOL    HW227969   3.440   4.125   7.950 -0.3696 -1.5267  1.5921
 5503SOL     OW27970   0.222   2.056  12.240 -0.1219 -0.1040  0.8676
 5503SOL    HW127971   0.201   2.148  12.223  1.2291 -0.0361 -0.4811
 5503SOL    HW227972   0.134   2.017  12.241 -1.5034  3.0522  2.7183
 5504SOL     OW27973   4.245   3.026   6.818  0.0699 -0.5663 -0.1708
 5504SOL    HW127974   4.260   2.946   6.766  0.5713 -0.8759  0.4575
 5504SOL    HW227975   4.171   2.998   6.872  0.9819  0.6041  1.6668
 5505SOL     OW27976   4.302   2.044  11.897  0.9399  0.4083  0.1550
 5505SOL    HW127977   4.389   2.070  11.928  0.8421  0.2334  0.5874
 5505SOL    HW227978   4.281   1.969  11.953  0.0388  1.2653  0.9619
 5506SOL     OW27979   4.348   0.293   6.432  0.1180  0.1621 -0.2716
 5506SOL    HW127980   4.400   0.222   6.397 -2.2571 -1.4047 -0.5811
 5506SOL    HW227981   4.294   0.250   6.498 -1.6493  0.8127 -1.3163
 5507SOL     OW27982   1.368   3.632   2.236  0.7621 -0.7847  0.4326
 5507SOL    HW127983   1.308   3.612   2.308 -0.2631  0.7526  0.0053
 5507SOL    HW227984   1.320   3.596   2.162  1.6345  0.4921 -0.7748
 5508SOL     OW27985   4.395   2.539   2.291 -0.0349  0.4294  0.1689
 5508SOL    HW127986   4.442   2.505   2.215  1.3431  0.0502  1.2023
 5508SOL    HW227987   4.342   2.462   2.314  1.5710 -0.4320  0.9812
 5509SOL     OW27988   1.698   1.543   2.526 -0.1617 -0.1071 -0.2756
 5509SOL    HW127989   1.612   1.522   2.489  0.4191 -0.9240 -1.1261
 5509SOL    HW227990   1.734   1.592   2.452  1.7875  0.5290  1.0991
 5510SOL     OW27991   0.620   1.699  12.118 -0.1057  0.2564 -0.2285
 5510SOL    HW127992   0.535   1.707  12.075 -1.1305  2.6272  2.1978
 5510SOL    HW227993   0.615   1.740  12.205  1.4575 -0.8536  0.3849
 5511SOL     OW27994   4.631   1.187   0.961  0.2301 -0.0140  0.3215
 5511SOL    HW127995   4.577   1.108   0.967 -1.3353  1.1016  0.9869
 5511SOL    HW227996   4.686   1.162   0.887  2.2679 -0.6056  2.0208
 5512SOL     OW27997   4.461   1.195  15.637  0.3178  0.3675 -0.0360
 5512SOL    HW127998   4.539   1.188  15.691 -0.6292  2.7787  1.6625
 5512SOL    HW227999   4.400   1.133  15.677 -0.4145  0.8079 -0.4709
 5513SOL     OW28000   3.450   3.799   1.115  0.1171 -0.1391  0.1501
 5513SOL    HW128001   3.377   3.849   1.078 -0.6392  1.1879  3.4645
 5513SOL    HW228002   3.529   3.837   1.078  0.1523 -1.8655 -1.5708
 5514SOL     OW28003   4.172   2.035  15.457 -0.0322 -0.4276  0.1346
 5514SOL    HW128004   4.158   2.100  15.525  2.1253 -0.1596  0.3176
 5514SOL    HW228005   4.078   2.016  15.448 -0.6875  2.4626  0.8789
 5515SOL     OW28006   0.459   3.243   2.311 -0.1494  0.0026 -0.0831
 5515SOL    HW128007   0.394   3.193   2.263 -1.3122  1.0117  0.4471
 5515SOL    HW228008   0.500   3.170   2.358  0.0452  1.2167  1.6625
 5516SOL     OW28009   1.712   3.186   6.307 -0.6431 -0.2630  0.4769
 5516SOL    HW128010   1.748   3.169   6.394 -0.8994 -1.9660  0.2510
 5516SOL    HW228011   1.636   3.239   6.331  1.5132  2.4996  1.1786
 5517SOL     OW28012   1.106   3.876   9.856  0.3821 -0.6397  0.3324
 5517SOL    HW128013   1.115   3.857   9.763  2.4695 -2.3054  0.8606
 5517SOL    HW228014   1.153   3.798   9.887  0.2201 -1.0129 -0.3552
 5518SOL     OW28015   1.629   4.304  11.079 -0.0484  0.1243  0.5143
 5518SOL    HW128016   1.716   4.275  11.107 -0.0627  0.9241  1.3630
 5518SOL    HW228017   1.607   4.250  11.002  0.5224  0.1635  0.3238
 5519SOL     OW28018   3.145   3.176   2.056 -0.6428  0.1336 -0.5097
 5519SOL    HW128019   3.199   3.243   2.097 -1.8638  1.0206 -0.3718
 5519SOL    HW228020   3.183   3.176   1.968 -0.2626 -0.5625 -0.3488
 5520SOL     OW28021   0.974   0.769   2.595 -0.2429  0.2359  0.4172
 5520SOL    HW128022   1.016   0.805   2.516  0.8176 -1.6242  0.1341
 5520SOL    HW228023   0.907   0.832   2.622  0.2563  1.1347 -0.4628
 5521SOL     OW28024   3.029   3.857   5.991 -0.3102 -0.5463 -0.1345
 5521SOL    HW128025   3.023   3.923   6.060  1.5495 -0.4643 -0.0401
 5521SOL    HW228026   3.011   3.909   5.913 -1.7792 -0.9413 -0.0549
 5522SOL     OW28027   2.834   3.700  15.399  0.3601 -0.2305 -0.0083
 5522SOL    HW128028   2.903   3.641  15.432  0.4634  0.5649  1.1918
 5522SOL    HW228029   2.870   3.743  15.321 -0.6371  0.1076 -0.2789
 5523SOL     OW28030   1.689   3.160   6.954  0.3468 -0.0018  0.5976
 5523SOL    HW128031   1.697   3.241   6.904  0.0236 -0.5512 -0.3308
 5523SOL    HW228032   1.628   3.120   6.892 -0.1355  0.8552  0.5144
 5524SOL     OW28033   3.452   0.237   2.988  0.0664 -0.2893  0.2639
 5524SOL    HW128034   3.417   0.234   3.077 -3.0923 -0.5256 -0.9873
 5524SOL    HW228035   3.485   0.149   2.966 -1.6737 -0.8609 -0.0331
 5525SOL     OW28036   2.852   2.403  13.947 -0.0609 -0.1711 -0.2039
 5525SOL    HW128037   2.915   2.332  13.955 -0.9416 -0.9327 -0.0313
 5525SOL    HW228038   2.772   2.365  13.909 -0.8191  0.5116  0.7013
 5526SOL     OW28039   0.738   1.191  11.369 -0.2053  0.3354  0.7067
 5526SOL    HW128040   0.699   1.276  11.352 -0.6026 -0.2409 -1.2022
 5526SOL    HW228041   0.657   1.143  11.389 -1.5107  1.9829 -0.5866
 5527SOL     OW28042   1.372   3.146   9.203  0.8548  0.4828  0.5687
 5527SOL    HW128043   1.331   3.060   9.214 -1.5998  1.7139  1.0962
 5527SOL    HW228044   1.462   3.125   9.177 -0.0298 -0.6123 -1.5858
 5528SOL     OW28045   2.943   2.700   3.293 -0.0858 -0.9469  0.1932
 5528SOL    HW128046   2.978   2.750   3.367  0.1887  1.2352 -1.4240
 5528SOL    HW228047   3.002   2.625   3.302  0.5593 -0.1342  2.6174
 5529SOL     OW28048   0.056   1.865   3.668  0.6593  0.5648 -0.1658
 5529SOL    HW128049   0.067   1.895   3.758  1.8385 -0.3806  0.0072
 5529SOL    HW228050   0.019   1.946   3.632 -1.2533 -0.5854 -0.7415
 5530SOL     OW28051   2.523   3.901   3.381 -0.2601  0.7400  0.2611
 5530SOL    HW128052   2.537   3.851   3.301 -0.1479 -0.0197  0.7560
 5530SOL    HW228053   2.508   3.985   3.338 -0.3405  0.2485 -0.6816
 5531SOL     OW28054   1.006   0.550   7.886  0.5154 -0.5108  0.1287
 5531SOL    HW128055   1.094   0.519   7.907 -0.1068 -1.0834  1.9476
 5531SOL    HW228056   0.991   0.622   7.947  2.0591 -0.6526  0.6728
 5532SOL     OW28057   0.332   0.917   6.834  0.0106  0.3638  0.3292
 5532SOL    HW128058   0.300   0.845   6.780 -1.7402  2.1933 -1.1154
 5532SOL    HW228059   0.343   0.987   6.769  2.1223 -0.8965 -0.6568
 5533SOL     OW28060   1.766   1.809  13.237  0.1416  0.3060  0.5771
 5533SOL    HW128061   1.770   1.824  13.331  0.1755  0.3563  0.5671
 5533SOL    HW228062   1.688   1.858  13.210  1.0043 -0.5524 -3.5367
 5534SOL     OW28063   3.401   3.740  15.238 -0.3228  0.0925  0.7959
 5534SOL    HW128064   3.417   3.678  15.309  0.9735  1.6330  1.8652
 5534SOL    HW228065   3.460   3.811  15.266 -1.0420  0.0135  2.5012
 5535SOL     OW28066   2.115   2.376   9.639 -0.2915  0.2457  0.2363
 5535SOL    HW128067   2.084   2.293   9.676  1.3358  0.0150  1.0883
 5535SOL    HW228068   2.152   2.422   9.714 -1.8957  1.5774  0.2205
 5536SOL     OW28069   3.935   1.262   6.025 -0.9629  0.2593  0.0672
 5536SOL    HW128070   3.840   1.264   6.040 -0.9387  0.8720  0.1510
 5536SOL    HW228071   3.932   1.254   5.929  0.0126  0.0387  0.0519
 5537SOL     OW28072   0.121   4.471   5.475 -0.0953 -0.0540 -0.2865
 5537SOL    HW128073   0.172   4.481   5.555 -0.3023 -1.3062  0.0102
 5537SOL    HW228074   0.045   4.529   5.486  0.0712  0.4361 -1.7062
 5538SOL     OW28075   3.629   2.481  10.134 -0.4395  0.3156  0.4536
 5538SOL    HW128076   3.587   2.404  10.172 -0.0066 -1.7408 -3.1549
 5538SOL    HW228077   3.562   2.548  10.118  0.4335  1.0086 -0.2711
 5539SOL     OW28078   2.829   2.123   9.725 -0.0760  0.3406 -0.9212
 5539SOL    HW128079   2.889   2.096   9.655 -1.2848 -2.7840 -0.7496
 5539SOL    HW228080   2.868   2.064   9.790 -2.2727  1.3057  1.2536
 5540SOL     OW28081   4.565   1.642   5.592 -0.2434 -0.4774  0.3756
 5540SOL    HW128082   4.539   1.716   5.536  0.6552  1.1302  2.1112
 5540SOL    HW228083   4.509   1.572   5.557 -0.6200 -0.4299  0.8826
 5541SOL     OW28084   1.408   3.027  10.869 -0.8552  0.0712  0.1775
 5541SOL    HW128085   1.419   3.010  10.962 -2.1915  0.1135  0.3418
 5541SOL    HW228086   1.475   3.094  10.855 -1.0823  0.7327  2.3824
 5542SOL     OW28087   0.791   0.512   2.335  0.5834 -0.4541 -0.0484
 5542SOL    HW128088   0.828   0.599   2.351  0.1018 -0.5921  1.8723
 5542SOL    HW228089   0.756   0.484   2.420 -1.0808  0.2091 -0.5108
 5543SOL     OW28090   1.860   0.040   7.190  0.2106  0.1410  0.2670
 5543SOL    HW128091   1.891   4.674   7.164 -1.2131  0.7931 -3.5781
 5543SOL    HW228092   1.929   0.086   7.141 -2.0369  2.5357 -0.6809
 5544SOL     OW28093   0.836   1.917   7.122  0.0477  0.0810 -0.3226
 5544SOL    HW128094   0.773   1.946   7.057 -0.0042  0.6338 -0.0242
 5544SOL    HW228095   0.795   1.954   7.200 -0.8785 -1.4172 -0.1088
 5545SOL     OW28096   1.919   0.582  10.953  0.0881  0.4244 -0.4239
 5545SOL    HW128097   1.908   0.673  10.927  2.1652  0.6730 -0.4292
 5545SOL    HW228098   1.837   0.544  10.921  0.8543 -0.4312 -1.3511
 5546SOL     OW28099   0.373   4.480  11.254  0.1066 -0.0769 -0.2757
 5546SOL    HW128100   0.368   4.496  11.348 -1.0644 -2.4489  0.0636
 5546SOL    HW228101   0.284   4.467  11.222  0.6289 -2.0666 -0.9322
 5547SOL     OW28102   2.734   3.716   4.903 -0.1747  0.3124 -0.0096
 5547SOL    HW128103   2.694   3.688   4.820 -1.6348  1.0563  0.4427
 5547SOL    HW228104   2.810   3.662   4.885 -1.0485 -0.9950  0.1849
 5548SOL     OW28105   0.607   3.313   4.842  0.6797  0.5837 -0.9191
 5548SOL    HW128106   0.695   3.303   4.806  0.8675  0.0411 -0.2965
 5548SOL    HW228107   0.570   3.401   4.828 -0.4925  0.1462 -0.6192
 5549SOL     OW28108   2.390   3.102   0.616  0.5432 -0.3658 -0.2164
 5549SOL    HW128109   2.480   3.124   0.640  0.1338  1.5769 -0.5008
 5549SOL    HW228110   2.354   3.190   0.611 -1.6984 -1.1347  2.3511
 5550SOL     OW28111   1.237   1.611  14.577 -0.0496  0.0486  0.0562
 5550SOL    HW128112   1.159   1.638  14.528 -0.4186 -1.3184 -0.1070
 5550SOL    HW228113   1.200   1.531  14.614  1.8014 -0.9925 -0.3164
 5551SOL     OW28114   1.748   2.027   5.272  0.3120 -0.0423 -0.2305
 5551SOL    HW128115   1.724   2.062   5.186 -2.2001 -2.6217 -0.5873
 5551SOL    HW228116   1.707   2.090   5.332  1.7448  2.1523 -1.5507
 5552SOL     OW28117   0.051   4.450   7.068  0.5311  0.1682 -0.0203
 5552SOL    HW128118   4.685   4.485   7.045  0.2470 -0.4083  0.1767
 5552SOL    HW228119   0.106   4.468   6.992 -0.5885  2.1823 -0.3655
 5553SOL     OW28120   2.635   1.659   2.835  0.2166 -0.3421  0.1558
 5553SOL    HW128121   2.688   1.637   2.759  0.9875  1.1613  0.2598
 5553SOL    HW228122   2.581   1.727   2.794 -0.9222 -0.9875  0.5607
 5554SOL     OW28123   0.744   1.695   9.762  0.7351 -0.3356 -0.7929
 5554SOL    HW128124   0.696   1.760   9.712 -0.1885 -1.5364 -1.4646
 5554SOL    HW228125   0.697   1.617   9.733  0.1225  0.0773 -0.9065
 5555SOL     OW28126   3.428   3.460  10.290  0.1095  0.0591 -0.0397
 5555SOL    HW128127   3.509   3.475  10.241 -0.7712 -0.9801 -1.8278
 5555SOL    HW228128   3.444   3.367  10.306  2.6832  0.5151  0.1179
 5556SOL     OW28129   1.712   0.048   6.661 -0.2404  0.2539 -0.1443
 5556SOL    HW128130   1.765   0.047   6.740  1.5760 -3.1559 -1.3842
 5556SOL    HW228131   1.732   0.141   6.650  1.0722 -0.1102 -0.8331
 5557SOL     OW28132   3.800   2.842   8.573 -0.1272 -0.3441  0.1512
 5557SOL    HW128133   3.887   2.858   8.538 -0.7738 -2.4551 -2.3978
 5557SOL    HW228134   3.808   2.765   8.630  2.3392 -0.1839  0.0136
 5558SOL     OW28135   0.647   4.454   6.362 -0.3106  0.2066  0.3890
 5558SOL    HW128136   0.697   4.374   6.376 -0.7745 -0.1936 -0.2764
 5558SOL    HW228137   0.621   4.444   6.271 -0.2673 -2.1245  0.6409
 5559SOL     OW28138   3.485   2.438   5.511 -0.5475 -0.0644 -0.5845
 5559SOL    HW128139   3.494   2.530   5.485 -0.2146  0.2620  0.6655
 5559SOL    HW228140   3.419   2.415   5.446 -0.0483  0.3587 -1.2401
 5560SOL     OW28141   3.658   2.955   7.301 -0.0459  0.1932 -0.6715
 5560SOL    HW128142   3.750   2.981   7.301  0.4183 -1.4425  1.3451
 5560SOL    HW228143   3.661   2.860   7.296  0.0400  0.1968 -0.6871
 5561SOL     OW28144   3.342   3.149   3.489  0.1730 -0.3574 -0.3584
 5561SOL    HW128145   3.430   3.152   3.527 -0.2171 -3.8483  0.8741
 5561SOL    HW228146   3.352   3.133   3.395  1.2608 -1.3024 -0.0866
 5562SOL     OW28147   2.976   0.571   4.504  0.6473  0.2088  0.5869
 5562SOL    HW128148   3.017   0.648   4.542 -1.9955  1.4353  0.9591
 5562SOL    HW228149   3.053   0.527   4.469 -0.2588 -1.6640  0.9408
 5563SOL     OW28150   1.407   2.455  12.134  0.1293  0.3875  0.5895
 5563SOL    HW128151   1.397   2.376  12.082  1.1126 -0.9502  2.4583
 5563SOL    HW228152   1.486   2.498  12.102 -0.4774  0.8426 -0.3235
 5564SOL     OW28153   2.298   3.399   4.911  0.1663  0.1286  0.3915
 5564SOL    HW128154   2.348   3.351   4.844  0.7201  0.9955  0.1800
 5564SOL    HW228155   2.242   3.333   4.951  1.4813 -1.2863 -0.0774
 5565SOL     OW28156   0.559   2.021   7.003 -0.3369  0.6627 -0.0192
 5565SOL    HW128157   0.543   1.932   6.974 -0.2521 -0.0467  2.1459
 5565SOL    HW228158   0.553   2.001   7.096  0.6457  1.1449  0.1484
 5566SOL     OW28159   1.575   1.478   6.784 -0.3178  0.0147  0.1418
 5566SOL    HW128160   1.588   1.403   6.727  0.2796  0.2258 -0.0006
 5566SOL    HW228161   1.659   1.523   6.774  0.1312 -0.9926 -0.6566
 5567SOL     OW28162   0.073   3.875   2.288  0.0780 -0.1697 -0.3414
 5567SOL    HW128163   0.141   3.930   2.250  2.2468 -1.9730  0.9396
 5567SOL    HW228164   0.116   3.789   2.287  0.7628  0.1736  0.1956
 5568SOL     OW28165   0.988   0.593   1.107  0.8121  0.2748 -0.5903
 5568SOL    HW128166   0.985   0.504   1.073  0.5199  0.5139 -1.1995
 5568SOL    HW228167   1.057   0.594   1.174  1.0049 -0.8587 -0.7835
 5569SOL     OW28168   0.941   1.440  12.486 -0.1076 -0.0123 -0.5080
 5569SOL    HW128169   0.907   1.437  12.576  1.6162 -0.1988  0.1508
 5569SOL    HW228170   0.969   1.349  12.479 -1.3996 -0.2812 -2.0123
 5570SOL     OW28171   1.884   1.038  16.634 -0.0888  0.0283  0.0212
 5570SOL    HW128172   1.979   1.042  16.630 -0.1161  0.8376  0.1966
 5570SOL    HW228173   1.859   0.954  16.595 -1.3758  0.8500 -0.9281
 5571SOL     OW28174   3.657   2.070  13.978 -0.2709 -0.2227 -0.2843
 5571SOL    HW128175   3.729   2.122  13.944  0.3947 -1.9478 -1.5104
 5571SOL    HW228176   3.586   2.104  13.924 -1.4612 -1.5479  0.4592
 5572SOL     OW28177   0.208   1.926   2.936  0.1470  0.1184  0.2473
 5572SOL    HW128178   0.146   1.856   2.916 -0.6824  0.6316  1.0020
 5572SOL    HW228179   0.199   1.939   3.031  2.8714 -0.0164  0.5207
 5573SOL     OW28180   4.546   2.975   0.881  0.1286  0.4582  0.1647
 5573SOL    HW128181   4.453   2.984   0.861 -0.0950 -0.0210  0.9804
 5573SOL    HW228182   4.542   2.955   0.975 -1.8979  1.4733  0.3064
 5574SOL     OW28183   1.423   0.715   0.207  0.6359  0.0623  0.3156
 5574SOL    HW128184   1.411   0.794   0.155 -0.8840  0.1913  0.8551
 5574SOL    HW228185   1.331   0.692   0.225 -0.2947  1.7272 -2.2750
 5575SOL     OW28186   0.235   4.269  14.856  0.1025  0.2605 -0.5321
 5575SOL    HW128187   0.181   4.298  14.930  1.1746 -0.3916  0.5060
 5575SOL    HW228188   0.294   4.204  14.894 -2.0951 -0.7023  1.2449
 5576SOL     OW28189   2.417   0.210  13.913 -0.0356  0.2576 -0.3373
 5576SOL    HW128190   2.390   0.291  13.956  0.1693  1.6655 -2.8657
 5576SOL    HW228191   2.341   0.186  13.860 -0.6578 -0.1185  0.7443
 5577SOL     OW28192   0.031   1.458  14.019  0.3993  0.5663 -0.3474
 5577SOL    HW128193   0.006   1.445  14.110 -0.2749  1.2873 -0.4365
 5577SOL    HW228194   0.119   1.496  14.024 -0.0169  1.5445 -0.4334
 5578SOL     OW28195   2.785   3.432   8.436 -0.2023 -0.2683 -0.0503
 5578SOL    HW128196   2.698   3.456   8.469 -1.6827 -1.1856 -3.3000
 5578SOL    HW228197   2.802   3.364   8.502  0.6961  1.9855  2.0353
 5579SOL     OW28198   2.112   4.280   6.705 -0.0672  0.3681  0.4856
 5579SOL    HW128199   2.181   4.313   6.647 -1.8892  2.1771 -0.6576
 5579SOL    HW228200   2.122   4.187   6.683 -1.1906  0.2994  0.2536
 5580SOL     OW28201   3.481   3.463   1.872 -0.1186 -0.5857  0.2083
 5580SOL    HW128202   3.543   3.459   1.944  0.1565 -1.0660 -0.0626
 5580SOL    HW228203   3.501   3.385   1.820 -0.8037  0.8752 -2.2752
 5581SOL     OW28204   0.646   1.264   7.419  0.3451  0.0337 -0.0095
 5581SOL    HW128205   0.639   1.340   7.360  0.7007  1.5774  1.9533
 5581SOL    HW228206   0.739   1.240   7.420  0.3513  0.0673  0.1302
 5582SOL     OW28207   4.663   3.837   3.671  0.4570  0.0431 -0.4132
 5582SOL    HW128208   4.715   3.784   3.611  0.8973  0.8784 -0.7710
 5582SOL    HW228209   4.575   3.835   3.633  1.0017  0.0039 -1.6716
 5583SOL     OW28210   1.142   3.204   6.444  0.2715 -0.1850  0.1288
 5583SOL    HW128211   1.152   3.279   6.386  0.8923  0.8672  1.6170
 5583SOL    HW228212   1.053   3.180   6.418  0.1000  0.3058  0.2798
 5584SOL     OW28213   3.206   2.987   4.241  0.1245 -0.2948 -0.1462
 5584SOL    HW128214   3.135   3.052   4.234 -1.4899 -1.8656  1.5492
 5584SOL    HW228215   3.160   2.924   4.297  1.5376 -0.5967  0.6683
 5585SOL     OW28216   1.799   1.075  14.204  0.2817  0.4794 -0.1638
 5585SOL    HW128217   1.786   1.039  14.116  1.0679 -0.7845  0.2349
 5585SOL    HW228218   1.844   1.154  14.175  1.4475  0.3817  1.4056
 5586SOL     OW28219   2.983   3.482   7.379 -0.0716  0.0664  0.2932
 5586SOL    HW128220   2.967   3.424   7.454 -0.9738 -1.1731 -0.8637
 5586SOL    HW228221   2.917   3.462   7.313  2.5408  0.5100 -2.4420
 5587SOL     OW28222   1.200   0.046   7.967  0.1360  0.3591 -0.1114
 5587SOL    HW128223   1.192   0.077   7.877  0.8894  2.4368  0.5290
 5587SOL    HW228224   1.225   4.675   7.960 -0.2310  0.3811 -1.6154
 5588SOL     OW28225   2.119   4.174  10.259  0.3106 -0.5000  0.4699
 5588SOL    HW128226   2.139   4.193  10.350  0.4724 -0.4317  0.4192
 5588SOL    HW228227   2.173   4.232  10.205  1.8300 -0.0730  2.4611
 5589SOL     OW28228   4.212   3.166   9.271 -0.3020 -0.5128 -0.8342
 5589SOL    HW128229   4.271   3.102   9.311  2.5332  1.1858 -2.3031
 5589SOL    HW228230   4.252   3.243   9.312  1.4534 -2.0257  0.3310
 5590SOL     OW28231   3.356   2.628   3.654  0.1156 -0.0537 -0.7671
 5590SOL    HW128232   3.374   2.577   3.733 -1.9825 -0.0635 -0.2750
 5590SOL    HW228233   3.400   2.571   3.591 -0.5995  0.0268 -1.3489
 5591SOL     OW28234   0.325   2.794   7.214  0.2628 -0.3303 -0.1683
 5591SOL    HW128235   0.259   2.847   7.169  1.2861 -0.4159 -1.7949
 5591SOL    HW228236   0.268   2.764   7.284 -0.1482  1.4065  0.2203
 5592SOL     OW28237   2.429   0.989   3.541 -0.0763  0.7645  0.2188
 5592SOL    HW128238   2.364   0.969   3.609 -0.0278  4.0938  1.2878
 5592SOL    HW228239   2.453   1.079   3.563 -1.9972  0.7603  2.2838
 5593SOL     OW28240   3.746   1.848   7.328 -0.5918 -0.1328  0.1843
 5593SOL    HW128241   3.703   1.903   7.393  0.5539  1.5027 -0.4307
 5593SOL    HW228242   3.698   1.766   7.341 -1.1367  0.2026  0.2593
 5594SOL     OW28243   3.021   2.806   7.246 -0.0499  0.0104 -0.3576
 5594SOL    HW128244   3.028   2.715   7.217  0.0521 -0.6183  1.6693
 5594SOL    HW228245   2.943   2.803   7.301  1.2838 -1.0094  1.4552
 5595SOL     OW28246   2.371   0.426   6.067 -0.1425  0.3608  0.3393
 5595SOL    HW128247   2.379   0.506   6.016  0.0834  0.3643  0.3815
 5595SOL    HW228248   2.381   0.359   5.999  3.5903  1.9064 -0.6220
 5596SOL     OW28249   3.734   1.387   3.090 -0.7228  1.0681 -0.1404
 5596SOL    HW128250   3.804   1.444   3.059  1.9903 -3.5165 -2.5231
 5596SOL    HW228251   3.770   1.372   3.178 -1.3558  2.1391  0.3051
 5597SOL     OW28252   4.659   4.545   2.514  0.5949 -0.1699 -0.0455
 5597SOL    HW128253   4.700   4.460   2.527  0.6554 -0.2120 -0.5157
 5597SOL    HW228254   0.014   4.601   2.497  0.8017  0.0833  1.7619
 5598SOL     OW28255   2.289   0.275   9.019 -0.5259  0.1460  0.1553
 5598SOL    HW128256   2.249   0.229   8.945 -0.3962  0.5639 -0.1749
 5598SOL    HW228257   2.212   0.320   9.054  0.2123  0.7043  1.0712
 5599SOL     OW28258   2.091   0.632   8.665 -0.4658 -0.2816  0.3497
 5599SOL    HW128259   2.131   0.653   8.749 -1.0858  1.0642  0.3073
 5599SOL    HW228260   2.162   0.587   8.618  0.7242  0.1073  1.7801
 5600SOL     OW28261   0.566   4.118   1.249 -0.2492 -0.3762  0.2213
 5600SOL    HW128262   0.509   4.135   1.174 -2.5346 -0.3273  1.9623
 5600SOL    HW228263   0.503   4.103   1.320 -1.6596 -0.2533 -1.0000
 5601SOL     OW28264   0.590   4.303   4.452 -0.3565  0.0911 -0.1180
 5601SOL    HW128265   0.573   4.230   4.511  0.3541 -0.1192 -0.1710
 5601SOL    HW228266   0.670   4.261   4.421  0.7441  1.2816  1.0838
 5602SOL     OW28267   3.190   1.270   3.614  0.3676  0.4042 -0.0314
 5602SOL    HW128268   3.235   1.193   3.579 -0.8647  0.1955 -1.1507
 5602SOL    HW228269   3.104   1.228   3.608  0.3062  0.1506  2.3031
 5603SOL     OW28270   0.804   3.077   7.156  0.5605  0.1448  0.2179
 5603SOL    HW128271   0.879   3.048   7.207 -1.1024 -2.7329  1.0032
 5603SOL    HW228272   0.759   2.993   7.161  2.1231 -0.6231  1.2829
 5604SOL     OW28273   0.159   0.759  10.985  0.3676  0.0281 -0.4862
 5604SOL    HW128274   0.170   0.729  11.075 -1.9762  0.4895 -0.0539
 5604SOL    HW228275   0.210   0.840  10.994 -1.7814  1.3610 -0.2188
 5605SOL     OW28276   3.236   2.293   6.463  0.0749 -0.3380  0.4578
 5605SOL    HW128277   3.200   2.215   6.422 -0.2490  0.6162 -1.0780
 5605SOL    HW228278   3.209   2.282   6.555 -1.0395 -2.1429 -0.1004
 5606SOL     OW28279   3.645   1.595   8.263 -0.1198 -0.2889  0.1007
 5606SOL    HW128280   3.569   1.576   8.319  0.4925  0.7975  1.2796
 5606SOL    HW228281   3.704   1.529   8.300 -0.4041  0.0319  1.1403
 5607SOL     OW28282   3.907   2.733  15.444 -0.3004  0.1146 -0.0617
 5607SOL    HW128283   3.880   2.796  15.511  0.5234  0.6124 -0.1911
 5607SOL    HW228284   3.916   2.651  15.492 -2.5695 -0.6246 -0.8910
 5608SOL     OW28285   3.802   0.106   1.653 -0.0791  0.1987  0.7080
 5608SOL    HW128286   3.790   0.176   1.719 -1.1428 -0.0374  0.7672
 5608SOL    HW228287   3.718   0.101   1.606 -0.1208 -0.2784  0.8318
 5609SOL     OW28288   1.518   0.413   2.837  0.0983 -0.1257 -0.5206
 5609SOL    HW128289   1.497   0.500   2.871  0.2180 -0.2728 -0.0678
 5609SOL    HW228290   1.468   0.409   2.755  1.5277 -0.0832 -1.3952
 5610SOL     OW28291   1.597   0.979  16.652 -0.1362 -0.3073  0.7572
 5610SOL    HW128292   1.677   1.031  16.657  0.1047 -0.7160  1.1561
 5610SOL    HW228293   1.577   0.975  16.559  3.7191 -0.0910 -0.0420
 5611SOL     OW28294   3.105   1.878   8.353 -0.0313  0.1616 -0.0462
 5611SOL    HW128295   3.077   1.850   8.266  2.3308  0.2293 -0.8146
 5611SOL    HW228296   3.047   1.949   8.382 -2.5800 -1.8762 -0.1138
 5612SOL     OW28297   1.288   2.103   3.204 -0.5286  0.3623  0.4247
 5612SOL    HW128298   1.380   2.118   3.227 -1.0840 -0.4365  3.2019
 5612SOL    HW228299   1.272   2.180   3.149  0.5273  1.2303  1.3184
 5613SOL     OW28300   2.494   2.983   9.887  0.1236 -0.4263  0.0003
 5613SOL    HW128301   2.560   3.028   9.834 -0.9607 -0.3066 -1.2441
 5613SOL    HW228302   2.409   2.984   9.843  0.2291 -0.7725 -0.2182
 5614SOL     OW28303   0.373   2.597   3.518  0.0838  0.0837  0.4474
 5614SOL    HW128304   0.372   2.637   3.605 -0.4875  1.5845 -0.2512
 5614SOL    HW228305   0.441   2.532   3.534  0.3532 -0.7267 -3.9423
 5615SOL     OW28306   0.661   2.454   4.558  0.3006  0.3622  0.6023
 5615SOL    HW128307   0.755   2.461   4.576  0.6275  3.0879 -2.0413
 5615SOL    HW228308   0.627   2.532   4.601 -0.7520  0.6100 -0.6890
 5616SOL     OW28309   3.619   2.950   1.988 -0.2533  0.0834  0.4676
 5616SOL    HW128310   3.668   3.028   2.015 -0.0739 -0.4953  1.8078
 5616SOL    HW228311   3.685   2.886   2.013 -1.7936 -2.0571 -0.9028
 5617SOL     OW28312   2.516   4.214  10.587 -0.1704 -0.4870 -0.2354
 5617SOL    HW128313   2.597   4.205  10.537 -1.4544 -1.0224 -2.1894
 5617SOL    HW228314   2.470   4.254  10.514 -0.6400  0.3658  0.5271
 5618SOL     OW28315   1.996   3.052   0.681 -0.1253  0.7580  0.3682
 5618SOL    HW128316   2.004   3.124   0.743  3.9939 -0.5864  1.3487
 5618SOL    HW228317   1.905   3.022   0.692  0.6239 -0.4450  3.1660
 5619SOL     OW28318   2.723   2.833   3.539 -0.7709 -1.1673  0.2397
 5619SOL    HW128319   2.764   2.780   3.607 -1.6814  1.3787  2.7241
 5619SOL    HW228320   2.781   2.907   3.553  0.7672 -2.3794  0.2575
 5620SOL     OW28321   3.131   4.020   8.985  0.4293 -0.4560 -0.4645
 5620SOL    HW128322   3.150   3.926   8.989  1.1968 -0.2539  0.5775
 5620SOL    HW228323   3.218   4.059   8.976  1.3477 -2.4630 -0.4244
 5621SOL     OW28324   0.302   1.773   1.427  0.6522 -0.1037 -0.0074
 5621SOL    HW128325   0.213   1.739   1.414  0.5689  0.3912 -0.7301
 5621SOL    HW228326   0.312   1.781   1.522  0.6891 -0.8264  0.0546
 5622SOL     OW28327   3.626   3.775  15.650 -0.3080 -0.1390 -0.2535
 5622SOL    HW128328   3.718   3.758  15.630 -0.5769 -1.3777 -0.4450
 5622SOL    HW228329   3.581   3.691  15.640 -2.7121  0.9696  1.2130
 5623SOL     OW28330   0.837   0.903   8.643  0.6546 -0.2466 -0.1099
 5623SOL    HW128331   0.870   0.988   8.671  0.1894 -0.2491  0.4396
 5623SOL    HW228332   0.785   0.879   8.719  0.7321 -1.0253 -0.2977
 5624SOL     OW28333   1.106   0.021  14.921 -0.0414 -0.1416  0.0391
 5624SOL    HW128334   1.071   0.025  14.832  0.2285  2.2667  0.0271
 5624SOL    HW228335   1.039   4.698  14.973  0.4158 -0.7371  0.1199
 5625SOL     OW28336   4.268   1.714   5.068  0.1775 -0.1175  0.7471
 5625SOL    HW128337   4.261   1.619   5.056 -2.3947  0.1067  0.6207
 5625SOL    HW228338   4.335   1.723   5.136  0.9429 -0.3434  0.0263
 5626SOL     OW28339   1.561   0.016   6.236  0.0504 -0.6826 -0.3930
 5626SOL    HW128340   1.488   0.040   6.293  2.1874 -0.3244  2.1693
 5626SOL    HW228341   1.539   0.087   6.176 -0.4737 -0.0321  0.5654
 5627SOL     OW28342   4.271   3.929   4.841 -0.2636  0.6966  0.1204
 5627SOL    HW128343   4.360   3.951   4.870  0.1115 -2.4021  1.3919
 5627SOL    HW228344   4.291   3.835   4.837 -0.9857  0.5436  0.1444
 5628SOL     OW28345   3.369   1.721  10.774  0.0122  0.1457  0.4054
 5628SOL    HW128346   3.349   1.669  10.851  0.9600  0.6340  0.9830
 5628SOL    HW228347   3.394   1.805  10.813 -1.9361  0.2752  1.3835
 5629SOL     OW28348   2.560   3.570  11.284  0.5267 -0.4690 -0.1453
 5629SOL    HW128349   2.578   3.655  11.323  2.2381 -1.2793  0.8356
 5629SOL    HW228350   2.465   3.575  11.291  0.4348 -1.9553 -0.1956
 5630SOL     OW28351   1.597   1.435   3.690  0.3553 -0.0895 -0.0202
 5630SOL    HW128352   1.535   1.458   3.759 -0.3982 -0.3508 -0.6172
 5630SOL    HW228353   1.614   1.345   3.718  1.9759  0.5845  1.1917
 5631SOL     OW28354   3.390   1.912   7.671 -0.1858  0.3397 -0.5690
 5631SOL    HW128355   3.326   1.878   7.608 -2.7886 -2.5777  3.5603
 5631SOL    HW228356   3.356   2.001   7.680  0.6417  0.9317 -3.2720
 5632SOL     OW28357   1.515   0.797  17.532 -0.0090  0.0487  0.3708
 5632SOL    HW128358   1.517   0.877  17.583  1.1498 -0.4617  1.1177
 5632SOL    HW228359   1.441   0.752  17.572  0.2010 -2.9507 -2.5425
 5633SOL     OW28360   3.270   0.260   5.231  0.4081 -0.4767  0.4426
 5633SOL    HW128361   3.189   0.260   5.180  0.3620 -0.1898  0.5163
 5633SOL    HW228362   3.337   0.250   5.163  0.8198  1.2504  0.5782
 5634SOL     OW28363   1.953   2.878   8.179 -0.1448  0.0279  0.0667
 5634SOL    HW128364   1.978   2.932   8.104  1.0006 -1.7223 -0.8300
 5634SOL    HW228365   1.858   2.890   8.182  0.0823  1.7161  0.2205
 5635SOL     OW28366   1.895   3.438   6.277  0.3354 -0.4047  0.0475
 5635SOL    HW128367   1.827   3.469   6.337  0.3771 -1.4001  0.6093
 5635SOL    HW228368   1.869   3.468   6.190  2.9367 -0.8205 -0.8790
 5636SOL     OW28369   0.734   2.608   6.578  0.2848 -0.1049 -0.2370
 5636SOL    HW128370   0.804   2.668   6.603  2.3266 -1.8187 -1.9155
 5636SOL    HW228371   0.666   2.619   6.644 -2.1402  2.4610 -3.1298
 5637SOL     OW28372   2.996   0.125  15.779 -0.1522 -0.0192 -0.9529
 5637SOL    HW128373   3.072   0.116  15.836 -0.8544  0.9563  0.1136
 5637SOL    HW228374   3.023   0.191  15.714 -2.6632  0.8519 -1.1257
 5638SOL     OW28375   2.110   1.231   3.288  0.6243  0.0510  0.0433
 5638SOL    HW128376   2.145   1.170   3.222  1.3590  0.3064  0.1951
 5638SOL    HW228377   2.125   1.178   3.366 -2.6214 -2.0720 -0.7844
 5639SOL     OW28378   3.761   4.124   9.092 -0.0509 -0.6992 -0.0132
 5639SOL    HW128379   3.818   4.047   9.092 -0.7709 -1.2489  2.7131
 5639SOL    HW228380   3.740   4.123   8.999 -1.1785 -2.3007  0.2475
 5640SOL     OW28381   4.616   2.736   4.955 -0.0035 -0.3657 -0.5816
 5640SOL    HW128382   4.699   2.781   4.967 -0.9541  1.2041  0.0679
 5640SOL    HW228383   4.638   2.693   4.872  0.2845 -1.4984  0.0812
 5641SOL     OW28384   2.198   3.756   6.746  0.0919 -0.7324  0.3485
 5641SOL    HW128385   2.272   3.811   6.718 -1.6707  1.5140  0.1249
 5641SOL    HW228386   2.172   3.807   6.822 -0.5461  0.4839 -0.6906
 5642SOL     OW28387   2.708   3.138   2.253  0.1838 -0.2756  0.3751
 5642SOL    HW128388   2.793   3.123   2.212  0.1764  1.1597 -0.1789
 5642SOL    HW228389   2.659   3.067   2.212  3.1406 -1.5373 -0.9429
 5643SOL     OW28390   0.430   1.941  10.781 -0.1235  0.5773  0.5791
 5643SOL    HW128391   0.480   2.015  10.747 -0.3377  0.2020 -0.5720
 5643SOL    HW228392   0.447   1.874  10.715 -0.8505  2.6033 -1.6669
 5644SOL     OW28393   2.718   2.322   8.244  0.6755 -0.0773  0.7535
 5644SOL    HW128394   2.799   2.344   8.290 -0.0616  0.6933  1.6792
 5644SOL    HW228395   2.659   2.384   8.287  0.9507  0.8165 -0.1392
 5645SOL     OW28396   2.808   4.609  12.804  0.5636 -0.6636  0.3087
 5645SOL    HW128397   2.831   4.672  12.872 -1.0429  0.5740 -0.2894
 5645SOL    HW228398   2.806   4.526  12.852 -1.0708 -1.3565 -0.9349
 5646SOL     OW28399   0.366   3.813   2.033  0.2242  0.1533  0.1953
 5646SOL    HW128400   0.455   3.843   2.050  0.5030  0.2725 -1.4800
 5646SOL    HW228401   0.311   3.888   2.054  1.0711  1.1428 -1.1419
 5647SOL     OW28402   1.430   2.326   1.340  0.2701  0.6762  0.6084
 5647SOL    HW128403   1.453   2.377   1.418  0.6925 -0.4021  1.1885
 5647SOL    HW228404   1.404   2.245   1.385  0.9797  0.1147  0.0071
 5648SOL     OW28405   3.596   2.653   4.934 -0.1789 -0.0863 -0.1244
 5648SOL    HW128406   3.672   2.615   4.978  0.9655  1.4555 -0.7441
 5648SOL    HW228407   3.647   2.700   4.867  0.8355  0.2191  0.8535
 5649SOL     OW28408   1.663   1.329   7.507  0.0472 -0.2541  0.2544
 5649SOL    HW128409   1.733   1.309   7.445  0.8415  3.3673 -0.0164
 5649SOL    HW228410   1.705   1.286   7.582  0.8065 -1.4488 -0.8730
 5650SOL     OW28411   3.206   0.330   1.430  0.1067  0.2709 -0.0079
 5650SOL    HW128412   3.259   0.331   1.510 -0.2788  1.0937  0.2352
 5650SOL    HW228413   3.251   0.267   1.374  1.8718 -0.9498  2.7674
 5651SOL     OW28414   1.332   4.491   7.966  0.4900  0.1354  0.2534
 5651SOL    HW128415   1.421   4.503   7.934  0.2596 -0.7482 -0.7222
 5651SOL    HW228416   1.341   4.397   7.984  0.0563  0.2900  1.2796
 5652SOL     OW28417   3.070   3.759   1.726  0.3090 -0.1470  0.1000
 5652SOL    HW128418   3.134   3.769   1.656 -0.3652 -2.6992 -0.9085
 5652SOL    HW228419   2.992   3.800   1.689  0.0770 -0.6111  0.0728
 5653SOL     OW28420   0.696   4.274  16.946  0.5446 -0.2563 -0.1951
 5653SOL    HW128421   0.629   4.273  16.878  1.8449 -0.5450 -1.4791
 5653SOL    HW228422   0.668   4.196  16.992 -2.0904  1.4640  1.0920
 5654SOL     OW28423   0.669   2.812   0.797 -0.1132 -0.5515 -0.0200
 5654SOL    HW128424   0.633   2.753   0.731  0.2536 -1.0089  0.1901
 5654SOL    HW228425   0.592   2.827   0.852 -0.0850 -0.3246 -0.0435
 5655SOL     OW28426   4.206   2.277   6.645  0.2495  0.1589  0.4891
 5655SOL    HW128427   4.222   2.222   6.722  1.4371  0.8687  0.7505
 5655SOL    HW228428   4.111   2.282   6.634  0.5641  2.1271 -1.2645
 5656SOL     OW28429   3.190   3.997   1.874  0.3291  0.4619  0.3777
 5656SOL    HW128430   3.168   3.933   1.806  0.9514 -0.5708  1.1558
 5656SOL    HW228431   3.213   4.072   1.819  1.1334 -1.4380 -1.8995
 5657SOL     OW28432   3.757   4.345  10.148  0.7504  0.2444  0.0334
 5657SOL    HW128433   3.732   4.309  10.063 -3.4734 -1.6993  2.0540
 5657SOL    HW228434   3.681   4.314  10.198 -0.8120 -0.6936 -2.9126
 5658SOL     OW28435   1.004   0.999   6.310 -0.3470  0.9381  0.6613
 5658SOL    HW128436   1.057   1.005   6.390 -0.7230  1.1308  0.8966
 5658SOL    HW228437   0.934   1.062   6.329  1.0336  2.5216  0.4183
 5659SOL     OW28438   0.553   4.566  16.956 -0.0997 -0.2320 -0.3997
 5659SOL    HW128439   0.606   4.544  16.880  0.7561 -1.0553  0.4255
 5659SOL    HW228440   0.470   4.576  16.910  0.2370  1.9741 -0.5145
 5660SOL     OW28441   4.136   4.290   3.899 -0.0584 -0.5431  0.1195
 5660SOL    HW128442   4.077   4.225   3.936 -0.2638 -0.6388 -0.3756
 5660SOL    HW228443   4.085   4.346   3.840 -0.3239 -1.9077 -0.9255
 5661SOL     OW28444   2.596   2.262   3.532 -0.0038  0.2767  0.0622
 5661SOL    HW128445   2.612   2.223   3.618 -1.2777 -0.2849  0.0394
 5661SOL    HW228446   2.520   2.208   3.511 -0.5489  1.2239 -0.3734
 5662SOL     OW28447   2.167   1.217   6.496 -0.1033  0.9667 -0.4141
 5662SOL    HW128448   2.214   1.257   6.423  1.1530  2.9888  1.5160
 5662SOL    HW228449   2.086   1.186   6.454 -0.2205  1.6333 -0.6758
 5663SOL     OW28450   3.470   3.809   6.465  0.6358  0.2258  0.3687
 5663SOL    HW128451   3.491   3.725   6.505  1.8690  0.3937  0.0808
 5663SOL    HW228452   3.458   3.869   6.539  0.3451  0.0514  0.4612
 5664SOL     OW28453   0.771   4.010   9.170  0.0938 -0.4705 -0.0738
 5664SOL    HW128454   0.693   4.054   9.205  0.4472 -1.6795  2.2415
 5664SOL    HW228455   0.744   3.918   9.176 -0.0552 -0.4666 -0.6821
 5665SOL     OW28456   0.425   1.545  12.272 -0.5616  0.3520  0.0725
 5665SOL    HW128457   0.437   1.531  12.178 -0.3736 -1.3204  0.3352
 5665SOL    HW228458   0.330   1.545  12.286 -0.6774 -0.7620 -0.6866
 5666SOL     OW28459   3.992   0.544   2.185  0.3381 -0.6571 -0.3647
 5666SOL    HW128460   4.076   0.506   2.211 -0.2901 -1.0735  1.0136
 5666SOL    HW228461   4.002   0.634   2.216  2.6339 -1.6889  1.8796
 5667SOL     OW28462   4.095   0.491   7.878  0.7780 -0.0681 -0.2735
 5667SOL    HW128463   4.081   0.458   7.967 -0.4050 -0.9705 -0.7935
 5667SOL    HW228464   4.139   0.574   7.899 -1.7248  1.2120 -0.0056
 5668SOL     OW28465   4.696   1.602  16.529  0.4964  0.0049  0.0247
 5668SOL    HW128466   0.017   1.562  16.606  0.4508  3.2652  1.7482
 5668SOL    HW228467   0.061   1.630  16.497  1.1049 -0.9517  0.8034
 5669SOL     OW28468   0.136   4.012   2.592  0.0795  0.0061 -0.2179
 5669SOL    HW128469   0.227   3.997   2.565 -0.4783 -1.5348 -1.2664
 5669SOL    HW228470   0.150   4.070   2.667 -0.0033 -0.1187 -0.1046
 5670SOL     OW28471   2.389   0.060   5.622 -0.4069  0.3090  0.8861
 5670SOL    HW128472   2.376   0.137   5.567  1.6989  0.7300  0.9912
 5670SOL    HW228473   2.312   0.009   5.595  0.8382 -1.3087  0.3696
 5671SOL     OW28474   0.387   3.959   2.520 -0.5925 -0.2027  0.1033
 5671SOL    HW128475   0.476   3.991   2.508 -1.1434  0.3327 -2.6162
 5671SOL    HW228476   0.397   3.876   2.473 -0.8752 -1.1151  1.6752
 5672SOL     OW28477   1.792   4.392   6.278 -0.2238 -0.9891 -0.5501
 5672SOL    HW128478   1.857   4.343   6.327  1.1217 -0.1174 -1.4628
 5672SOL    HW228479   1.800   4.478   6.319  0.2513 -0.9225 -0.7791
 5673SOL     OW28480   1.917   2.735  13.901  0.3907 -0.2243  0.0048
 5673SOL    HW128481   1.897   2.811  13.955 -0.1994 -0.2647 -0.1562
 5673SOL    HW228482   1.972   2.785  13.840 -0.8738  0.0879 -0.8798
 5674SOL     OW28483   4.610   1.666   6.902  0.3097  0.1624  0.3027
 5674SOL    HW128484   4.545   1.714   6.850 -0.5542 -0.2385  1.0035
 5674SOL    HW228485   4.661   1.638   6.826  0.1179 -2.8197  1.2834
 5675SOL     OW28486   1.282   3.216   4.439 -0.0643 -0.3441 -0.5116
 5675SOL    HW128487   1.194   3.216   4.477 -0.4954  2.1926 -1.5129
 5675SOL    HW228488   1.254   3.229   4.348  1.7594 -0.7159 -1.1239
 5676SOL     OW28489   4.270   3.692  15.595  0.1923 -0.2163 -0.2182
 5676SOL    HW128490   4.334   3.754  15.631  0.7445 -2.0621  2.0686
 5676SOL    HW228491   4.323   3.640  15.534 -0.1656  0.0079 -0.7154
 5677SOL     OW28492   3.687   1.094  10.957 -0.4883  0.0283 -0.1254
 5677SOL    HW128493   3.694   0.999  10.959  0.8995  0.0761 -2.2206
 5677SOL    HW228494   3.750   1.121  11.024 -1.2671 -0.6609  0.8859
 5678SOL     OW28495   3.552   2.971  17.215 -0.2818  0.4922  0.0440
 5678SOL    HW128496   3.555   3.059  17.177  1.4902 -0.3870 -1.9037
 5678SOL    HW228497   3.565   3.003  17.304 -0.1777  2.8552 -0.8031
 5679SOL     OW28498   0.743   0.958   2.979  0.5806  0.1329 -0.3360
 5679SOL    HW128499   0.744   1.001   2.893  1.7916 -0.6610 -0.7270
 5679SOL    HW228500   0.662   0.907   2.980  0.7900 -0.1704  1.1135
 5680SOL     OW28501   0.599   2.454   6.316 -0.3057 -0.1092  0.2259
 5680SOL    HW128502   0.547   2.438   6.237  1.6271  0.4594 -1.1696
 5680SOL    HW228503   0.551   2.531   6.347 -0.1584 -0.0777  0.3756
 5681SOL     OW28504   1.372   3.506   7.771 -0.7116  0.4971  0.0699
 5681SOL    HW128505   1.397   3.416   7.791 -1.0951  0.3326 -0.1817
 5681SOL    HW228506   1.437   3.527   7.704 -0.4433  3.3920  1.2400
 5682SOL     OW28507   3.860   3.048   6.482  0.6850 -0.2276  0.0213
 5682SOL    HW128508   3.899   2.967   6.514  1.3947  0.1649  0.1379
 5682SOL    HW228509   3.856   3.033   6.388  1.1609  1.7442 -0.3146
 5683SOL     OW28510   0.460   3.595   9.417 -0.0279  0.4210  0.0451
 5683SOL    HW128511   0.375   3.633   9.437 -0.0087  1.3538 -1.6362
 5683SOL    HW228512   0.504   3.676   9.391  1.3986 -0.3367  0.0962
 5684SOL     OW28513   4.480   3.046   2.534 -0.1381  0.8158  0.4170
 5684SOL    HW128514   4.485   2.976   2.468  0.7036  0.4523  0.8636
 5684SOL    HW228515   4.441   3.115   2.479 -0.5793 -1.0803 -1.6534
 5685SOL     OW28516   3.377   3.953  17.249 -0.4438  0.0227 -0.5355
 5685SOL    HW128517   3.405   4.028  17.196 -0.0354 -0.7865 -1.4764
 5685SOL    HW228518   3.420   3.888  17.193 -0.4780 -0.9340  0.5427
 5686SOL     OW28519   2.072   1.752   5.436 -0.0676 -0.2285 -0.2079
 5686SOL    HW128520   2.162   1.735   5.408 -0.2240  0.6372 -1.2063
 5686SOL    HW228521   2.079   1.845   5.457  0.6829  0.0280 -1.6661
 5687SOL     OW28522   3.431   1.085   7.339 -0.0719  0.3972 -0.5547
 5687SOL    HW128523   3.500   1.098   7.403  1.6157 -0.6278 -2.1576
 5687SOL    HW228524   3.420   0.990   7.337  2.0207  0.1388  0.0773
 5688SOL     OW28525   2.558   3.542   2.275 -0.2085  0.1270  0.0874
 5688SOL    HW128526   2.624   3.580   2.217  0.2472 -0.3804  0.2767
 5688SOL    HW228527   2.519   3.478   2.215  1.4376 -0.9783  0.1825
 5689SOL     OW28528   1.467   4.228   7.689 -0.3287 -0.4316  0.2621
 5689SOL    HW128529   1.545   4.268   7.649  0.6203 -2.7715 -0.2105
 5689SOL    HW228530   1.414   4.216   7.610 -0.9942  0.0970  0.6233
 5690SOL     OW28531   1.705   4.094   2.790 -0.1404 -0.1735  0.2133
 5690SOL    HW128532   1.720   4.027   2.856 -0.2150  1.2270  1.6351
 5690SOL    HW228533   1.789   4.121   2.753  0.2790 -1.0761  0.5134
 5691SOL     OW28534   3.022   4.515   4.663 -0.1449  0.5617 -0.5232
 5691SOL    HW128535   3.017   4.420   4.649  0.9747  0.4408 -0.1325
 5691SOL    HW228536   2.984   4.551   4.583 -1.8051  0.9881  0.4645
 5692SOL     OW28537   0.887   4.496   0.165 -0.3401 -0.6113  0.0051
 5692SOL    HW128538   0.950   4.507   0.236  0.7776  0.8771 -1.2150
 5692SOL    HW228539   0.946   4.520   0.093 -1.1566 -0.8598 -0.7492
 5693SOL     OW28540   2.989   3.455   6.167  0.0958  0.2328 -0.0040
 5693SOL    HW128541   2.983   3.510   6.089 -0.6931  0.6138  0.3265
 5693SOL    HW228542   2.916   3.492   6.216  0.6971 -1.0097  1.8515
 5694SOL     OW28543   4.717   3.762   3.944 -0.1457  0.6979  0.2348
 5694SOL    HW128544   4.652   3.695   3.925 -1.0210  2.3658 -2.6707
 5694SOL    HW228545   4.712   3.814   3.864 -0.7869  0.2898  0.0108
 5695SOL     OW28546   2.922   4.055   2.296 -0.0490  0.2656  0.5305
 5695SOL    HW128547   3.013   4.084   2.287  0.3579 -0.5508  2.0797
 5695SOL    HW228548   2.898   4.146   2.278 -0.5973  0.0260  0.0485
 5696SOL     OW28549   0.244   1.995   3.233  0.3212 -0.0164  0.3964
 5696SOL    HW128550   0.185   2.069   3.227 -0.1517 -0.5464 -1.6188
 5696SOL    HW228551   0.326   2.041   3.253  1.5420 -1.2355 -1.7151
 5697SOL     OW28552   1.809   2.579  14.832  0.3368 -0.1765 -0.2497
 5697SOL    HW128553   1.804   2.548  14.742  4.4548  0.7142 -0.8075
 5697SOL    HW228554   1.904   2.583  14.847  0.2534 -0.1867  0.3047
 5698SOL     OW28555   3.765   0.953  15.102  0.5319  0.1400  0.0395
 5698SOL    HW128556   3.847   0.981  15.060 -0.3242  0.3122 -1.5036
 5698SOL    HW228557   3.776   0.970  15.196 -0.5031 -1.0204  0.3665
 5699SOL     OW28558   2.794   4.415  10.506 -0.5098 -0.2280  0.6097
 5699SOL    HW128559   2.765   4.479  10.570  0.6560 -0.4081  1.3188
 5699SOL    HW228560   2.808   4.470  10.429  2.3402 -0.4991  0.9165
 5700SOL     OW28561   1.050   2.195   7.379 -0.4385 -0.4663  0.6474
 5700SOL    HW128562   1.096   2.137   7.439 -0.6502 -0.5835  0.6991
 5700SOL    HW228563   1.017   2.266   7.435 -0.6623  1.0299 -1.3790
 5701SOL     OW28564   4.448   2.087   5.446 -0.1450 -0.2478  0.2609
 5701SOL    HW128565   4.483   2.099   5.358 -0.2967 -1.9444 -0.0419
 5701SOL    HW228566   4.526   2.052   5.489  1.2159 -1.3509 -3.1233
 5702SOL     OW28567   0.304   2.311  12.605 -0.2331 -1.0913  0.3120
 5702SOL    HW128568   0.231   2.253  12.628 -1.6478  0.1907 -0.8941
 5702SOL    HW228569   0.306   2.377  12.674  0.7944  0.5018 -1.2597
 5703SOL     OW28570   0.733   1.978   3.897 -0.0908  0.0081  0.0501
 5703SOL    HW128571   0.760   1.927   3.821  0.3290  0.3076 -0.0011
 5703SOL    HW228572   0.814   1.965   3.946  0.7720 -0.9241 -1.6079
 5704SOL     OW28573   3.419   0.098   1.361  0.1790 -0.0150 -0.1412
 5704SOL    HW128574   3.479   0.079   1.433  2.3329  1.9456 -1.3952
 5704SOL    HW228575   3.467   0.164   1.311 -0.0376  1.8223  2.0454
 5705SOL     OW28576   2.226   2.436  12.971 -0.6010 -0.3276 -0.3952
 5705SOL    HW128577   2.167   2.510  12.987 -1.1727 -1.0993  1.0447
 5705SOL    HW228578   2.298   2.465  13.027 -2.0385 -1.0436  1.8445
 5706SOL     OW28579   0.022   4.620  11.373 -0.4296 -0.3603 -0.2453
 5706SOL    HW128580   4.651   4.645  11.389  0.1977  0.3051  2.3272
 5706SOL    HW228581   0.058   4.708  11.366 -0.2952 -0.3933  0.0484
 5707SOL     OW28582   0.910   3.511   8.907 -0.0980  0.4206 -0.2002
 5707SOL    HW128583   0.949   3.572   8.970 -0.8048 -0.0828  0.7129
 5707SOL    HW228584   0.932   3.424   8.940 -0.1656  1.1863  1.8423
 5708SOL     OW28585   2.231   1.644   2.428 -0.1722 -0.0555  0.3311
 5708SOL    HW128586   2.311   1.628   2.478  0.3442 -0.8666 -0.7560
 5708SOL    HW228587   2.176   1.587   2.481 -1.0107  1.4938  1.1268
 5709SOL     OW28588   1.648   0.583  12.587  0.7369 -0.3426 -0.0603
 5709SOL    HW128589   1.578   0.553  12.530  0.8582  0.6717 -0.7352
 5709SOL    HW228590   1.644   0.679  12.583 -0.2891 -0.3703  0.5114
 5710SOL     OW28591   3.565   4.498   4.381 -0.3223  0.2677  0.0678
 5710SOL    HW128592   3.552   4.408   4.352  0.9295 -0.2034  0.9899
 5710SOL    HW228593   3.651   4.510   4.341  0.1226  4.2148  2.2007
 5711SOL     OW28594   4.544   1.679   9.771 -0.0420 -0.1404 -0.2995
 5711SOL    HW128595   4.619   1.703   9.716 -0.9993  0.0525 -1.5210
 5711SOL    HW228596   4.525   1.765   9.809  1.2520 -0.0465  0.1356
 5712SOL     OW28597   0.519   1.818   7.931 -0.3215 -0.3628  0.1874
 5712SOL    HW128598   0.467   1.878   7.877 -0.8208 -0.1340  0.9343
 5712SOL    HW228599   0.612   1.840   7.916 -0.6591  1.6595  1.0775
 5713SOL     OW28600   3.836   0.914   7.914  0.1392 -0.1723  0.4180
 5713SOL    HW128601   3.814   0.835   7.865 -0.7998 -0.0122  0.5937
 5713SOL    HW228602   3.854   0.978   7.845  0.8946  1.4213  2.1066
 5714SOL     OW28603   3.171   2.424   2.954 -0.5484  0.3492 -0.3502
 5714SOL    HW128604   3.184   2.449   3.046 -0.5358 -0.1550 -0.2151
 5714SOL    HW228605   3.137   2.507   2.922 -0.6163  0.3578 -0.2551
 5715SOL     OW28606   3.625   4.591  10.478 -0.2776 -0.1822  0.0716
 5715SOL    HW128607   3.666   4.541  10.549  1.9629  1.2010 -0.2345
 5715SOL    HW228608   3.672   4.555  10.403  0.0085 -0.9646  0.6237
 5716SOL     OW28609   0.970   0.226  15.115 -0.7468  0.0801 -0.1718
 5716SOL    HW128610   1.034   0.157  15.095  0.9259  2.0591 -1.6802
 5716SOL    HW228611   1.019   0.308  15.110  0.5783 -0.5513  2.2942
 5717SOL     OW28612   3.979   4.361   5.271  0.2303 -0.3367  0.3169
 5717SOL    HW128613   3.945   4.361   5.361 -0.1000 -0.0290  0.1882
 5717SOL    HW228614   3.902   4.321   5.231  0.5522 -0.9578  0.3109
 5718SOL     OW28615   4.280   2.276   6.382 -0.4058 -1.1202 -0.1768
 5718SOL    HW128616   4.251   2.281   6.473  1.0751 -0.5491  0.2596
 5718SOL    HW228617   4.332   2.195   6.381 -2.9093 -2.7354  1.7053
 5719SOL     OW28618   0.922   4.397   9.916 -0.4238  0.4656  0.5477
 5719SOL    HW128619   0.950   4.402  10.007  2.2216  0.5129 -0.2769
 5719SOL    HW228620   0.903   4.491   9.907 -1.9613  0.1971  0.9070
 5720SOL     OW28621   3.847   2.530   9.924 -0.1211 -0.1865 -0.1438
 5720SOL    HW128622   3.865   2.513  10.016  0.0332 -0.4577 -0.2228
 5720SOL    HW228623   3.783   2.600   9.929  0.3966  0.2514  0.3232
 5721SOL     OW28624   2.408   3.840   3.613  0.3569  0.3769 -0.6592
 5721SOL    HW128625   2.451   3.893   3.680 -0.3352  0.9267 -0.6524
 5721SOL    HW228626   2.441   3.882   3.533  0.5316  0.5116 -0.5176
 5722SOL     OW28627   1.668   4.526  15.080  0.1278  0.0396 -0.6498
 5722SOL    HW128628   1.591   4.526  15.024 -1.0559 -2.8682  1.0215
 5722SOL    HW228629   1.723   4.587  15.029 -0.3650 -0.6455 -2.0114
 5723SOL     OW28630   4.108   0.534   5.132 -0.1741  0.5747  0.0832
 5723SOL    HW128631   4.167   0.468   5.170 -0.5199  0.2985  0.1319
 5723SOL    HW228632   4.119   0.508   5.041 -3.2024  0.2061 -0.1639
 5724SOL     OW28633   0.533   1.291   5.515  0.0110 -0.2816  0.0255
 5724SOL    HW128634   0.473   1.329   5.452 -0.5800  0.7994  1.2337
 5724SOL    HW228635   0.484   1.210   5.530 -1.8485  0.8188 -0.2402
 5725SOL     OW28636   0.013   2.889   4.653 -0.3789 -0.1210  0.3123
 5725SOL    HW128637   0.069   2.827   4.606 -1.2810  0.5845 -1.6917
 5725SOL    HW228638   0.064   2.906   4.733  0.3033 -1.3971  0.1598
 5726SOL     OW28639   1.660   2.385   6.629  0.0282  0.1235  0.9806
 5726SOL    HW128640   1.711   2.414   6.705  1.2875  0.0481  0.1575
 5726SOL    HW228641   1.721   2.324   6.588  0.4985  0.9058  0.5153
 5727SOL     OW28642   2.621   3.098  10.696  0.2758 -0.1656 -0.3987
 5727SOL    HW128643   2.596   3.175  10.645  2.8214  0.2243 -1.0611
 5727SOL    HW228644   2.626   3.130  10.786 -1.5141 -3.1211  0.7285
 5728SOL     OW28645   3.285   4.685   3.659 -0.3300 -0.1652 -0.5194
 5728SOL    HW128646   3.277   4.649   3.571 -0.5683  0.5623 -0.7921
 5728SOL    HW228647   3.358   0.023   3.647  0.3446 -0.9104 -0.0835
 5729SOL     OW28648   4.044   2.151   8.320 -0.0937 -0.3392 -0.0480
 5729SOL    HW128649   4.078   2.062   8.310  4.0577  0.9742  2.6501
 5729SOL    HW228650   4.068   2.180   8.408 -1.3871 -0.4052  0.3244
 5730SOL     OW28651   4.264   3.978  12.709 -0.5289  0.0550  0.4766
 5730SOL    HW128652   4.359   3.989  12.715 -0.6051  0.3844  1.1009
 5730SOL    HW228653   4.231   4.051  12.760  0.9256  0.0434  1.4446
 5731SOL     OW28654   4.332   2.220   2.460 -0.2523 -0.2046 -0.0623
 5731SOL    HW128655   4.310   2.255   2.374 -0.2289  2.2748  0.9377
 5731SOL    HW228656   4.427   2.215   2.451  0.1298  3.5129  1.6143
 5732SOL     OW28657   0.766   3.215   0.277  0.2303  0.3475 -0.1502
 5732SOL    HW128658   0.707   3.209   0.352  0.4967  2.5314  0.2369
 5732SOL    HW228659   0.842   3.164   0.304  1.8685  2.0481 -1.5464
 5733SOL     OW28660   2.377   4.042   9.513  0.0071 -0.2901 -0.3279
 5733SOL    HW128661   2.377   4.006   9.602  1.0344 -0.5424 -0.4291
 5733SOL    HW228662   2.377   4.136   9.534  0.1996 -0.6858  1.4300
 5734SOL     OW28663   1.835   2.675   2.639  0.1518  0.3277 -0.4058
 5734SOL    HW128664   1.787   2.611   2.586 -1.3479 -0.6499  2.1537
 5734SOL    HW228665   1.875   2.610   2.697 -3.8749 -2.2559 -0.5222
 5735SOL     OW28666   2.956   0.979   5.394 -0.1625 -0.7906 -0.0320
 5735SOL    HW128667   2.895   0.906   5.402  1.6274 -2.4754 -2.0028
 5735SOL    HW228668   3.042   0.943   5.417 -0.4577 -2.4392 -1.5533
 5736SOL     OW28669   2.065   3.284   3.133 -0.1279  0.4068  0.1482
 5736SOL    HW128670   2.092   3.321   3.049  0.2689  0.8166  0.4591
 5736SOL    HW228671   2.050   3.360   3.189 -0.0966 -0.8904  1.9289
 5737SOL     OW28672   0.395   3.551   8.939  0.5599  0.2755  1.0131
 5737SOL    HW128673   0.329   3.609   8.977  0.6177  2.2760 -1.9607
 5737SOL    HW228674   0.463   3.614   8.914 -0.9392  0.8876 -1.4628
 5738SOL     OW28675   4.204   0.656   0.681 -0.4992  0.1099 -0.3001
 5738SOL    HW128676   4.164   0.659   0.594 -1.3252 -3.9404 -0.0444
 5738SOL    HW228677   4.287   0.611   0.670 -0.4898  0.1925 -0.5535
 5739SOL     OW28678   2.769   0.511   5.795 -0.4337 -0.0661 -0.1759
 5739SOL    HW128679   2.797   0.579   5.734  1.1995  1.7665  2.5972
 5739SOL    HW228680   2.853   0.474   5.824 -0.8389 -0.8742 -0.0481
 5740SOL     OW28681   4.227   4.165  17.331 -0.4277  0.4485 -1.1087
 5740SOL    HW128682   4.246   4.137  17.242  0.7897 -1.7740 -0.1461
 5740SOL    HW228683   4.292   4.236  17.326  0.6549 -0.5222 -0.9209
 5741SOL     OW28684   2.454   2.083   0.386 -0.2452 -0.3497  0.8795
 5741SOL    HW128685   2.464   1.988   0.388 -0.7884 -0.4333 -0.3120
 5741SOL    HW228686   2.436   2.096   0.479  0.1855 -1.3439  1.1042
 5742SOL     OW28687   3.173   3.441   4.755  0.1612 -0.6347 -0.5246
 5742SOL    HW128688   3.254   3.447   4.705  0.1681 -1.3479 -0.6054
 5742SOL    HW228689   3.169   3.346   4.767  0.6721 -0.4386  1.0901
 5743SOL     OW28690   2.133   2.682   6.302 -0.4040  1.0246 -0.0280
 5743SOL    HW128691   2.049   2.658   6.263 -0.2177 -2.8231  1.9236
 5743SOL    HW228692   2.131   2.777   6.301  0.7167  1.0443 -0.0321
 5744SOL     OW28693   3.722   2.409   8.505 -0.7790  0.2932 -0.3558
 5744SOL    HW128694   3.812   2.419   8.476 -0.4509  0.2446  0.6486
 5744SOL    HW228695   3.731   2.433   8.597 -0.0967  0.5008 -0.4834
 5745SOL     OW28696   4.294   4.279  14.600  0.0141  0.6171  0.2087
 5745SOL    HW128697   4.230   4.215  14.570 -0.3585  1.2456 -0.3596
 5745SOL    HW228698   4.293   4.342  14.527  1.3058 -1.5666 -1.6645
 5746SOL     OW28699   2.325   0.314   6.304 -0.2539  0.1412  0.2659
 5746SOL    HW128700   2.417   0.305   6.329  0.1168 -0.0887 -1.1788
 5746SOL    HW228701   2.339   0.358   6.220 -1.5738  0.6703  0.3254
 5747SOL     OW28702   3.559   2.951   7.022 -0.4754 -0.0129  0.0187
 5747SOL    HW128703   3.612   2.927   7.098 -1.1817 -0.6536  0.3109
 5747SOL    HW228704   3.498   2.878   7.013  0.8282 -1.2385  1.1238
 5748SOL     OW28705   2.560   2.811   0.931  0.0807  0.2244  0.1949
 5748SOL    HW128706   2.509   2.892   0.928 -3.1279 -1.9008 -2.7867
 5748SOL    HW228707   2.490   2.747   0.916  1.3113 -1.6053  2.1049
 5749SOL     OW28708   3.108   2.578   0.135 -0.0444  0.0119  0.1410
 5749SOL    HW128709   3.149   2.571   0.221  0.1590 -1.0359 -0.0458
 5749SOL    HW228710   3.051   2.501   0.143  0.6936 -0.5380  0.1125
 5750SOL     OW28711   0.164   4.591   1.101 -0.9015 -0.9091 -0.0090
 5750SOL    HW128712   0.203   4.509   1.072  0.1314 -0.2338 -0.5260
 5750SOL    HW228713   0.133   4.561   1.187 -2.2580 -2.9802 -1.2111
 5751SOL     OW28714   0.387   3.677   2.620 -0.0873 -0.1031 -0.3428
 5751SOL    HW128715   0.382   3.588   2.586 -4.2508  0.0462 -0.0282
 5751SOL    HW228716   0.457   3.717   2.567 -0.6512 -0.0481 -1.0397
 5752SOL     OW28717   0.984   1.199   8.113 -0.1494 -0.5933  0.5590
 5752SOL    HW128718   1.011   1.110   8.132 -0.3591 -0.8159 -0.1724
 5752SOL    HW228719   0.980   1.242   8.198  0.8425  0.0159  0.2970
 5753SOL     OW28720   0.160   3.542   6.111  0.5134 -0.3777 -0.6294
 5753SOL    HW128721   0.145   3.485   6.186  3.1573  1.4746  1.3199
 5753SOL    HW228722   0.250   3.522   6.084  1.9434  1.5635  2.7313
 5754SOL     OW28723   2.007   2.725   4.830  0.3304  0.5968 -0.6012
 5754SOL    HW128724   1.913   2.705   4.831 -0.0204  2.3474  1.3515
 5754SOL    HW228725   2.043   2.666   4.763 -1.3576 -3.0807  1.7660
 5755SOL     OW28726   4.442   2.651  13.615 -0.9952 -0.2112 -0.3598
 5755SOL    HW128727   4.392   2.692  13.684  0.5516  2.9531 -1.1395
 5755SOL    HW228728   4.533   2.668  13.641 -0.5776 -1.2906 -1.0832
 5756SOL     OW28729   0.913   1.509   0.121 -0.2540  0.0965 -0.3315
 5756SOL    HW128730   0.820   1.516   0.143 -0.1541  2.9774 -0.8483
 5756SOL    HW228731   0.928   1.423   0.160  2.3191 -0.1420 -1.8614
 5757SOL     OW28732   2.196   4.165  15.304  0.3013 -0.0989 -0.1979
 5757SOL    HW128733   2.103   4.143  15.308 -0.0820  1.2728 -1.6323
 5757SOL    HW228734   2.238   4.079  15.316 -1.0977 -0.6688  0.6136
 5758SOL     OW28735   4.351   4.499   1.959  0.1068 -0.3348 -0.8066
 5758SOL    HW128736   4.267   4.497   2.005 -0.9962  3.7594 -2.7247
 5758SOL    HW228737   4.373   4.591   1.952 -1.0283  0.1116  1.5050
 5759SOL     OW28738   3.848   0.511  10.606  0.2816  0.1421  0.3867
 5759SOL    HW128739   3.847   0.591  10.658  0.7985 -0.4877  1.3759
 5759SOL    HW228740   3.797   0.532  10.528 -2.7005 -2.1081  1.7560
 5760SOL     OW28741   3.335   0.313   6.809 -1.1600  0.1835  0.2681
 5760SOL    HW128742   3.282   0.392   6.814  0.3609  1.1666  0.9657
 5760SOL    HW228743   3.364   0.311   6.900 -0.0118 -0.1811 -0.0971
 5761SOL     OW28744   4.150   3.600   5.711  0.0210  0.6830 -0.5387
 5761SOL    HW128745   4.127   3.511   5.736  0.9237 -0.1770 -2.8054
 5761SOL    HW228746   4.176   3.630   5.798  2.5683  0.1427 -1.1247
 5762SOL     OW28747   2.689   4.680   4.632 -0.4672 -0.5311  0.1385
 5762SOL    HW128748   2.765   0.003   4.671 -1.0280  0.1104  0.5142
 5762SOL    HW228749   2.729   4.598   4.602  2.8914  1.4936 -0.9841
 5763SOL     OW28750   1.500   2.087   4.137 -0.2160  0.2291 -0.4585
 5763SOL    HW128751   1.439   2.034   4.086 -0.6792  0.1176  0.2072
 5763SOL    HW228752   1.545   2.134   4.067  0.3250 -0.0090 -0.2701
 5764SOL     OW28753   3.922   2.097   9.322  0.1839  0.3549  0.1859
 5764SOL    HW128754   3.902   2.139   9.405  2.6755 -0.3591  1.1664
 5764SOL    HW228755   3.925   2.172   9.263  1.3468 -0.1540 -0.4089
 5765SOL     OW28756   1.579   2.479   8.051 -0.1047 -0.2133 -0.0271
 5765SOL    HW128757   1.593   2.574   8.049  1.0213 -0.3631  0.9526
 5765SOL    HW228758   1.595   2.459   7.959 -3.0019 -0.1702 -0.5283
 5766SOL     OW28759   1.104   3.577   7.975 -0.1848 -0.4641 -0.5991
 5766SOL    HW128760   1.011   3.576   7.996 -0.0320  0.6681  0.1223
 5766SOL    HW228761   1.122   3.484   7.988 -0.7692 -0.9258 -2.9702
 5767SOL     OW28762   1.187   4.695   6.599 -0.4251  0.2905  0.7699
 5767SOL    HW128763   1.207   4.607   6.632  1.0886  0.3850  0.1114
 5767SOL    HW228764   1.127   4.671   6.529  0.7867  0.4593 -0.3277
 5768SOL     OW28765   0.125   2.505  10.817  0.1118 -0.2642 -0.6587
 5768SOL    HW128766   0.093   2.481  10.730 -0.0949 -1.1139 -0.3475
 5768SOL    HW228767   0.160   2.417  10.831  1.6579  0.7431  1.8661
 5769SOL     OW28768   4.651   0.943   2.541  0.2030 -0.4076 -0.3003
 5769SOL    HW128769   0.008   0.891   2.520 -1.4620 -3.1721  0.2862
 5769SOL    HW228770   4.592   0.936   2.465 -0.5119  0.1798  0.2125
 5770SOL     OW28771   0.745   1.758   2.431 -0.4927  0.5233  0.6063
 5770SOL    HW128772   0.744   1.721   2.342 -0.4881 -0.5826  1.0657
 5770SOL    HW228773   0.655   1.789   2.438 -0.3811  0.7675  0.9261
 5771SOL     OW28774   4.171   1.123   0.349 -0.2537  0.5090 -0.2587
 5771SOL    HW128775   4.249   1.171   0.377 -0.6906 -0.7762  3.0976
 5771SOL    HW228776   4.209   1.035   0.352  0.4113  0.7779 -0.6803
 5772SOL     OW28777   4.398   1.564   8.056 -0.1770 -0.4945  0.1434
 5772SOL    HW128778   4.424   1.481   8.016 -1.5576 -1.3820  1.0703
 5772SOL    HW228779   4.364   1.545   8.143  1.1983 -0.1416  0.7542
 5773SOL     OW28780   4.282   1.881   6.189  0.2754 -0.2108 -0.1420
 5773SOL    HW128781   4.313   1.885   6.098  2.4282 -0.3521  0.5836
 5773SOL    HW228782   4.332   1.812   6.232  0.0304  0.5577  1.4029
 5774SOL     OW28783   0.473   4.066   6.191 -0.2747 -0.6276  0.1903
 5774SOL    HW128784   0.449   4.118   6.267 -0.1203  0.3404 -0.4216
 5774SOL    HW228785   0.460   3.979   6.228  1.7951 -0.0675  2.2177
 5775SOL     OW28786   0.248   0.198   7.880 -0.2617 -0.1584 -0.4270
 5775SOL    HW128787   0.296   0.177   7.800 -1.5630  1.6667 -1.7062
 5775SOL    HW228788   0.172   0.140   7.880 -0.4774  0.1139  3.0469
 5776SOL     OW28789   2.151   1.407   0.692 -0.0385 -1.4836 -0.4374
 5776SOL    HW128790   2.089   1.432   0.625  0.6496  1.7240  0.1145
 5776SOL    HW228791   2.233   1.412   0.643  0.5708  0.8024  0.8151
 5777SOL     OW28792   0.301   4.635  10.441 -0.5614  0.2550 -0.3640
 5777SOL    HW128793   0.354   4.558  10.466 -0.3391  0.5905  0.1939
 5777SOL    HW228794   0.363   4.708  10.444  0.7632 -0.7252 -3.7579
 5778SOL     OW28795   4.058   1.280   8.464 -0.5990 -0.0870  0.0044
 5778SOL    HW128796   4.050   1.371   8.434  1.9320  0.4814  1.0060
 5778SOL    HW228797   4.152   1.283   8.486 -0.6144 -0.6805  0.1461
 5779SOL     OW28798   4.060   1.204   5.616  0.0038 -0.3747 -0.8335
 5779SOL    HW128799   4.032   1.144   5.686  0.0646  0.8683  0.2596
 5779SOL    HW228800   4.132   1.156   5.575  0.3107 -1.1015  0.5290
 5780SOL     OW28801   2.349   1.342   7.472  0.0686 -0.5042 -0.2245
 5780SOL    HW128802   2.265   1.308   7.441  1.1213 -1.5351 -1.9553
 5780SOL    HW228803   2.375   1.290   7.549 -2.2010 -1.9156 -0.3861
 5781SOL     OW28804   3.135   2.744   9.416  0.7043 -0.4578  0.0647
 5781SOL    HW128805   3.159   2.830   9.380 -0.9688 -0.0961 -0.2008
 5781SOL    HW228806   3.142   2.749   9.511 -0.0635 -0.0625  0.1009
 5782SOL     OW28807   3.911   2.339  10.702 -0.4564  0.3611  0.1173
 5782SOL    HW128808   3.929   2.285  10.625  1.8789 -0.7053  1.3875
 5782SOL    HW228809   3.885   2.279  10.772  1.0613  0.4404  0.7649
 5783SOL     OW28810   2.535   1.814   0.367 -0.2956 -0.1779  0.0416
 5783SOL    HW128811   2.620   1.781   0.396  0.4186  0.8825 -0.8395
 5783SOL    HW228812   2.483   1.768   0.433 -1.0579  3.2994  1.8724
 5784SOL     OW28813   4.310   2.501   9.392 -0.5637  0.1567 -0.7422
 5784SOL    HW128814   4.289   2.582   9.346 -2.1247  0.5092  0.5664
 5784SOL    HW228815   4.224   2.460   9.393 -0.8578  0.8027  1.4184
 5785SOL     OW28816   4.028   2.068   5.690 -0.3702  0.1398 -0.7004
 5785SOL    HW128817   4.046   2.161   5.680  2.5852 -0.3446  0.2397
 5785SOL    HW228818   3.936   2.081   5.714  0.1038 -1.1610  1.8481
 5786SOL     OW28819   1.200   0.372  10.379  0.7548  0.1529  0.0317
 5786SOL    HW128820   1.189   0.453  10.428 -2.0826  1.5303 -2.8562
 5786SOL    HW228821   1.114   0.333  10.395  1.9845 -2.4446  0.3302
 5787SOL     OW28822   2.929   1.058   5.811 -0.4493  0.1286 -0.1650
 5787SOL    HW128823   3.017   1.096   5.808  1.3528 -3.6988  3.6077
 5787SOL    HW228824   2.950   0.985   5.753  1.3005 -1.0474  1.9221
 5788SOL     OW28825   2.581   1.289   8.242  0.0383  0.0013 -0.3403
 5788SOL    HW128826   2.663   1.292   8.193  1.4826 -1.0616  1.9702
 5788SOL    HW228827   2.539   1.205   8.223  1.8134 -0.7601 -0.9158
 5789SOL     OW28828   1.100   4.478   7.107  0.4473  0.1674 -0.0521
 5789SOL    HW128829   1.130   4.510   7.022 -0.4084  0.7852 -0.1264
 5789SOL    HW228830   1.026   4.423   7.082  0.9743  0.5627 -2.4455
 5790SOL     OW28831   1.501   3.984   2.646 -0.3492  0.2027 -0.0547
 5790SOL    HW128832   1.562   4.042   2.691  0.4221  0.2359 -1.1599
 5790SOL    HW228833   1.417   4.026   2.667  0.1102  1.1673 -0.1623
 5791SOL     OW28834   0.712   3.565   4.401  0.2875  0.5920 -0.3264
 5791SOL    HW128835   0.643   3.569   4.335 -0.1436 -1.6049 -0.0333
 5791SOL    HW228836   0.670   3.615   4.471  1.1552 -1.1707  1.4636
 5792SOL     OW28837   0.911   1.180   6.625  0.3506  0.4222 -0.2178
 5792SOL    HW128838   0.945   1.099   6.664  1.1454  0.4534 -0.8508
 5792SOL    HW228839   0.888   1.227   6.705 -0.3705  0.2225 -0.3139
 5793SOL     OW28840   0.940   2.139   6.399 -0.1010 -0.0013 -0.2678
 5793SOL    HW128841   0.875   2.150   6.330  1.5416  0.1404 -1.8080
 5793SOL    HW228842   0.919   2.211   6.459 -5.9726 -0.9273 -1.2492
 5794SOL     OW28843   1.153   1.688  11.725  0.2448 -1.0799  0.3275
 5794SOL    HW128844   1.158   1.759  11.789  1.4386  0.3621 -1.3779
 5794SOL    HW228845   1.246   1.678  11.708  0.4538  1.2473  0.1291
 5795SOL     OW28846   2.593   1.935   2.477  0.1999  0.0632 -0.3875
 5795SOL    HW128847   2.577   1.979   2.394  0.1680 -1.6158 -1.2666
 5795SOL    HW228848   2.655   1.867   2.450 -1.5154 -0.7961 -2.1198
 5796SOL     OW28849   1.889   2.184  16.206 -0.3855 -0.0555 -0.1809
 5796SOL    HW128850   1.799   2.168  16.178 -0.4472  1.5449 -0.9339
 5796SOL    HW228851   1.939   2.177  16.125  2.4948 -1.4064  1.7183
 5797SOL     OW28852   3.818   1.398   4.481  0.1652 -0.1261  0.1487
 5797SOL    HW128853   3.756   1.465   4.451 -0.4984 -1.2288 -0.8947
 5797SOL    HW228854   3.849   1.347   4.407  1.1887 -2.1554  2.0032
 5798SOL     OW28855   2.799   1.453  12.608  0.3422  0.5963 -0.5736
 5798SOL    HW128856   2.877   1.402  12.586 -0.5110 -0.5881 -0.8485
 5798SOL    HW228857   2.734   1.386  12.630  1.1801 -0.1336 -0.3546
 5799SOL     OW28858   0.127   2.525   2.714  0.3619  0.0302  0.3896
 5799SOL    HW128859   0.133   2.614   2.681 -2.7704 -0.2213 -0.7875
 5799SOL    HW228860   0.089   2.540   2.800 -0.8410 -0.5522 -0.0349
 5800SOL     OW28861   0.348   3.663   1.799 -0.2014  0.2521 -0.0773
 5800SOL    HW128862   0.304   3.717   1.865  1.2331  0.7481  0.4771
 5800SOL    HW228863   0.362   3.728   1.730  1.9505 -0.4544 -0.3280
 5801SOL     OW28864   0.580   0.397   1.958 -0.3397 -0.1992 -0.7945
 5801SOL    HW128865   0.545   0.309   1.944 -0.0620 -0.3176 -0.7383
 5801SOL    HW228866   0.593   0.429   1.869  1.2759 -1.7804 -1.1286
 5802SOL     OW28867   0.466   3.907  13.263  0.1104  0.1847 -0.4370
 5802SOL    HW128868   0.556   3.885  13.288 -0.1624  1.1164  1.3883
 5802SOL    HW228869   0.474   3.977  13.199  1.6276  1.4382  1.1350
 5803SOL     OW28870   0.560   0.458   1.699  0.3709 -0.1268 -0.3411
 5803SOL    HW128871   0.594   0.403   1.628 -0.0671  0.5355 -1.0673
 5803SOL    HW228872   0.473   0.470   1.661  0.1009 -0.6414  0.1129
 5804SOL     OW28873   2.027   0.499   8.388  0.7034 -0.5449 -0.1508
 5804SOL    HW128874   2.092   0.566   8.369  0.8140 -1.3456 -2.6423
 5804SOL    HW228875   2.074   0.420   8.415 -0.5894 -0.4383  2.3839
 5805SOL     OW28876   0.533   2.466   8.567 -0.0435 -0.2685  0.2403
 5805SOL    HW128877   0.453   2.515   8.585  0.0568 -1.2123  3.1627
 5805SOL    HW228878   0.519   2.384   8.614 -2.3902 -0.2055 -0.3333
 5806SOL     OW28879   0.934   3.509   5.422 -0.0030 -0.4689  0.1559
 5806SOL    HW128880   0.857   3.467   5.386 -1.8383 -0.4845  4.1172
 5806SOL    HW228881   1.004   3.446   5.404 -1.1206 -1.2637 -1.3822
 5807SOL     OW28882   4.151   3.836  10.242  0.2171  0.1435 -0.2811
 5807SOL    HW128883   4.147   3.879  10.157 -0.3979  2.5173  0.9273
 5807SOL    HW228884   4.130   3.915  10.292 -0.5784 -0.3474  0.1723
 5808SOL     OW28885   4.347   3.568   8.463 -0.0161 -0.3869  0.4323
 5808SOL    HW128886   4.300   3.539   8.385 -0.5552 -0.0271  0.6228
 5808SOL    HW228887   4.280   3.611   8.515  0.8197 -2.3855  3.1465
 5809SOL     OW28888   2.456   4.151   8.104 -0.8817  0.1515  0.5470
 5809SOL    HW128889   2.504   4.228   8.133  4.0218 -3.1988  1.4905
 5809SOL    HW228890   2.470   4.087   8.173  1.3684  0.0770  0.0465
 5810SOL     OW28891   4.321   3.939   9.511 -0.2594  0.3804  0.2897
 5810SOL    HW128892   4.390   3.905   9.454  0.8303  2.0445  0.5926
 5810SOL    HW228893   4.242   3.935   9.456 -0.0117 -2.7687  0.1746
 5811SOL     OW28894   0.242   3.179  14.183 -0.0088  0.2573 -0.9822
 5811SOL    HW128895   0.265   3.087  14.173 -0.7170  0.1855 -1.8525
 5811SOL    HW228896   0.182   3.170  14.257  0.7426 -0.8127 -0.4964
 5812SOL     OW28897   3.303   0.148   8.554  0.6439  0.8651  0.4369
 5812SOL    HW128898   3.341   0.223   8.507  0.9514  0.7109  0.4381
 5812SOL    HW228899   3.366   0.131   8.624 -0.3674 -1.8412  0.6813
 5813SOL     OW28900   3.804   2.658   1.307  0.5453  0.0889 -0.7132
 5813SOL    HW128901   3.884   2.650   1.360 -1.2090 -0.9148  1.8048
 5813SOL    HW228902   3.731   2.654   1.369  0.8252  2.8281 -0.1677
 5814SOL     OW28903   0.964   0.917  10.382 -0.4716  0.2756  0.2970
 5814SOL    HW128904   1.032   0.905  10.448 -0.3997  2.0632  0.5363
 5814SOL    HW228905   0.960   0.824  10.360  1.4043  0.7125 -1.8050
 5815SOL     OW28906   3.233   1.513   0.696  0.2688  0.2293  0.1299
 5815SOL    HW128907   3.287   1.468   0.761 -0.4046 -3.3026 -1.7907
 5815SOL    HW228908   3.241   1.469   0.612 -0.3414  0.2065  0.0813
 5816SOL     OW28909   4.698   2.785  15.699 -0.6217 -0.5007  0.4763
 5816SOL    HW128910   4.666   2.773  15.788 -0.6884 -0.2914  0.4803
 5816SOL    HW228911   4.705   2.880  15.706 -2.3751 -0.3931  0.7763
 5817SOL     OW28912   0.783   3.312  16.837  0.9032  0.5466 -0.4353
 5817SOL    HW128913   0.864   3.329  16.789  0.8787  2.1393  0.0653
 5817SOL    HW228914   0.714   3.346  16.778 -0.9718 -0.7418  1.0218
 5818SOL     OW28915   4.557   2.757   6.809 -0.5110 -0.4243  0.2552
 5818SOL    HW128916   4.484   2.759   6.747  0.1386 -0.1982 -0.4901
 5818SOL    HW228917   4.521   2.700   6.877  0.0749  0.5098  1.3668
 5819SOL     OW28918   0.350   4.218   5.094  0.1102  0.1252  0.4659
 5819SOL    HW128919   0.293   4.242   5.021 -0.7602 -3.7539 -0.1224
 5819SOL    HW228920   0.321   4.272   5.167  1.7951  1.7410 -0.0557
 5820SOL     OW28921   3.081   3.239   5.512  0.1952 -0.3832  0.5962
 5820SOL    HW128922   3.046   3.251   5.424  0.5688 -0.2985  0.4579
 5820SOL    HW228923   3.058   3.314   5.566 -1.8079 -1.5276  1.3264
 5821SOL     OW28924   0.070   1.222  10.097  0.0414 -0.4599 -0.1423
 5821SOL    HW128925   0.106   1.309  10.112  0.5355 -0.5672 -0.6901
 5821SOL    HW228926   4.699   1.227  10.123 -0.0624 -0.3516 -0.5320
 5822SOL     OW28927   1.980   0.348   5.033  0.4170 -0.1443  0.3188
 5822SOL    HW128928   2.013   0.286   4.968  1.0812  0.1591  0.3650
 5822SOL    HW228929   1.943   0.411   4.971  1.0467 -0.2837 -0.1986
 5823SOL     OW28930   2.488   3.749   9.475 -0.5427 -0.2639  0.6029
 5823SOL    HW128931   2.553   3.793   9.420 -0.9371 -0.5909 -0.1316
 5823SOL    HW228932   2.430   3.823   9.492 -2.1936 -1.8409  1.8351
 5824SOL     OW28933   3.577   2.368   2.437 -0.0267  0.2067 -0.0004
 5824SOL    HW128934   3.648   2.388   2.498  0.2671 -0.2567 -0.1869
 5824SOL    HW228935   3.551   2.453   2.402  0.5396  1.3577  2.3562
 5825SOL     OW28936   3.633   3.596   6.118 -0.3392  0.2213 -0.1298
 5825SOL    HW128937   3.691   3.671   6.127 -1.3018  0.7587  1.4983
 5825SOL    HW228938   3.612   3.569   6.207  1.4479 -0.2903  0.1414
 5826SOL     OW28939   3.597   4.698   6.149 -0.2695  0.0560  0.3594
 5826SOL    HW128940   3.575   4.684   6.241  1.4642  0.2977  0.8151
 5826SOL    HW228941   3.643   4.623   6.112 -0.7772 -0.1548  0.1623
 5827SOL     OW28942   1.493   4.317   6.792 -0.6484  0.0228 -0.6789
 5827SOL    HW128943   1.401   4.324   6.766 -0.7945  1.6967  0.3104
 5827SOL    HW228944   1.528   4.399   6.757 -0.6205  0.8175  1.2309
 5828SOL     OW28945   3.882   0.039  13.548 -0.2909 -0.6695  0.1494
 5828SOL    HW128946   3.944   0.002  13.485 -0.3729  1.3423 -1.1247
 5828SOL    HW228947   3.826   4.688  13.579  0.3419 -0.7963  0.9795
 5829SOL     OW28948   1.200   3.771   8.315 -0.0815 -0.1293  1.0683
 5829SOL    HW128949   1.176   3.681   8.295 -1.4965 -0.1632  3.0169
 5829SOL    HW228950   1.264   3.768   8.386 -0.1543 -3.6432  0.9533
 5830SOL     OW28951   3.536   1.841   3.921  0.1836  0.1960 -0.3296
 5830SOL    HW128952   3.568   1.754   3.945 -0.3875  0.0879  0.0229
 5830SOL    HW228953   3.500   1.834   3.832 -1.0057 -0.9328  0.2266
 5831SOL     OW28954   4.102   3.850   5.494 -0.2434  0.0148 -0.5848
 5831SOL    HW128955   4.138   3.936   5.515  0.3322 -0.2050 -0.7001
 5831SOL    HW228956   4.121   3.798   5.573  2.3486  1.3870 -0.3242
 5832SOL     OW28957   0.648   2.106  11.860  0.4905 -0.2014  0.2328
 5832SOL    HW128958   0.735   2.126  11.894 -0.6147  2.3483  1.5630
 5832SOL    HW228959   0.605   2.080  11.941  0.2680  0.8076  0.4408
 5833SOL     OW28960   3.927   3.889   3.417 -0.2914  1.1636  0.0189
 5833SOL    HW128961   3.861   3.946   3.378  0.6065  1.7872 -0.5974
 5833SOL    HW228962   3.885   3.878   3.502 -0.7074  1.6789 -0.1160
 5834SOL     OW28963   3.210   0.118  15.966  0.0708 -0.4101  0.8574
 5834SOL    HW128964   3.214   0.060  16.043  2.2525 -0.0039  1.0534
 5834SOL    HW228965   3.268   0.184  16.004  1.0883 -0.2591 -0.9930
 5835SOL     OW28966   1.915   2.426   7.690 -0.6999 -0.1152  0.5652
 5835SOL    HW128967   1.914   2.353   7.753  2.1461  0.1647  0.9417
 5835SOL    HW228968   1.975   2.399   7.621 -0.0285  0.7550  0.8163
 5836SOL     OW28969   1.583   1.455   4.711  0.1226 -0.2124 -0.4175
 5836SOL    HW128970   1.653   1.440   4.774  0.3660  0.4175 -0.5363
 5836SOL    HW228971   1.615   1.533   4.665 -2.3281  0.5337 -0.8581
 5837SOL     OW28972   4.343   4.310   4.069 -0.1084 -0.2355  0.0297
 5837SOL    HW128973   4.272   4.321   4.005 -0.3524  1.9633  0.6800
 5837SOL    HW228974   4.296   4.334   4.149  1.3050  1.2753  0.3860
 5838SOL     OW28975   2.654   2.581   2.813 -0.1152 -0.3160 -0.2163
 5838SOL    HW128976   2.561   2.578   2.790 -0.2955  0.2994  0.4003
 5838SOL    HW228977   2.677   2.674   2.817  1.4992 -0.7991  1.8934
 5839SOL     OW28978   0.790   2.643   2.037 -0.3827 -0.1071  0.0297
 5839SOL    HW128979   0.767   2.601   1.954 -1.0523  1.3396 -0.5232
 5839SOL    HW228980   0.726   2.713   2.048 -0.0569  0.0969  0.6499
 5840SOL     OW28981   3.826   3.316   9.152 -0.1966  0.6063 -0.0571
 5840SOL    HW128982   3.791   3.312   9.241 -1.9569 -3.0798 -0.9210
 5840SOL    HW228983   3.841   3.410   9.147  1.9673  0.3351  0.8872
 5841SOL     OW28984   3.088   3.113   5.124  0.4543 -0.1363 -0.3235
 5841SOL    HW128985   3.051   3.201   5.134  0.2684 -0.0783 -1.5324
 5841SOL    HW228986   3.047   3.078   5.044 -1.0776 -0.2176  0.4961
 5842SOL     OW28987   3.129   4.363   5.555  0.9530 -0.1420  0.5028
 5842SOL    HW128988   3.129   4.405   5.641  1.4342  0.3669  0.2552
 5842SOL    HW228989   3.038   4.383   5.535 -0.0610 -5.0680  0.1874
 5843SOL     OW28990   3.573   2.221   7.161  0.0581  0.6890  0.5027
 5843SOL    HW128991   3.577   2.198   7.254  1.3777 -2.1470 -0.2657
 5843SOL    HW228992   3.482   2.249   7.164 -0.9934 -2.8682  1.8639
 5844SOL     OW28993   0.511   2.222   4.621 -0.6462 -0.3857 -0.3419
 5844SOL    HW128994   0.566   2.295   4.595  0.1486 -1.1143 -0.7031
 5844SOL    HW228995   0.558   2.197   4.700 -1.4097  2.1284  0.9006
 5845SOL     OW28996   1.852   3.714   4.888  0.1449 -0.1026  0.2188
 5845SOL    HW128997   1.853   3.651   4.816 -1.4655 -0.1485  0.2433
 5845SOL    HW228998   1.934   3.689   4.930  0.5859  2.5396  0.9617
 5846SOL     OW28999   2.808   3.998   8.941  0.6827  0.1983  0.5726
 5846SOL    HW129000   2.840   4.064   9.002  0.2146  0.3199  0.6846
 5846SOL    HW229001   2.794   4.052   8.863 -0.0607  1.2974  1.4799
 5847SOL     OW29002   4.065   4.315   2.292  0.1999 -0.2213  0.6852
 5847SOL    HW129003   3.995   4.254   2.315  1.4132 -2.6489 -1.9947
 5847SOL    HW229004   4.045   4.381   2.358  0.5853 -1.1890  1.7824
 5848SOL     OW29005   2.708   0.648   3.429 -0.0607  0.1276 -0.1519
 5848SOL    HW129006   2.714   0.724   3.371 -0.1970  1.9296  2.2084
 5848SOL    HW229007   2.732   0.570   3.379 -0.7907  0.4010 -0.9199
 5849SOL     OW29008   3.344   4.661   0.375  0.0042  0.4698  0.2992
 5849SOL    HW129009   3.292   0.007   0.330  1.5581  0.7706 -1.0690
 5849SOL    HW229010   3.304   4.582   0.339  0.0171  0.9175 -0.7062
 5850SOL     OW29011   4.039   4.356  10.225 -0.7937 -0.1662 -0.4927
 5850SOL    HW129012   3.967   4.339  10.164  0.3035  0.1508 -1.8761
 5850SOL    HW229013   4.071   4.442  10.201 -1.3489  0.3134  0.4835
 5851SOL     OW29014   4.468   2.162   0.042  0.5738 -0.1438 -0.1911
 5851SOL    HW129015   4.551   2.180   0.086  1.5967 -1.4900 -1.5630
 5851SOL    HW229016   4.490   2.075   0.008  0.2566 -0.3256  0.0820
 5852SOL     OW29017   3.720   3.570   3.992  0.1435  0.5889 -0.1920
 5852SOL    HW129018   3.791   3.507   4.007 -0.0520  0.4146 -0.0015
 5852SOL    HW229019   3.648   3.532   4.041 -1.0317  1.5483 -1.1702
 5853SOL     OW29020   4.424   4.080  14.775 -0.3212 -0.1642 -0.2156
 5853SOL    HW129021   4.396   3.995  14.808  3.2365 -1.0114  0.5431
 5853SOL    HW229022   4.408   4.078  14.680  0.3688 -1.5661 -0.2994
 5854SOL     OW29023   1.033   1.705  15.685 -0.4769 -0.0779 -0.1684
 5854SOL    HW129024   1.094   1.711  15.759  0.3437  0.8479 -0.9213
 5854SOL    HW229025   0.979   1.784  15.687 -0.5459 -0.1018 -1.0267
 5855SOL     OW29026   1.135   4.251   3.250 -0.1447 -0.4563 -0.7824
 5855SOL    HW129027   1.176   4.228   3.167 -0.1838  1.6427 -1.3760
 5855SOL    HW229028   1.057   4.293   3.214 -1.1794 -0.8893  0.9402
 5856SOL     OW29029   0.502   2.230   5.278 -0.1152  0.1243 -0.0118
 5856SOL    HW129030   0.536   2.234   5.188 -0.3707 -2.6373 -0.2317
 5856SOL    HW229031   0.577   2.190   5.321 -0.2231  1.2244  1.2052
 5857SOL     OW29032   3.865   3.392   0.294  0.0536 -0.2121  0.3574
 5857SOL    HW129033   3.786   3.440   0.267  0.0240 -0.0256  0.7780
 5857SOL    HW229034   3.875   3.341   0.213 -2.3716  2.5893 -1.7207
 5858SOL     OW29035   0.446   0.733   2.063  0.0613  0.3559  0.2753
 5858SOL    HW129036   0.535   0.709   2.090  0.3434 -0.6272 -1.4735
 5858SOL    HW229037   0.405   0.648   2.078  0.9846 -0.3336 -1.1378
 5859SOL     OW29038   0.332   0.529  11.927 -0.6697  0.4461 -0.0109
 5859SOL    HW129039   0.422   0.513  11.897  0.1607  0.6787  2.3093
 5859SOL    HW229040   0.289   0.449  11.896  1.6991 -0.8015 -0.0889
 5860SOL     OW29041   0.592   3.812  12.014  0.1762 -0.2215  0.7050
 5860SOL    HW129042   0.633   3.742  11.963  2.7836  1.7654  0.0697
 5860SOL    HW229043   0.636   3.888  11.976  2.1101 -0.7216  1.9801
 5861SOL     OW29044   2.092   1.466   9.622 -0.1464  0.6150 -0.3744
 5861SOL    HW129045   2.027   1.395   9.625  2.0337 -1.3727  0.1236
 5861SOL    HW229046   2.165   1.427   9.575 -0.0922 -0.1597  0.3552
 5862SOL     OW29047   2.716   0.861   4.730  0.2391  0.4042 -0.2513
 5862SOL    HW129048   2.791   0.920   4.721  1.7839 -1.6344 -0.8750
 5862SOL    HW229049   2.649   0.929   4.736 -2.1496 -1.8943 -0.9730
 5863SOL     OW29050   2.188   4.664   4.871  0.5661 -0.0382  0.3389
 5863SOL    HW129051   2.233   4.580   4.879  3.9118  1.6194 -0.7821
 5863SOL    HW229052   2.198   4.664   4.775  0.0304 -0.0322  0.2841
 5864SOL     OW29053   1.446   1.795   4.413 -0.0460  0.7834 -0.2681
 5864SOL    HW129054   1.460   1.708   4.375 -2.7835  0.4761 -0.5696
 5864SOL    HW229055   1.495   1.779   4.494 -2.7361  0.0879  1.2310
 5865SOL     OW29056   3.755   4.170  14.637  0.2245 -0.4530 -0.0250
 5865SOL    HW129057   3.772   4.165  14.731  2.2834 -2.5951 -0.5327
 5865SOL    HW229058   3.660   4.179  14.648  0.3484  0.2004  0.5410
 5866SOL     OW29059   2.133   1.074   2.691 -0.2458 -0.4827 -0.2099
 5866SOL    HW129060   2.226   1.094   2.700  0.1016 -2.8264  1.3484
 5866SOL    HW229061   2.123   1.083   2.596  1.6942  0.1739 -0.3573
 5867SOL     OW29062   1.071   1.909   6.689 -0.4169 -0.3704  0.6397
 5867SOL    HW129063   1.156   1.895   6.649 -0.8036  0.2826 -0.4211
 5867SOL    HW229064   1.093   1.975   6.754  0.4248  0.6092 -0.6549
 5868SOL     OW29065   0.225   3.645   2.308  0.1269  0.2739  0.3984
 5868SOL    HW129066   0.276   3.586   2.364 -0.2849 -0.3816  0.0812
 5868SOL    HW229067   0.300   3.699   2.283 -1.3524  1.3794 -1.6421
 5869SOL     OW29068   2.118   3.746   2.692  0.2890  0.0328  0.1205
 5869SOL    HW129069   2.180   3.744   2.765  0.0552  1.8174  0.3885
 5869SOL    HW229070   2.072   3.663   2.693  2.1448 -1.0278 -1.5130
 5870SOL     OW29071   1.786   1.287   8.839  0.3053  0.4193  0.0436
 5870SOL    HW129072   1.820   1.375   8.853 -2.5425  1.4817  0.1521
 5870SOL    HW229073   1.863   1.231   8.828 -0.3746 -0.2576 -1.3209
 5871SOL     OW29074   3.162   2.792  11.322  0.5092 -0.0629 -0.3817
 5871SOL    HW129075   3.191   2.813  11.233  1.3759  1.3558  0.2452
 5871SOL    HW229076   3.248   2.776  11.361 -0.8969 -0.0142  2.7347
 5872SOL     OW29077   4.329   1.498  14.639 -0.5420 -0.1336  0.0289
 5872SOL    HW129078   4.383   1.432  14.596 -0.2540  1.5926 -2.2694
 5872SOL    HW229079   4.247   1.477  14.596 -0.6529 -0.6083  0.4731
 5873SOL     OW29080   3.684   4.166  11.012  0.5777  0.2764 -0.4579
 5873SOL    HW129081   3.706   4.241  11.067 -1.3241 -0.3439  1.1220
 5873SOL    HW229082   3.708   4.213  10.932 -0.0592 -1.2598 -1.5495
 5874SOL     OW29083   1.229   4.587   9.082 -0.3457  0.0020  0.6245
 5874SOL    HW129084   1.259   4.618   8.996  0.2729  0.4837  1.0195
 5874SOL    HW229085   1.174   4.661   9.107  2.6748  2.7742 -1.0089
 5875SOL     OW29086   0.154   3.889   3.371 -0.1178  0.8086  0.6138
 5875SOL    HW129087   0.128   3.827   3.302  3.4519  0.1954 -0.1614
 5875SOL    HW229088   0.082   3.952   3.363 -1.2485 -0.3895  1.1626
 5876SOL     OW29089   3.350   1.038   6.403  1.0264 -0.3429 -0.8111
 5876SOL    HW129090   3.337   0.947   6.429  3.7073 -0.2346  0.9406
 5876SOL    HW229091   3.292   1.081   6.465  2.5180  1.9371 -0.9961
 5877SOL     OW29092   4.059   0.663   5.562 -0.0207  0.5384 -0.2065
 5877SOL    HW129093   4.020   0.745   5.534  1.0312 -0.0345 -3.3625
 5877SOL    HW229094   4.110   0.695   5.636 -0.3084  0.3267  0.0817
 5878SOL     OW29095   4.328   4.708  11.725 -0.1648  0.4171  0.4216
 5878SOL    HW129096   4.234   4.698  11.737  0.1940 -1.4010  1.6950
 5878SOL    HW229097   4.337   0.046  11.650 -0.5665 -0.4950 -0.3367
 5879SOL     OW29098   2.731   2.445   7.519  0.3903 -0.3710  0.0619
 5879SOL    HW129099   2.736   2.366   7.573  1.1083  0.5662  1.3913
 5879SOL    HW229100   2.636   2.454   7.510  0.3979 -1.0948 -0.6341
 5880SOL     OW29101   3.074   0.356  15.668  0.0603  0.2787  0.0918
 5880SOL    HW129102   3.107   0.403  15.744 -0.4798 -0.4988  0.8130
 5880SOL    HW229103   3.008   0.419  15.640  0.3521  0.2759 -0.6048
 5881SOL     OW29104   2.459   2.789   2.720 -0.8695 -0.3593 -0.2719
 5881SOL    HW129105   2.415   2.704   2.730  0.3691 -1.1175 -1.2648
 5881SOL    HW229106   2.446   2.830   2.805 -0.6079 -0.2636 -0.2793
 5882SOL     OW29107   4.069   3.043   0.628  0.0734  0.3568 -0.1291
 5882SOL    HW129108   4.008   2.975   0.655 -0.5165  0.6752 -0.6528
 5882SOL    HW229109   4.071   3.032   0.533 -0.8378  1.4473 -0.2757
 5883SOL     OW29110   2.139   1.379   4.552  0.8127 -0.7218 -0.0079
 5883SOL    HW129111   2.128   1.447   4.617 -0.8271 -2.2678  1.3530
 5883SOL    HW229112   2.212   1.329   4.588  0.9487 -1.5206 -1.3869
 5884SOL     OW29113   3.030   4.230   6.894 -0.5399  0.0196 -0.4151
 5884SOL    HW129114   3.115   4.219   6.852 -0.3333  0.7458 -0.1909
 5884SOL    HW229115   3.016   4.141   6.927  1.0640 -0.8637 -2.1359
 5885SOL     OW29116   4.648   1.214   5.788  0.6128 -0.6381 -0.2281
 5885SOL    HW129117   4.719   1.207   5.852  2.6349  0.4400 -2.3622
 5885SOL    HW229118   4.569   1.195   5.839  1.9040  0.0924  2.0361
 5886SOL     OW29119   3.253   0.806   6.161 -0.3555  0.9128 -0.3516
 5886SOL    HW129120   3.199   0.737   6.123 -0.5794  1.8125 -1.6362
 5886SOL    HW229121   3.245   0.781   6.253 -1.9377 -1.4514 -1.1429
 5887SOL     OW29122   0.447   0.217   3.302 -0.2752 -0.5646 -0.3941
 5887SOL    HW129123   0.475   0.236   3.212 -1.6916 -0.9700 -0.9063
 5887SOL    HW229124   0.385   0.287   3.321 -0.3396 -0.5570 -0.6248
 5888SOL     OW29125   1.324   0.194   5.871 -0.4005 -0.0135 -0.4273
 5888SOL    HW129126   1.276   0.113   5.854  0.6228 -0.4480 -1.2226
 5888SOL    HW229127   1.258   0.255   5.837  1.0731  0.1007 -3.0430
 5889SOL     OW29128   4.402   0.035   1.937  0.1049 -0.0720  0.5852
 5889SOL    HW129129   4.427   0.034   1.844 -3.5847 -1.2608 -0.3995
 5889SOL    HW229130   4.312   0.066   1.932  0.3351  0.0816 -3.3782
 5890SOL     OW29131   2.361   2.832  11.916  0.7221 -0.2847  0.4571
 5890SOL    HW129132   2.369   2.909  11.973 -0.4019  0.2968 -0.1825
 5890SOL    HW229133   2.433   2.851  11.857  0.9547 -1.3041  0.4117
 5891SOL     OW29134   2.116   2.032  15.133  0.3061  0.1928  0.1393
 5891SOL    HW129135   2.080   2.094  15.068  0.6400  0.1138 -0.1211
 5891SOL    HW229136   2.037   1.994  15.172  0.6344 -0.1883  0.4225
 5892SOL     OW29137   3.532   2.845  13.198 -0.0297  0.0056 -0.6352
 5892SOL    HW129138   3.445   2.815  13.224 -0.5215  1.8001 -0.2010
 5892SOL    HW229139   3.566   2.866  13.285  1.0946 -1.0040 -0.8394
 5893SOL     OW29140   1.485   4.198   7.044  0.4189  0.3897  0.5490
 5893SOL    HW129141   1.506   4.266   6.981  1.1434 -0.3277  0.0226
 5893SOL    HW229142   1.565   4.146   7.039 -1.0893 -1.7666 -0.9704
 5894SOL     OW29143   1.047   2.612   2.889 -0.0943  0.1102 -0.4694
 5894SOL    HW129144   0.971   2.558   2.865 -0.6415  0.1811  1.0698
 5894SOL    HW229145   1.117   2.547   2.880 -1.6846 -1.5867 -0.5583
 5895SOL     OW29146   3.424   3.540   1.130 -0.3845 -0.4222 -0.0298
 5895SOL    HW129147   3.403   3.527   1.037  0.6692 -1.2531 -0.1478
 5895SOL    HW229148   3.433   3.636   1.130  0.0401 -0.4611  0.5569
 5896SOL     OW29149   3.317   0.935   0.607  0.0283 -0.1069 -0.0978
 5896SOL    HW129150   3.247   0.869   0.602 -0.5014  0.3424  1.4131
 5896SOL    HW229151   3.364   0.923   0.524  1.5685  0.6969  0.6586
 5897SOL     OW29152   3.513   0.840   7.832  0.3159 -0.5807  0.1550
 5897SOL    HW129153   3.481   0.824   7.921  0.9099 -2.6258  0.0130
 5897SOL    HW229154   3.585   0.777   7.823  0.1300 -0.8517  0.5425
 5898SOL     OW29155   4.244   3.352   7.442 -0.1918  0.6712 -0.2703
 5898SOL    HW129156   4.280   3.439   7.457  1.1303  0.2909 -1.2706
 5898SOL    HW229157   4.270   3.339   7.351  1.0109 -3.1413  0.6223
 5899SOL     OW29158   1.026   2.999  12.470 -0.1489 -0.3758 -0.0135
 5899SOL    HW129159   1.114   2.976  12.497 -1.2853 -1.4066  2.8275
 5899SOL    HW229160   0.989   3.056  12.537  3.2157  0.3849  1.1787
 5900SOL     OW29161   4.689   1.080   2.119  0.3136 -0.1968 -0.1846
 5900SOL    HW129162   4.687   1.033   2.035  1.5720 -1.0900  0.2840
 5900SOL    HW229163   0.061   1.072   2.141 -0.4247 -2.6429  2.0588
 5901SOL     OW29164   2.989   0.870   3.395 -0.1964  0.1703  0.3016
 5901SOL    HW129165   3.073   0.832   3.370  0.5690  2.1684 -0.1772
 5901SOL    HW229166   2.961   0.800   3.454  0.7491  1.2514  2.0500
 5902SOL     OW29167   2.928   2.918   6.938  0.0412 -0.2351  0.5430
 5902SOL    HW129168   2.919   2.995   6.994  0.9825  0.4573 -0.2783
 5902SOL    HW229169   2.869   2.848   6.966  0.0614 -0.1066  0.9118
 5903SOL     OW29170   3.232   3.127   6.157 -0.0775  0.2397  0.1549
 5903SOL    HW129171   3.293   3.157   6.224  0.1684  0.4162 -0.1472
 5903SOL    HW229172   3.150   3.160   6.194  0.3946 -0.0446  1.4650
 5904SOL     OW29173   4.115   0.438   2.771 -0.2842 -0.0795 -0.3152
 5904SOL    HW129174   4.061   0.468   2.697 -1.7350  0.5987  1.0090
 5904SOL    HW229175   4.147   0.351   2.748 -0.9989 -0.0067 -1.5630
 5905SOL     OW29176   1.114   2.905   7.816 -0.2638 -0.3563  0.1335
 5905SOL    HW129177   1.155   2.883   7.732 -1.1826 -1.2193 -0.0785
 5905SOL    HW229178   1.126   2.825   7.867  1.3303 -0.4425 -0.3589
 5906SOL     OW29179   3.476   2.651  12.088 -0.2240 -0.3452 -0.0895
 5906SOL    HW129180   3.404   2.644  12.150 -1.1378 -0.3942 -1.1481
 5906SOL    HW229181   3.466   2.742  12.059 -0.2025  0.2066  1.6524
 5907SOL     OW29182   0.924   1.966  15.633 -0.1856 -0.0956 -0.6841
 5907SOL    HW129183   0.850   1.939  15.580 -0.4294  1.5244 -1.1795
 5907SOL    HW229184   0.940   2.060  15.622 -3.0511  0.6442  1.4277
 5908SOL     OW29185   2.092   1.022   3.479  0.3754  0.1435 -0.5666
 5908SOL    HW129186   2.017   1.068   3.517  0.5785  0.5501 -0.6616
 5908SOL    HW229187   2.104   0.954   3.544  0.4104  0.7053  0.0108
 5909SOL     OW29188   0.524   1.246   9.374 -0.8742  0.2771 -0.1318
 5909SOL    HW129189   0.525   1.152   9.358  1.7575  0.2242  0.3267
 5909SOL    HW229190   0.605   1.257   9.423 -1.6244 -0.0641  1.1948
 5910SOL     OW29191   0.997   3.848  15.212  0.3278 -0.6265 -0.2891
 5910SOL    HW129192   1.043   3.769  15.240  1.3335 -0.3886 -1.2798
 5910SOL    HW229193   1.033   3.860  15.124 -0.1114 -1.2733 -0.5622
 5911SOL     OW29194   1.937   4.165   2.677 -0.4254 -0.0660 -0.4308
 5911SOL    HW129195   1.961   4.099   2.611 -1.2598  1.1732 -1.9873
 5911SOL    HW229196   1.882   4.230   2.632  1.4810  0.9914 -1.2772
 5912SOL     OW29197   3.881   4.071   6.963  0.0306  0.6680 -0.6110
 5912SOL    HW129198   3.921   4.157   6.958  1.0467  0.1618 -1.1183
 5912SOL    HW229199   3.848   4.068   7.053 -0.4561 -0.4497 -0.8233
 5913SOL     OW29200   3.767   3.458   0.887  0.2950 -1.4388 -0.0824
 5913SOL    HW129201   3.842   3.415   0.846  0.7779 -0.3175 -0.3711
 5913SOL    HW229202   3.700   3.389   0.889  0.4837 -1.6022  0.6759
 5914SOL     OW29203   0.447   1.251   6.449  0.1841 -0.2953 -0.0113
 5914SOL    HW129204   0.440   1.271   6.356 -0.6198 -0.0190  0.1074
 5914SOL    HW229205   0.542   1.261   6.459 -0.1009  2.4101  0.0767
 5915SOL     OW29206   3.045   3.783   4.603 -0.3408  0.2237 -0.2730
 5915SOL    HW129207   3.094   3.847   4.654 -1.0935  1.2166 -0.7976
 5915SOL    HW229208   2.984   3.841   4.559 -0.1869 -0.4990 -1.4581
 5916SOL     OW29209   4.108   0.378   6.312  0.3018  0.6525 -0.2163
 5916SOL    HW129210   4.191   0.365   6.357  0.8414 -0.9473 -1.6945
 5916SOL    HW229211   4.062   0.296   6.333  1.8442 -0.2510 -0.3326
 5917SOL     OW29212   2.706   3.261   8.056  0.4247  0.3028 -0.0845
 5917SOL    HW129213   2.746   3.220   8.133 -0.9077  0.1319  0.5275
 5917SOL    HW229214   2.635   3.197   8.049  2.0245 -1.7793  2.8797
 5918SOL     OW29215   3.179   3.636   1.472  0.4564 -0.0229 -0.6234
 5918SOL    HW129216   3.203   3.615   1.562  0.3840 -0.4337 -0.7018
 5918SOL    HW229217   3.202   3.548   1.443  1.5120 -0.1007  0.4412
 5919SOL     OW29218   3.108   0.155   2.985  0.3075  0.2447 -0.1623
 5919SOL    HW129219   3.087   0.212   3.059  2.4600  1.3401 -0.3770
 5919SOL    HW229220   3.179   0.103   3.021 -1.0082 -1.1926  0.3215
 5920SOL     OW29221   3.158   3.817   2.893 -0.0589 -0.1301  0.2366
 5920SOL    HW129222   3.137   3.882   2.826  1.0305  0.2226  0.2258
 5920SOL    HW229223   3.229   3.866   2.934 -1.9288  2.3892  0.4692
 5921SOL     OW29224   1.830   0.419  10.161 -1.0908 -0.3371  0.1632
 5921SOL    HW129225   1.741   0.456  10.155 -0.4039  1.1365 -1.0531
 5921SOL    HW229226   1.867   0.473  10.232  1.1625 -0.7103 -0.7407
 5922SOL     OW29227   0.005   1.155   4.282 -0.6030  0.5184  0.2260
 5922SOL    HW129228   4.645   1.118   4.318  0.1663 -0.8047  0.5839
 5922SOL    HW229229   4.712   1.246   4.309 -1.7105  0.7286 -1.0416
 5923SOL     OW29230   4.577   2.720  10.179  0.1964 -0.1088  0.3278
 5923SOL    HW129231   4.635   2.797  10.182 -0.6700  0.5195  1.0893
 5923SOL    HW229232   4.488   2.748  10.197 -0.2082 -1.9588  1.1829
 5924SOL     OW29233   3.484   1.077  14.765 -0.3866 -0.1192  0.4841
 5924SOL    HW129234   3.476   1.163  14.806  0.0415  0.2240 -0.1574
 5924SOL    HW229235   3.507   1.019  14.837  1.7433 -1.0867 -0.9810
 5925SOL     OW29236   4.476   4.301  10.963  0.4121 -0.1097  0.1595
 5925SOL    HW129237   4.470   4.313  11.058 -0.1832  2.1486 -0.1749
 5925SOL    HW229238   4.564   4.266  10.951  0.9942  1.1529  0.7822
 5926SOL     OW29239   2.474   0.794  10.245 -0.4844 -0.7359  0.2275
 5926SOL    HW129240   2.557   0.840  10.257 -1.2569  0.9824 -1.1252
 5926SOL    HW229241   2.458   0.791  10.151  2.1787  0.2193 -0.2444
 5927SOL     OW29242   0.652   2.744  12.460 -0.1642 -0.1108 -0.0170
 5927SOL    HW129243   0.714   2.763  12.389  0.5198  0.2148  0.6743
 5927SOL    HW229244   0.673   2.810  12.526 -0.5001  0.9706 -0.9978
 5928SOL     OW29245   3.458   1.507   8.520 -0.1760  0.2517  0.5272
 5928SOL    HW129246   3.428   1.529   8.608  0.1394  2.8150  0.0019
 5928SOL    HW229247   3.377   1.530   8.474  0.9336  0.1891 -1.4479
 5929SOL     OW29248   0.464   4.090   7.701  0.5125 -0.4816  0.2898
 5929SOL    HW129249   0.434   4.110   7.613 -1.4907 -1.0699  0.8539
 5929SOL    HW229250   0.384   4.085   7.753  0.4422  0.3164  0.2705
 5930SOL     OW29251   4.280   2.598   7.728  0.5340  0.2279  0.1610
 5930SOL    HW129252   4.246   2.572   7.813 -0.0743 -0.3655 -0.2694
 5930SOL    HW229253   4.225   2.535   7.682  0.7707  0.4934 -0.4914
 5931SOL     OW29254   2.155   2.788  13.376  0.0354  0.5912  0.6070
 5931SOL    HW129255   2.189   2.831  13.298 -0.4529  0.5367  0.3698
 5931SOL    HW229256   2.204   2.707  13.385  2.4587  2.0318  0.4876
 5932SOL     OW29257   0.713   0.738   4.518  0.0934 -0.0185  0.0233
 5932SOL    HW129258   0.755   0.660   4.482 -2.0053 -0.9279 -0.4123
 5932SOL    HW229259   0.701   0.713   4.610 -2.4295  0.4214 -0.1844
 5933SOL     OW29260   2.187   0.220   3.865  0.4539 -0.3384 -0.1845
 5933SOL    HW129261   2.283   0.220   3.861  0.4795  1.4430  0.1199
 5933SOL    HW229262   2.165   0.249   3.776  2.0748  2.1860  0.2322
 5934SOL     OW29263   3.152   3.631   7.823  0.4954  0.3635  0.2819
 5934SOL    HW129264   3.063   3.668   7.820 -0.1366 -0.8418  4.1389
 5934SOL    HW229265   3.136   3.537   7.835  3.5395  0.2171  3.0128
 5935SOL     OW29266   3.741   1.736   3.147 -0.0547  0.4827 -0.7688
 5935SOL    HW129267   3.725   1.715   3.239 -0.4623  0.4563 -0.8443
 5935SOL    HW229268   3.659   1.709   3.107 -0.7925  1.8789 -0.1947
 5936SOL     OW29269   1.911   1.362   2.317  0.1197  0.0520  0.0207
 5936SOL    HW129270   1.825   1.330   2.289 -0.0094 -0.0510  0.5370
 5936SOL    HW229271   1.947   1.403   2.238  1.4139 -1.0238  0.0478
 5937SOL     OW29272   1.255   3.852  12.658  0.3996  0.2117  0.5721
 5937SOL    HW129273   1.345   3.866  12.689  0.9973  0.1841 -1.1751
 5937SOL    HW229274   1.262   3.772  12.606 -1.4524 -0.7929  1.8729
 5938SOL     OW29275   1.009   1.424   0.704 -0.2764 -0.2334  0.3028
 5938SOL    HW129276   1.083   1.476   0.674 -1.1573  1.1244  0.4736
 5938SOL    HW229277   1.027   1.434   0.797  1.1309 -0.0523  0.0097
 5939SOL     OW29278   1.654   2.528   6.119  0.3575 -0.0669  0.1323
 5939SOL    HW129279   1.615   2.611   6.092  0.8820 -0.0690 -0.6267
 5939SOL    HW229280   1.625   2.531   6.210 -1.2775  1.9235 -0.4570
 5940SOL     OW29281   2.885   3.921   0.791 -0.4630  0.0580 -0.2539
 5940SOL    HW129282   2.912   4.000   0.837 -0.7025  0.1485 -0.2713
 5940SOL    HW229283   2.879   3.862   0.866  0.7790  1.2210  0.7560
 5941SOL     OW29284   0.712   2.108   6.037 -0.0425 -0.0333  0.3126
 5941SOL    HW129285   0.673   2.159   5.965  0.3664 -0.4009 -0.1715
 5941SOL    HW229286   0.718   2.173   6.107 -0.5839 -0.5573  0.8426
 5942SOL     OW29287   0.357   3.133  13.853  0.6245  0.2698 -0.0305
 5942SOL    HW129288   0.293   3.096  13.914 -0.7013  1.9740 -0.4065
 5942SOL    HW229289   0.311   3.211  13.825  1.4484  0.7595 -0.0137
 5943SOL     OW29290   0.063   3.000   7.363 -0.2695  0.1195  0.2920
 5943SOL    HW129291   0.106   3.086   7.352 -0.0844  0.2569  2.1379
 5943SOL    HW229292   0.050   2.990   7.457  0.2023  0.8651  0.4387
 5944SOL     OW29293   3.250   4.691  10.118  0.5640 -0.1981 -0.3728
 5944SOL    HW129294   3.186   4.701  10.189  0.6621  1.0644 -0.4556
 5944SOL    HW229295   3.314   4.630  10.155  2.1458  1.6031 -0.1114
 5945SOL     OW29296   0.437   2.557   1.173 -0.3861  0.3791 -0.9314
 5945SOL    HW129297   0.355   2.602   1.151 -0.7269 -0.1888 -0.8153
 5945SOL    HW229298   0.464   2.529   1.086  0.9728 -1.7569  0.2010
 5946SOL     OW29299   2.927   0.409   0.318 -0.1925 -0.2005  0.4701
 5946SOL    HW129300   2.914   0.446   0.405 -0.2269  1.3649 -0.1957
 5946SOL    HW229301   2.846   0.433   0.272 -0.4912 -0.8324  0.6627
 5947SOL     OW29302   1.671   0.766   7.487  0.4696  0.1613 -0.1081
 5947SOL    HW129303   1.626   0.684   7.467  1.8369 -0.4999 -0.5397
 5947SOL    HW229304   1.633   0.787   7.572 -0.6628 -0.2630 -0.5074
 5948SOL     OW29305   1.541   2.415   0.915  0.5489  0.6420  0.1513
 5948SOL    HW129306   1.484   2.475   0.867  0.0869  2.7682  3.3355
 5948SOL    HW229307   1.507   2.330   0.888  0.8753  0.4990  0.1900
 5949SOL     OW29308   4.022   0.445   3.807 -0.0711  0.1429  0.3383
 5949SOL    HW129309   3.965   0.368   3.815  0.0124 -0.1335 -1.6623
 5949SOL    HW229310   3.964   0.514   3.839  1.9835  2.4426 -0.9469
 5950SOL     OW29311   1.061   0.604   3.577  0.3631  0.6352  0.0879
 5950SOL    HW129312   1.141   0.576   3.620  0.2636 -1.2832 -0.9647
 5950SOL    HW229313   0.997   0.574   3.641  1.0380 -1.1389 -0.0790
 5951SOL     OW29314   4.309   1.348   8.670 -0.0802  0.2814  0.0832
 5951SOL    HW129315   4.387   1.293   8.660 -1.8286 -2.1997  0.2930
 5951SOL    HW229316   4.279   1.332   8.760 -0.4863 -0.1814 -0.1359
 5952SOL     OW29317   4.436   0.866   4.273  0.3473  0.5551 -0.7917
 5952SOL    HW129318   4.428   0.961   4.279  1.9845  0.6640 -0.4010
 5952SOL    HW229319   4.344   0.843   4.262  0.3123 -0.6350  1.9001
 5953SOL     OW29320   1.910   1.492   1.998 -0.1249  0.5636  0.2132
 5953SOL    HW129321   1.832   1.535   2.032  0.7232  1.0276  1.5640
 5953SOL    HW229322   1.963   1.571   1.992  0.7777 -0.3394 -3.5603
 5954SOL     OW29323   3.587   2.538   3.223  0.2562  0.5017 -0.7030
 5954SOL    HW129324   3.594   2.626   3.184 -0.9827  0.3992 -1.1369
 5954SOL    HW229325   3.677   2.508   3.211 -0.6051 -1.4882 -2.1074
 5955SOL     OW29326   4.071   3.745   4.045 -0.0935 -0.5538  0.1188
 5955SOL    HW129327   4.072   3.711   3.955 -0.5686  1.8524 -0.7804
 5955SOL    HW229328   4.157   3.787   4.043 -0.6006  0.4167 -1.2170
 5956SOL     OW29329   0.945   1.552  15.905  0.0074 -0.0324  0.1672
 5956SOL    HW129330   0.889   1.559  15.828 -1.4566 -1.3833  1.1247
 5956SOL    HW229331   1.011   1.621  15.896  1.7508 -1.8712 -1.1615
 5957SOL     OW29332   1.321   0.569  17.630  0.4517  0.0970  0.3796
 5957SOL    HW129333   1.286   0.489  17.670  1.7045  0.2627  1.8098
 5957SOL    HW229334   1.239   0.613  17.608  2.0086  1.9541 -1.6208
 5958SOL     OW29335   1.736   3.310   4.260  0.2123 -0.1968  0.2318
 5958SOL    HW129336   1.657   3.261   4.285  0.0277 -0.8731 -1.7168
 5958SOL    HW229337   1.783   3.250   4.202  0.7733  0.2407  0.2441
 5959SOL     OW29338   1.930   3.021  11.022 -0.2601 -0.2698  0.1890
 5959SOL    HW129339   1.920   2.937  10.978 -0.7638 -0.4565  0.6595
 5959SOL    HW229340   1.985   3.009  11.100 -0.1854 -1.2540 -0.0186
 5960SOL     OW29341   2.796   0.592   7.478  0.0594  0.2917 -0.4921
 5960SOL    HW129342   2.734   0.545   7.422  0.9015 -1.9586  0.4876
 5960SOL    HW229343   2.754   0.593   7.564  0.8854 -0.9438 -0.0795
 5961SOL     OW29344   4.409   3.383   3.420  0.3486  1.0854 -0.1346
 5961SOL    HW129345   4.442   3.302   3.382 -2.1082 -0.9955  2.1927
 5961SOL    HW229346   4.432   3.379   3.513 -1.2816 -0.8669  0.1801
 5962SOL     OW29347   1.299   3.936   5.285  0.0954  0.6103 -0.4714
 5962SOL    HW129348   1.321   3.882   5.361 -1.1864 -0.0706 -0.5866
 5962SOL    HW229349   1.373   3.920   5.226 -0.3238  2.1900 -1.4409
 5963SOL     OW29350   2.429   0.635   1.634 -0.3850 -0.7126  0.2858
 5963SOL    HW129351   2.406   0.581   1.709  0.8835  1.3258  2.1347
 5963SOL    HW229352   2.519   0.614   1.609 -0.0722  0.5594  0.3448
 5964SOL     OW29353   1.928   4.664   7.708  0.4666 -0.1811  0.1759
 5964SOL    HW129354   1.870   4.661   7.632  0.5947 -2.9676  0.1859
 5964SOL    HW229355   1.880   4.620   7.778  1.1966 -1.1624  0.0495
 5965SOL     OW29356   4.384   4.415   9.012  0.1832  0.2955  0.1080
 5965SOL    HW129357   4.419   4.504   8.999 -0.2724  0.6314  1.1471
 5965SOL    HW229358   4.445   4.392   9.082  0.4549  0.1542 -0.1746
 5966SOL     OW29359   1.091   4.560   0.319 -0.6016  0.1098 -0.2902
 5966SOL    HW129360   1.170   4.557   0.265  0.2765 -2.0968  1.1296
 5966SOL    HW229361   1.125   4.522   0.400  2.2270  0.5353 -1.2581
 5967SOL     OW29362   4.432   0.227   9.786  0.1484 -0.3553  0.3011
 5967SOL    HW129363   4.520   0.199   9.763  0.2775  0.3899 -0.1408
 5967SOL    HW229364   4.438   0.280   9.866  2.1201 -0.0057 -0.0661
 5968SOL     OW29365   1.035   1.537   6.731 -0.3750  0.4265 -1.0736
 5968SOL    HW129366   1.094   1.607   6.760 -1.9448 -0.0545  3.2403
 5968SOL    HW229367   0.958   1.584   6.700 -0.2158  1.0636 -0.5085
 5969SOL     OW29368   1.733   3.883   2.369 -0.1892 -0.9643  0.5833
 5969SOL    HW129369   1.648   3.924   2.357  1.1475  1.4296 -0.7916
 5969SOL    HW229370   1.743   3.847   2.280  1.7815  4.2124 -1.3240
 5970SOL     OW29371   3.554   4.557   0.225  0.6380 -0.0836  0.5058
 5970SOL    HW129372   3.574   4.508   0.304  2.5404  0.1568  0.1555
 5970SOL    HW229373   3.500   4.627   0.261  0.2274 -1.3591  2.3521
 5971SOL     OW29374   2.272   0.271   4.537  0.2740  0.1758  0.1836
 5971SOL    HW129375   2.295   0.355   4.497  0.0154  0.1556 -0.0130
 5971SOL    HW229376   2.348   0.223   4.505 -0.5211  0.7785 -2.6956
 5972SOL     OW29377   3.384   0.835   4.393 -0.9137 -0.1707  0.5619
 5972SOL    HW129378   3.418   0.759   4.441  0.7657  0.6698  0.7128
 5972SOL    HW229379   3.333   0.875   4.463 -0.0401 -0.3192  1.2919
 5973SOL     OW29380   1.057   1.373  16.074  0.6455  0.0068  0.4501
 5973SOL    HW129381   0.994   1.305  16.047  0.7375  1.2874 -3.0186
 5973SOL    HW229382   1.034   1.444  16.014 -0.4618  0.7236  1.7260
 5974SOL     OW29383   3.654   1.284   2.145  0.2991 -0.5480  0.7424
 5974SOL    HW129384   3.704   1.319   2.072  0.2267 -2.2267 -0.1053
 5974SOL    HW229385   3.690   1.197   2.133 -0.6652 -0.7771 -0.4570
 5975SOL     OW29386   2.136   1.961   6.145 -0.9572 -0.0634  0.1785
 5975SOL    HW129387   2.228   1.937   6.131 -0.4773  0.2319  2.7939
 5975SOL    HW229388   2.106   1.976   6.055  2.6139  0.4886 -0.9509
 5976SOL     OW29389   3.565   0.999   7.586  0.5784  0.0248  0.2756
 5976SOL    HW129390   3.565   0.944   7.664 -0.0209 -1.5456 -0.8328
 5976SOL    HW229391   3.631   0.956   7.533 -1.0692 -0.9740 -0.9840
 5977SOL     OW29392   3.599   0.573   5.463 -0.5052 -0.2236 -0.3898
 5977SOL    HW129393   3.611   0.482   5.489 -1.3766  0.2972  1.8203
 5977SOL    HW229394   3.663   0.604   5.527 -3.0666  0.0475  2.0270
 5978SOL     OW29395   4.139   1.867   3.000  0.4301 -0.4307  0.2057
 5978SOL    HW129396   4.045   1.884   3.007  0.2944 -1.0964  0.0505
 5978SOL    HW229397   4.153   1.825   2.915  1.0372 -1.8449  0.9988
 5979SOL     OW29398   1.669   3.606  15.901 -0.4631 -0.0240 -0.2216
 5979SOL    HW129399   1.687   3.548  15.976  0.2539  0.7197  0.1803
 5979SOL    HW229400   1.579   3.638  15.910 -0.1141  0.0004  3.1714
 5980SOL     OW29401   0.506   0.083   6.760  0.0628  0.1816  0.4048
 5980SOL    HW129402   0.551   0.024   6.700 -0.2973 -0.7501  1.0514
 5980SOL    HW229403   0.578   0.141   6.783  0.5267  0.1088 -0.8341
 5981SOL     OW29404   1.472   1.152   7.996  0.6610  0.0231  0.0614
 5981SOL    HW129405   1.457   1.242   8.027 -1.8069 -0.0579 -0.8725
 5981SOL    HW229406   1.404   1.114   8.051 -0.1224 -0.5089 -1.2638
 5982SOL     OW29407   4.298   0.553   2.007 -0.3296  0.3806  0.0780
 5982SOL    HW129408   4.386   0.576   2.037 -0.3351  0.3682  0.1033
 5982SOL    HW229409   4.270   0.507   2.086  0.5442  1.3178  0.9272
 5983SOL     OW29410   4.619   0.383   4.562  0.1609  0.3938 -0.2196
 5983SOL    HW129411   4.524   0.388   4.571  0.1642 -1.5171  0.9795
 5983SOL    HW229412   4.649   0.307   4.612 -1.9326  0.9413  1.8631
 5984SOL     OW29413   0.239   0.358   0.602  0.5155  0.2947 -0.4536
 5984SOL    HW129414   0.188   0.333   0.679  2.1191  0.8099  0.7711
 5984SOL    HW229415   0.169   0.416   0.571  0.3111 -1.1424 -2.6454
 5985SOL     OW29416   4.502   3.213   4.154 -0.3380  0.3297  0.4152
 5985SOL    HW129417   4.559   3.286   4.178  1.1735 -0.3487 -1.1290
 5985SOL    HW229418   4.505   3.163   4.235 -0.4213  2.8072  1.9228
 5986SOL     OW29419   1.652   1.673   4.549 -0.1368 -0.2734  0.5052
 5986SOL    HW129420   1.743   1.662   4.521  0.0553 -2.7063  2.0399
 5986SOL    HW229421   1.655   1.759   4.590 -1.5100 -0.0475  0.1332
 5987SOL     OW29422   0.025   0.732   8.044 -0.3301 -0.2434  0.6907
 5987SOL    HW129423   0.094   0.671   8.019 -1.0163 -1.0786  0.8135
 5987SOL    HW229424   4.667   0.678   8.036 -0.4394 -0.1079  0.8445
 5988SOL     OW29425   2.402   0.142   7.247  0.4693 -0.7879 -0.5599
 5988SOL    HW129426   2.489   0.149   7.287  0.2771  0.1909 -0.3241
 5988SOL    HW229427   2.408   0.101   7.160 -0.5388 -0.7344 -0.6543
 5989SOL     OW29428   4.517   1.847   4.495  0.0866  0.3042 -0.6093
 5989SOL    HW129429   4.511   1.863   4.401  1.5871 -0.8393 -0.8938
 5989SOL    HW229430   4.473   1.915   4.546 -1.4042 -0.8193 -0.3807
 5990SOL     OW29431   0.377   2.198   2.402  0.4078 -0.2029  0.3367
 5990SOL    HW129432   0.283   2.179   2.397  0.0207  1.6048  0.8389
 5990SOL    HW229433   0.403   2.106   2.402  0.9392 -0.0621 -0.8251
 5991SOL     OW29434   0.269   0.783   8.191  0.1367 -0.2028  0.1579
 5991SOL    HW129435   0.247   0.794   8.098 -0.7449  0.4914  0.4604
 5991SOL    HW229436   0.322   0.703   8.195  1.9322  0.8214 -2.7950
 5992SOL     OW29437   1.820   4.001   3.233  0.0130 -0.0886 -0.1006
 5992SOL    HW129438   1.910   3.972   3.241 -1.2962 -3.4102  2.4796
 5992SOL    HW229439   1.806   4.050   3.313 -3.0560  0.0637 -0.7114
 5993SOL     OW29440   4.150   4.198   8.971 -0.5034  0.0228  0.2803
 5993SOL    HW129441   4.199   4.264   9.019 -1.0500  2.5299 -2.6045
 5993SOL    HW229442   4.215   4.172   8.906  0.0601 -1.3305  1.4034
 5994SOL     OW29443   4.069   0.132  15.283 -0.0647  0.1459 -0.4735
 5994SOL    HW129444   3.982   0.169  15.298  0.8086  0.3943  3.9184
 5994SOL    HW229445   4.086   0.167  15.195 -0.8111  1.1023 -0.2419
 5995SOL     OW29446   1.747   0.085  10.483  0.1895  0.8431  0.4007
 5995SOL    HW129447   1.834   0.115  10.455  0.6474 -1.5058 -0.6683
 5995SOL    HW229448   1.767   4.713  10.480 -0.4030  0.6649  2.3840
 5996SOL     OW29449   2.270   2.763   5.359 -0.3384 -0.0199 -0.1154
 5996SOL    HW129450   2.286   2.674   5.328 -1.7162 -0.2125 -0.2407
 5996SOL    HW229451   2.319   2.815   5.295  3.4460 -1.6469  1.4468
 5997SOL     OW29452   3.538   3.599   6.599 -0.5258  0.4661 -0.3001
 5997SOL    HW129453   3.526   3.565   6.687 -0.5865  1.2469 -0.0008
 5997SOL    HW229454   3.628   3.631   6.606 -0.0824  0.0286 -3.5639
 5998SOL     OW29455   1.720   3.773   2.703  0.6758  0.2772 -0.0736
 5998SOL    HW129456   1.731   3.861   2.665  0.9389 -0.0940 -0.8472
 5998SOL    HW229457   1.806   3.771   2.745 -0.3625  1.5016  2.1060
 5999SOL     OW29458   0.872   2.182  14.502 -0.2588  0.1937 -0.4275
 5999SOL    HW129459   0.781   2.188  14.533 -0.9245  1.1377 -2.5400
 5999SOL    HW229460   0.859   2.131  14.421 -2.0210  0.0305 -0.0484
 6000SOL     OW29461   4.559   4.326  16.205  0.5124 -0.2475  0.1313
 6000SOL    HW129462   4.626   4.285  16.151  1.1288 -0.3942  1.0179
 6000SOL    HW229463   4.557   4.411  16.160  2.0619 -0.5826 -0.5640
 6001SOL     OW29464   1.076   3.849   6.017  0.0184  0.1632 -0.1174
 6001SOL    HW129465   0.983   3.844   5.992  0.9657 -2.2221 -3.2706
 6001SOL    HW229466   1.062   3.846   6.111  0.4026  1.7915 -0.0000
 6002SOL     OW29467   1.515   3.324   6.473 -0.3143  0.1145 -0.5835
 6002SOL    HW129468   1.425   3.323   6.441 -1.7260  0.2738  3.2788
 6002SOL    HW229469   1.497   3.289   6.561 -2.3950 -1.1746 -1.5169
 6003SOL     OW29470   4.428   3.571   6.978 -0.4075 -0.0414 -0.0183
 6003SOL    HW129471   4.399   3.549   7.067 -0.1465  0.9647  0.3196
 6003SOL    HW229472   4.366   3.523   6.924 -1.4381 -0.8662  1.8833
 6004SOL     OW29473   0.191   2.890   9.066  0.1829  0.3735  0.2046
 6004SOL    HW129474   0.171   2.983   9.072 -1.6721 -0.0543  0.5265
 6004SOL    HW229475   0.115   2.854   9.112 -0.8201  0.5815 -1.2671
 6005SOL     OW29476   3.420   1.807  10.343 -0.6824 -0.1261 -0.0818
 6005SOL    HW129477   3.454   1.752  10.414 -1.5958 -0.7409 -0.1196
 6005SOL    HW229478   3.334   1.776  10.314 -0.1123 -0.7544 -1.0813
 6006SOL     OW29479   4.461   0.704   3.968  0.0913  0.5735 -0.0962
 6006SOL    HW129480   4.406   0.770   3.924  1.2102  0.9369 -0.9515
 6006SOL    HW229481   4.543   0.746   3.991  0.2743  0.2730 -0.2060
 6007SOL     OW29482   1.757   0.628   5.866  0.6001 -0.4151  0.8574
 6007SOL    HW129483   1.790   0.715   5.890 -2.0401  1.1426 -1.1273
 6007SOL    HW229484   1.794   0.616   5.778  1.0051 -1.7520  1.2100
 6008SOL     OW29485   3.817   2.769   5.062 -0.0903  0.1093  0.6951
 6008SOL    HW129486   3.857   2.735   4.982 -3.4460 -2.0719 -0.0527
 6008SOL    HW229487   3.861   2.724   5.135  1.9282  0.1547 -0.4847
 6009SOL     OW29488   0.054   3.145   9.068 -0.5418 -0.2460 -0.3947
 6009SOL    HW129489   0.046   3.191   9.152  0.7776 -1.7327  0.5431
 6009SOL    HW229490   4.681   3.144   9.048  0.0260  1.0216 -3.0708
 6010SOL     OW29491   0.255   0.088   6.874 -0.0498 -0.0310 -0.1856
 6010SOL    HW129492   0.342   0.098   6.837  0.7257 -1.4851  1.2673
 6010SOL    HW229493   0.255   0.173   6.919 -1.1002  0.0354 -0.3047
 6011SOL     OW29494   2.877   4.050   8.389 -0.3401  0.1398  0.1722
 6011SOL    HW129495   2.891   4.092   8.304  0.9518 -1.1914 -0.2716
 6011SOL    HW229496   2.846   4.123   8.442  0.2051 -1.3095  2.4783
 6012SOL     OW29497   2.857   0.489  12.402  0.0839  0.1823 -0.7942
 6012SOL    HW129498   2.829   0.570  12.360  0.6713  0.1138 -1.3102
 6012SOL    HW229499   2.772   0.446  12.393 -0.5838  1.3569 -0.0541
 6013SOL     OW29500   1.867   1.369   1.206  0.0552  0.4275 -0.2137
 6013SOL    HW129501   1.832   1.281   1.213 -1.3895  0.9294 -1.1699
 6013SOL    HW229502   1.892   1.384   1.115  0.8281  1.3056  0.1317
 6014SOL     OW29503   2.398   1.581   7.749 -0.0966  0.2956 -0.3907
 6014SOL    HW129504   2.390   1.634   7.828 -0.6271  1.4451 -1.2057
 6014SOL    HW229505   2.365   1.638   7.678  1.1594  0.3691 -0.9088
 6015SOL     OW29506   1.028   4.080   1.982  0.1266  0.0887 -0.1797
 6015SOL    HW129507   1.064   4.021   2.048 -3.9703 -1.4775  0.6352
 6015SOL    HW229508   1.029   4.160   2.035  2.1758  1.1219 -1.7955
 6016SOL     OW29509   0.858   1.394   3.095 -0.2361  0.5289  0.6664
 6016SOL    HW129510   0.800   1.370   3.022 -0.9328  3.7605  0.1805
 6016SOL    HW229511   0.889   1.305   3.114 -2.1687 -0.4132 -0.5002
 6017SOL     OW29512   0.848   1.196  11.919 -0.0174 -0.0436 -0.3960
 6017SOL    HW129513   0.759   1.181  11.949  0.3501 -0.2668  0.5871
 6017SOL    HW229514   0.854   1.289  11.939  0.4371 -0.2940  0.6013
 6018SOL     OW29515   0.100   4.263  15.124  0.4337  0.2505  0.8930
 6018SOL    HW129516   0.070   4.172  15.119  1.5141 -0.0235 -0.4464
 6018SOL    HW229517   0.011   4.297  15.132 -0.0115 -0.8040  0.3191
 6019SOL     OW29518   1.823   1.051   8.493 -0.5113  0.1711 -0.2746
 6019SOL    HW129519   1.779   1.111   8.553  0.6333  1.3351 -0.6004
 6019SOL    HW229520   1.831   1.106   8.415 -0.9739  1.1425  0.3687
 6020SOL     OW29521   1.883   3.077  13.034  0.7135  0.8173  0.1491
 6020SOL    HW129522   1.865   3.015  13.105  0.8788  2.5143  1.6478
 6020SOL    HW229523   1.948   3.138  13.067  1.9293 -0.9774  1.0920
 6021SOL     OW29524   2.322   3.406   3.806  0.5282 -0.0716  0.3513
 6021SOL    HW129525   2.256   3.475   3.808  0.6142  0.0349 -0.7760
 6021SOL    HW229526   2.375   3.439   3.733  0.9344 -1.3869  0.0482
 6022SOL     OW29527   4.055   2.908   8.410 -0.0566 -0.2630 -0.0817
 6022SOL    HW129528   4.021   2.973   8.349  1.1539 -0.5862 -1.1176
 6022SOL    HW229529   4.149   2.913   8.392 -0.3869 -1.2371 -2.1510
 6023SOL     OW29530   2.104   1.229  16.762  0.1334 -0.1659 -0.6442
 6023SOL    HW129531   2.175   1.283  16.795  0.0724 -1.3664  1.4824
 6023SOL    HW229532   2.085   1.184  16.844  0.7850  0.1813 -0.3102
 6024SOL     OW29533   1.795   3.450   1.755  0.2696 -0.0969 -0.0001
 6024SOL    HW129534   1.742   3.377   1.722  0.5239 -0.1235 -0.3452
 6024SOL    HW229535   1.832   3.478   1.671 -1.4601  1.3542 -0.2831
 6025SOL     OW29536   2.484   4.625   3.390  0.6138 -0.1173  0.3337
 6025SOL    HW129537   2.455   4.674   3.467  0.7409 -0.6357  0.7127
 6025SOL    HW229538   2.406   4.569   3.384  1.2461 -0.7830 -1.7226
 6026SOL     OW29539   4.155   3.736   0.258  0.0840 -0.0425 -0.3054
 6026SOL    HW129540   4.135   3.655   0.304 -0.7900 -1.2021 -2.7025
 6026SOL    HW229541   4.248   3.721   0.240  0.1535  0.4744 -0.3867
 6027SOL     OW29542   3.220   2.135   5.925 -0.3735 -0.0016  0.1193
 6027SOL    HW129543   3.147   2.196   5.917 -0.6757 -0.5014 -0.8368
 6027SOL    HW229544   3.294   2.195   5.915 -0.0510 -0.3690  0.2800
 6028SOL     OW29545   1.240   2.329   3.907  0.5482 -0.1313 -0.0074
 6028SOL    HW129546   1.210   2.415   3.877 -1.3049 -0.9206 -0.4084
 6028SOL    HW229547   1.200   2.322   3.993  0.7761  1.2321  0.2055
 6029SOL     OW29548   3.864   2.869   0.793  0.0737 -0.2642 -0.0064
 6029SOL    HW129549   3.870   2.905   0.881  3.9364 -1.0030  0.0522
 6029SOL    HW229550   3.780   2.887   0.752 -0.4055  2.4180  2.1884
 6030SOL     OW29551   0.945   4.572   2.978  0.2911  0.7193 -0.2158
 6030SOL    HW129552   0.969   4.651   2.931 -0.1920  0.6496 -0.5800
 6030SOL    HW229553   0.968   4.591   3.069  1.1683  0.1716 -0.3231
 6031SOL     OW29554   4.300   2.779  15.784 -0.4389  0.0348 -0.0782
 6031SOL    HW129555   4.222   2.749  15.831 -1.3425  2.2895 -0.1013
 6031SOL    HW229556   4.372   2.738  15.832 -0.8230 -1.8766 -1.1695
 6032SOL     OW29557   2.561   3.451   8.982 -0.0540  0.3531 -0.1715
 6032SOL    HW129558   2.528   3.474   9.069  1.4673 -0.2859  0.5625
 6032SOL    HW229559   2.479   3.448   8.932  0.8098  0.0840 -1.5812
 6033SOL     OW29560   1.003   3.204   3.191 -0.4634  0.2253  0.3595
 6033SOL    HW129561   0.971   3.179   3.104 -0.5623 -0.1959  0.5190
 6033SOL    HW229562   1.003   3.300   3.193  4.1875  0.2547 -2.5912
 6034SOL     OW29563   3.344   3.193   5.204  0.5287 -0.3074  0.0200
 6034SOL    HW129564   3.370   3.216   5.115  0.3270  1.4531  0.4211
 6034SOL    HW229565   3.259   3.156   5.180 -1.2851  2.1017  2.7797
 6035SOL     OW29566   3.314   1.054   2.714 -0.0708 -0.1796  0.3332
 6035SOL    HW129567   3.287   1.118   2.648  0.5766 -0.0812  0.1536
 6035SOL    HW229568   3.408   1.053   2.693 -0.3910  1.3023 -1.1958
 6036SOL     OW29569   3.064   3.440   9.601 -0.3001  0.2086  0.2378
 6036SOL    HW129570   3.008   3.366   9.582  0.2359 -0.2844  0.5860
 6036SOL    HW229571   3.065   3.478   9.514 -0.7570 -0.1281  0.0891
 6037SOL     OW29572   1.383   4.218   7.969 -0.0387 -0.1474 -0.4056
 6037SOL    HW129573   1.416   4.216   7.880 -1.9530 -0.5878 -1.0978
 6037SOL    HW229574   1.308   4.158   7.972 -0.3768  0.2758 -0.2905
 6038SOL     OW29575   2.116   3.596   3.808 -0.3511 -0.2419 -0.1819
 6038SOL    HW129576   2.086   3.570   3.721 -1.8464  1.6173 -0.2150
 6038SOL    HW229577   2.055   3.554   3.869 -0.4767  0.3071  0.0724
 6039SOL     OW29578   1.355   0.356  17.025  0.5857  0.2895  0.2526
 6039SOL    HW129579   1.444   0.356  16.991  0.0650  0.9900 -1.0810
 6039SOL    HW229580   1.371   0.322  17.113  0.5434 -2.0499 -0.6493
 6040SOL     OW29581   4.058   3.854  15.070  0.5399  0.2448  0.2154
 6040SOL    HW129582   4.095   3.862  15.157 -1.2266  0.3318  0.9705
 6040SOL    HW229583   3.985   3.916  15.073 -1.1593 -1.5837 -2.5608
 6041SOL     OW29584   2.105   3.014   9.338  0.3050 -0.1437 -0.0395
 6041SOL    HW129585   2.129   2.945   9.400 -1.3104  0.8561  1.7110
 6041SOL    HW229586   2.126   3.100   9.375  1.5442 -0.9406  1.1220
 6042SOL     OW29587   3.621   1.148  16.058 -0.2115  0.5527  0.0033
 6042SOL    HW129588   3.566   1.138  15.980  3.3997 -1.6873 -2.2457
 6042SOL    HW229589   3.575   1.222  16.098  0.3842 -0.7039  3.0293
 6043SOL     OW29590   0.803   4.283  12.297 -0.5951  0.1217 -0.5065
 6043SOL    HW129591   0.830   4.314  12.383 -2.3234 -1.1549  0.5127
 6043SOL    HW229592   0.874   4.223  12.277 -0.7808 -0.5050  0.7082
 6044SOL     OW29593   1.888   3.387   7.447 -0.2048 -0.9631  0.1070
 6044SOL    HW129594   1.883   3.392   7.542 -0.2016 -0.4839  0.0785
 6044SOL    HW229595   1.891   3.292   7.432 -3.2497 -1.1465  0.5723
 6045SOL     OW29596   0.842   4.007  11.688  0.0199  0.5774 -0.5187
 6045SOL    HW129597   0.919   3.950  11.682 -1.0086 -0.9062  0.1501
 6045SOL    HW229598   0.844   4.017  11.783  0.3338  2.6432 -0.7464
 6046SOL     OW29599   3.864   3.087   1.320  0.8572 -0.2629 -0.2891
 6046SOL    HW129600   3.792   3.052   1.372  2.2554 -0.8217  1.2668
 6046SOL    HW229601   3.807   3.117   1.250 -1.1001 -1.1196  0.9337
 6047SOL     OW29602   0.637   1.465   9.639 -0.1153  0.1479 -0.2650
 6047SOL    HW129603   0.609   1.404   9.571  2.6196  1.0303 -2.1678
 6047SOL    HW229604   0.724   1.435   9.666 -0.0109 -0.3375 -1.1381
 6048SOL     OW29605   0.193   3.721  14.327  0.1700  0.0208  0.0920
 6048SOL    HW129606   0.160   3.799  14.373 -0.5585  0.0810 -0.5287
 6048SOL    HW229607   0.109   3.691  14.293 -0.3151 -0.1200  1.4108
 6049SOL     OW29608   3.408   2.912  14.879 -0.4249 -0.0494 -0.0134
 6049SOL    HW129609   3.346   2.874  14.941  2.2765  1.4595  3.6698
 6049SOL    HW229610   3.438   2.827  14.847  0.5533  0.4617 -0.4406
 6050SOL     OW29611   0.085   1.557   3.075 -0.6775  0.4678 -0.3421
 6050SOL    HW129612   0.131   1.590   3.152  1.2335 -0.1045 -1.2456
 6050SOL    HW229613   0.040   1.633   3.036 -0.5265  0.2255 -0.9990
 6051SOL     OW29614   2.752   3.088   4.363  0.0904 -0.3506 -0.0985
 6051SOL    HW129615   2.705   3.127   4.289 -2.1009 -1.6791  0.5627
 6051SOL    HW229616   2.702   3.008   4.379  0.2746 -0.2655  0.8834
 6052SOL     OW29617   3.379   2.985   0.185  0.1688  0.5681 -0.2939
 6052SOL    HW129618   3.331   2.903   0.194  1.5129 -0.0114  1.5608
 6052SOL    HW229619   3.340   3.021   0.105 -0.4613 -0.2879 -0.3635
 6053SOL     OW29620   0.763   3.364  10.306 -0.3137 -0.0411  0.5572
 6053SOL    HW129621   0.771   3.459  10.294  3.0108 -0.1105  2.2143
 6053SOL    HW229622   0.689   3.347  10.248 -0.9229 -0.6527  1.5214
 6054SOL     OW29623   2.832   3.756   9.494  0.2445  0.1184 -0.5308
 6054SOL    HW129624   2.785   3.805   9.426 -1.1515  3.0548  2.5754
 6054SOL    HW229625   2.922   3.787   9.483  0.6313 -0.8165  0.0309
 6055SOL     OW29626   1.440   0.315  15.741 -0.1744  0.4595 -0.4166
 6055SOL    HW129627   1.381   0.292  15.669  1.3851  0.3431 -1.6672
 6055SOL    HW229628   1.425   0.410  15.747 -0.9892  0.4664 -2.4414
 6056SOL     OW29629   1.115   4.195   5.055  0.1797 -0.4204  0.6006
 6056SOL    HW129630   1.022   4.176   5.043  0.2385 -0.4556  0.1748
 6056SOL    HW229631   1.148   4.155   4.974 -1.4323 -0.3196 -0.1044
 6057SOL     OW29632   2.314   0.889   9.640 -0.2310  0.5222  0.1359
 6057SOL    HW129633   2.273   0.961   9.592 -2.7177 -0.8903  0.1101
 6057SOL    HW229634   2.387   0.875   9.580 -1.3747  2.1067 -1.6076
 6058SOL     OW29635   0.964   2.308   1.826  0.4202  0.8001  0.2361
 6058SOL    HW129636   0.988   2.400   1.815  0.4316  0.4158 -2.9654
 6058SOL    HW229637   1.006   2.273   1.748  0.1110  1.8599 -0.4104
 6059SOL     OW29638   1.801   3.871   9.985 -0.0135 -0.2808 -0.1791
 6059SOL    HW129639   1.794   3.860   9.890  2.0657  0.1532 -0.3927
 6059SOL    HW229640   1.779   3.786  10.022 -1.3947 -0.7028 -1.9438
 6060SOL     OW29641   0.714   0.167  10.641 -0.5568  0.4168 -0.1792
 6060SOL    HW129642   0.754   0.250  10.615  0.0639  0.0541 -0.3914
 6060SOL    HW229643   0.786   0.108  10.667  0.3059  0.5293 -2.3396
 6061SOL     OW29644   3.503   2.090   9.557  0.0662 -0.0755  0.1371
 6061SOL    HW129645   3.578   2.087   9.498 -0.7379  3.6259 -1.0747
 6061SOL    HW229646   3.550   2.103   9.639  0.9455 -0.1894 -0.3524
 6062SOL     OW29647   4.546   4.451   3.938 -0.5175 -0.2226 -1.0456
 6062SOL    HW129648   4.520   4.542   3.921  2.8746  0.7004 -1.3013
 6062SOL    HW229649   4.473   4.420   3.992  0.0597 -0.8553 -0.6317
 6063SOL     OW29650   3.763   2.047   9.725  0.5960 -0.2593  0.2974
 6063SOL    HW129651   3.767   2.086   9.812  0.1016 -0.6708  0.5028
 6063SOL    HW229652   3.794   1.958   9.736  0.9790 -0.0764  0.6736
 6064SOL     OW29653   3.619   1.824  12.152  0.4706  0.4152 -0.2976
 6064SOL    HW129654   3.624   1.805  12.245  1.1857  2.5950  0.0951
 6064SOL    HW229655   3.664   1.908  12.153 -1.0437  1.2410 -1.1786
 6065SOL     OW29656   1.472   3.308  16.520 -0.0498 -0.3133  0.2271
 6065SOL    HW129657   1.503   3.395  16.545 -0.6387  0.0357 -0.2523
 6065SOL    HW229658   1.445   3.319  16.429 -1.2611  0.2150  0.6569
 6066SOL     OW29659   1.797   1.871   8.729 -0.0263 -0.7700  0.0932
 6066SOL    HW129660   1.798   1.802   8.663 -3.1188 -0.0354 -0.7265
 6066SOL    HW229661   1.759   1.826   8.805  0.5190 -0.0482  0.7861
 6067SOL     OW29662   1.839   2.327  17.513 -0.4841 -0.0529 -0.2980
 6067SOL    HW129663   1.864   2.274  17.438  0.1813 -0.2138  0.0427
 6067SOL    HW229664   1.836   2.249  17.568 -3.8423  0.6600  0.5885
 6068SOL     OW29665   4.312   2.144   1.206  0.4308  0.0285 -0.3485
 6068SOL    HW129666   4.329   2.069   1.262  0.0476  0.4094  0.2805
 6068SOL    HW229667   4.227   2.166   1.244  0.0727 -0.3303 -0.9422
 6069SOL     OW29668   0.498   0.683   4.239 -0.4221 -0.3899  0.4625
 6069SOL    HW129669   0.451   0.674   4.322 -0.6164 -1.5047  0.2357
 6069SOL    HW229670   0.499   0.777   4.221 -1.6222 -0.7122 -1.2418
 6070SOL     OW29671   1.586   3.641   8.448 -0.3975  0.3397 -0.3510
 6070SOL    HW129672   1.563   3.637   8.355  2.4856 -1.2316 -1.0164
 6070SOL    HW229673   1.512   3.691   8.482 -1.0584 -0.6976 -0.2656
 6071SOL     OW29674   4.134   2.604   2.535 -0.2450 -0.3730 -0.1059
 6071SOL    HW129675   4.103   2.526   2.582 -0.5981  0.0023  0.2807
 6071SOL    HW229676   4.212   2.566   2.496  0.9973  1.0784  0.9802
 6072SOL     OW29677   4.545   0.296  15.540  0.0243  0.1371  0.0600
 6072SOL    HW129678   4.633   0.323  15.569  0.0176 -0.6640  0.7967
 6072SOL    HW229679   4.507   0.255  15.617  1.0185  1.9957  1.5663
 6073SOL     OW29680   3.504   0.638   6.745  0.6417 -0.1968  0.0721
 6073SOL    HW129681   3.442   0.631   6.817 -2.2997 -0.3456 -2.4844
 6073SOL    HW229682   3.537   0.728   6.749  1.4656 -0.4879 -0.2903
 6074SOL     OW29683   0.834   3.389   1.793 -0.1459  0.0558  0.2299
 6074SOL    HW129684   0.787   3.309   1.768  1.5487 -0.7097 -0.4654
 6074SOL    HW229685   0.772   3.459   1.771 -0.2296  0.0454  0.4381
 6075SOL     OW29686   1.443   1.710   6.876 -0.1739 -0.2892  0.6262
 6075SOL    HW129687   1.485   1.718   6.961 -1.5114  2.3896  1.0331
 6075SOL    HW229688   1.468   1.623   6.846  2.0713  0.4976  0.2475
 6076SOL     OW29689   1.060   3.843  11.736  0.3687  0.6200  0.7858
 6076SOL    HW129690   1.150   3.871  11.751  0.9459 -0.7835 -0.0594
 6076SOL    HW229691   1.051   3.795  11.818 -1.0284 -0.0272  0.2588
 6077SOL     OW29692   3.214   3.491   9.929  0.6531 -0.0734 -0.4987
 6077SOL    HW129693   3.278   3.431   9.968  0.5213 -0.5862 -1.0721
 6077SOL    HW229694   3.207   3.548  10.006 -0.5263 -0.6892 -0.1420
 6078SOL     OW29695   1.331   0.867   6.351  0.1138 -0.1467  0.2097
 6078SOL    HW129696   1.311   0.959   6.369 -1.0972 -0.8028  2.2065
 6078SOL    HW229697   1.298   0.854   6.262  2.5187  0.6785 -0.7909
 6079SOL     OW29698   2.488   2.106   6.991  0.0208  0.7391  0.7199
 6079SOL    HW129699   2.509   2.154   7.071  0.9868  0.6408  0.5177
 6079SOL    HW229700   2.514   2.019   7.021 -0.4145  0.4583  0.2781
 6080SOL     OW29701   4.055   3.387  14.640 -0.2120 -0.0109 -0.3460
 6080SOL    HW129702   4.079   3.350  14.725 -1.5196 -2.8802 -1.2210
 6080SOL    HW229703   4.018   3.472  14.663 -0.0394 -0.0837  0.1962
 6081SOL     OW29704   1.401   3.351  16.931  0.1788  0.1318 -0.4311
 6081SOL    HW129705   1.447   3.269  16.949 -0.4679 -0.6456 -2.3817
 6081SOL    HW229706   1.380   3.349  16.838 -1.1510  1.9089 -0.1717
 6082SOL     OW29707   0.411   0.662   2.445 -0.4029  0.0216 -0.1455
 6082SOL    HW129708   0.325   0.672   2.403  0.2108 -0.3372 -1.4816
 6082SOL    HW229709   0.460   0.730   2.400  0.7929 -2.6316 -2.8667
 6083SOL     OW29710   0.699   0.110   9.962 -0.4563  0.1006 -0.2935
 6083SOL    HW129711   0.734   0.182  10.014  0.8910 -1.0270  0.3859
 6083SOL    HW229712   0.626   0.084  10.018 -1.7392  2.3084 -0.9594
 6084SOL     OW29713   0.569   2.412   3.587  0.2519 -0.1255  0.0318
 6084SOL    HW129714   0.586   2.322   3.559  0.9054  0.0007  0.0264
 6084SOL    HW229715   0.597   2.402   3.678  0.4124 -1.2014 -0.1344
 6085SOL     OW29716   1.517   4.598  16.910 -0.3607 -0.4554  0.3168
 6085SOL    HW129717   1.582   4.633  16.848 -0.0817 -1.4480  0.0468
 6085SOL    HW229718   1.560   4.523  16.950 -1.5476 -1.6403 -0.6468
 6086SOL     OW29719   0.942   3.649  15.850 -0.2955 -1.3203 -0.5989
 6086SOL    HW129720   0.978   3.694  15.774  0.9486 -0.7031  0.3541
 6086SOL    HW229721   0.951   3.557  15.825  1.5323 -0.8600 -1.5704
 6087SOL     OW29722   1.079   0.567   3.017  0.2752  0.2718 -0.3751
 6087SOL    HW129723   1.024   0.641   3.046 -0.7961 -0.2104 -1.1611
 6087SOL    HW229724   1.082   0.582   2.923  0.0363  0.4568 -0.3555
 6088SOL     OW29725   3.162   3.343   7.869  0.1636 -0.2521 -0.4151
 6088SOL    HW129726   3.153   3.269   7.930  3.1842  0.6075  1.1038
 6088SOL    HW229727   3.227   3.310   7.807 -0.2176 -0.3458 -0.7662
 6089SOL     OW29728   3.019   4.689   4.364 -0.1930  0.4747  0.0375
 6089SOL    HW129729   3.024   0.053   4.318 -2.7593  1.1276  0.9941
 6089SOL    HW229730   2.967   4.637   4.304 -1.2434  1.8852 -0.2657
 6090SOL     OW29731   0.119   3.760   8.467 -0.4324  0.3179 -0.2020
 6090SOL    HW129732   0.067   3.680   8.473  0.0339 -0.2739 -3.6816
 6090SOL    HW229733   0.187   3.745   8.532 -0.3621 -0.7701 -0.5206
 6091SOL     OW29734   3.030   3.243   5.837 -0.4712 -0.1405  0.7804
 6091SOL    HW129735   2.967   3.233   5.908 -2.5654  3.6358 -0.5610
 6091SOL    HW229736   3.019   3.330   5.797  4.1400  0.7369  1.3879
 6092SOL     OW29737   3.889   3.535  16.916 -0.3145 -0.8059 -0.3391
 6092SOL    HW129738   3.910   3.449  16.880  0.7722 -1.0855  0.9741
 6092SOL    HW229739   3.968   3.589  16.913 -1.0987  0.3414 -0.1129
 6093SOL     OW29740   0.996   3.921   0.042 -0.3936  0.0185  0.2736
 6093SOL    HW129741   0.976   4.011   0.068  1.9879  0.4264  0.6993
 6093SOL    HW229742   1.027   3.883   0.123  0.2991  0.4842  0.2299
 6094SOL     OW29743   2.220   4.293   8.081  0.1665  0.4631 -0.2398
 6094SOL    HW129744   2.287   4.286   8.014  1.7774  0.4280  1.3800
 6094SOL    HW229745   2.254   4.224   8.137  1.2268  1.3438  0.2107
 6095SOL     OW29746   4.665   0.974   1.846 -0.7922 -0.0546  0.2573
 6095SOL    HW129747   0.037   0.998   1.841 -0.6547 -0.5818  0.2526
 6095SOL    HW229748   4.627   1.014   1.768  0.0492  0.3520  0.0510
 6096SOL     OW29749   0.076   3.788   1.658 -0.3668 -0.2964 -0.6827
 6096SOL    HW129750   0.089   3.697   1.631  0.7624 -0.7392  1.3622
 6096SOL    HW229751   0.005   3.770   1.720  0.5648  0.1521  0.5147
 6097SOL     OW29752   4.317   3.482   1.235  0.4683 -0.0738  0.3113
 6097SOL    HW129753   4.261   3.416   1.277 -1.1940  0.5482 -0.9332
 6097SOL    HW229754   4.269   3.564   1.247 -2.2138 -1.9755  2.5764
 6098SOL     OW29755   3.756   3.084   8.783  0.1128 -0.0746 -0.5366
 6098SOL    HW129756   3.716   3.047   8.704 -1.6359 -0.1603  0.3816
 6098SOL    HW229757   3.754   3.179   8.772  0.1977  0.1320  1.2128
 6099SOL     OW29758   3.923   3.658  10.913  0.2902 -0.3440  0.1280
 6099SOL    HW129759   3.870   3.735  10.892 -1.4674 -1.7855 -0.7399
 6099SOL    HW229760   3.977   3.693  10.984 -0.4552 -0.7851  0.9234
 6100SOL     OW29761   3.166   0.550  13.782  0.0652  0.0238 -0.1736
 6100SOL    HW129762   3.229   0.486  13.813 -0.3977 -0.4833 -0.2822
 6100SOL    HW229763   3.122   0.498  13.715 -0.4731  0.2966 -0.0354
 6101SOL     OW29764   3.655   2.844   9.192 -0.4695  0.5954 -0.0274
 6101SOL    HW129765   3.668   2.937   9.174 -1.3481  0.3631 -1.8367
 6101SOL    HW229766   3.572   2.839   9.239 -0.3968 -2.2433 -0.1858
 6102SOL     OW29767   1.792   2.216   4.699  0.1914  0.5404 -0.3318
 6102SOL    HW129768   1.848   2.177   4.633  1.1787  1.1327  0.1554
 6102SOL    HW229769   1.711   2.203   4.650  1.2537  0.7618 -2.1713
 6103SOL     OW29770   2.675   2.227   2.102 -0.2156  0.1306  0.1584
 6103SOL    HW129771   2.605   2.262   2.045  0.5220  0.5824 -0.4696
 6103SOL    HW229772   2.735   2.301   2.105  0.7304 -0.5797 -1.4033
 6104SOL     OW29773   1.905   4.441   3.432  0.1292  0.5913  0.4327
 6104SOL    HW129774   1.938   4.507   3.492  1.6053 -2.9475  3.4894
 6104SOL    HW229775   1.891   4.493   3.353  0.1917 -0.4826 -0.2970
 6105SOL     OW29776   1.482   1.162   5.307 -0.2099 -0.2005 -0.7767
 6105SOL    HW129777   1.484   1.067   5.319 -1.8075 -0.1548 -0.2178
 6105SOL    HW229778   1.396   1.190   5.337  0.5056  0.1129  0.9962
 6106SOL     OW29779   0.664   0.405   8.091  0.0175 -0.3514 -0.1106
 6106SOL    HW129780   0.655   0.355   8.010  0.0206 -0.4328 -0.0610
 6106SOL    HW229781   0.620   0.345   8.151 -0.9304 -2.6295 -3.0676
 6107SOL     OW29782   4.288   1.137  11.848  0.4176 -0.1737  0.1116
 6107SOL    HW129783   4.329   1.165  11.930  0.3774 -2.9639  1.0735
 6107SOL    HW229784   4.337   1.196  11.791 -1.5192  0.3978 -0.9658
 6108SOL     OW29785   4.620   2.794   6.189 -0.2907 -0.3589 -0.5619
 6108SOL    HW129786   4.592   2.713   6.233  0.7691  1.0188  2.6784
 6108SOL    HW229787   4.536   2.839   6.176 -1.2262 -2.3158 -1.2765
 6109SOL     OW29788   4.597   4.039  16.364 -0.4825 -0.1267  0.1547
 6109SOL    HW129789   4.543   4.117  16.371  0.0151 -0.0235  2.7941
 6109SOL    HW229790   4.548   4.003  16.290 -1.2895  0.3228  0.4750
 6110SOL     OW29791   1.098   1.775  14.820 -0.4791 -0.7072  0.2863
 6110SOL    HW129792   1.146   1.693  14.833 -0.5734 -0.3570  2.8402
 6110SOL    HW229793   1.020   1.752  14.871 -0.4092 -0.3976  0.5307
 6111SOL     OW29794   0.504   4.671   1.731  0.1576  0.2521 -0.2271
 6111SOL    HW129795   0.565   4.686   1.659 -1.3207  1.3472 -1.2513
 6111SOL    HW229796   0.472   4.584   1.709  1.5893  0.0950 -1.6963
 6112SOL     OW29797   4.209   2.082   7.869 -0.6282  0.2486 -0.1064
 6112SOL    HW129798   4.243   2.122   7.788  1.8401 -1.2628  0.1620
 6112SOL    HW229799   4.146   2.027   7.822 -0.1147 -0.1343 -0.3588
 6113SOL     OW29800   3.920   3.409   4.126 -0.3717 -0.1727 -0.3364
 6113SOL    HW129801   3.897   3.325   4.166 -2.0858  0.3695 -0.1963
 6113SOL    HW229802   3.974   3.386   4.050 -0.3799  1.9018 -0.9691
 6114SOL     OW29803   3.327   3.815   3.492  0.3029 -0.2971 -0.2054
 6114SOL    HW129804   3.397   3.804   3.427  3.3464 -0.5110  3.1619
 6114SOL    HW229805   3.256   3.752   3.477 -0.9344  1.0167  0.1354
 6115SOL     OW29806   3.674   0.347  14.226 -0.2054 -0.1991 -0.3323
 6115SOL    HW129807   3.673   0.393  14.142  4.2487 -0.9759 -0.8026
 6115SOL    HW229808   3.760   0.306  14.233 -1.4227 -2.4650  1.2651
 6116SOL     OW29809   0.423   1.716   2.041  0.7739  0.0969 -0.1851
 6116SOL    HW129810   0.450   1.803   2.071  0.0494 -0.7556  2.9549
 6116SOL    HW229811   0.424   1.718   1.945 -0.9224  1.0841 -0.1852
 6117SOL     OW29812   3.656   3.442   2.082  0.4941  0.1454 -0.5150
 6117SOL    HW129813   3.693   3.353   2.081  1.6377  0.5975  1.5689
 6117SOL    HW229814   3.733   3.498   2.089 -0.1021  0.9999 -0.8656
 6118SOL     OW29815   1.690   0.485  10.860 -0.1051  0.3742  0.4810
 6118SOL    HW129816   1.612   0.505  10.807  0.6825  0.3874 -0.6911
 6118SOL    HW229817   1.703   0.391  10.847 -1.4158  0.4390 -1.4456
 6119SOL     OW29818   4.339   4.141   9.227  0.1647  0.0562  0.1107
 6119SOL    HW129819   4.250   4.145   9.262  0.9528 -0.1196  2.1492
 6119SOL    HW229820   4.369   4.226   9.260 -0.4632 -0.3044  1.6208
 6120SOL     OW29821   0.109   0.809  16.205 -0.2464 -0.0272  0.4119
 6120SOL    HW129822   0.173   0.880  16.200  1.0191 -1.2363 -0.2147
 6120SOL    HW229823   0.104   0.797  16.300  1.0923  0.7308  0.5722
 6121SOL     OW29824   3.085   0.269   6.502 -0.4439  0.0413 -0.0433
 6121SOL    HW129825   3.137   0.200   6.461  1.3858  1.6148 -0.3615
 6121SOL    HW229826   3.094   0.238   6.592  2.4420 -1.6038 -0.8953
 6122SOL     OW29827   4.631   4.145  10.449 -0.0795  1.0694 -0.0758
 6122SOL    HW129828   4.563   4.135  10.515  0.6031  0.2890  0.5108
 6122SOL    HW229829   4.609   4.072  10.390  0.8361  0.6113  0.1496
 6123SOL     OW29830   1.688   0.165   4.458 -0.2231  0.4425 -0.2866
 6123SOL    HW129831   1.645   0.108   4.394  1.4657 -0.5178 -0.5624
 6123SOL    HW229832   1.779   0.158   4.429 -0.2452 -2.2325  0.3295
 6124SOL     OW29833   4.675   1.331   5.544 -0.5730  0.0377 -0.0983
 6124SOL    HW129834   4.668   1.278   5.623 -1.1819  0.1054 -0.1090
 6124SOL    HW229835   4.593   1.323   5.495  0.4668 -0.4185 -1.7879
 6125SOL     OW29836   1.258   3.939   1.774 -0.2875  0.1691 -0.2362
 6125SOL    HW129837   1.279   3.854   1.813 -2.4007  0.5961  1.8838
 6125SOL    HW229838   1.208   3.983   1.843 -0.4858  0.4780 -0.5812
 6126SOL     OW29839   4.632   1.800   2.375 -0.0932  0.1652  0.3183
 6126SOL    HW129840   4.568   1.862   2.338  0.2675  0.5005  0.2584
 6126SOL    HW229841   4.580   1.772   2.451 -0.7713 -2.7093 -1.2355
 6127SOL     OW29842   4.572   1.132  12.796 -0.0628  0.2704  0.2585
 6127SOL    HW129843   4.496   1.173  12.837 -0.6871 -0.8989  0.2562
 6127SOL    HW229844   4.581   1.191  12.721  0.1127  1.2776  1.0771
 6128SOL     OW29845   2.118   2.919   6.927  0.3408 -0.3811 -0.5991
 6128SOL    HW129846   2.174   2.942   7.000 -0.5913 -0.6347  0.1965
 6128SOL    HW229847   2.184   2.856   6.898  0.2478 -1.1909  0.9777
 6129SOL     OW29848   2.150   0.991   4.372  0.1557 -0.0988 -0.5676
 6129SOL    HW129849   2.132   0.944   4.453 -2.6100 -0.5560 -1.4267
 6129SOL    HW229850   2.244   0.999   4.358 -0.0953 -0.1685 -2.2738
 6130SOL     OW29851   3.259   0.926   7.679 -0.2146  0.3196  0.7580
 6130SOL    HW129852   3.322   0.881   7.734 -0.5058 -2.2490 -0.9725
 6130SOL    HW229853   3.262   1.016   7.711  1.1744  1.1758 -1.7380
 6131SOL     OW29854   3.014   0.836  13.590  0.1030 -0.0895 -0.1770
 6131SOL    HW129855   3.008   0.930  13.576 -0.1944  0.0486  0.8650
 6131SOL    HW229856   3.072   0.805  13.520  1.3854  1.3853  0.2358
 6132SOL     OW29857   1.238   3.586   8.986  0.2173  0.6405  0.0895
 6132SOL    HW129858   1.253   3.556   9.076  2.7564 -0.9767 -0.8635
 6132SOL    HW229859   1.273   3.674   8.997  1.0188  0.0766  1.9798
 6133SOL     OW29860   3.851   1.073   4.825  0.6476 -0.1415  0.0091
 6133SOL    HW129861   3.814   1.151   4.782  0.4519  0.2595  0.9148
 6133SOL    HW229862   3.765   1.032   4.838  0.6142 -1.1284 -3.2816
 6134SOL     OW29863   4.601   3.883   9.736 -0.2012 -0.3988 -0.9027
 6134SOL    HW129864   4.653   3.825   9.681  1.3605 -0.0398  0.1940
 6134SOL    HW229865   4.669   3.917   9.793 -2.0897  1.9483 -0.0490
 6135SOL     OW29866   3.860   2.887  15.699 -0.4119 -0.7455  0.7827
 6135SOL    HW129867   3.778   2.850  15.731 -0.6784 -0.0947  0.8595
 6135SOL    HW229868   3.869   2.972  15.743  0.8896  0.5077 -1.8770
 6136SOL     OW29869   4.645   2.634   9.060 -0.3407 -0.5057 -0.7028
 6136SOL    HW129870   4.585   2.687   9.113  1.7870  0.8325  0.3788
 6136SOL    HW229871   4.650   2.676   8.975 -0.1504 -2.4427 -1.6557
 6137SOL     OW29872   4.437   4.449   6.609  0.2584 -0.4122  0.1128
 6137SOL    HW129873   4.528   4.465   6.634  0.5952 -1.1373 -0.6214
 6137SOL    HW229874   4.435   4.371   6.553 -2.2180 -0.3665  0.1432
 6138SOL     OW29875   3.864   1.645   3.828  0.1112  0.0589 -0.0729
 6138SOL    HW129876   3.904   1.560   3.810  1.7609  0.7164  0.4648
 6138SOL    HW229877   3.777   1.614   3.852 -0.8582  1.1183 -2.2248
 6139SOL     OW29878   1.791   1.224   0.924  0.1937 -0.5301  0.6141
 6139SOL    HW129879   1.802   1.197   1.015 -1.7781 -0.7698  0.7666
 6139SOL    HW229880   1.705   1.264   0.929 -0.0703 -1.0149 -0.1468
 6140SOL     OW29881   4.352   3.620  14.952  0.3714  0.2501 -0.5340
 6140SOL    HW129882   4.388   3.572  14.878  0.9650 -0.1027 -0.0081
 6140SOL    HW229883   4.259   3.599  14.939  0.9050  0.3767 -4.6696
 6141SOL     OW29884   3.731   3.945   0.402 -0.6042 -0.2094  0.1125
 6141SOL    HW129885   3.788   3.975   0.331  1.6401 -3.4439  0.5200
 6141SOL    HW229886   3.664   3.902   0.349  2.8166 -1.6521 -3.0795
 6142SOL     OW29887   1.786   3.911   8.248  0.6847 -0.5145 -0.1367
 6142SOL    HW129888   1.767   4.000   8.280  0.0901 -1.0958  1.1082
 6142SOL    HW229889   1.711   3.893   8.191 -0.1154  1.1582  0.3780
 6143SOL     OW29890   3.330   3.035  17.592  0.1604  0.1334  0.3760
 6143SOL    HW129891   3.354   2.965  17.531  2.1669  1.3521 -0.2451
 6143SOL    HW229892   3.386   3.109  17.569  1.9914 -0.8024  1.8488
 6144SOL     OW29893   0.056   0.922  14.831 -0.1906 -0.0180 -0.0192
 6144SOL    HW129894   0.122   0.904  14.898 -0.3061 -2.5014 -0.5716
 6144SOL    HW229895   0.054   0.851  14.767 -0.2867 -0.1374  0.1147
 6145SOL     OW29896   4.671   0.736   6.430 -0.6437  0.5134 -0.6765
 6145SOL    HW129897   4.688   0.642   6.426  1.0425  0.7537  0.9289
 6145SOL    HW229898   0.005   0.772   6.500 -0.6220  0.4771 -0.6754
 6146SOL     OW29899   3.798   1.774  15.462 -0.3229 -0.4541  0.0374
 6146SOL    HW129900   3.791   1.785  15.367  0.7375  1.3991  0.1611
 6146SOL    HW229901   3.781   1.867  15.476 -1.1904 -0.4686 -0.9633
 6147SOL     OW29902   3.946   0.292  16.714 -0.3262 -0.2850  0.6061
 6147SOL    HW129903   3.882   0.336  16.658 -0.8274 -2.1370 -0.2948
 6147SOL    HW229904   4.002   0.356  16.758 -1.1812  2.2412 -1.9753
 6148SOL     OW29905   3.842   0.157   4.888  0.1927 -0.6580  0.0674
 6148SOL    HW129906   3.847   0.129   4.980  0.5245 -1.8679 -0.3185
 6148SOL    HW229907   3.928   0.122   4.866 -0.0431 -0.3886 -1.2967
 6149SOL     OW29908   3.909   1.808   4.269  0.4885 -0.5344 -0.2252
 6149SOL    HW129909   3.842   1.809   4.337  1.3972  0.6565  0.6565
 6149SOL    HW229910   3.853   1.841   4.198 -0.5646  2.0699  1.7927
 6150SOL     OW29911   0.535   2.854   6.521  1.3224 -0.3838  0.2847
 6150SOL    HW129912   0.572   2.794   6.586 -0.1887 -0.4222  1.1252
 6150SOL    HW229913   0.619   2.885   6.488  0.5786  1.3586  0.0291
 6151SOL     OW29914   4.102   3.356   2.372  0.0017 -0.0961  0.0884
 6151SOL    HW129915   4.093   3.318   2.459 -0.8660 -0.1542 -0.0194
 6151SOL    HW229916   4.031   3.420   2.373  1.0811  1.0870  0.2130
 6152SOL     OW29917   2.380   3.932   6.690  0.1488  0.3191  0.0934
 6152SOL    HW129918   2.446   3.892   6.632  0.4046  0.5883  0.1969
 6152SOL    HW229919   2.434   4.003   6.725 -0.1050  0.3168  0.4804
 6153SOL     OW29920   4.107   0.882   4.387 -0.2621  0.3967  0.0232
 6153SOL    HW129921   4.102   0.895   4.482 -2.7051 -0.6296  0.0204
 6153SOL    HW229922   4.104   0.788   4.374 -1.5303  0.0664  2.7095
 6154SOL     OW29923   4.340   3.845   1.429 -0.2581  0.2577 -0.5314
 6154SOL    HW129924   4.320   3.834   1.521  2.2091 -0.3711 -0.0777
 6154SOL    HW229925   4.259   3.822   1.382  0.8872  0.2734 -2.5336
 6155SOL     OW29926   2.346   3.654   4.136  0.2659  0.1353 -0.1781
 6155SOL    HW129927   2.256   3.626   4.121 -0.0850  0.3726  1.4318
 6155SOL    HW229928   2.355   3.628   4.228 -1.3131  2.8622  0.7402
 6156SOL     OW29929   1.365   1.570   6.486 -0.3589 -0.1344  0.4895
 6156SOL    HW129930   1.332   1.483   6.508  2.1196 -0.8267  1.3867
 6156SOL    HW229931   1.305   1.571   6.411  0.1321  0.5863  0.1074
 6157SOL     OW29932   2.658   2.613  10.618  0.3018  0.6143 -0.3218
 6157SOL    HW129933   2.632   2.538  10.564 -1.7392  2.3387 -1.7494
 6157SOL    HW229934   2.640   2.688  10.561  2.1341  0.2896 -1.3191
 6158SOL     OW29935   1.256   3.457   6.306  0.3821  0.2233 -0.0162
 6158SOL    HW129936   1.349   3.479   6.294  0.7218 -1.4748 -0.4838
 6158SOL    HW229937   1.219   3.483   6.222  0.5887  1.7789  0.3803
 6159SOL     OW29938   1.390   0.529  13.272 -0.1660  0.3610 -0.7574
 6159SOL    HW129939   1.369   0.511  13.363  0.7409  0.9863 -0.4259
 6159SOL    HW229940   1.405   0.624  13.273 -1.2479  0.5483 -1.8830
 6160SOL     OW29941   3.818   0.461  16.303 -0.5088  0.4598  0.3817
 6160SOL    HW129942   3.834   0.556  16.307 -1.0284  0.3737  4.5113
 6160SOL    HW229943   3.794   0.456  16.211 -0.0815  0.2032  0.2851
 6161SOL     OW29944   1.266   0.181  10.926  0.3056  0.0975 -0.4156
 6161SOL    HW129945   1.244   0.187  10.833 -0.4048 -0.5902 -0.2864
 6161SOL    HW229946   1.339   0.119  10.922  1.5076  1.5465 -1.2303
 6162SOL     OW29947   4.460   2.292  11.653  0.0047 -0.4363 -0.6798
 6162SOL    HW129948   4.528   2.345  11.611  0.4756 -0.5978 -0.1283
 6162SOL    HW229949   4.382   2.306  11.599 -1.2470 -0.1048  1.2099
 6163SOL     OW29950   2.205   1.385   0.248  0.2053 -0.6217 -0.4780
 6163SOL    HW129951   2.291   1.350   0.226 -0.5006 -1.7907 -1.3844
 6163SOL    HW229952   2.202   1.447   0.175  2.2544  0.8233  0.6425
 6164SOL     OW29953   2.723   3.401   1.748 -0.8001 -0.0615 -1.2949
 6164SOL    HW129954   2.702   3.320   1.796 -0.8395  1.1774  0.7817
 6164SOL    HW229955   2.818   3.403   1.753 -0.8108 -1.4811 -0.4068
 6165SOL     OW29956   1.572   0.515   0.112  0.2043  0.3508  0.6069
 6165SOL    HW129957   1.634   0.536   0.181  0.2176 -1.4637  1.1390
 6165SOL    HW229958   1.497   0.571   0.135  0.7335  1.2591  0.1032
 6166SOL     OW29959   0.483   0.212   3.002  0.2264  0.1550 -0.1369
 6166SOL    HW129960   0.392   0.186   2.985 -0.2114  0.7811  1.2356
 6166SOL    HW229961   0.535   0.139   2.969  0.8726 -0.1816  1.6510
 6167SOL     OW29962   4.077   1.122   3.224  0.0613 -0.5845  0.1105
 6167SOL    HW129963   4.138   1.050   3.238  1.1583 -0.0644 -2.0436
 6167SOL    HW229964   4.129   1.202   3.231  2.1344 -1.6204 -3.0978
 6168SOL     OW29965   3.080   2.418   6.258 -0.2636  0.1077 -0.1550
 6168SOL    HW129966   3.051   2.506   6.282  0.9726  0.5411 -0.2871
 6168SOL    HW229967   3.149   2.403   6.322 -0.1521  0.1326 -0.2695
 6169SOL     OW29968   2.075   0.572  11.748  0.1999  0.2013 -0.1153
 6169SOL    HW129969   2.084   0.524  11.830  0.2555  1.0052  0.3508
 6169SOL    HW229970   2.017   0.527  11.686 -0.8293  1.3472  0.0214
 6170SOL     OW29971   1.005   4.690   8.257 -0.2406 -0.0299  0.4840
 6170SOL    HW129972   1.057   0.022   8.197 -0.3067 -0.5755 -0.0504
 6170SOL    HW229973   1.064   4.703   8.332  1.3456  0.4510 -0.8601
 6171SOL     OW29974   3.208   4.614   6.894 -0.3894 -0.1102  0.0606
 6171SOL    HW129975   3.210   4.522   6.869 -2.3842 -0.2426  0.4222
 6171SOL    HW229976   3.299   4.640   6.878 -0.2794 -1.0477 -0.8471
 6172SOL     OW29977   3.202   2.457   8.094 -0.2377  0.0252 -0.0594
 6172SOL    HW129978   3.196   2.503   8.178 -0.1536  0.1977 -0.1475
 6172SOL    HW229979   3.284   2.480   8.051 -0.5751 -1.9300 -1.7253
 6173SOL     OW29980   3.271   2.759   6.542  0.5986  0.1780  0.0081
 6173SOL    HW129981   3.239   2.814   6.470 -0.4282 -0.1286  0.2299
 6173SOL    HW229982   3.222   2.802   6.612  1.5005 -0.8676  1.2803
 6174SOL     OW29983   3.360   3.147   3.187 -0.2099  0.1228 -0.1448
 6174SOL    HW129984   3.337   3.062   3.150 -0.1424  0.6224 -1.3515
 6174SOL    HW229985   3.423   3.175   3.120 -0.5379 -0.8123 -0.8456
 6175SOL     OW29986   1.855   2.486  15.281  0.0914 -0.3787  0.1223
 6175SOL    HW129987   1.835   2.514  15.191 -1.0439 -0.3527  0.3789
 6175SOL    HW229988   1.942   2.448  15.271 -1.2289 -2.6927 -2.6466
 6176SOL     OW29989   2.393   1.146  14.984 -0.0606 -0.4370  0.5279
 6176SOL    HW129990   2.416   1.202  14.910  0.7025 -1.1123  0.2642
 6176SOL    HW229991   2.328   1.202  15.028  1.1695  1.5484 -0.1689
 6177SOL     OW29992   4.537   0.334  10.037 -0.4376 -0.2915  0.0007
 6177SOL    HW129993   4.574   0.370  10.118 -0.2688  0.6085 -0.4795
 6177SOL    HW229994   4.596   0.368   9.971 -1.5309  0.0268 -0.8140
 6178SOL     OW29995   3.260   0.476  12.947 -0.7750 -0.0155  0.0819
 6178SOL    HW129996   3.236   0.465  12.856  1.5461 -1.4404 -0.3594
 6178SOL    HW229997   3.336   0.534  12.950 -0.2379 -0.6751 -0.7542
 6179SOL     OW29998   0.632   0.084   8.582 -0.3464 -0.4464 -0.1070
 6179SOL    HW129999   0.698   0.124   8.639  1.7518  0.1609 -3.0203
 6179SOL    HW230000   0.662   4.715   8.579  3.5984  0.9224 -1.1041
 6180SOL     OW30001   0.008   3.625   3.494 -0.1960 -0.2880 -0.0330
 6180SOL    HW130002   4.709   3.543   3.539  0.3198 -0.5034 -0.1897
 6180SOL    HW230003   0.104   3.623   3.503 -0.1778 -2.5737 -0.5367
 6181SOL     OW30004   3.414   2.232  10.194  0.0666 -0.9634  0.2086
 6181SOL    HW130005   3.500   2.197  10.170 -1.2351 -1.6862 -3.4060
 6181SOL    HW230006   3.415   2.194  10.282  0.7347 -0.1789  0.5449
 6182SOL     OW30007   1.751   0.377   2.677 -0.8057 -0.1649 -0.0341
 6182SOL    HW130008   1.719   0.402   2.590 -1.2665 -0.8165 -0.0524
 6182SOL    HW230009   1.683   0.412   2.735 -2.1863 -3.4053  0.3059
 6183SOL     OW30010   2.704   0.027   0.955 -0.1531  0.0684 -0.1332
 6183SOL    HW130011   2.625   4.702   0.924  0.0437 -0.3469 -0.0050
 6183SOL    HW230012   2.718   4.717   1.044 -2.8115 -2.5863 -0.6335
 6184SOL     OW30013   0.747   2.842   7.645 -0.0287 -0.5228 -0.2308
 6184SOL    HW130014   0.682   2.876   7.584  1.5315  0.4846 -1.3267
 6184SOL    HW230015   0.773   2.926   7.683  0.2460 -0.2881 -0.9321
 6185SOL     OW30016   4.219   3.886  11.573 -0.8880 -0.3468  0.4666
 6185SOL    HW130017   4.282   3.819  11.600 -0.2799  0.3980  0.8881
 6185SOL    HW230018   4.281   3.939  11.523 -1.7195 -0.7157 -0.9535
 6186SOL     OW30019   1.334   1.599   5.570  0.7044  0.7372 -0.3747
 6186SOL    HW130020   1.350   1.583   5.662  2.0851  1.5649 -0.4637
 6186SOL    HW230021   1.323   1.695   5.571  1.4103  0.8208 -0.8020
 6187SOL     OW30022   3.651   2.717   3.634  0.0296 -0.0786 -0.0858
 6187SOL    HW130023   3.566   2.756   3.657 -0.9766 -2.1878 -0.2956
 6187SOL    HW230024   3.631   2.660   3.560  1.6149 -1.4339  0.5406
 6188SOL     OW30025   4.195   2.660   9.227 -0.1432 -0.2637  0.0727
 6188SOL    HW130026   4.135   2.648   9.153  1.2991 -0.1122 -1.1145
 6188SOL    HW230027   4.264   2.715   9.192  1.3146 -1.2701  1.3441
 6189SOL     OW30028   3.892   3.071   0.985  0.7093 -0.0212  0.4597
 6189SOL    HW130029   3.822   3.122   0.946 -0.0568 -2.1419 -0.9247
 6189SOL    HW230030   3.899   3.116   1.069 -2.5725  0.7974  0.2987
 6190SOL     OW30031   2.527   0.011   2.573 -0.1612  0.2055 -0.1487
 6190SOL    HW130032   2.512   4.651   2.523  0.5558 -0.8960  1.4301
 6190SOL    HW230033   2.497   0.082   2.516 -2.5098  0.4000  1.3194
 6191SOL     OW30034   0.842   2.270   1.257 -0.1248 -0.4065 -0.7759
 6191SOL    HW130035   0.806   2.313   1.179 -2.0856  0.6851  0.7244
 6191SOL    HW230036   0.784   2.194   1.256  0.5306 -0.9216  1.5427
 6192SOL     OW30037   1.068   1.136   2.218 -0.5218 -0.3551 -0.1672
 6192SOL    HW130038   1.143   1.088   2.183  1.0357  0.7300  1.6963
 6192SOL    HW230039   0.999   1.069   2.216  1.1938 -2.0584 -2.1071
 6193SOL     OW30040   4.347   1.844   3.369 -0.0943  0.1696 -0.0960
 6193SOL    HW130041   4.375   1.920   3.318  2.7709  0.8757  2.5345
 6193SOL    HW230042   4.253   1.863   3.363 -0.2689 -0.5697  0.3928
 6194SOL     OW30043   1.340   1.816   6.635  0.1901  0.0578 -0.8275
 6194SOL    HW130044   1.334   1.731   6.593 -0.4972 -0.6094  0.6095
 6194SOL    HW230045   1.378   1.805   6.723  1.4389  1.0156 -1.2389
 6195SOL     OW30046   0.999   1.768   4.835  0.0324 -0.2800 -0.0010
 6195SOL    HW130047   0.929   1.710   4.804 -1.3116  1.0839  0.4586
 6195SOL    HW230048   0.995   1.847   4.781  1.9606 -0.7680 -0.8373
 6196SOL     OW30049   2.442   0.440   7.797  0.1950  0.0147  0.4049
 6196SOL    HW130050   2.350   0.419   7.811  0.8628 -2.2600  1.2539
 6196SOL    HW230051   2.454   0.460   7.704 -1.2902  0.0652  0.2306
 6197SOL     OW30052   2.054   4.558   0.244 -0.1852 -0.0616 -0.6947
 6197SOL    HW130053   2.105   4.619   0.298  1.8407 -0.6813 -1.8888
 6197SOL    HW230054   2.001   4.515   0.311 -0.7028  0.6931 -0.6228
 6198SOL     OW30055   4.711   3.348  14.132  0.2413  0.0009  0.5872
 6198SOL    HW130056   0.079   3.315  14.120 -1.2454 -2.6076 -3.4285
 6198SOL    HW230057   4.659   3.271  14.109 -0.2462  0.8758 -1.2827
 6199SOL     OW30058   3.921   0.943   2.797 -0.5008 -0.3339  0.2350
 6199SOL    HW130059   3.849   0.992   2.836  1.3078  2.3681  0.1365
 6199SOL    HW230060   3.992   0.984   2.846 -0.1222 -0.7495  0.0417
 6200SOL     OW30061   3.711   3.728  15.107  0.1466 -0.2304 -0.9279
 6200SOL    HW130062   3.620   3.720  15.137  0.7019 -2.2360  0.2688
 6200SOL    HW230063   3.756   3.718  15.191  0.7521  0.9675 -1.1132
 6201SOL     OW30064   1.478   1.674  14.448  0.2673 -0.4185  0.0569
 6201SOL    HW130065   1.395   1.633  14.473 -1.3396  1.1239 -2.6363
 6201SOL    HW230066   1.537   1.599  14.447 -2.3421 -2.4985  1.9831
 6202SOL     OW30067   0.917   4.615   6.833 -0.2659 -0.3100 -0.1938
 6202SOL    HW130068   0.945   4.574   6.751  1.6748 -0.9639  0.8073
 6202SOL    HW230069   0.834   4.572   6.855 -0.2021 -0.1518  0.3624
 6203SOL     OW30070   1.689   2.306   7.429 -0.2245  0.0922 -0.1271
 6203SOL    HW130071   1.651   2.241   7.488  2.4965 -1.1512  0.2170
 6203SOL    HW230072   1.740   2.249   7.372 -0.5242 -1.3133  1.0233
 6204SOL     OW30073   2.986   0.997   4.666  0.0288 -0.3827 -0.0256
 6204SOL    HW130074   3.075   0.999   4.632 -0.1816 -1.6413 -0.6250
 6204SOL    HW230075   2.983   1.087   4.700 -1.5527  0.0921 -1.4132
 6205SOL     OW30076   3.997   3.732   9.750  0.6424 -0.4299  0.4793
 6205SOL    HW130077   3.953   3.802   9.798  0.8914 -1.1332  1.7188
 6205SOL    HW230078   3.994   3.663   9.816 -2.3080  1.2788  2.1007
 6206SOL     OW30079   0.333   2.746   3.749  0.3262 -0.3180 -0.0656
 6206SOL    HW130080   0.311   2.814   3.813 -1.2651  0.1976 -1.1501
 6206SOL    HW230081   0.314   2.669   3.802  1.1723  0.8162  1.8683
 6207SOL     OW30082   3.867   4.622   8.838 -0.3236  0.4222 -0.4361
 6207SOL    HW130083   3.790   4.674   8.864 -0.5673  0.5204 -1.3581
 6207SOL    HW230084   3.926   4.657   8.905 -0.9350 -0.0408  0.3464
 6208SOL     OW30085   2.144   0.294   3.616 -0.1605  0.2349  0.1962
 6208SOL    HW130086   2.066   0.324   3.569  0.0608 -0.4600 -0.6201
 6208SOL    HW230087   2.203   0.276   3.542  1.1778 -1.2301  1.6228
 6209SOL     OW30088   2.013   0.552  17.155  0.3357 -0.0675  0.1892
 6209SOL    HW130089   1.953   0.623  17.133  0.7792 -0.1941 -1.3992
 6209SOL    HW230090   1.975   0.535  17.242  1.5823 -2.7756  0.1966
 6210SOL     OW30091   0.405   2.593  12.084  0.3094 -0.5077  0.1870
 6210SOL    HW130092   0.493   2.601  12.046 -1.0239  4.4620 -1.8079
 6210SOL    HW230093   0.354   2.623  12.009  1.2341  2.2106  0.6696
 6211SOL     OW30094   3.476   3.910   5.922  0.2415 -0.1240  0.3467
 6211SOL    HW130095   3.412   3.921   5.852 -0.2215 -1.8532  0.5129
 6211SOL    HW230096   3.419   3.891   5.996  1.0175  0.5784  1.1261
 6212SOL     OW30097   1.326   2.914   3.377 -0.4273  0.2972 -0.1974
 6212SOL    HW130098   1.291   2.951   3.296 -0.7098  0.4635  0.0014
 6212SOL    HW230099   1.347   2.989   3.432  0.9339 -1.2030  1.3676
 6213SOL     OW30100   0.897   1.802   5.788  0.0564  0.5279  0.2744
 6213SOL    HW130101   0.856   1.740   5.848  0.2611 -0.1654 -0.2974
 6213SOL    HW230102   0.924   1.867   5.853  0.0057  1.0408 -0.2136
 6214SOL     OW30103   2.680   2.404   9.183  0.2224 -0.0789  0.2070
 6214SOL    HW130104   2.642   2.383   9.268  0.7131  0.7568  0.6341
 6214SOL    HW230105   2.765   2.361   9.184  1.6060  2.6919  0.5757
 6215SOL     OW30106   0.913   0.737   6.288  0.3536 -0.9830  0.0380
 6215SOL    HW130107   0.959   0.821   6.280  0.7242 -1.1782  0.1291
 6215SOL    HW230108   0.899   0.736   6.383 -0.8743  1.1102 -0.1201
 6216SOL     OW30109   1.616   3.191  10.821  0.0550 -0.4404 -0.2381
 6216SOL    HW130110   1.697   3.213  10.867 -0.2466 -0.1158  0.1363
 6216SOL    HW230111   1.574   3.274  10.801  0.9306  0.3212  1.1174
 6217SOL     OW30112   1.710   0.591  12.956  0.0876 -0.4412 -0.2622
 6217SOL    HW130113   1.803   0.613  12.959 -0.2190  0.6917  0.6836
 6217SOL    HW230114   1.695   0.557  12.867 -2.9401  1.5836 -0.5217
 6218SOL     OW30115   3.917   0.638   8.725  0.4327 -0.0393  0.1542
 6218SOL    HW130116   3.859   0.596   8.788  2.7760 -0.6982  1.8222
 6218SOL    HW230117   3.996   0.650   8.777  0.6061  0.2145 -0.1658
 6219SOL     OW30118   2.597   4.283   2.594  0.2007  0.0511 -0.2813
 6219SOL    HW130119   2.644   4.283   2.678 -0.8516  0.3471  0.3060
 6219SOL    HW230120   2.511   4.250   2.617  0.5015 -0.1886  0.5099
 6220SOL     OW30121   0.192   1.006   1.076  0.5434 -0.2467  0.6062
 6220SOL    HW130122   0.104   1.042   1.063  1.7852  2.3266 -0.7854
 6220SOL    HW230123   0.183   0.977   1.166 -0.1939 -0.0856  0.5816
 6221SOL     OW30124   2.937   3.980   3.780  0.4777  0.0415  0.4968
 6221SOL    HW130125   2.996   4.056   3.779  0.0446  0.3851  1.0852
 6221SOL    HW230126   2.913   3.969   3.688  1.4479 -3.4020  0.6748
 6222SOL     OW30127   4.466   0.107   9.145 -0.1431  0.9410  0.2550
 6222SOL    HW130128   4.388   0.086   9.196 -0.3909 -1.8739 -1.2579
 6222SOL    HW230129   4.415   0.168   9.092 -2.3494 -1.5167 -0.4392
 6223SOL     OW30130   0.260   4.344   1.029 -0.0116  0.9058 -0.0437
 6223SOL    HW130131   0.177   4.307   0.998  0.0909  0.4732  0.1976
 6223SOL    HW230132   0.324   4.279   0.999  0.3530  1.5200 -0.5882
 6224SOL     OW30133   4.378   1.859   7.645 -0.1209 -0.7448  0.0082
 6224SOL    HW130134   4.394   1.869   7.739 -0.1110  0.9964 -0.1769
 6224SOL    HW230135   4.293   1.815   7.651 -0.3909 -0.3828 -1.3103
 6225SOL     OW30136   0.436   2.020   6.495  0.3752  0.3844  0.0701
 6225SOL    HW130137   0.516   1.982   6.530  1.0496  2.1784  0.4896
 6225SOL    HW230138   0.464   2.110   6.514 -1.7583  1.0026  0.2896
 6226SOL     OW30139   3.484   1.058   0.792  0.0091 -0.0643  0.0510
 6226SOL    HW130140   3.433   1.139   0.788 -0.6650 -0.3908  1.9853
 6226SOL    HW230141   3.425   0.997   0.745  1.2722  0.0382 -1.6770
 6227SOL     OW30142   0.051   3.158  17.622 -0.0103  0.5350  0.2262
 6227SOL    HW130143   0.138   3.184  17.590  0.1353  1.6281  1.4804
 6227SOL    HW230144   0.057   3.063  17.635 -1.7688  0.3488 -0.3625
 6228SOL     OW30145   2.822   0.698   5.387 -0.1532 -0.2731  0.2965
 6228SOL    HW130146   2.746   0.715   5.332 -1.3250 -1.5009  1.5388
 6228SOL    HW230147   2.845   0.616   5.344  0.3216 -1.0492  2.0371
 6229SOL     OW30148   3.418   3.597   9.715 -0.0403 -0.0939  0.7944
 6229SOL    HW130149   3.343   3.646   9.748 -0.2223  0.1089  0.0879
 6229SOL    HW230150   3.390   3.509   9.737  0.9144 -0.6117 -0.0271
 6230SOL     OW30151   1.027   2.277   3.522  0.4654  0.6307  0.0611
 6230SOL    HW130152   1.001   2.353   3.469 -1.8478 -0.0896  0.1756
 6230SOL    HW230153   1.122   2.282   3.532  0.5978 -1.9371  0.0597
 6231SOL     OW30154   1.054   0.206  10.655 -0.0769  0.3355 -0.1247
 6231SOL    HW130155   1.149   0.195  10.644 -0.2210  0.7524 -1.7324
 6231SOL    HW230156   1.024   0.185  10.567  0.2782  0.5495 -0.2946
 6232SOL     OW30157   0.634   3.647   3.843  0.7333 -0.5760  0.1442
 6232SOL    HW130158   0.693   3.676   3.774  1.5585 -2.8510 -0.0900
 6232SOL    HW230159   0.622   3.723   3.900  0.7842  0.5901 -1.4017
 6233SOL     OW30160   1.149   0.595   0.256 -0.0075  0.0321  0.2101
 6233SOL    HW130161   1.168   0.501   0.255 -2.0916 -0.4019  0.9835
 6233SOL    HW230162   1.068   0.596   0.204  0.1799  0.8210 -0.0584
 6234SOL     OW30163   2.574   1.110  12.036  0.0347 -0.2620 -0.7769
 6234SOL    HW130164   2.601   1.090  11.947  3.5513  0.4443  0.1278
 6234SOL    HW230165   2.479   1.107  12.036 -0.0330  2.0409 -1.0909
 6235SOL     OW30166   1.125   3.848   6.579  0.4861 -0.4512  0.4490
 6235SOL    HW130167   1.105   3.761   6.613 -1.2113  0.1219  0.9218
 6235SOL    HW230168   1.137   3.895   6.661 -0.7458 -1.0252  0.9587
 6236SOL     OW30169   1.765   3.919   7.284 -0.0018  0.0530  0.0342
 6236SOL    HW130170   1.811   3.999   7.308 -0.1753  0.3599 -0.6422
 6236SOL    HW230171   1.685   3.926   7.336  1.8765  0.0195  2.9290
 6237SOL     OW30172   1.333   0.676   9.829 -0.8647 -0.0570 -0.3523
 6237SOL    HW130173   1.378   0.626   9.762  0.7239  0.1409  0.5784
 6237SOL    HW230174   1.345   0.616   9.903 -1.2911 -0.5680 -0.6964
 6238SOL     OW30175   1.627   2.933  11.840 -0.0604 -0.4455 -0.3645
 6238SOL    HW130176   1.711   2.920  11.795  0.2833 -2.4723  0.8938
 6238SOL    HW230177   1.565   2.931  11.767 -0.6769  0.8121  0.1250
 6239SOL     OW30178   2.996   4.093   0.980 -0.8100  0.1789  0.2980
 6239SOL    HW130179   2.944   4.153   1.033 -1.2821  0.0304 -0.0015
 6239SOL    HW230180   3.061   4.157   0.953 -1.1769  1.2814  2.0216
 6240SOL     OW30181   2.999   2.058   6.553 -0.2019 -0.1208 -0.4467
 6240SOL    HW130182   3.034   1.970   6.566 -0.9815 -0.4835 -0.8395
 6240SOL    HW230183   3.053   2.103   6.619 -0.6300  0.8248 -0.7450
 6241SOL     OW30184   1.233   2.893   5.814 -0.4965 -0.2137 -0.2808
 6241SOL    HW130185   1.286   2.970   5.833 -0.2936 -0.2098 -0.8757
 6241SOL    HW230186   1.175   2.923   5.744  0.0152 -0.0048 -0.6142
 6242SOL     OW30187   2.717   1.940  14.785 -0.0159  0.3946 -0.1673
 6242SOL    HW130188   2.776   1.962  14.857  0.5506 -1.2638 -0.1105
 6242SOL    HW230189   2.665   2.020  14.783  0.7199  0.8928  0.9348
 6243SOL     OW30190   1.758   3.838   6.492  0.4859  0.4650  0.6350
 6243SOL    HW130191   1.764   3.805   6.402  0.6197  1.3000  0.3382
 6243SOL    HW230192   1.766   3.933   6.487 -0.3945  0.5089  0.0290
 6244SOL     OW30193   3.557   1.134  16.769  0.0885  0.0875  0.4025
 6244SOL    HW130194   3.485   1.166  16.824 -1.2977  0.9560 -1.9357
 6244SOL    HW230195   3.582   1.213  16.721  1.5973 -0.2299  0.6748
 6245SOL     OW30196   3.217   0.938  16.512  0.5951  0.2527  0.6641
 6245SOL    HW130197   3.225   0.938  16.607 -0.0288 -0.2898  0.7182
 6245SOL    HW230198   3.293   0.899  16.469 -0.9445 -1.4988 -0.4970
 6246SOL     OW30199   3.585   1.967   8.282 -0.4525 -0.2086 -0.2555
 6246SOL    HW130200   3.611   1.921   8.202  0.1070  0.2411 -0.3369
 6246SOL    HW230201   3.631   2.048   8.261 -1.1015  0.0498 -0.6783
 6247SOL     OW30202   4.164   0.877   0.845  0.2392 -0.1154  0.2084
 6247SOL    HW130203   4.211   0.864   0.927 -0.4424  0.1247  0.6335
 6247SOL    HW230204   4.174   0.788   0.811  1.6375 -0.7476  2.2749
 6248SOL     OW30205   3.367   1.404   8.049 -0.2669 -0.2328  0.0281
 6248SOL    HW130206   3.306   1.377   8.117  1.5450  0.5220  1.9451
 6248SOL    HW230207   3.427   1.330   8.048  0.0338  0.0070  0.3981
 6249SOL     OW30208   0.406   2.188   8.632  0.3323  0.3300 -0.0423
 6249SOL    HW130209   0.370   2.164   8.547  0.0578  1.2284 -0.1776
 6249SOL    HW230210   0.328   2.196   8.686  0.5695  2.6284 -0.0106
 6250SOL     OW30211   2.436   0.099   8.044  0.7074 -0.2318  0.2444
 6250SOL    HW130212   2.385   0.028   8.005  1.2886 -0.8567  0.6073
 6250SOL    HW230213   2.486   0.038   8.098  0.7235 -1.4485 -1.1428
 6251SOL     OW30214   4.006   3.965   2.022 -0.3198  0.4406  0.0713
 6251SOL    HW130215   3.963   4.050   2.009 -2.5388 -0.6410  0.3328
 6251SOL    HW230216   4.040   3.931   1.939  0.7472  2.4663 -0.3108
 6252SOL     OW30217   3.268   3.700   5.994 -0.3155 -0.3336  0.5087
 6252SOL    HW130218   3.302   3.731   6.078  0.5406  0.6741 -0.2234
 6252SOL    HW230219   3.202   3.769   5.987  0.4921  0.3816 -0.0342
 6253SOL     OW30220   3.219   2.842   3.716 -0.0805 -0.1645 -0.6464
 6253SOL    HW130221   3.271   2.762   3.703  1.2260  0.7647 -1.0683
 6253SOL    HW230222   3.292   2.895   3.748 -0.7622  0.5187 -0.2592
 6254SOL     OW30223   2.838   1.991   2.181 -0.7209 -0.2569  0.6313
 6254SOL    HW130224   2.755   2.038   2.177 -0.9885 -0.8451 -0.6886
 6254SOL    HW230225   2.869   2.025   2.265  3.3117  0.5054 -1.1448
 6255SOL     OW30226   4.530   2.528   6.303  0.6109  0.7048  0.0744
 6255SOL    HW130227   4.561   2.443   6.272 -0.5609  0.4800 -0.5001
 6255SOL    HW230228   4.437   2.516   6.282  0.2869 -0.1638  2.0773
 6256SOL     OW30229   1.608   1.295   5.575 -0.3759 -0.7664 -0.1298
 6256SOL    HW130230   1.535   1.305   5.636  0.1814 -3.2396  0.9305
 6256SOL    HW230231   1.626   1.201   5.579  1.7376 -0.3814 -0.6357
 6257SOL     OW30232   4.324   3.610   5.507  0.0147 -0.1732 -0.0579
 6257SOL    HW130233   4.380   3.680   5.541 -1.1264  0.8015 -0.2197
 6257SOL    HW230234   4.245   3.609   5.560 -0.3958  3.4531 -0.6418
 6258SOL     OW30235   2.588   0.759   3.637  0.0831 -1.0923  0.2504
 6258SOL    HW130236   2.539   0.833   3.603 -0.7336 -1.6459  0.2161
 6258SOL    HW230237   2.650   0.735   3.568 -0.9894 -2.1447 -0.3554
 6259SOL     OW30238   2.138   3.551   2.086  1.2766  0.5698 -0.5299
 6259SOL    HW130239   2.064   3.569   2.144  0.0834 -0.8341 -1.6339
 6259SOL    HW230240   2.199   3.624   2.097  0.1874  1.8224 -2.8626
 6260SOL     OW30241   1.313   0.281   1.154  0.1551 -0.3197 -0.0606
 6260SOL    HW130242   1.236   0.225   1.147 -0.0326  0.2557 -2.5571
 6260SOL    HW230243   1.365   0.226   1.213  1.5763  2.0864  0.9241
 6261SOL     OW30244   1.567   4.113   4.750 -0.2750  0.1405  0.2485
 6261SOL    HW130245   1.606   4.029   4.774 -2.6372 -1.5172 -1.7037
 6261SOL    HW230246   1.608   4.166   4.819 -0.4343 -0.7229  1.0128
 6262SOL     OW30247   4.154   3.583  10.792 -0.5985 -0.0757  0.4064
 6262SOL    HW130248   4.077   3.606  10.844 -0.9080 -2.0954  0.8305
 6262SOL    HW230249   4.156   3.666  10.743  2.8839  0.2579  1.0735
 6263SOL     OW30250   0.880   2.173   6.924  0.2134 -0.4327 -0.4297
 6263SOL    HW130251   0.947   2.108   6.944 -1.2410 -1.9172 -0.4031
 6263SOL    HW230252   0.896   2.231   6.998 -0.8799 -2.7438  1.6169
 6264SOL     OW30253   2.690   0.812   3.890  0.1515 -0.1587 -0.2080
 6264SOL    HW130254   2.645   0.799   3.807  0.9768 -0.1213 -0.6638
 6264SOL    HW230255   2.622   0.864   3.934  2.1480  1.1516  1.3257
 6265SOL     OW30256   0.138   1.574   5.575 -0.5942 -0.2808  0.0365
 6265SOL    HW130257   0.073   1.505   5.560  0.1467 -1.0695  0.4527
 6265SOL    HW230258   0.082   1.651   5.582 -0.2842  0.0434 -1.0024
 6266SOL     OW30259   2.933   1.744   2.167 -0.0129 -0.0486  0.0949
 6266SOL    HW130260   2.905   1.835   2.168 -1.5968 -0.5598  1.7741
 6266SOL    HW230261   3.024   1.769   2.184 -0.0630 -0.1438  0.4967
 6267SOL     OW30262   0.252   2.791   1.495  0.6493 -0.4758 -0.5317
 6267SOL    HW130263   0.286   2.703   1.479  2.0677  0.0930 -0.6899
 6267SOL    HW230264   0.250   2.818   1.403 -2.6942  1.4666  0.1270
 6268SOL     OW30265   0.686   2.407   1.577  0.0809 -0.2623 -0.0182
 6268SOL    HW130266   0.692   2.491   1.533  1.4009 -0.0181  0.6187
 6268SOL    HW230267   0.649   2.350   1.509  0.7530  0.1100 -0.6903
 6269SOL     OW30268   2.727   3.996   9.691 -0.6385  0.5333 -0.1996
 6269SOL    HW130269   2.704   4.069   9.634 -0.3450  1.1835  0.5182
 6269SOL    HW230270   2.728   3.917   9.636  1.1822  1.9095 -2.1386
 6270SOL     OW30271   0.718   0.411   5.759 -0.1796 -0.4800 -0.2396
 6270SOL    HW130272   0.708   0.424   5.853 -1.5394 -2.2971 -0.1131
 6270SOL    HW230273   0.631   0.385   5.728 -1.1427 -1.2147  3.0828
 6271SOL     OW30274   1.895   0.613   3.731  0.4550 -0.1161 -0.1494
 6271SOL    HW130275   1.920   0.549   3.665  5.3252  1.9146 -0.2288
 6271SOL    HW230276   1.968   0.675   3.730 -0.4021  0.9303  1.4362
 6272SOL     OW30277   3.829   2.758   9.389  0.4648 -0.3509  0.0138
 6272SOL    HW130278   3.768   2.771   9.316 -0.1694  1.4189  0.8683
 6272SOL    HW230279   3.814   2.665   9.408  1.2922 -0.3408  0.6886
 6273SOL     OW30280   1.303   4.659   3.235  0.4133 -0.3225 -0.6819
 6273SOL    HW130281   1.355   4.590   3.193  0.3444 -0.1111 -1.1204
 6273SOL    HW230282   1.271   4.701   3.155 -0.2703  0.6658  0.1286
 6274SOL     OW30283   0.133   1.897   6.011 -0.3338  0.7186 -0.5814
 6274SOL    HW130284   0.225   1.895   5.984 -0.2096 -1.3064  0.0246
 6274SOL    HW230285   0.116   1.803   6.005  3.3358 -0.0510  1.2821
 6275SOL     OW30286   3.285   3.775   7.290 -0.1228 -0.2042 -0.1289
 6275SOL    HW130287   3.237   3.755   7.370  0.0576 -1.8731 -0.4460
 6275SOL    HW230288   3.220   3.836   7.255  0.6177  0.8935  0.4101
 6276SOL     OW30289   1.054   3.548   4.553  0.1044  0.6868  0.4632
 6276SOL    HW130290   1.042   3.460   4.590  1.0177  0.6593  0.6936
 6276SOL    HW230291   1.025   3.600   4.628  1.9010  1.7526  0.4013
 6277SOL     OW30292   1.960   4.090   7.738 -0.1477  0.1668 -0.2104
 6277SOL    HW130293   1.886   4.084   7.799 -0.8243 -0.6111 -1.1010
 6277SOL    HW230294   1.959   4.183   7.715  1.8415 -0.7258 -3.7721
 6278SOL     OW30295   0.269   1.428   6.916  0.4000  0.6485 -0.3455
 6278SOL    HW130296   0.207   1.363   6.883 -0.4208  1.1243  0.2746
 6278SOL    HW230297   0.257   1.415   7.010 -1.4605  0.1132 -0.6519
 6279SOL     OW30298   1.681   1.224  12.190 -0.9666 -0.5296 -0.4210
 6279SOL    HW130299   1.734   1.265  12.258  1.8692 -0.9512 -2.3670
 6279SOL    HW230300   1.692   1.132  12.216 -0.4173 -0.7213 -1.3345
 6280SOL     OW30301   2.577   3.961   5.241  0.2835  0.1932  0.3937
 6280SOL    HW130302   2.547   3.940   5.153  1.4912  0.5153 -0.0924
 6280SOL    HW230303   2.586   4.056   5.234 -1.2548  0.2560 -0.7324
 6281SOL     OW30304   2.881   3.279   2.420 -0.1075  0.2781  0.0837
 6281SOL    HW130305   2.827   3.224   2.364 -0.5068 -0.4284  1.1729
 6281SOL    HW230306   2.922   3.331   2.351  1.0961  0.2151  0.7493
 6282SOL     OW30307   4.547   2.821   3.679 -0.6055  0.4396 -0.0675
 6282SOL    HW130308   4.524   2.730   3.659 -0.4123  0.1286  1.1375
 6282SOL    HW230309   4.641   2.811   3.693 -0.7149 -1.1064 -0.3756
 6283SOL     OW30310   3.855   1.979   3.593  0.2150  0.4590  0.1725
 6283SOL    HW130311   3.770   1.993   3.553  1.0415  3.9179 -0.4264
 6283SOL    HW230312   3.851   2.034   3.671 -0.4208  0.1824  0.3283
 6284SOL     OW30313   3.409   4.688  10.954 -0.3272  0.3119 -0.1563
 6284SOL    HW130314   3.337   4.663  10.895 -0.7374  2.3457 -0.5057
 6284SOL    HW230315   3.356   4.715  11.029 -0.0707  0.9303 -0.1982
 6285SOL     OW30316   4.673   0.123   6.069 -0.3258  0.0391 -0.1110
 6285SOL    HW130317   4.713   0.102   5.985 -1.0801  0.6122 -0.6215
 6285SOL    HW230318   4.660   0.216   6.052 -0.4813 -0.0585 -0.5113
 6286SOL     OW30319   3.096   2.211   7.760 -0.2720  0.1865  0.3738
 6286SOL    HW130320   3.113   2.187   7.851  1.8546  2.1541  0.4719
 6286SOL    HW230321   3.042   2.290   7.768  1.4032  1.1338  2.3025
 6287SOL     OW30322   4.487   2.805   4.634  0.3450  0.5686 -0.2794
 6287SOL    HW130323   4.575   2.841   4.646  0.0007  1.0745  0.6569
 6287SOL    HW230324   4.449   2.843   4.713  0.3792 -0.6199  0.2981
 6288SOL     OW30325   0.127   0.332  13.791 -0.2247  0.3058  0.3951
 6288SOL    HW130326   0.093   0.304  13.876 -0.6568 -0.0574  0.1048
 6288SOL    HW230327   0.166   0.416  13.814 -3.4539  1.0459  3.0999
 6289SOL     OW30328   4.175   0.574   6.888  0.1535 -0.2791  0.1891
 6289SOL    HW130329   4.260   0.591   6.847 -1.4354  2.6184 -1.9185
 6289SOL    HW230330   4.197   0.520   6.964  0.7798 -0.9468 -0.4699
 6290SOL     OW30331   0.015   2.428  10.568  0.5958  0.0981 -0.5463
 6290SOL    HW130332   0.035   2.403  10.478 -1.5567  2.1897 -1.6119
 6290SOL    HW230333   0.007   2.522  10.552 -0.0999  0.1704  0.2142
 6291SOL     OW30334   1.345   1.599   5.856  0.1503 -0.3318  0.9391
 6291SOL    HW130335   1.382   1.627   5.940  0.7439 -0.3289  0.6730
 6291SOL    HW230336   1.252   1.616   5.874  0.3091 -0.3185  1.7460
 6292SOL     OW30337   4.320   4.036   7.567 -0.2439  0.0279  0.7505
 6292SOL    HW130338   4.389   4.093   7.602 -0.4120  1.1886 -0.8053
 6292SOL    HW230339   4.371   3.972   7.518  1.9441 -0.2283  3.3369
 6293SOL     OW30340   3.733   0.455   1.297  0.1320  0.1995  0.6181
 6293SOL    HW130341   3.813   0.415   1.334 -0.2044 -0.6733  0.3843
 6293SOL    HW230342   3.763   0.545   1.282 -1.6697  0.8280  0.7674
 6294SOL     OW30343   3.549   1.636   6.814  0.0217 -0.1191 -0.1335
 6294SOL    HW130344   3.610   1.708   6.833 -1.4464  1.4453 -1.3601
 6294SOL    HW230345   3.508   1.626   6.900 -0.0810 -1.9304 -0.3993
 6295SOL     OW30346   2.364   0.931   2.974 -0.4892  0.5172 -0.3973
 6295SOL    HW130347   2.413   0.855   3.006  0.3351  1.0045 -0.5258
 6295SOL    HW230348   2.311   0.957   3.050  1.1574  2.4297  0.0857
 6296SOL     OW30349   2.955   1.801   4.047 -0.1501 -0.0574  0.7048
 6296SOL    HW130350   2.868   1.760   4.047 -0.2307  0.1205  0.0674
 6296SOL    HW230351   2.959   1.843   4.133 -0.1743 -2.8421  2.0906
 6297SOL     OW30352   0.001   2.343   1.868  0.1249 -0.2210  0.0907
 6297SOL    HW130353   0.068   2.320   1.804  0.3774  1.0169 -0.0861
 6297SOL    HW230354   0.016   2.437   1.880  3.3709 -0.7184 -0.1068
 6298SOL     OW30355   4.678   3.620  14.165  0.1818  0.5449  0.0171
 6298SOL    HW130356   4.690   3.527  14.149  0.9550  0.7188 -0.4091
 6298SOL    HW230357   4.591   3.615  14.206  0.8852  4.5528  2.0368
 6299SOL     OW30358   1.900   1.922   6.733 -0.3675  0.2930 -0.1226
 6299SOL    HW130359   1.940   1.959   6.655  1.0647 -2.7871 -0.8678
 6299SOL    HW230360   1.810   1.953   6.728 -1.5014 -2.4281  3.0009
 6300SOL     OW30361   3.182   2.956   6.367  0.3952 -1.1015 -0.3897
 6300SOL    HW130362   3.179   2.956   6.271 -1.8032 -0.5560 -0.3040
 6300SOL    HW230363   3.196   3.050   6.375  1.4671 -1.4627  1.9383
 6301SOL     OW30364   2.224   1.263   6.919 -0.6873  0.1386 -0.5184
 6301SOL    HW130365   2.278   1.193   6.956 -0.3984  0.2072 -0.8113
 6301SOL    HW230366   2.138   1.221   6.919 -1.0166  0.8004  0.7662
 6302SOL     OW30367   0.315   0.199   5.034  0.8246 -0.2181  0.3871
 6302SOL    HW130368   0.241   0.209   5.093  0.1093  0.7561 -0.6785
 6302SOL    HW230369   0.272   0.168   4.954  2.4124 -1.4492  0.0173
 6303SOL     OW30370   0.356   4.674  13.759  0.1239 -0.0156  0.0757
 6303SOL    HW130371   0.348   4.675  13.855 -0.9393 -0.3379  0.0021
 6303SOL    HW230372   0.450   4.663  13.766  0.0500 -0.3392  0.5856
 6304SOL     OW30373   3.664   1.086   8.328 -0.2414  0.1261  0.0390
 6304SOL    HW130374   3.705   1.110   8.411 -1.1485  0.1111  0.4868
 6304SOL    HW230375   3.733   1.022   8.306  0.7444  1.6661 -1.3566
 6305SOL     OW30376   0.657   1.888   6.567 -0.2502  0.2652 -0.2401
 6305SOL    HW130377   0.748   1.876   6.595 -0.0751 -0.7456 -1.2788
 6305SOL    HW230378   0.620   1.818   6.621 -2.9517  2.0018  0.1607
 6306SOL     OW30379   0.401   3.342   0.104  0.5699 -0.2198  0.0961
 6306SOL    HW130380   0.431   3.325   0.014 -0.4459 -0.0843 -0.2668
 6306SOL    HW230381   0.430   3.430   0.124 -1.7041  0.1891  1.5789
 6307SOL     OW30382   3.043   0.464   7.422 -0.1650 -0.3035  0.3413
 6307SOL    HW130383   2.966   0.514   7.447  0.6850  0.5349  1.2899
 6307SOL    HW230384   3.016   0.440   7.333  0.8709 -0.4428  0.0538
 6308SOL     OW30385   4.673   1.964  13.309 -0.3608  0.2025 -0.1049
 6308SOL    HW130386   4.581   1.957  13.335 -0.3253  0.5706  0.1032
 6308SOL    HW230387   4.689   1.869  13.301  2.2111  0.4923  1.4734
 6309SOL     OW30388   1.038   0.104   8.550  0.1215 -0.0636 -0.0443
 6309SOL    HW130389   1.105   0.072   8.489 -1.2476 -1.9228 -0.5557
 6309SOL    HW230390   1.100   0.153   8.605 -1.1257  2.3401 -0.7579
 6310SOL     OW30391   0.921   1.873   1.723  0.0108 -0.2850 -0.1549
 6310SOL    HW130392   0.919   1.848   1.816 -3.2967  1.7101  0.3076
 6310SOL    HW230393   0.998   1.824   1.695 -0.5259 -0.6021 -1.0555
 6311SOL     OW30394   2.153   3.267   3.651 -0.0081  0.5805 -0.0020
 6311SOL    HW130395   2.199   3.328   3.709  0.3515  1.0497 -0.7756
 6311SOL    HW230396   2.075   3.314   3.619  0.5771  0.7753 -1.1627
 6312SOL     OW30397   0.149   1.152   3.499  0.4758  0.3780  0.1795
 6312SOL    HW130398   0.061   1.115   3.508  0.0397  1.3597 -0.0661
 6312SOL    HW230399   0.175   1.134   3.409  1.0377  0.5554  0.3051
 6313SOL     OW30400   2.930   4.565   2.513 -0.1883 -0.8196 -0.6888
 6313SOL    HW130401   2.952   4.639   2.457  2.3386 -0.7709  0.3531
 6313SOL    HW230402   2.842   4.545   2.480 -1.6677  1.6153  1.8304
 6314SOL     OW30403   4.588   2.150   2.293 -0.2867  0.5537  0.0071
 6314SOL    HW130404   4.613   2.242   2.292 -0.5036  0.6151  0.2247
 6314SOL    HW230405   4.526   2.143   2.220  3.4964 -2.2914 -2.9691
 6315SOL     OW30406   2.392   1.997  12.276 -0.4845 -0.2572 -0.8920
 6315SOL    HW130407   2.485   1.976  12.281 -0.0508  2.1721  1.6550
 6315SOL    HW230408   2.386   2.043  12.360 -3.4940  1.1616 -1.9140
 6316SOL     OW30409   0.105   2.384   8.840  0.2272  0.4603 -0.3437
 6316SOL    HW130410   0.137   2.349   8.923 -0.9158 -0.7730 -0.4122
 6316SOL    HW230411   0.131   2.476   8.843 -0.4459  0.6341  0.2467
 6317SOL     OW30412   3.708   3.308   4.388  0.5565 -0.4263 -0.7238
 6317SOL    HW130413   3.630   3.253   4.372  0.4807 -0.8057  0.9827
 6317SOL    HW230414   3.759   3.278   4.312 -1.0118 -1.3500 -1.4137
 6318SOL     OW30415   0.509   0.974   7.292 -0.0093  0.7308  0.3713
 6318SOL    HW130416   0.459   0.982   7.210  0.9159 -0.6867 -0.3144
 6318SOL    HW230417   0.583   1.028   7.265 -0.2099  0.5130 -0.6244
 6319SOL     OW30418   1.954   4.560   4.379  0.4141 -0.3304 -0.3260
 6319SOL    HW130419   1.980   4.558   4.287  1.5656  0.8643 -0.0296
 6319SOL    HW230420   2.008   4.490   4.414  2.1021  0.1347 -1.9946
 6320SOL     OW30421   3.816   1.920  16.819 -0.3030  0.2846  0.3736
 6320SOL    HW130422   3.785   1.991  16.763 -4.5916 -1.0905  0.9394
 6320SOL    HW230423   3.741   1.880  16.865 -0.3663 -0.4536 -0.3632
 6321SOL     OW30424   1.934   2.404   3.207 -0.0922  0.4602  0.0521
 6321SOL    HW130425   1.841   2.394   3.188  0.0738 -0.6778 -0.1748
 6321SOL    HW230426   1.949   2.498   3.198 -1.9255  0.8857  1.5327
 6322SOL     OW30427   3.388   1.457   7.720  0.2564 -0.2614 -0.2360
 6322SOL    HW130428   3.454   1.484   7.785 -1.0940 -0.2385  1.1413
 6322SOL    HW230429   3.441   1.403   7.661 -0.3426 -0.9091 -0.1684
 6323SOL     OW30430   0.514   3.097   9.135  0.2465 -0.2683 -0.7773
 6323SOL    HW130431   0.544   3.137   9.217 -0.4166 -1.3886  0.0037
 6323SOL    HW230432   0.493   3.177   9.087 -0.3891 -0.1636 -0.3228
 6324SOL     OW30433   3.723   2.671   8.971  0.4384  0.0820  1.5434
 6324SOL    HW130434   3.633   2.639   8.972  0.4125  0.1028 -0.4858
 6324SOL    HW230435   3.720   2.748   9.028  0.0143  1.8173 -0.8211
 6325SOL     OW30436   0.855   0.642   8.161  0.0039 -0.7940 -0.0602
 6325SOL    HW130437   0.799   0.568   8.138  0.0808 -0.5824 -0.9119
 6325SOL    HW230438   0.805   0.718   8.133  0.6437 -0.4060 -0.1512
 6326SOL     OW30439   1.703   1.159  15.664  0.0055  0.0601  0.2017
 6326SOL    HW130440   1.621   1.158  15.614  0.5440  0.7821 -0.6907
 6326SOL    HW230441   1.758   1.111  15.601  2.0705  2.1897  0.4106
 6327SOL     OW30442   2.819   2.424  17.648 -0.0776  0.1611  0.0558
 6327SOL    HW130443   2.872   2.365   0.016 -0.6458 -2.2246 -2.0115
 6327SOL    HW230444   2.769   2.460   0.035  0.5544 -1.0921  1.1094
 6328SOL     OW30445   2.730   1.764   3.703  0.4675 -0.4778 -0.3015
 6328SOL    HW130446   2.746   1.840   3.646 -1.8879 -0.7900 -1.3702
 6328SOL    HW230447   2.714   1.810   3.786 -0.3464 -0.9731 -0.1880
 6329SOL     OW30448   1.859   0.565   7.575  0.5652  0.4919  0.6406
 6329SOL    HW130449   1.803   0.628   7.530  2.1472  1.3445 -0.1299
 6329SOL    HW230450   1.904   0.533   7.496 -2.8971 -2.7147 -0.0315
 6330SOL     OW30451   2.764   4.323  12.931 -0.1222  0.0485  0.1706
 6330SOL    HW130452   2.741   4.239  12.972  0.9693 -0.9931 -1.3598
 6330SOL    HW230453   2.680   4.364  12.952  0.1682  0.8234 -0.2147
 6331SOL     OW30454   1.929   0.230  17.339  0.4217 -0.3368 -0.1709
 6331SOL    HW130455   1.894   0.305  17.388 -0.9296 -1.2867  0.3346
 6331SOL    HW230456   2.024   0.243  17.345  0.5893 -2.0882  1.1412
 6332SOL     OW30457   0.675   2.261   2.761 -0.5695  0.5623  0.0871
 6332SOL    HW130458   0.604   2.196   2.767  1.1090 -1.1379  1.5870
 6332SOL    HW230459   0.736   2.248   2.834 -0.3638  1.9101  0.1527
 6333SOL     OW30460   4.309   2.301  10.377 -0.0422 -0.1834  0.3299
 6333SOL    HW130461   4.375   2.256  10.430 -2.2774  0.2436  3.5218
 6333SOL    HW230462   4.362   2.376  10.350 -1.7615  0.2755 -1.7439
 6334SOL     OW30463   0.838   3.394   8.256  0.0517  0.1476 -0.0359
 6334SOL    HW130464   0.754   3.389   8.303 -0.9242  2.0942 -1.5910
 6334SOL    HW230465   0.896   3.414   8.329  1.9611 -0.7903 -1.2831
 6335SOL     OW30466   0.737   1.629   1.127 -0.5591 -0.0962  1.4078
 6335SOL    HW130467   0.685   1.709   1.116  0.2974  0.8136  3.8771
 6335SOL    HW230468   0.719   1.581   1.047 -1.7594 -0.7208  2.0505
 6336SOL     OW30469   1.926   2.591   9.565  0.4359 -0.1220 -0.4208
 6336SOL    HW130470   1.994   2.650   9.533 -0.4751  2.0939  1.7519
 6336SOL    HW230471   1.978   2.520   9.603 -0.4452  0.6414  2.2092
 6337SOL     OW30472   1.573   2.117   0.389  0.4036 -0.5310 -0.2584
 6337SOL    HW130473   1.626   2.181   0.341 -1.0031  0.2766 -0.7539
 6337SOL    HW230474   1.616   2.121   0.474 -1.8872 -1.4693  0.9475
 6338SOL     OW30475   1.387   1.397   0.648 -0.5582  0.0656  0.2230
 6338SOL    HW130476   1.377   1.302   0.640 -5.4168  0.8800 -2.7712
 6338SOL    HW230477   1.386   1.420   0.741  0.5069  0.0810  0.2390
 6339SOL     OW30478   2.993   1.728   7.847  0.1415  0.3561 -0.2883
 6339SOL    HW130479   3.016   1.642   7.812 -2.2077 -0.6025  0.5593
 6339SOL    HW230480   2.963   1.777   7.770 -2.3878  0.5299  0.8376
 6340SOL     OW30481   1.771   0.439   0.974  0.4155 -0.4052 -0.5459
 6340SOL    HW130482   1.801   0.350   0.994 -0.4259 -0.8256 -1.1519
 6340SOL    HW230483   1.746   0.432   0.882 -0.7656 -0.5393 -0.2182
 6341SOL     OW30484   3.646   1.335   0.766 -0.0507 -0.1922  0.0810
 6341SOL    HW130485   3.594   1.350   0.687 -0.1144  1.1367  0.3847
 6341SOL    HW230486   3.581   1.352   0.834  0.4121 -1.3077  0.8151
 6342SOL     OW30487   4.066   4.568   9.506  0.6391 -0.2662 -0.4974
 6342SOL    HW130488   4.111   4.484   9.513 -0.0507 -0.5908  0.0684
 6342SOL    HW230489   4.117   4.619   9.569 -2.2943  1.2745  0.6495
 6343SOL     OW30490   2.487   4.092  16.941  0.4113 -0.4809  0.0856
 6343SOL    HW130491   2.416   4.071  17.003 -0.4989  0.3817 -0.6637
 6343SOL    HW230492   2.554   4.031  16.972  2.0767  1.0257 -0.5592
 6344SOL     OW30493   1.621   3.162   5.282 -0.1580 -0.3125  0.3482
 6344SOL    HW130494   1.676   3.231   5.320 -1.4356  0.6814  0.3949
 6344SOL    HW230495   1.667   3.151   5.199 -0.3461  0.5720  0.1286
 6345SOL     OW30496   4.160   2.111  10.290  0.3376  0.5898  0.4053
 6345SOL    HW130497   4.221   2.170  10.335 -1.4696  1.2935  1.9551
 6345SOL    HW230498   4.230   2.051  10.262 -0.6489  0.1437 -1.0632
 6346SOL     OW30499   4.355   0.024   7.410 -0.0228 -1.2185 -0.9654
 6346SOL    HW130500   4.337   4.711   7.498 -1.7483 -2.3509 -1.7447
 6346SOL    HW230501   4.435   0.074   7.425  0.8511 -2.5674 -1.0906
 6347SOL     OW30502   4.145   0.745   8.878  0.4305  0.6389  0.5282
 6347SOL    HW130503   4.211   0.712   8.940 -0.3889  1.3297  1.7724
 6347SOL    HW230504   4.194   0.747   8.796  0.2408  1.9471  0.4474
 6348SOL     OW30505   1.674   1.937   6.418  0.3057  0.0155  0.3632
 6348SOL    HW130506   1.757   1.950   6.372  0.4960  2.0645  1.2972
 6348SOL    HW230507   1.678   1.842   6.434 -0.3609 -0.0084  0.3607
 6349SOL     OW30508   1.540   0.272  10.539 -0.0184  0.3258  0.0288
 6349SOL    HW130509   1.554   0.336  10.469  1.4029  0.8319  0.7671
 6349SOL    HW230510   1.601   0.200  10.518  2.2142  1.7847  1.5551
 6350SOL     OW30511   2.192   3.955  12.619 -0.1962  0.2686  0.5474
 6350SOL    HW130512   2.192   3.910  12.703  1.1504 -1.1713 -0.2264
 6350SOL    HW230513   2.196   4.046  12.649  2.0107  0.7031 -1.0790
 6351SOL     OW30514   1.884   2.008   4.857 -0.2711  0.1112 -0.0792
 6351SOL    HW130515   1.883   1.933   4.799 -0.1217 -0.9202  1.2500
 6351SOL    HW230516   1.953   1.985   4.919  1.6137  2.6643 -1.2479
 6352SOL     OW30517   2.201   2.095   3.204  0.1210 -0.3962 -0.1123
 6352SOL    HW130518   2.229   2.042   3.130  0.0915  0.6914 -0.9035
 6352SOL    HW230519   2.161   2.030   3.262 -2.9840  2.0011  0.4496
 6353SOL     OW30520   1.368   0.486   0.672 -0.1504 -0.2351  0.0954
 6353SOL    HW130521   1.337   0.444   0.592 -0.1495  0.7568 -0.4215
 6353SOL    HW230522   1.293   0.464   0.727  1.0076  1.8759  2.5275
 6354SOL     OW30523   4.145   3.675   2.501 -0.2477  0.7671 -0.3117
 6354SOL    HW130524   4.112   3.764   2.486 -0.7655  0.3011 -1.9040
 6354SOL    HW230525   4.061   3.630   2.504  1.5187 -2.5100 -0.7572
 6355SOL     OW30526   4.073   3.286   1.333  0.6171 -0.1303  0.4584
 6355SOL    HW130527   4.002   3.223   1.344  0.7694 -0.4621 -0.4664
 6355SOL    HW230528   4.062   3.325   1.420 -0.2175 -1.8572  1.1231
 6356SOL     OW30529   3.483   2.420  14.960  0.4409 -0.5176 -0.6947
 6356SOL    HW130530   3.576   2.407  14.942  0.5000  0.1367 -0.8442
 6356SOL    HW230531   3.472   2.510  14.931 -0.7613 -0.3005  0.4338
 6357SOL     OW30532   0.781   4.697   9.059  0.1650 -0.0943  0.0726
 6357SOL    HW130533   0.851   4.700   8.994 -1.1300 -0.3623 -1.3423
 6357SOL    HW230534   0.799   0.057   9.107 -1.5297  1.2204 -1.5099
 6358SOL     OW30535   4.485   4.721   3.907 -0.0516 -0.1721 -0.1392
 6358SOL    HW130536   4.431   0.045   3.842  0.4079  2.6514  1.4430
 6358SOL    HW230537   4.502   0.069   3.971  0.7259  0.9516 -1.5756
 6359SOL     OW30538   0.739   0.714   1.207  0.4798 -0.2714  0.0662
 6359SOL    HW130539   0.768   0.719   1.298 -0.2722  1.2600  0.2236
 6359SOL    HW230540   0.822   0.699   1.163 -0.3844  0.8010 -1.9510
 6360SOL     OW30541   2.367   0.457  16.215  0.0791  0.2779 -0.6631
 6360SOL    HW130542   2.308   0.382  16.202 -1.7979  2.3161 -3.8575
 6360SOL    HW230543   2.306   0.531  16.216  0.3171  0.4804 -3.1396
 6361SOL     OW30544   2.847   0.423   4.300 -0.0721  0.2601 -0.2308
 6361SOL    HW130545   2.810   0.502   4.261  0.1826  1.1934  1.4343
 6361SOL    HW230546   2.892   0.460   4.375 -0.4504  0.5161 -0.1293
 6362SOL     OW30547   1.946   3.523   2.649 -0.2818 -0.3159  0.3487
 6362SOL    HW130548   1.875   3.538   2.587 -1.4960 -1.8628  1.3615
 6362SOL    HW230549   1.968   3.431   2.636  0.0085  0.0932 -1.9838
 6363SOL     OW30550   0.925   0.128   5.097  0.1015 -0.0453  0.1536
 6363SOL    HW130551   0.897   0.176   5.019  0.2353 -0.3235 -0.0671
 6363SOL    HW230552   0.884   0.042   5.089  1.2877 -0.7424  1.4624
 6364SOL     OW30553   4.177   1.532  13.543  0.5552  0.2252 -0.3538
 6364SOL    HW130554   4.112   1.461  13.547 -1.3077  2.1893  3.8789
 6364SOL    HW230555   4.233   1.526  13.620 -0.3293  1.5532  0.3897
 6365SOL     OW30556   2.217   4.172   8.611 -0.1553 -0.6888  0.1758
 6365SOL    HW130557   2.131   4.182   8.653 -0.9270 -0.4766 -1.4485
 6365SOL    HW230558   2.216   4.086   8.568 -0.6673  0.9743 -3.1148
 6366SOL     OW30559   0.615   0.782   0.348  0.5231  0.1833  0.9311
 6366SOL    HW130560   0.555   0.835   0.401 -1.7839 -0.9524 -0.5388
 6366SOL    HW230561   0.598   0.825   0.264  1.8012  0.8071  0.9930
 6367SOL     OW30562   3.746   2.441   5.394  0.1170  0.2313 -0.3382
 6367SOL    HW130563   3.727   2.352   5.364 -1.2927  0.2443  0.5268
 6367SOL    HW230564   3.654   2.468   5.400  0.2738 -0.2555  3.6767
 6368SOL     OW30565   0.690   3.135  14.616  0.5406  0.5110  0.0373
 6368SOL    HW130566   0.778   3.173  14.626  0.9620 -1.1767  2.5850
 6368SOL    HW230567   0.709   3.078  14.541 -1.1033  1.3598 -1.0335
 6369SOL     OW30568   1.892   3.083   0.056 -0.1485  0.2228 -0.1122
 6369SOL    HW130569   1.899   3.004   0.003  1.2592  1.2813 -1.5019
 6369SOL    HW230570   1.838   3.137  17.684  1.0539  0.7960 -0.7076
 6370SOL     OW30571   2.670   3.883   9.325 -0.0084  0.5276  0.2677
 6370SOL    HW130572   2.670   3.978   9.311 -0.0653  0.7291  1.6264
 6370SOL    HW230573   2.636   3.869   9.237  1.5574 -1.5156  0.0019
 6371SOL     OW30574   4.043   1.906   1.595 -0.0617  0.1404 -0.2404
 6371SOL    HW130575   3.962   1.908   1.544 -1.3784  1.5815  1.9089
 6371SOL    HW230576   4.035   1.824   1.643  1.2632 -0.1444 -0.5195
 6372SOL     OW30577   4.418   2.796   9.112  0.1732 -0.4175 -0.0223
 6372SOL    HW130578   4.482   2.851   9.158 -3.5573  1.6406  2.7131
 6372SOL    HW230579   4.410   2.840   9.028 -0.1430  1.2959  0.8892
 6373SOL     OW30580   3.941   3.770   0.823 -0.1999  0.1488 -0.0641
 6373SOL    HW130581   3.980   3.813   0.747  1.9106  0.9743  1.4816
 6373SOL    HW230582   3.969   3.679   0.809  0.4862  0.0758  1.8163
 6374SOL     OW30583   4.455   1.240   0.367  0.5471 -0.0290  0.8219
 6374SOL    HW130584   4.447   1.159   0.418 -2.2714  0.8155  1.7272
 6374SOL    HW230585   4.549   1.247   0.351  0.0356  0.3059 -1.9859
 6375SOL     OW30586   2.240   1.706  13.818 -0.2211  0.2053  0.3512
 6375SOL    HW130587   2.262   1.648  13.891 -0.4426 -1.0137 -0.5639
 6375SOL    HW230588   2.147   1.681  13.817 -0.1690  0.0828 -1.5406
 6376SOL     OW30589   3.958   3.242  12.424 -0.6889  0.6657  0.2503
 6376SOL    HW130590   4.050   3.268  12.413 -0.2212 -1.0066  0.1954
 6376SOL    HW230591   3.966   3.218  12.517 -1.9450  1.8947  0.6709
 6377SOL     OW30592   0.068   3.273  16.415 -0.0980 -0.2730  0.4102
 6377SOL    HW130593   0.081   3.366  16.431  1.5490 -0.4541  0.1708
 6377SOL    HW230594   0.041   3.250  16.504  1.5249  1.2947  1.2984
 6378SOL     OW30595   3.591   1.011   9.889  0.3599  0.1316 -0.4142
 6378SOL    HW130596   3.632   0.957   9.957 -0.6268  0.6652  0.5971
 6378SOL    HW230597   3.651   1.086   9.891 -0.0243  0.3771  2.3269
 6379SOL     OW30598   4.446   0.988   0.964  0.0693 -0.3727 -1.0410
 6379SOL    HW130599   4.398   0.914   1.003  0.3476 -0.1110 -0.1966
 6379SOL    HW230600   4.372   1.044   0.940 -0.4891  0.5027  2.7077
 6380SOL     OW30601   3.151   1.742  12.254  0.2031 -0.3632  0.1193
 6380SOL    HW130602   3.075   1.703  12.298  1.5449 -2.1409  0.8481
 6380SOL    HW230603   3.219   1.687  12.292 -1.2079 -2.2916 -0.1238
 6381SOL     OW30604   0.828   1.811  13.319 -0.1444  0.0568 -0.0413
 6381SOL    HW130605   0.882   1.742  13.357 -0.6204 -0.0590  0.4261
 6381SOL    HW230606   0.886   1.887  13.320 -0.5359  0.3661 -1.1462
 6382SOL     OW30607   1.902   3.655   3.156 -1.0527  0.1567 -0.4627
 6382SOL    HW130608   1.872   3.636   3.067  0.2752 -3.4491 -0.1362
 6382SOL    HW230609   1.934   3.746   3.153 -0.8322  0.1199  0.9278
 6383SOL     OW30610   3.652   1.183   5.206 -0.0688  0.3519  0.0538
 6383SOL    HW130611   3.589   1.133   5.258  3.4128 -0.4868  3.4584
 6383SOL    HW230612   3.737   1.143   5.225 -0.4843 -0.6204 -0.1717
 6384SOL     OW30613   1.912   4.045   6.264  0.2302 -0.1025  0.0599
 6384SOL    HW130614   1.909   4.080   6.353  0.2198 -0.5397  0.2311
 6384SOL    HW230615   2.003   4.035   6.237  0.0310 -1.1836 -0.1818
 6385SOL     OW30616   3.263   0.547   2.310 -0.3060 -0.3026  0.0903
 6385SOL    HW130617   3.358   0.538   2.309 -0.6027 -3.3127  0.0506
 6385SOL    HW230618   3.233   0.483   2.374  3.0136 -2.8888 -0.9341
 6386SOL     OW30619   2.560   2.410   6.187  0.3836  0.5113  0.4913
 6386SOL    HW130620   2.479   2.460   6.180  0.8590  1.2547  0.2772
 6386SOL    HW230621   2.563   2.402   6.282  2.4418  1.0131  0.4692
 6387SOL     OW30622   2.299   3.517   6.692  0.1962  0.2107 -0.4509
 6387SOL    HW130623   2.215   3.474   6.676  0.1229  0.1417  0.1223
 6387SOL    HW230624   2.269   3.608   6.694 -1.3941 -0.3213 -0.3863
 6388SOL     OW30625   1.167   1.479   7.063 -0.2014 -0.5353  0.2436
 6388SOL    HW130626   1.110   1.548   7.031  1.4587  1.3267  1.2904
 6388SOL    HW230627   1.213   1.457   6.982  0.6427  0.5558  0.4286
 6389SOL     OW30628   0.185   4.543   6.830 -0.3925  0.1428  0.8306
 6389SOL    HW130629   0.276   4.534   6.805 -0.8688 -0.4742 -0.6970
 6389SOL    HW230630   0.189   4.638   6.842 -1.3285  0.6466 -2.5539
 6390SOL     OW30631   4.207   4.645   8.725  0.3552  0.5671  1.2032
 6390SOL    HW130632   4.245   4.559   8.706 -1.6433 -0.3092  1.1685
 6390SOL    HW230633   4.137   4.613   8.783 -0.8912 -0.4664 -0.8901
 6391SOL     OW30634   0.863   1.408   7.628  0.7018 -0.8355 -0.0446
 6391SOL    HW130635   0.871   1.498   7.660 -0.6644  0.0430 -2.1581
 6391SOL    HW230636   0.828   1.358   7.701  0.5211  0.9618  1.1155
 6392SOL     OW30637   0.257   4.397   8.586 -0.2894  0.1827  0.0988
 6392SOL    HW130638   0.170   4.393   8.626  0.0303  2.1574  1.0005
 6392SOL    HW230639   0.237   4.413   8.493  0.6559  0.2960 -0.0804
 6393SOL     OW30640   0.175   0.302  11.894 -0.3572 -0.0117  0.1539
 6393SOL    HW130641   0.086   0.330  11.913 -0.9444  0.4359 -3.2477
 6393SOL    HW230642   0.192   0.235  11.961  0.1456 -0.4541 -0.4073
 6394SOL     OW30643   0.743   3.312   0.558  0.0837  0.1626 -0.4762
 6394SOL    HW130644   0.653   3.299   0.589  0.8758 -2.1592  0.8273
 6394SOL    HW230645   0.777   3.225   0.538  0.5408  0.4947 -1.1483
 6395SOL     OW30646   4.493   3.079   4.383  0.0092 -0.1847  0.0040
 6395SOL    HW130647   4.472   2.987   4.368  2.3230 -0.8343  0.8412
 6395SOL    HW230648   4.587   3.079   4.403 -0.2622 -3.4039  1.2424
 6396SOL     OW30649   0.285   1.081   4.484  0.5806 -0.1799  0.0419
 6396SOL    HW130650   0.320   1.168   4.464  1.8012 -1.1447 -2.0627
 6396SOL    HW230651   0.202   1.085   4.436  0.7470 -1.2094 -0.3155
 6397SOL     OW30652   3.993   0.195   4.383 -0.2054  0.2398  0.0383
 6397SOL    HW130653   4.058   0.253   4.422  0.1651 -0.8517  1.0683
 6397SOL    HW230654   3.929   0.204   4.454 -1.2140  0.3141 -0.8802
 6398SOL     OW30655   2.460   1.834   2.695 -0.1214 -0.0862 -0.0594
 6398SOL    HW130656   2.493   1.879   2.617 -2.1858 -0.1521 -0.9857
 6398SOL    HW230657   2.457   1.746   2.656  2.5146  0.9626 -2.5585
 6399SOL     OW30658   1.410   1.379   2.260  0.3860 -0.1537  0.6887
 6399SOL    HW130659   1.380   1.377   2.351 -0.4748 -1.1272  0.3877
 6399SOL    HW230660   1.502   1.352   2.263 -0.2950 -2.6685 -0.6814
 6400SOL     OW30661   1.439   2.507   1.141  0.7947  0.4875  0.2161
 6400SOL    HW130662   1.435   2.438   1.207 -1.7613  0.9823  0.5844
 6400SOL    HW230663   1.458   2.468   1.056 -3.0535 -0.9630  0.0485
 6401SOL     OW30664   4.035   1.284   7.143  0.3768 -0.0465 -0.4712
 6401SOL    HW130665   4.113   1.340   7.138  0.0547  0.3858 -0.5907
 6401SOL    HW230666   4.056   1.220   7.211 -0.6516  2.5374  2.2743
 6402SOL     OW30667   3.502   3.181   9.827  0.3952 -0.2249  0.5700
 6402SOL    HW130668   3.438   3.245   9.793  1.0923 -0.3702 -1.0070
 6402SOL    HW230669   3.581   3.232   9.845  0.7633 -0.8359  0.6638
 6403SOL     OW30670   2.565   1.850   3.143  0.6721 -0.4205 -0.0310
 6403SOL    HW130671   2.499   1.789   3.177  0.6482  0.0049  0.6836
 6403SOL    HW230672   2.635   1.786   3.149  0.5290 -0.4460  1.4108
 6404SOL     OW30673   2.275   4.351  10.135 -0.2614  0.2044 -0.2346
 6404SOL    HW130674   2.345   4.302  10.092 -0.4883  0.0262 -0.4104
 6404SOL    HW230675   2.225   4.372  10.056  0.5532  0.9479 -0.5556
 6405SOL     OW30676   2.771   1.196   6.324 -0.4031 -0.3714 -0.5032
 6405SOL    HW130677   2.852   1.189   6.376 -0.1612  0.4692 -0.7591
 6405SOL    HW230678   2.772   1.117   6.271 -2.0532 -1.7180  1.4994
 6406SOL     OW30679   3.918   4.288   4.567  0.4637  0.3206 -0.3982
 6406SOL    HW130680   3.831   4.249   4.568 -0.1499  1.7079  0.5558
 6406SOL    HW230681   3.905   4.380   4.588  0.8730  0.2300  0.2409
 6407SOL     OW30682   3.270   0.384  11.730 -0.1841 -0.2211 -0.6231
 6407SOL    HW130683   3.324   0.459  11.705 -0.5875  0.3888  0.3589
 6407SOL    HW230684   3.290   0.387  11.823  0.0950  1.5539 -0.7287
 6408SOL     OW30685   1.199   3.207  15.089 -0.5075  0.7621  0.2840
 6408SOL    HW130686   1.113   3.200  15.049 -1.4974  2.3106  2.1228
 6408SOL    HW230687   1.180   3.189  15.182 -3.1358 -0.2676 -0.4509
 6409SOL     OW30688   3.255   2.883   2.442 -0.6038  0.2853 -0.2696
 6409SOL    HW130689   3.267   2.963   2.493 -2.8408 -0.0509  0.7747
 6409SOL    HW230690   3.291   2.898   2.355  0.9070 -2.3970 -0.1377
 6410SOL     OW30691   0.590   3.735   8.881 -0.1702  0.1986  0.0596
 6410SOL    HW130692   0.541   3.784   8.815  0.0726  0.6979  0.2470
 6410SOL    HW230693   0.678   3.754   8.849  0.3224  0.8017  1.7779
 6411SOL     OW30694   2.366   3.650  13.483  0.2877  0.7271  0.3178
 6411SOL    HW130695   2.411   3.694  13.556  0.0015  1.5207  0.0161
 6411SOL    HW230696   2.431   3.650  13.413  0.6711  0.7931  0.6705
 6412SOL     OW30697   2.117   0.118  10.680 -0.3989 -0.2559 -0.0225
 6412SOL    HW130698   2.070   0.169  10.746 -0.0339 -0.2566  0.2400
 6412SOL    HW230699   2.208   0.143  10.696 -1.2367  2.6027  0.3252
 6413SOL     OW30700   3.274   0.189  13.427  0.3109 -0.8137  0.4551
 6413SOL    HW130701   3.185   0.157  13.416 -0.3284  1.3356 -0.7966
 6413SOL    HW230702   3.306   0.213  13.340  1.0659 -1.1033  0.6506
 6414SOL     OW30703   0.244   4.322   6.083  0.5022 -0.5391  0.0404
 6414SOL    HW130704   0.227   4.267   6.007  0.9754  0.3456 -0.7009
 6414SOL    HW230705   0.271   4.406   6.048  0.0214 -1.2654 -2.0410
 6415SOL     OW30706   3.156   1.310   8.542 -0.0114 -0.6851 -0.4477
 6415SOL    HW130707   3.100   1.234   8.561 -1.7732  0.3047 -1.6214
 6415SOL    HW230708   3.240   1.266   8.549 -0.6311 -1.7407  0.3651
 6416SOL     OW30709   2.580   1.792   6.229 -0.0312 -0.0724  0.3015
 6416SOL    HW130710   2.553   1.842   6.305 -0.4367 -0.9808  0.7605
 6416SOL    HW230711   2.495   1.751   6.214  0.7075 -0.7762 -2.1297
 6417SOL     OW30712   1.972   3.819   1.517  0.3465  0.3297 -0.2527
 6417SOL    HW130713   1.914   3.871   1.573 -1.2815  0.8689 -2.4177
 6417SOL    HW230714   2.040   3.880   1.488  1.7300 -0.6334  0.9555
 6418SOL     OW30715   4.572   0.948   8.245  0.6838 -0.0252  0.1788
 6418SOL    HW130716   4.599   0.856   8.247 -1.2498 -0.5810  0.4858
 6418SOL    HW230717   4.478   0.938   8.259  1.1510 -2.2967  1.6973
 6419SOL     OW30718   1.874   1.347   5.851  0.2131 -0.2594 -0.0833
 6419SOL    HW130719   1.805   1.325   5.789 -0.1405  2.2568 -0.5493
 6419SOL    HW230720   1.889   1.441   5.843 -0.7180 -0.1520 -0.5525
 6420SOL     OW30721   1.559   1.624  13.209  0.4236  0.2628 -0.0496
 6420SOL    HW130722   1.532   1.700  13.261  1.1319  0.6006 -0.1673
 6420SOL    HW230723   1.645   1.661  13.189 -0.1554  1.6526 -0.0294
 6421SOL     OW30724   2.882   4.392   4.055 -0.6468 -0.0144 -0.2950
 6421SOL    HW130725   2.798   4.367   4.017 -0.5913 -1.2006  0.3831
 6421SOL    HW230726   2.865   4.475   4.100 -1.2824 -1.1383  1.5170
 6422SOL     OW30727   0.865   0.333   8.388  0.0678  0.9858 -0.3274
 6422SOL    HW130728   0.867   0.255   8.443  1.7753 -0.0679 -1.9102
 6422SOL    HW230729   0.822   0.396   8.447 -1.4596 -0.1801 -0.1920
 6423SOL     OW30730   0.508   1.842  12.316 -0.4938 -0.0022 -0.6111
 6423SOL    HW130731   0.435   1.779  12.318 -2.5286  2.3096 -1.4660
 6423SOL    HW230732   0.479   1.902  12.384  0.2000 -0.9319  0.4956
 6424SOL     OW30733   3.177   3.187   4.805 -0.0427 -0.1711  0.2159
 6424SOL    HW130734   3.202   3.110   4.754  0.6836  1.1473 -1.4441
 6424SOL    HW230735   3.241   3.190   4.877  0.8392 -1.3287 -0.5301
 6425SOL     OW30736   0.301   3.154   6.133  0.2188 -0.1322 -0.9056
 6425SOL    HW130737   0.241   3.083   6.157  2.3519 -1.3388  0.8231
 6425SOL    HW230738   0.361   3.156   6.207 -1.1096 -2.6225  0.2582
 6426SOL     OW30739   3.556   1.824   4.414  0.0907 -0.3255 -0.0339
 6426SOL    HW130740   3.538   1.867   4.330  0.3500  0.1175  0.1373
 6426SOL    HW230741   3.622   1.888   4.439 -0.9185 -0.3908  2.7109
 6427SOL     OW30742   1.994   3.155   5.807  0.2465  0.2467  0.4914
 6427SOL    HW130743   2.053   3.082   5.792  1.0530  0.8850  0.5537
 6427SOL    HW230744   1.952   3.157   5.720  2.3551  1.7585 -0.4971
 6428SOL     OW30745   4.024   2.574   4.951 -0.1812 -0.6222  0.2002
 6428SOL    HW130746   3.993   2.551   5.039 -1.2752  1.2714  0.3141
 6428SOL    HW230747   4.114   2.605   4.960 -0.3317  0.2144 -1.1377
 6429SOL     OW30748   0.298   3.043  15.613 -0.3892  0.0912 -0.1244
 6429SOL    HW130749   0.391   3.041  15.592 -0.7759  0.3061 -1.8725
 6429SOL    HW230750   0.259   3.106  15.551  1.8926  1.1024 -0.5358
 6430SOL     OW30751   2.153   3.976   4.786  0.6816  0.0437  0.6958
 6430SOL    HW130752   2.203   4.029   4.849  1.5322  0.1152 -0.0456
 6430SOL    HW230753   2.200   3.893   4.786 -0.7205 -0.7433 -0.2949
 6431SOL     OW30754   4.496   1.890   3.900  0.2077  0.1599  0.4849
 6431SOL    HW130755   4.580   1.933   3.885  1.1284 -1.3387  1.3075
 6431SOL    HW230756   4.525   1.808   3.940  0.0150 -0.1277  0.0301
 6432SOL     OW30757   2.355   1.614   5.948  0.9041 -0.1553  0.6020
 6432SOL    HW130758   2.356   1.612   6.044 -1.6371  3.2884  0.6899
 6432SOL    HW230759   2.262   1.597   5.934  0.5141  2.1216  0.5048
 6433SOL     OW30760   0.705   3.809  13.684 -0.5135  0.0753 -0.1350
 6433SOL    HW130761   0.619   3.848  13.698 -0.3385  0.5950 -0.4804
 6433SOL    HW230762   0.688   3.718  13.706  2.2375 -0.0600  1.4451
 6434SOL     OW30763   2.349   1.355  15.708 -0.3815  0.6809 -0.1180
 6434SOL    HW130764   2.273   1.412  15.697 -0.4810  0.1543 -2.1713
 6434SOL    HW230765   2.397   1.367  15.625  1.5858 -3.0273  0.4731
 6435SOL     OW30766   1.078   1.933  13.378  0.4284  0.6911 -0.5429
 6435SOL    HW130767   1.085   1.961  13.469 -0.9779  1.2747 -0.6132
 6435SOL    HW230768   1.170   1.939  13.352  1.0257 -0.1230  1.4097
 6436SOL     OW30769   4.024   1.998   4.728  0.3873  0.2881  0.2640
 6436SOL    HW130770   4.039   2.003   4.633 -1.5636  0.0730 -0.0609
 6436SOL    HW230771   4.103   1.953   4.757  0.5191  0.1997 -0.2240
 6437SOL     OW30772   0.195   2.348   3.706 -0.7846  0.0460 -0.1939
 6437SOL    HW130773   0.188   2.275   3.767  0.1310  0.4930  0.4313
 6437SOL    HW230774   0.241   2.414   3.757 -2.1678 -0.2627  1.4467
 6438SOL     OW30775   2.776   0.440  11.930  0.4982 -0.1228 -0.5406
 6438SOL    HW130776   2.818   0.525  11.919  0.6479  0.0532  1.3069
 6438SOL    HW230777   2.840   0.391  11.880  0.0117  0.4900 -1.7633
 6439SOL     OW30778   1.960   0.002   4.600 -0.0220  0.6090 -0.1377
 6439SOL    HW130779   1.932   4.669   4.526  0.7552 -0.4544  0.3362
 6439SOL    HW230780   2.045   4.679   4.602 -0.6842 -0.6951 -0.2937
 6440SOL     OW30781   0.341   4.412   3.674 -0.0081 -0.1628  0.9024
 6440SOL    HW130782   0.396   4.343   3.637 -1.6746 -2.5137  2.7812
 6440SOL    HW230783   0.263   4.358   3.684  0.3425 -0.2906  2.8848
 6441SOL     OW30784   0.838   1.700   8.174  0.0580  0.5489  0.0664
 6441SOL    HW130785   0.884   1.660   8.100 -1.5120  0.4501 -0.8825
 6441SOL    HW230786   0.746   1.676   8.159 -0.0128  0.9727 -0.1737
 6442SOL     OW30787   0.321   2.371  16.104 -0.1983 -0.3041 -0.3726
 6442SOL    HW130788   0.275   2.337  16.027  0.6902  0.2754 -1.1592
 6442SOL    HW230789   0.412   2.374  16.074  0.1711 -0.1544  0.8025
 6443SOL     OW30790   4.049   3.538   0.988 -0.3188 -0.3652  1.0767
 6443SOL    HW130791   4.076   3.626   1.014  1.1877 -0.5334  0.0538
 6443SOL    HW230792   3.954   3.542   1.005 -0.6362 -2.2484 -0.2423
 6444SOL     OW30793   2.195   2.271   7.827  0.3398 -0.1376  0.2097
 6444SOL    HW130794   2.183   2.195   7.884 -0.0573 -0.4818 -0.3339
 6444SOL    HW230795   2.149   2.233   7.752  1.2588  0.1066 -0.4821
 6445SOL     OW30796   0.535   3.203  14.834 -0.0783  0.2354 -0.5418
 6445SOL    HW130797   0.574   3.197  14.747  2.4190 -2.4195  0.7479
 6445SOL    HW230798   0.616   3.217  14.882  1.0983  0.8140 -2.6947
 6446SOL     OW30799   0.274   1.604   0.496  0.6782 -0.0196  0.2531
 6446SOL    HW130800   0.246   1.678   0.550 -0.6655  0.6198 -1.3343
 6446SOL    HW230801   0.367   1.600   0.521  1.1939  0.7758 -1.5582
 6447SOL     OW30802   4.693   1.400   2.842 -0.0766  0.3361 -0.0891
 6447SOL    HW130803   4.656   1.335   2.901 -1.4796 -0.5413 -1.9495
 6447SOL    HW230804   4.701   1.477   2.898  0.5711 -1.5769  2.4198
 6448SOL     OW30805   4.209   4.128   5.494  0.2063 -0.2258 -0.3206
 6448SOL    HW130806   4.219   4.132   5.398 -4.7390 -0.6901 -0.8796
 6448SOL    HW230807   4.164   4.208   5.524 -1.0057 -1.4095  1.0094
 6449SOL     OW30808   2.254   0.306   8.072 -0.1265 -0.7236 -0.1212
 6449SOL    HW130809   2.334   0.254   8.071 -0.7416 -1.7164  2.2071
 6449SOL    HW230810   2.225   0.302   7.981 -0.5247  2.2686 -0.1169
 6450SOL     OW30811   4.551   0.594   9.198 -0.1989 -0.4452  0.3288
 6450SOL    HW130812   4.494   0.588   9.275  1.2884  0.2143  1.4653
 6450SOL    HW230813   4.587   0.506   9.202  1.1207  0.0621 -0.5317
 6451SOL     OW30814   4.157   1.748  10.973 -0.1726  0.2412  1.1394
 6451SOL    HW130815   4.246   1.775  10.950 -0.4453  0.5315  0.4256
 6451SOL    HW230816   4.152   1.659  10.937  2.6877  1.1049 -1.4012
 6452SOL     OW30817   2.826   1.285   4.950 -0.0212 -0.0412 -0.1471
 6452SOL    HW130818   2.876   1.218   4.997 -0.8264  1.2919  2.6402
 6452SOL    HW230819   2.895   1.334   4.906 -0.2304 -0.7865 -1.3053
 6453SOL     OW30820   0.479   0.648   3.517 -0.0147  0.1254  0.5279
 6453SOL    HW130821   0.416   0.682   3.454 -0.4361 -0.4079  0.6603
 6453SOL    HW230822   0.415   0.626   3.585  0.8144 -0.1742  1.2159
 6454SOL     OW30823   0.252   1.592   2.845  0.0939 -0.1218 -0.1887
 6454SOL    HW130824   0.311   1.520   2.867 -0.1437  0.0825  1.1062
 6454SOL    HW230825   0.175   1.593   2.903 -2.1678 -2.9604 -3.1510
 6455SOL     OW30826   3.968   3.233   8.435 -0.1323 -0.4300 -0.2479
 6455SOL    HW130827   3.992   3.311   8.386  1.4082 -0.5981  0.2498
 6455SOL    HW230828   3.874   3.252   8.436 -0.1019 -0.3475  0.6110
 6456SOL     OW30829   4.271   4.504   3.402  0.1797  0.1175  0.2305
 6456SOL    HW130830   4.271   4.552   3.319 -1.0321 -0.4094 -0.0570
 6456SOL    HW230831   4.210   4.554   3.456  0.8430  1.7598 -0.5394
 6457SOL     OW30832   3.164   0.128   6.716  0.0015 -0.5701  0.2333
 6457SOL    HW130833   3.188   0.194   6.782 -2.7809  0.6129  0.0825
 6457SOL    HW230834   3.160   0.049   6.769 -0.7266  0.2918  1.4878
 6458SOL     OW30835   4.426   0.793   3.285  0.0504 -0.2129  0.0895
 6458SOL    HW130836   4.427   0.729   3.356  1.4086  0.7292  0.9172
 6458SOL    HW230837   4.395   0.746   3.207 -1.4506  2.1266 -0.7248
 6459SOL     OW30838   3.196   3.734   9.439  0.7027  0.4891  0.1307
 6459SOL    HW130839   3.189   3.824   9.405  0.9411 -0.0696 -1.3807
 6459SOL    HW230840   3.287   3.732   9.468  0.1350 -3.6585  1.5070
 6460SOL     OW30841   3.963   3.506  15.211 -0.1903  0.1037  0.2455
 6460SOL    HW130842   4.059   3.507  15.215 -0.1667  0.3347 -0.3747
 6460SOL    HW230843   3.951   3.497  15.116  0.9206  0.5408  0.0603
 6461SOL     OW30844   0.985   4.303   5.505  0.0364  0.6145  0.1147
 6461SOL    HW130845   1.041   4.366   5.460  2.8828 -2.3983 -0.5095
 6461SOL    HW230846   0.954   4.251   5.432  1.3521  2.1781 -1.5603
 6462SOL     OW30847   4.612   4.651   5.503  0.6468 -0.5854 -0.2802
 6462SOL    HW130848   4.565   4.658   5.586  0.0526 -1.5158 -0.5373
 6462SOL    HW230849   4.543   4.610   5.451  0.4855  0.3485 -0.7903
 6463SOL     OW30850   2.496   4.347  13.011  0.5748  0.1015  0.0690
 6463SOL    HW130851   2.454   4.289  12.947  0.5771 -0.2291  0.3714
 6463SOL    HW230852   2.484   4.298  13.092 -2.1405 -0.4279 -0.6716
 6464SOL     OW30853   0.650   0.417   1.249 -0.2848 -0.3632 -0.4252
 6464SOL    HW130854   0.703   0.377   1.180 -0.8031 -1.3491 -0.2554
 6464SOL    HW230855   0.653   0.510   1.228  0.7916  0.0638  1.5923
 6465SOL     OW30856   2.527   3.881   6.353  0.0439  0.0790  0.2496
 6465SOL    HW130857   2.502   3.788   6.349  2.4522 -0.6101  0.9749
 6465SOL    HW230858   2.559   3.870   6.442  0.3972  1.2062  0.2528
 6466SOL     OW30859   2.711   4.580   1.187  0.2926 -0.3803 -0.0650
 6466SOL    HW130860   2.659   4.640   1.240  1.0976  0.7516 -0.5689
 6466SOL    HW230861   2.787   4.569   1.244  0.8646 -0.8930 -0.9357
 6467SOL     OW30862   1.707   1.852   3.067  0.1363 -0.8324 -0.3552
 6467SOL    HW130863   1.733   1.918   3.003  0.8786 -0.5488  0.2367
 6467SOL    HW230864   1.781   1.863   3.126 -0.8983 -2.3246  1.2251
 6468SOL     OW30865   3.421   2.096  10.421 -0.0689  0.0782  0.4555
 6468SOL    HW130866   3.468   2.070  10.500  1.6507 -0.0159 -0.6122
 6468SOL    HW230867   3.420   2.014  10.372 -0.5182  1.7979 -2.3778
 6469SOL     OW30868   4.197   0.498  15.587 -0.3886 -0.0365 -0.0943
 6469SOL    HW130869   4.235   0.476  15.672 -1.9377 -0.6820  0.4411
 6469SOL    HW230870   4.257   0.571  15.572  0.8430 -0.9149  0.5710
 6470SOL     OW30871   0.178   3.656   7.405 -0.0890 -0.1096  0.1596
 6470SOL    HW130872   0.240   3.598   7.360  0.2486  0.5805 -0.2644
 6470SOL    HW230873   0.099   3.602   7.394  2.1393 -2.8958 -2.4608
 6471SOL     OW30874   1.610   0.630   4.949  0.7391 -0.4361  0.0690
 6471SOL    HW130875   1.607   0.552   5.005  1.0761  0.4414  1.2839
 6471SOL    HW230876   1.630   0.700   5.010  0.0549 -0.1693 -0.0135
 6472SOL     OW30877   3.477   2.752   7.813 -0.4110  0.0741 -0.6923
 6472SOL    HW130878   3.561   2.794   7.831 -0.4974 -1.0474  2.3129
 6472SOL    HW230879   3.473   2.751   7.717  2.6193 -0.0315 -0.8253
 6473SOL     OW30880   2.168   0.840  11.783 -0.8957  0.3921 -0.2062
 6473SOL    HW130881   2.100   0.898  11.749 -0.6822 -0.4849 -2.1680
 6473SOL    HW230882   2.138   0.751  11.763 -1.4517  0.4486  0.3832
 6474SOL     OW30883   2.690   3.364   3.767  0.0653  0.6998 -0.2859
 6474SOL    HW130884   2.763   3.416   3.733  2.0963 -3.6742 -2.6637
 6474SOL    HW230885   2.617   3.422   3.748  0.7882  1.4374 -0.8151
 6475SOL     OW30886   3.927   2.825   6.038 -0.4891 -0.5540  0.3116
 6475SOL    HW130887   3.986   2.775   6.094  0.1869 -0.5993 -0.4442
 6475SOL    HW230888   3.906   2.763   5.968  1.9560  1.0110 -1.7798
 6476SOL     OW30889   1.242   1.238   1.145 -0.4230  0.5831  0.0406
 6476SOL    HW130890   1.226   1.193   1.227 -1.6329 -1.7653 -1.4933
 6476SOL    HW230891   1.318   1.294   1.162 -0.7992  1.0307  0.2610
 6477SOL     OW30892   1.991   3.914  10.248 -0.3267  0.4783 -0.0270
 6477SOL    HW130893   2.010   4.007  10.261 -1.3572  1.1768 -3.5204
 6477SOL    HW230894   1.925   3.929  10.180 -0.2606 -1.5925 -0.5380
 6478SOL     OW30895   0.712   3.210   0.940  0.2152 -0.2024 -0.0798
 6478SOL    HW130896   0.750   3.289   0.904  0.2856  0.9706  2.5611
 6478SOL    HW230897   0.791   3.156   0.939  1.4643  1.6652 -0.9369
 6479SOL     OW30898   4.322   3.616   9.494  0.4883 -0.2788 -0.9037
 6479SOL    HW130899   4.238   3.661   9.480  1.7471  1.9526 -1.2889
 6479SOL    HW230900   4.340   3.631   9.587 -0.0084 -0.7446 -0.7335
 6480SOL     OW30901   2.193   4.022   6.187 -0.4908 -0.6074  0.2018
 6480SOL    HW130902   2.283   4.049   6.205 -1.1142 -0.0296  2.4230
 6480SOL    HW230903   2.191   3.936   6.230  1.5466 -0.6677  0.1667
 6481SOL     OW30904   4.683   3.385  17.478 -0.5982 -0.3780  0.4356
 6481SOL    HW130905   4.614   3.356  17.417 -1.0555  2.6400 -0.4884
 6481SOL    HW230906   4.717   3.299  17.502 -1.5880 -1.6138 -2.5695
 6482SOL     OW30907   1.677   2.876  10.186  0.8618  0.3777  0.1537
 6482SOL    HW130908   1.608   2.926  10.143 -0.8674  0.7750  3.4037
 6482SOL    HW230909   1.632   2.829  10.256  1.9799 -1.2367 -0.2101
 6483SOL     OW30910   0.390   2.292   7.115  0.2459  0.3376 -0.7330
 6483SOL    HW130911   0.301   2.297   7.078  0.0963  0.7666 -0.3095
 6483SOL    HW230912   0.448   2.280   7.040 -0.5718 -1.8689 -1.0147
 6484SOL     OW30913   1.825   4.027   3.940 -0.1930  0.4419 -0.1344
 6484SOL    HW130914   1.774   3.975   3.878 -1.5654  0.8569  0.6667
 6484SOL    HW230915   1.910   3.984   3.932 -0.5490 -0.4527  0.8850
 6485SOL     OW30916   3.513   4.453   3.419 -0.2857 -0.2583  0.1308
 6485SOL    HW130917   3.487   4.390   3.352 -0.4988 -1.4732  1.3674
 6485SOL    HW230918   3.429   4.490   3.449  0.3245  1.4227 -0.2212
 6486SOL     OW30919   0.899   1.837   4.448  0.6369  0.3904 -0.3249
 6486SOL    HW130920   0.947   1.857   4.368 -0.8203  3.8614 -0.3211
 6486SOL    HW230921   0.957   1.767   4.477  0.5646 -0.7123 -2.8952
 6487SOL     OW30922   1.311   3.343   2.602 -0.3346 -0.3375  0.9084
 6487SOL    HW130923   1.360   3.377   2.676 -0.5006 -1.3682  1.4793
 6487SOL    HW230924   1.227   3.315   2.637 -0.2749  1.3292  2.3721
 6488SOL     OW30925   1.528   2.704   1.760  0.0588  0.5429 -0.0223
 6488SOL    HW130926   1.611   2.745   1.784 -1.1241  1.4152  2.5659
 6488SOL    HW230927   1.518   2.635   1.826 -2.7259 -0.0442 -1.0517
 6489SOL     OW30928   4.437   4.390   9.284  0.3227  0.3056  0.0230
 6489SOL    HW130929   4.437   4.434   9.369 -1.0730  1.3557 -0.5302
 6489SOL    HW230930   4.527   4.357   9.273  0.4959  0.6746  0.3510
 6490SOL     OW30931   2.618   2.097   5.078 -0.4822 -0.3995  0.3089
 6490SOL    HW130932   2.673   2.133   5.148  1.8703  1.4618 -2.4778
 6490SOL    HW230933   2.623   2.004   5.098  0.7087 -0.1757  1.0338
 6491SOL     OW30934   4.346   4.462   0.638 -0.6463 -0.0508  0.3920
 6491SOL    HW130935   4.393   4.378   0.639 -0.3586  0.0893 -1.6877
 6491SOL    HW230936   4.393   4.519   0.699  3.1348 -2.5983 -0.1378
 6492SOL     OW30937   0.913   3.431   8.518 -0.2590 -0.0749 -0.3519
 6492SOL    HW130938   0.894   3.411   8.609  2.0174  1.1287  0.3946
 6492SOL    HW230939   0.903   3.526   8.508  0.2066  0.0382  0.2503
 6493SOL     OW30940   2.493   2.263   8.769  0.0219 -0.1877  0.1390
 6493SOL    HW130941   2.447   2.323   8.710 -0.2491  0.4609  1.0032
 6493SOL    HW230942   2.466   2.180   8.731 -0.5904  0.0511  0.0569
 6494SOL     OW30943   3.837   0.937   8.207  0.3156 -0.5967 -0.3940
 6494SOL    HW130944   3.816   0.954   8.115 -1.5179 -0.5280  0.0352
 6494SOL    HW230945   3.788   0.857   8.226  1.9431 -1.4671  0.1359
 6495SOL     OW30946   3.302   0.827  16.754 -0.5447  0.1155 -0.4141
 6495SOL    HW130947   3.224   0.852  16.804 -0.0818 -0.0842  0.4155
 6495SOL    HW230948   3.377   0.822  16.814 -0.9432 -0.3283  0.0512
 6496SOL     OW30949   4.251   3.984  14.577  0.3419  0.1874 -0.9196
 6496SOL    HW130950   4.272   3.901  14.534 -2.8158 -0.5113 -1.1536
 6496SOL    HW230951   4.184   3.961  14.642 -0.2111 -0.7139 -1.8152
 6497SOL     OW30952   0.499   4.588   4.140  0.0334 -0.2916  0.2642
 6497SOL    HW130953   0.431   4.577   4.074 -0.3653  0.8334  0.4813
 6497SOL    HW230954   0.512   4.682   4.124  0.4662 -0.4368 -0.2264
 6498SOL     OW30955   3.501   0.528  16.141  0.3495  0.4671  0.5454
 6498SOL    HW130956   3.425   0.552  16.193 -1.0361  0.1502 -1.3458
 6498SOL    HW230957   3.562   0.533  16.215  0.1592 -1.6443  0.8456
 6499SOL     OW30958   2.094   2.636   3.056  0.8020 -0.1001 -0.2897
 6499SOL    HW130959   2.189   2.632   3.064  0.5148 -2.1446  2.2920
 6499SOL    HW230960   2.070   2.687   3.134 -0.0230  0.7199 -1.0863
 6500SOL     OW30961   3.900   2.612   4.213 -0.2735  0.2627  0.5650
 6500SOL    HW130962   3.855   2.631   4.131  1.9455 -2.1226 -1.2026
 6500SOL    HW230963   3.841   2.545   4.247 -2.3744  2.2584  0.8688
 6501SOL     OW30964   1.647   1.699   7.317  0.5916  0.2567 -0.2462
 6501SOL    HW130965   1.560   1.738   7.303  0.7592 -0.6829 -3.9331
 6501SOL    HW230966   1.687   1.766   7.262 -0.0816  0.9854  0.1412
 6502SOL     OW30967   0.391   4.709  14.653 -0.0373 -0.2972 -0.1709
 6502SOL    HW130968   0.369   4.618  14.674 -2.6940  0.5775  0.8131
 6502SOL    HW230969   0.462   4.704  14.589  0.7385  1.1532  0.5780
 6503SOL     OW30970   3.418   2.794   8.428  0.1969 -0.2708 -0.1909
 6503SOL    HW130971   3.376   2.785   8.342  1.2001  0.9475 -0.7935
 6503SOL    HW230972   3.451   2.704   8.434 -0.5734 -0.4956  0.6324
 6504SOL     OW30973   3.203   0.075   5.684 -0.0714 -0.2417  0.0892
 6504SOL    HW130974   3.129   0.015   5.691  0.4295 -0.6717  1.5787
 6504SOL    HW230975   3.241   0.042   5.603 -2.2427 -2.2094 -0.1362
 6505SOL     OW30976   4.341   4.648   7.656  0.3068 -0.4074 -0.1306
 6505SOL    HW130977   4.357   4.562   7.694  0.8983  0.0733  0.7224
 6505SOL    HW230978   4.363   4.702   7.732 -1.0994 -1.2859  0.8971
 6506SOL     OW30979   1.873   3.116   7.403 -1.0114 -0.2012  0.1924
 6506SOL    HW130980   1.957   3.072   7.389 -0.2459  1.3306  0.0216
 6506SOL    HW230981   1.829   3.100   7.320 -0.2010  0.0207 -0.2861
 6507SOL     OW30982   2.498   3.583   3.656  0.2885  0.8867 -0.2638
 6507SOL    HW130983   2.556   3.557   3.584 -1.4235 -0.6011 -1.0935
 6507SOL    HW230984   2.474   3.673   3.631 -0.1488  0.2314 -2.2274
 6508SOL     OW30985   2.108   3.647   8.327 -0.3948 -0.0991  0.4100
 6508SOL    HW130986   2.161   3.717   8.289  0.3323 -1.3028 -0.7843
 6508SOL    HW230987   2.096   3.675   8.418  0.2723 -0.1808  0.5225
 6509SOL     OW30988   0.929   2.737  12.385 -0.1583 -0.2732  0.3734
 6509SOL    HW130989   0.955   2.826  12.410 -0.2079 -0.2601  0.3776
 6509SOL    HW230990   0.954   2.697  12.468  1.5558  0.5442  0.2595
 6510SOL     OW30991   3.139   4.297   7.687  0.7879 -0.0963  0.2221
 6510SOL    HW130992   3.096   4.215   7.662  1.4310 -1.3564  3.2143
 6510SOL    HW230993   3.209   4.292   7.623  2.2490 -1.5214  1.9472
 6511SOL     OW30994   2.291   1.219   3.813 -0.4166  0.6555  0.0346
 6511SOL    HW130995   2.257   1.290   3.867  0.9911  2.3611 -1.3245
 6511SOL    HW230996   2.281   1.137   3.862  2.1500 -0.5807 -1.5351
 6512SOL     OW30997   0.663   1.490   5.822 -0.3742  0.4320  0.0163
 6512SOL    HW130998   0.639   1.537   5.742 -2.2851 -1.2093 -0.3657
 6512SOL    HW230999   0.758   1.485   5.814 -0.5252  0.2066 -1.5568
 6513SOL     OW31000   4.423   2.363   5.239  0.1595 -0.2592  0.1769
 6513SOL    HW131001   4.468   2.279   5.236  0.5613 -0.1066  1.9283
 6513SOL    HW231002   4.456   2.401   5.158  1.4722 -0.0510  0.7987
 6514SOL     OW31003   0.718   0.201   2.226 -0.0362  0.0882  0.4401
 6514SOL    HW131004   0.786   0.164   2.282 -0.6294 -1.9605 -0.1767
 6514SOL    HW231005   0.667   0.125   2.198  1.5086 -0.9363  0.3642
 6515SOL     OW31006   3.871   4.327   8.886  0.1280 -0.4055  0.3785
 6515SOL    HW131007   3.884   4.408   8.935 -0.0291 -1.1697  1.6863
 6515SOL    HW231008   3.953   4.284   8.911 -0.5173 -0.7311  1.9538
 6516SOL     OW31009   0.003   0.624  12.877  0.1627  0.1832  0.2609
 6516SOL    HW131010   0.017   0.558  12.945  0.6644  0.4729  0.4408
 6516SOL    HW231011   4.707   0.564  12.804 -1.3224 -0.3615  1.0512
 6517SOL     OW31012   4.286   4.709   6.166  0.0240 -0.3369 -0.4505
 6517SOL    HW131013   4.195   4.683   6.177 -1.1004  3.6435 -0.0727
 6517SOL    HW231014   4.338   4.630   6.181  1.0990  0.3999 -0.2258
 6518SOL     OW31015   3.342   1.682   8.099  0.1514  0.5090  0.0513
 6518SOL    HW131016   3.367   1.592   8.119 -0.1354  0.7635  1.5606
 6518SOL    HW231017   3.419   1.733   8.124 -0.3926  1.2687  0.1861
 6519SOL     OW31018   3.360   4.134   8.950 -0.5757  0.0660 -0.0825
 6519SOL    HW131019   3.326   4.220   8.926 -0.9136  0.3139  1.2861
 6519SOL    HW231020   3.446   4.151   8.988 -0.7339  2.4230 -0.7630
 6520SOL     OW31021   2.410   0.708   8.149  0.0517 -0.2838 -0.3924
 6520SOL    HW131022   2.354   0.778   8.117 -1.1924 -0.6026  1.0710
 6520SOL    HW231023   2.472   0.703   8.076 -1.0880  0.2034 -1.3816
 6521SOL     OW31024   1.759   4.112   7.918 -0.4355 -0.0777  0.1259
 6521SOL    HW131025   1.798   4.151   7.996 -0.2641  1.3716 -0.6917
 6521SOL    HW231026   1.681   4.069   7.953 -0.8327  1.2924  0.9140
 6522SOL     OW31027   4.171   1.751   0.279  0.0806 -0.5567  0.4728
 6522SOL    HW131028   4.200   1.748   0.370 -1.3062  0.7356  0.9504
 6522SOL    HW231029   4.226   1.682   0.242  3.8452  0.9985  3.2289
 6523SOL     OW31030   3.679   3.962   1.752  0.4227 -0.3119 -0.2039
 6523SOL    HW131031   3.633   4.046   1.752 -0.0453 -0.5612 -2.2047
 6523SOL    HW231032   3.772   3.981   1.738  0.1712 -0.0493 -1.4910
 6524SOL     OW31033   3.081   2.918  12.243 -0.6255  0.2582 -0.2673
 6524SOL    HW131034   3.076   2.981  12.172 -1.8130  1.4270  0.8618
 6524SOL    HW231035   3.016   2.858  12.206 -1.1897  1.0198 -0.5134
 6525SOL     OW31036   4.078   0.602   4.315 -0.0683  0.1623  0.0926
 6525SOL    HW131037   3.998   0.590   4.265  1.1996  1.3518 -2.2085
 6525SOL    HW231038   4.144   0.581   4.249  0.1126  1.4123 -0.1312
 6526SOL     OW31039   3.643   1.667   3.403  0.0219  0.1632  0.3605
 6526SOL    HW131040   3.600   1.660   3.488 -1.8718  1.0684 -0.5288
 6526SOL    HW231041   3.612   1.584   3.366 -1.1674 -0.6549  3.1923
 6527SOL     OW31042   1.733   4.611   1.595 -0.5054  0.2838 -0.5799
 6527SOL    HW131043   1.771   4.697   1.575  1.6879 -0.1973  1.5576
 6527SOL    HW231044   1.795   4.557   1.546  1.0956 -0.3017  2.1219
 6528SOL     OW31045   0.435   2.941   2.012  0.2300  0.7098  0.1281
 6528SOL    HW131046   0.508   2.913   1.956 -1.6478  0.8269 -2.4112
 6528SOL    HW231047   0.405   2.856   2.044  0.7039  0.1058 -1.0255
 6529SOL     OW31048   1.470   2.615   3.299 -0.3745  0.2691 -0.5544
 6529SOL    HW131049   1.436   2.694   3.257  0.5315  0.5204 -0.8240
 6529SOL    HW231050   1.428   2.620   3.385 -1.4943 -1.2860 -1.0135
 6530SOL     OW31051   0.131   2.140   7.413 -0.5547 -0.6848 -0.5480
 6530SOL    HW131052   0.153   2.122   7.322  0.0872 -0.4091 -0.4519
 6530SOL    HW231053   0.063   2.205   7.396  0.1803  0.4417  0.8005
 6531SOL     OW31054   0.063   2.214   5.114 -0.3651 -0.1154 -0.0438
 6531SOL    HW131055   0.057   2.242   5.206 -0.0274  3.7813 -1.2487
 6531SOL    HW231056   0.141   2.264   5.088  0.2017  0.4967  2.7572
 6532SOL     OW31057   4.700   1.431   4.664 -0.2221  0.2219  0.1607
 6532SOL    HW131058   4.693   1.337   4.650 -1.2417  0.2771  0.2503
 6532SOL    HW231059   0.047   1.441   4.597  0.5096  1.3020  1.0686
 6533SOL     OW31060   0.699   0.944   3.367 -0.2859  0.3877  0.0277
 6533SOL    HW131061   0.762   0.874   3.381 -0.8789 -0.6649 -2.4717
 6533SOL    HW231062   0.703   0.981   3.455 -0.0470 -1.0286  0.6074
 6534SOL     OW31063   4.430   2.884   9.694  0.0917 -0.1336  0.2838
 6534SOL    HW131064   4.449   2.852   9.606 -1.1829 -1.4143  0.4894
 6534SOL    HW231065   4.451   2.796   9.724  1.0398  0.4859  1.4568
 6535SOL     OW31066   0.554   2.450   4.299  0.9643 -0.1718 -0.0831
 6535SOL    HW131067   0.560   2.451   4.394  1.3639 -2.9897 -0.0971
 6535SOL    HW231068   0.572   2.542   4.277 -1.6555 -0.4203 -3.2580
 6536SOL     OW31069   1.313   4.635   0.967  0.2780  0.0551 -0.4794
 6536SOL    HW131070   1.318   0.003   0.932 -1.6080  0.9329  1.5024
 6536SOL    HW231071   1.225   4.618   0.932 -0.8969  0.7008  2.1562
 6537SOL     OW31072   0.701   4.705   8.275  0.0947  0.0276  0.6755
 6537SOL    HW131073   0.707   4.653   8.356 -1.2383  0.6251  1.1443
 6537SOL    HW231074   0.795   4.713   8.259 -0.1909 -0.1072 -1.0564
 6538SOL     OW31075   0.090   0.598   3.445  0.3569  0.6173  0.1535
 6538SOL    HW131076   0.017   0.614   3.503  1.1553 -0.4738  1.4538
 6538SOL    HW231077   0.077   0.670   3.384  0.9384  0.6591  0.0782
 6539SOL     OW31078   3.694   3.486   3.488 -0.3392 -0.5007 -0.3740
 6539SOL    HW131079   3.599   3.496   3.503 -0.3693  0.5380 -1.2422
 6539SOL    HW231080   3.720   3.446   3.571  4.3145  0.5634 -1.3583
 6540SOL     OW31081   3.995   1.528   6.274  0.2687  0.4425 -0.1543
 6540SOL    HW131082   3.912   1.511   6.232 -1.3852  0.7453  2.9660
 6540SOL    HW231083   3.983   1.615   6.313 -2.0274 -0.4485  1.0751
 6541SOL     OW31084   3.164   0.871  11.819  0.4271  0.1002  0.0530
 6541SOL    HW131085   3.217   0.951  11.827  0.5455  0.0985 -0.6965
 6541SOL    HW231086   3.193   0.818  11.893  0.2755 -0.5589 -0.3654
 6542SOL     OW31087   2.432   1.610  12.195  0.2704 -0.2294  0.3200
 6542SOL    HW131088   2.391   1.525  12.212 -0.8606  0.6500  1.9519
 6542SOL    HW231089   2.492   1.625  12.268  0.4196  0.3530  0.0842
 6543SOL     OW31090   2.922   3.216   9.586  0.0871  0.7560  0.7359
 6543SOL    HW131091   2.840   3.172   9.610 -0.1310  0.4917 -0.4764
 6543SOL    HW231092   2.992   3.163   9.622  0.1860  0.0938 -0.4385
 6544SOL     OW31093   4.118   2.142   2.755 -0.4570  0.1707 -0.1150
 6544SOL    HW131094   4.079   2.148   2.667  0.7975 -2.1097 -0.8269
 6544SOL    HW231095   4.092   2.232   2.777  1.3648  0.4005  1.0679
 6545SOL     OW31096   2.244   2.080  13.676  0.4260  0.1918  0.5893
 6545SOL    HW131097   2.249   2.166  13.718 -0.7102  1.1796 -1.3130
 6545SOL    HW231098   2.150   2.066  13.661  0.6704  1.6143 -2.1575
 6546SOL     OW31099   4.638   0.362  11.386 -0.2773  0.1067 -0.0061
 6546SOL    HW131100   4.568   0.379  11.324  0.8918 -0.3537 -1.4445
 6546SOL    HW231101   4.591   0.310  11.451 -0.3302 -0.4236 -0.4728
 6547SOL     OW31102   0.640   2.580   7.550 -0.0130  0.2575 -0.2929
 6547SOL    HW131103   0.654   2.671   7.575  0.1322  0.5521 -1.4836
 6547SOL    HW231104   0.600   2.547   7.631  2.3669  0.8450  1.1315
 6548SOL     OW31105   3.084   3.066   0.012 -0.4847 -0.0672 -0.1494
 6548SOL    HW131106   3.107   2.984   0.056 -2.0028  0.1529  1.0829
 6548SOL    HW231107   3.154   3.065  17.632  0.4399 -1.2271  0.8584
 6549SOL     OW31108   2.990   1.831  12.051 -0.0992  0.1049  0.5265
 6549SOL    HW131109   3.065   1.796  12.098  0.5089 -0.9589 -1.2401
 6549SOL    HW231110   2.942   1.872  12.123 -0.4802 -1.5213  1.2005
 6550SOL     OW31111   1.261   1.668   5.205 -0.1361 -0.0230  0.9297
 6550SOL    HW131112   1.311   1.588   5.222 -1.4675 -0.9069  0.6536
 6550SOL    HW231113   1.313   1.732   5.254 -0.2746 -0.9796  2.3201
 6551SOL     OW31114   1.424   1.411   4.085  0.4855 -0.6518 -0.1092
 6551SOL    HW131115   1.417   1.455   4.000 -1.3085 -0.9258 -0.1028
 6551SOL    HW231116   1.380   1.328   4.066  0.8323 -0.7767 -0.3821
 6552SOL     OW31117   1.936   2.885  13.221  0.1694  0.0766  0.2682
 6552SOL    HW131118   1.929   2.791  13.204  1.8102 -0.0238  0.0996
 6552SOL    HW231119   1.998   2.899  13.292 -1.9500  1.3752  1.8577
 6553SOL     OW31120   1.230   4.496   5.097 -0.2819  0.1802  0.1137
 6553SOL    HW131121   1.229   4.405   5.123 -1.5866 -0.3418 -1.7120
 6553SOL    HW231122   1.318   4.529   5.113  0.2344 -0.2314 -1.9496
 6554SOL     OW31123   0.441   1.899   2.456  0.1818 -0.6207 -0.0177
 6554SOL    HW131124   0.354   1.863   2.440  0.7607 -0.8071 -2.8169
 6554SOL    HW231125   0.457   1.881   2.549 -0.0249  1.5543  0.4523
 6555SOL     OW31126   1.551   3.323   5.821  0.1816 -0.0097 -0.2933
 6555SOL    HW131127   1.563   3.257   5.753 -0.1469 -1.1402  0.7399
 6555SOL    HW231128   1.622   3.308   5.885  0.5517 -3.4995 -1.5159
 6556SOL     OW31129   4.186   0.009   4.043  0.2731 -0.7986  0.0773
 6556SOL    HW131130   4.203   4.651   3.990 -1.3712 -0.6125 -0.7359
 6556SOL    HW231131   4.225   0.081   3.995  0.2828  0.5053  2.0623
 6557SOL     OW31132   2.973   3.890  12.618  0.0170 -0.1863 -0.0283
 6557SOL    HW131133   3.057   3.845  12.610  1.4586  2.0452  2.5647
 6557SOL    HW231134   2.977   3.960  12.553  1.0730  2.4426  2.8657
 6558SOL     OW31135   4.700   2.100   9.461 -0.1280 -0.1136  0.0380
 6558SOL    HW131136   4.708   2.188   9.424  0.6349 -0.9996 -1.8738
 6558SOL    HW231137   4.623   2.122   9.513 -0.5199 -0.2386 -0.4874
 6559SOL     OW31138   3.987   2.279   5.197  0.1344  0.2010  0.1477
 6559SOL    HW131139   4.037   2.231   5.263 -2.0862 -3.0127 -0.5239
 6559SOL    HW231140   3.980   2.219   5.123 -0.8098  0.9209 -0.3449
 6560SOL     OW31141   0.006   3.418   8.097  0.2238  0.6332 -0.5462
 6560SOL    HW131142   4.640   3.422   8.137 -0.2430 -0.9895 -1.3987
 6560SOL    HW231143   0.067   3.447   8.165  0.3272 -1.7126  0.3971
 6561SOL     OW31144   0.179   4.415   8.303  0.4757 -0.0843  0.2074
 6561SOL    HW131145   0.143   4.330   8.278  0.1943  0.3584 -0.8889
 6561SOL    HW231146   0.142   4.472   8.235  0.1136  0.1748  0.6238
 6562SOL     OW31147   4.300   0.734   1.028 -0.2682 -0.7186 -0.3755
 6562SOL    HW131148   4.212   0.699   1.043 -0.9299  1.9265  1.8942
 6562SOL    HW231149   4.353   0.655   1.022  0.3099 -0.3426 -0.2460
 6563SOL     OW31150   1.922   3.527   4.289  0.0421 -0.2650  0.0271
 6563SOL    HW131151   1.864   3.597   4.319  1.5329  1.4094 -0.9964
 6563SOL    HW231152   1.858   3.456   4.281 -0.9027  0.5750  0.2211
 6564SOL     OW31153   3.354   0.096   6.126 -0.5748  0.1780 -0.3296
 6564SOL    HW131154   3.438   0.049   6.128 -1.2572 -1.0123  0.1616
 6564SOL    HW231155   3.376   0.176   6.173  1.0099 -0.8891  0.7545
 6565SOL     OW31156   0.810   3.825  16.006  0.2006 -0.1082 -0.2214
 6565SOL    HW131157   0.746   3.763  16.041 -0.2462  0.3408 -0.2364
 6565SOL    HW231158   0.859   3.762  15.954 -0.9144  0.6359 -2.1954
 6566SOL     OW31159   3.076   1.802   6.618 -0.6738  0.3497  0.0835
 6566SOL    HW131160   3.146   1.811   6.553 -2.3850 -0.4898 -1.8697
 6566SOL    HW231161   3.039   1.716   6.601 -0.0069 -0.7355  4.2562
 6567SOL     OW31162   2.683   1.407  17.382 -0.5339 -0.5893  0.3402
 6567SOL    HW131163   2.721   1.488  17.414 -1.4419 -1.3830  3.5257
 6567SOL    HW231164   2.722   1.403  17.295 -1.5262 -2.4096 -0.0370
 6568SOL     OW31165   2.938   0.177   2.606  0.3639  0.3687 -0.6293
 6568SOL    HW131166   3.015   0.167   2.549  2.0767  1.1216  1.5434
 6568SOL    HW231167   2.865   0.165   2.546  0.4832  3.1770 -1.3245
 6569SOL     OW31168   1.487   1.898   3.740 -0.7731  0.6090 -0.3407
 6569SOL    HW131169   1.434   1.866   3.813 -1.1631  1.0219 -0.4444
 6569SOL    HW231170   1.466   1.991   3.738  0.4161  0.8398 -1.5322
 6570SOL     OW31171   0.762   1.128   6.326  0.1509 -0.3020 -0.6502
 6570SOL    HW131172   0.707   1.201   6.298 -1.7985 -1.1729  0.9552
 6570SOL    HW231173   0.707   1.074   6.382 -0.2526 -0.4949 -1.2274
 6571SOL     OW31174   2.841   2.169   7.157 -0.3030  0.0020  0.4262
 6571SOL    HW131175   2.851   2.099   7.221 -1.3701 -0.5204  0.0220
 6571SOL    HW231176   2.815   2.113   7.084  0.0284  0.0372  0.2807
 6572SOL     OW31177   2.982   2.103   8.471  0.4704  0.1027  0.2182
 6572SOL    HW131178   3.024   2.112   8.556  0.2339 -0.7701  0.4283
 6572SOL    HW231179   2.958   2.194   8.454 -1.7649 -0.8277 -1.6424
 6573SOL     OW31180   1.947   4.155   3.429 -0.3086  0.3697 -0.4357
 6573SOL    HW131181   1.927   4.249   3.428  0.4433  0.5287 -0.1805
 6573SOL    HW231182   2.008   4.154   3.355  0.6026  0.6094  0.3215
 6574SOL     OW31183   2.546   1.791   5.843 -0.4901  0.5323 -0.1778
 6574SOL    HW131184   2.490   1.718   5.870 -0.9399  0.8120 -0.3659
 6574SOL    HW231185   2.616   1.780   5.907 -0.0331 -2.1072 -1.1028
 6575SOL     OW31186   1.019   2.147   8.513  0.0845  0.0525 -1.1786
 6575SOL    HW131187   0.926   2.130   8.496 -0.4282  1.6050  0.1291
 6575SOL    HW231188   1.056   2.060   8.497 -0.5910 -0.4625  0.0489
 6576SOL     OW31189   1.393   3.953   4.325  0.3598  0.7322 -0.2718
 6576SOL    HW131190   1.391   3.866   4.364  1.4797  0.6076 -0.4975
 6576SOL    HW231191   1.349   3.994   4.400  0.4229  0.7537 -0.2469
 6577SOL     OW31192   3.492   0.470   3.270 -0.7244  0.0098  0.1781
 6577SOL    HW131193   3.551   0.526   3.220  0.7621 -0.5618  1.2697
 6577SOL    HW231194   3.404   0.501   3.250 -2.4067 -4.3050  0.9649
 6578SOL     OW31195   0.017   2.735  10.979 -0.1809  0.2798 -0.0588
 6578SOL    HW131196   4.706   2.673  11.045 -2.7169 -1.4569 -2.9525
 6578SOL    HW231197   0.082   2.686  10.930  1.8926  2.7314  0.1776
 6579SOL     OW31198   1.271   2.849   8.461 -0.2665 -0.3299 -0.1577
 6579SOL    HW131199   1.325   2.798   8.521 -0.4540 -2.7425 -2.0763
 6579SOL    HW231200   1.203   2.880   8.521  0.5344 -0.0117  0.5931
 6580SOL     OW31201   3.787   3.467   2.958 -1.1337 -0.4614 -0.2130
 6580SOL    HW131202   3.831   3.551   2.942  0.0484 -0.7262  1.6442
 6580SOL    HW231203   3.852   3.407   2.921  0.1697  0.6369  0.2896
 6581SOL     OW31204   3.679   3.817   8.662  0.3665 -0.3115 -0.0086
 6581SOL    HW131205   3.706   3.888   8.603 -1.6076 -0.9385 -1.6755
 6581SOL    HW231206   3.604   3.857   8.706 -0.1091 -1.1768 -0.0232
 6582SOL     OW31207   3.069   2.973   5.387  0.7518  0.5029 -0.4962
 6582SOL    HW131208   3.116   3.018   5.317 -1.8807  3.3815 -0.4075
 6582SOL    HW231209   3.085   3.025   5.465 -1.2372 -0.0072  0.2594
 6583SOL     OW31210   2.712   4.364   3.178 -0.1250 -0.1215  0.1125
 6583SOL    HW131211   2.728   4.439   3.121 -2.6182  0.8076  0.6289
 6583SOL    HW231212   2.802   4.350   3.209  0.0118  0.8254  0.1303
 6584SOL     OW31213   4.601   3.205   9.422  0.3278  0.1250  0.4257
 6584SOL    HW131214   4.642   3.262   9.356  3.0699 -0.0579  1.9621
 6584SOL    HW231215   4.579   3.273   9.485  2.1117 -1.1634  2.4650
 6585SOL     OW31216   0.303   2.887   3.993  0.2298 -0.8599  0.6668
 6585SOL    HW131217   0.333   2.974   3.965 -0.2450 -0.3098  1.8611
 6585SOL    HW231218   0.306   2.906   4.087  0.3682  0.7262  0.3557
 6586SOL     OW31219   2.059   2.144   2.930 -0.3718 -0.5526  0.0469
 6586SOL    HW131220   2.099   2.103   2.854 -1.8741  0.5306 -1.3340
 6586SOL    HW231221   2.096   2.089   2.999  1.8487  2.7640  1.4846
 6587SOL     OW31222   3.959   0.158   2.669  0.2269  0.5433 -0.1403
 6587SOL    HW131223   3.910   0.108   2.734 -0.6623  0.2993 -0.9910
 6587SOL    HW231224   4.050   0.126   2.669 -0.3775 -1.1611  0.9006
 6588SOL     OW31225   2.568   1.320  17.621  0.0924 -0.1938 -0.4412
 6588SOL    HW131226   2.642   1.331  17.561 -0.6019  1.1255 -1.0440
 6588SOL    HW231227   2.497   1.286  17.567 -0.9512  0.4406  0.5352
 6589SOL     OW31228   4.242   0.440  15.063  0.3081 -0.2300 -0.0546
 6589SOL    HW131229   4.180   0.367  15.064  1.1785 -0.9696  0.1454
 6589SOL    HW231230   4.305   0.409  15.128  0.6722  1.6038  0.4654
 6590SOL     OW31231   0.281   0.572   3.679 -0.9568  0.3999 -0.0370
 6590SOL    HW131232   0.228   0.579   3.599  0.1709  1.1371 -0.7056
 6590SOL    HW231233   0.222   0.583   3.753 -1.3595 -1.8010 -0.0201
 6591SOL     OW31234   4.450   2.224   0.375  0.4851 -0.0327  0.4634
 6591SOL    HW131235   4.521   2.180   0.421  1.8080 -0.3830 -1.9319
 6591SOL    HW231236   4.410   2.276   0.444  2.4795  0.2171  1.4271
 6592SOL     OW31237   2.204   0.696  16.168 -0.6161 -0.1613  0.1369
 6592SOL    HW131238   2.208   0.753  16.091 -3.3589 -0.8503 -0.5067
 6592SOL    HW231239   2.111   0.704  16.190 -0.4372  0.1191  0.7903
 6593SOL     OW31240   0.129   0.426   4.424  0.6638 -0.6317  0.2698
 6593SOL    HW131241   0.184   0.358   4.463  2.0011 -1.3899 -2.9629
 6593SOL    HW231242   0.052   0.438   4.480 -1.0761 -2.2211 -1.7490
 6594SOL     OW31243   0.750   4.685   5.843  0.6369  0.3598 -0.0103
 6594SOL    HW131244   0.658   4.707   5.857  0.8511  1.5979 -0.5909
 6594SOL    HW231245   0.745   4.589   5.849  0.0670  0.3784 -0.2196
 6595SOL     OW31246   0.935   0.618   1.421  0.1349  0.3902  0.4615
 6595SOL    HW131247   0.920   0.525   1.435  0.1414 -0.0178 -2.2820
 6595SOL    HW231248   0.877   0.649   1.490 -0.8871 -0.8772  0.1639
 6596SOL     OW31249   2.643   3.221  10.941  0.8202 -0.2209 -0.5017
 6596SOL    HW131250   2.674   3.312  10.937 -0.5200  0.2674  0.2840
 6596SOL    HW231251   2.555   3.226  10.978  0.5672 -0.7174 -1.0434
 6597SOL     OW31252   4.398   1.010   3.034  0.9765  0.1541  0.0174
 6597SOL    HW131253   4.364   0.921   3.048  1.9915 -0.0257  1.4582
 6597SOL    HW231254   4.413   1.015   2.940  3.1223 -0.6248  0.3134
 6598SOL     OW31255   3.543   0.284   1.211 -0.1887  0.0856  0.1544
 6598SOL    HW131256   3.583   0.370   1.227 -2.6770  1.4575 -0.8825
 6598SOL    HW231257   3.603   0.244   1.148  0.1411  1.6826 -0.5615
 6599SOL     OW31258   1.207   4.325   3.803 -0.0500  0.4371  0.0902
 6599SOL    HW131259   1.204   4.323   3.707 -0.1347  1.2977  0.0779
 6599SOL    HW231260   1.127   4.276   3.822 -0.3488  1.5438  1.6562
 6600SOL     OW31261   1.384   2.525   2.475 -0.0238  0.2361 -0.0769
 6600SOL    HW131262   1.332   2.564   2.405  0.3005  2.1469  0.7707
 6600SOL    HW231263   1.469   2.551   2.439  0.8076 -0.0292  1.6710
 6601SOL     OW31264   4.684   3.421   5.945  0.0682  0.0422  0.2842
 6601SOL    HW131265   4.639   3.503   5.962 -1.2402 -0.5780 -0.1766
 6601SOL    HW231266   0.047   3.447   5.984 -0.8025  1.4224  1.2282
 6602SOL     OW31267   3.591   3.856  11.623  0.0824 -1.1950  0.2890
 6602SOL    HW131268   3.649   3.782  11.602  1.3451 -0.0029 -0.4526
 6602SOL    HW231269   3.654   3.917  11.662 -1.2635  0.3156  0.0711
 6603SOL     OW31270   2.049   2.479   8.732 -0.1954 -0.1641 -0.5020
 6603SOL    HW131271   2.077   2.557   8.685 -0.7209  1.1071  1.2976
 6603SOL    HW231272   1.959   2.503   8.755  0.0602  1.5938 -1.3671
 6604SOL     OW31273   1.572   2.786   9.278 -0.3139 -0.1775 -0.0308
 6604SOL    HW131274   1.617   2.733   9.344 -1.3790 -0.3186  0.5826
 6604SOL    HW231275   1.610   2.870   9.301 -0.4736 -0.6084  1.7758
 6605SOL     OW31276   0.909   1.677   1.922  0.3238  0.0313 -0.3974
 6605SOL    HW131277   0.958   1.634   1.852  0.5930  0.3359 -0.3992
 6605SOL    HW231278   0.976   1.668   1.990 -0.0671  1.7470  0.2157
 6606SOL     OW31279   1.263   3.420   6.866  0.2177  0.0916  0.4027
 6606SOL    HW131280   1.301   3.361   6.801 -1.8444  1.4488 -2.0289
 6606SOL    HW231281   1.322   3.491   6.843  1.0432 -1.1211 -1.1991
 6607SOL     OW31282   1.041   1.134  14.621 -0.1572 -0.0359 -0.5561
 6607SOL    HW131283   1.048   1.130  14.525 -2.3724  1.2203 -0.7767
 6607SOL    HW231284   1.077   1.048  14.644  1.7424  0.3868 -1.9357
 6608SOL     OW31285   1.439   3.714  15.963  0.6968  0.5516  0.1239
 6608SOL    HW131286   1.381   3.789  15.954  0.5096  0.4784  0.7651
 6608SOL    HW231287   1.373   3.646  15.977 -1.0553  2.2669  0.2153
 6609SOL     OW31288   4.408   4.669   4.916 -0.2317  0.1030 -0.7135
 6609SOL    HW131289   4.454   4.651   4.998 -0.3773 -2.9202 -1.2727
 6609SOL    HW231290   4.403   4.578   4.887 -1.1658 -0.5002  1.3365
 6610SOL     OW31291   3.628   4.138  16.764  0.0652 -0.1903  0.5550
 6610SOL    HW131292   3.662   4.124  16.852  0.1500  0.7728  0.6786
 6610SOL    HW231293   3.537   4.113  16.778  0.4196 -0.8855  1.5868
 6611SOL     OW31294   0.643   4.233   3.205  0.7309  0.1251 -0.0006
 6611SOL    HW131295   0.615   4.180   3.130  1.7798  0.2462 -0.4767
 6611SOL    HW231296   0.577   4.209   3.269  0.5505  1.4148  0.3076
 6612SOL     OW31297   3.136   0.103   2.415  0.1282 -0.3228 -0.1708
 6612SOL    HW131298   3.174   0.185   2.383  1.0233 -0.8696 -0.5021
 6612SOL    HW231299   3.115   0.059   2.332  0.3191  0.4330 -0.6201
 6613SOL     OW31300   0.907   3.367  12.824  0.0652 -0.9006 -0.7869
 6613SOL    HW131301   0.836   3.429  12.836  0.1789 -0.7685 -0.8012
 6613SOL    HW231302   0.975   3.416  12.778 -1.3904 -0.7736 -2.7882
 6614SOL     OW31303   3.255   2.613   4.392  0.4574  0.2707 -0.7811
 6614SOL    HW131304   3.316   2.620   4.318 -0.4385  1.5705 -1.3765
 6614SOL    HW231305   3.194   2.685   4.378 -1.0041 -0.4195  2.1414
 6615SOL     OW31306   1.187   1.151  16.181  0.1482 -1.0705  0.5941
 6615SOL    HW131307   1.211   1.205  16.257  0.8683 -1.1709  0.4426
 6615SOL    HW231308   1.138   1.214  16.129  1.8358 -0.4297 -0.2222
 6616SOL     OW31309   2.128   4.060   1.516 -0.0452 -0.2864 -0.2299
 6616SOL    HW131310   2.221   4.041   1.531  0.1535  2.3960  1.8812
 6616SOL    HW231311   2.118   4.151   1.487  0.6932 -1.3132 -3.7242
 6617SOL     OW31312   3.253   1.205  14.630 -0.0243  0.4262 -0.7480
 6617SOL    HW131313   3.187   1.175  14.694 -0.4170  1.2795 -0.7507
 6617SOL    HW231314   3.214   1.186  14.545  2.4538 -1.1634 -1.5053
 6618SOL     OW31315   4.609   2.589  14.995 -0.1217 -0.1690 -0.4265
 6618SOL    HW131316   4.663   2.527  15.043 -1.3696 -0.6099  0.4272
 6618SOL    HW231317   4.536   2.536  14.962  1.2254 -2.1962 -0.1829
 6619SOL     OW31318   2.184   2.376   9.205  0.3904  0.5266 -0.5961
 6619SOL    HW131319   2.090   2.388   9.195  0.1948  0.4424  1.1614
 6619SOL    HW231320   2.199   2.338   9.118 -2.0729 -2.5593  0.3161
 6620SOL     OW31321   0.185   2.535   7.289  0.7362 -0.1661 -0.0480
 6620SOL    HW131322   0.102   2.563   7.327  0.1837  2.6630 -3.3392
 6620SOL    HW231323   0.153   2.518   7.200 -3.0629  0.8427  1.1178
 6621SOL     OW31324   3.833   1.140   3.060 -0.1918  0.0440  0.0150
 6621SOL    HW131325   3.768   1.210   3.065  0.9727  1.1729 -0.8462
 6621SOL    HW231326   3.915   1.179   3.089 -0.3121  1.7202 -1.9898
 6622SOL     OW31327   0.523   1.314   1.058  0.1567 -0.1442  0.3628
 6622SOL    HW131328   0.608   1.279   1.085 -0.3837 -1.7451 -0.0213
 6622SOL    HW231329   0.535   1.392   1.005 -0.1415 -0.5795 -0.3392
 6623SOL     OW31330   0.330   2.495  12.338 -0.1627 -0.1408  0.0196
 6623SOL    HW131331   0.335   2.520  12.245 -0.2373  1.4768  0.4463
 6623SOL    HW231332   0.255   2.436  12.344  0.6969 -1.4257 -2.0676
 6624SOL     OW31333   1.764   4.457   6.844 -0.0938 -0.0955  0.4596
 6624SOL    HW131334   1.798   4.545   6.863  0.1487 -0.3427  1.1869
 6624SOL    HW231335   1.694   4.457   6.910 -1.2423  0.1434 -0.7686
 6625SOL     OW31336   0.024   0.393   6.660 -0.3544  0.2242  0.0029
 6625SOL    HW131337   0.028   0.441   6.577 -1.9094  2.4637  1.2048
 6625SOL    HW231338   0.110   0.352   6.668 -0.5031  0.4046  2.4407
 6626SOL     OW31339   0.339   3.301   8.615 -0.3443 -0.5064  0.8262
 6626SOL    HW131340   0.387   3.218   8.620  4.1794  2.0788 -0.0889
 6626SOL    HW231341   0.286   3.288   8.694 -1.6546 -0.9666 -0.1237
 6627SOL     OW31342   3.572   1.086   2.534 -0.6602 -0.0107 -0.0817
 6627SOL    HW131343   3.505   1.147   2.503 -1.0556 -0.3847  0.0411
 6627SOL    HW231344   3.606   1.062   2.447 -2.1256 -1.3219 -0.2944
 6628SOL     OW31345   3.732   4.600   5.109  0.0844  0.7099  0.4686
 6628SOL    HW131346   3.687   4.585   5.191 -0.0856 -0.0670  0.2423
 6628SOL    HW231347   3.814   4.642   5.136  1.4128 -0.4358 -1.7203
 6629SOL     OW31348   0.323   1.754   6.136 -0.2519 -0.2242 -0.0444
 6629SOL    HW131349   0.386   1.823   6.156 -1.5894  0.9981 -0.0448
 6629SOL    HW231350   0.379   1.698   6.082 -1.4540 -1.2384 -0.2480
 6630SOL     OW31351   0.916   3.703   7.309 -0.4505 -0.3459  0.2409
 6630SOL    HW131352   0.899   3.645   7.383  2.1184  1.2172  2.0765
 6630SOL    HW231353   0.986   3.760   7.343 -2.4878  1.3692  1.5780
 6631SOL     OW31354   3.834   1.529  13.330  0.4289  0.2719 -0.0836
 6631SOL    HW131355   3.811   1.451  13.280 -3.1287  1.0228  0.4056
 6631SOL    HW231356   3.803   1.510  13.419 -2.3237  0.6993 -0.9766
 6632SOL     OW31357   4.602   4.604   9.864  0.3812  0.5259 -0.3931
 6632SOL    HW131358   4.657   4.546   9.918 -1.5420 -1.8013 -0.9480
 6632SOL    HW231359   4.556   4.661   9.925  1.1677  2.5083 -1.6615
 6633SOL     OW31360   4.357   0.347   8.107 -0.0428 -0.1829 -0.2431
 6633SOL    HW131361   4.372   0.278   8.172 -2.3986 -1.8326 -1.4567
 6633SOL    HW231362   4.271   0.373   8.140  1.1515  1.4971  1.5353
 6634SOL     OW31363   3.539   1.658  14.869  0.2793  0.1999  0.2493
 6634SOL    HW131364   3.512   1.708  14.793 -4.3977 -1.8022  0.5788
 6634SOL    HW231365   3.529   1.567  14.839  1.8150 -0.1529  0.8110
 6635SOL     OW31366   2.014   3.275   0.856  0.2486 -0.4114 -0.6639
 6635SOL    HW131367   2.061   3.348   0.897 -1.6674  1.0725 -1.1190
 6635SOL    HW231368   1.974   3.327   0.786  1.2938  0.0819 -0.9045
 6636SOL     OW31369   0.690   3.731   7.906 -0.1432 -0.6216  0.0648
 6636SOL    HW131370   0.617   3.748   7.965  0.3665 -0.8240  0.7604
 6636SOL    HW231371   0.764   3.733   7.967 -0.3372  0.7519  0.2589
 6637SOL     OW31372   3.973   0.720   3.004 -0.6567  0.1982  0.1160
 6637SOL    HW131373   3.942   0.778   2.935 -1.0499 -0.3945 -0.2057
 6637SOL    HW231374   3.937   0.756   3.084  0.2796  0.0116  0.6279
 6638SOL     OW31375   1.037   1.314   6.281 -0.1228 -0.1753  0.7765
 6638SOL    HW131376   1.017   1.229   6.319  1.7174 -0.8273  0.3219
 6638SOL    HW231377   1.031   1.291   6.188  1.3126  1.5439  0.2493
 6639SOL     OW31378   1.548   0.351  16.319 -0.0214 -0.2114 -0.2606
 6639SOL    HW131379   1.510   0.321  16.402  2.7048 -0.2985  0.9551
 6639SOL    HW231380   1.471   0.353  16.262 -0.6671 -1.4191  0.5674
 6640SOL     OW31381   3.427   1.058   5.906  0.3000 -0.3152 -0.4823
 6640SOL    HW131382   3.416   1.152   5.894  0.4841 -0.3622 -1.0256
 6640SOL    HW231383   3.338   1.033   5.931  1.5799 -3.0897  1.3667
 6641SOL     OW31384   3.110   0.706  12.287 -0.1228  0.4292 -0.2625
 6641SOL    HW131385   3.147   0.737  12.369 -1.1620  1.3613 -0.1390
 6641SOL    HW231386   3.016   0.707  12.305 -0.4373  0.8715 -1.8690
 6642SOL     OW31387   2.186   3.265   7.614 -0.2939  0.3719 -0.1893
 6642SOL    HW131388   2.231   3.225   7.689  1.0822  2.1835 -0.0584
 6642SOL    HW231389   2.094   3.246   7.633 -0.2139 -0.5812 -0.7264
 6643SOL     OW31390   1.159   0.418   5.583  0.1347 -0.2477  0.2308
 6643SOL    HW131391   1.178   0.503   5.621  1.8547 -0.4652 -0.1413
 6643SOL    HW231392   1.075   0.396   5.623 -0.8248  0.3635 -1.4310
 6644SOL     OW31393   1.609   2.869   7.582 -0.1362 -0.0472  0.4512
 6644SOL    HW131394   1.641   2.783   7.556 -1.6918 -0.1537 -1.0716
 6644SOL    HW231395   1.549   2.838   7.651 -1.1075 -0.1432 -0.4314
 6645SOL     OW31396   0.260   0.853   0.205  0.8656 -0.0259 -0.9081
 6645SOL    HW131397   0.341   0.888   0.243  0.7486  1.1222 -1.7334
 6645SOL    HW231398   0.289   0.841   0.115 -2.1332  2.8848 -2.2446
 6646SOL     OW31399   1.314   2.914  17.329 -0.1167 -0.0778 -0.6456
 6646SOL    HW131400   1.233   2.950  17.291 -0.9561 -0.4340  0.8175
 6646SOL    HW231401   1.378   2.979  17.299 -1.3949  0.8111 -1.4857
 6647SOL     OW31402   2.493   0.058  16.216  0.1535 -0.2856  0.0443
 6647SOL    HW131403   2.539   0.016  16.289  0.0539  1.5190  1.1475
 6647SOL    HW231404   2.464   4.705  16.163 -1.4650  2.1378 -2.4235
 6648SOL     OW31405   0.348   2.041  12.493  0.1335 -0.2166  0.2503
 6648SOL    HW131406   0.297   2.045  12.412  0.8666 -1.5082 -0.2754
 6648SOL    HW231407   0.369   2.134  12.501  0.0564 -0.1647 -0.1581
 6649SOL     OW31408   3.722   2.458   7.570 -0.5543 -0.3823  0.1555
 6649SOL    HW131409   3.675   2.435   7.650 -1.8586  0.1739 -0.4571
 6649SOL    HW231410   3.787   2.388   7.563  2.2529  2.1756  0.4957
 6650SOL     OW31411   3.671   2.905  14.103 -0.2733  0.1159  0.7266
 6650SOL    HW131412   3.653   2.952  14.184  2.0464 -2.2807  2.6356
 6650SOL    HW231413   3.653   2.971  14.035  1.8032 -0.8376 -0.7686
 6651SOL     OW31414   3.134   0.038   2.156 -0.0677  0.3311  0.5131
 6651SOL    HW131415   3.097   0.115   2.112 -0.3900 -0.2163 -0.1594
 6651SOL    HW231416   3.158   0.001   2.071 -0.0608  1.2055  0.1251
 6652SOL     OW31417   1.412   0.899  12.154  0.4069  0.5102 -0.0894
 6652SOL    HW131418   1.371   0.960  12.092 -2.2800 -0.2002  1.0110
 6652SOL    HW231419   1.491   0.944  12.185  0.7068 -0.9616  1.2380
 6653SOL     OW31420   3.156   4.210   7.262  0.2151 -0.0943  0.2243
 6653SOL    HW131421   3.081   4.255   7.223 -0.3773 -0.1206  1.3576
 6653SOL    HW231422   3.137   4.120   7.237 -0.9138  0.1581  0.1886
 6654SOL     OW31423   0.294   1.522  12.833  0.2464 -0.2491 -0.8906
 6654SOL    HW131424   0.267   1.431  12.827 -0.0803 -0.1483 -0.9651
 6654SOL    HW231425   0.319   1.516  12.926 -1.0122 -0.0226 -0.5385
 6655SOL     OW31426   4.552   4.614   8.977  0.0665 -0.7215  0.7448
 6655SOL    HW131427   4.553   4.666   9.057 -0.5844 -0.0738  0.3337
 6655SOL    HW231428   4.639   4.623   8.938 -0.5624  0.1212 -0.4550
 6656SOL     OW31429   2.773   2.949   8.515 -0.3945 -0.0671 -0.4727
 6656SOL    HW131430   2.865   2.931   8.536 -0.2931  1.6199  0.4993
 6656SOL    HW231431   2.756   2.890   8.440  0.3746  0.7550 -1.3013
 6657SOL     OW31432   0.098   1.142   0.776  0.1140 -0.1032 -0.0800
 6657SOL    HW131433   0.158   1.216   0.767 -0.0032 -0.0216 -0.1805
 6657SOL    HW231434   0.133   1.080   0.713  1.0854 -1.0305  1.3716
 6658SOL     OW31435   1.686   0.365   1.264 -0.1887  0.5913  0.1404
 6658SOL    HW131436   1.600   0.322   1.261  0.3107 -0.4127  0.0787
 6658SOL    HW231437   1.742   0.310   1.209 -0.1755  0.1416  0.5981
 6659SOL     OW31438   0.865   2.077   3.456  0.0468 -0.1954 -0.5986
 6659SOL    HW131439   0.923   2.137   3.503 -0.7171  0.1910 -0.1377
 6659SOL    HW231440   0.915   2.071   3.375 -0.7756 -1.3824 -1.0167
 6660SOL     OW31441   2.538   2.296   4.055  0.5571  0.3831 -0.4237
 6660SOL    HW131442   2.533   2.230   3.986 -2.0747  0.4489 -0.3259
 6660SOL    HW231443   2.624   2.292   4.097  0.5833  1.7534 -0.3223
 6661SOL     OW31444   2.038   3.713  10.878  0.5378 -0.3386  0.3019
 6661SOL    HW131445   1.982   3.696  10.954  1.2148  0.0447  0.8799
 6661SOL    HW231446   1.996   3.786  10.833 -2.6778 -2.1054  0.4055
 6662SOL     OW31447   1.440   1.212   7.288 -0.5284 -0.2414  0.4007
 6662SOL    HW131448   1.479   1.262   7.216  0.2354 -0.9117  0.3532
 6662SOL    HW231449   1.503   1.230   7.357 -0.3890 -2.4240  0.8522
 6663SOL     OW31450   3.122   0.807   7.916  0.1670  0.0194 -0.6301
 6663SOL    HW131451   3.061   0.880   7.924  1.0202  0.7691 -0.9170
 6663SOL    HW231452   3.177   0.847   7.848  1.4857 -1.8533 -0.6615
 6664SOL     OW31453   1.571   2.995   1.818  0.9657  0.2831 -0.1479
 6664SOL    HW131454   1.629   2.925   1.848  2.3155  1.0952 -0.8866
 6664SOL    HW231455   1.625   3.066   1.852 -1.6507  2.1727  0.0742
 6665SOL     OW31456   0.968   4.669   8.858  0.6378  0.0647 -0.0203
 6665SOL    HW131457   0.947   4.588   8.811  0.7554  0.0295 -0.0114
 6665SOL    HW231458   1.060   4.679   8.833  0.2583  4.1724  0.1085
 6666SOL     OW31459   3.216   4.590   3.428 -0.6397  0.4616 -0.0119
 6666SOL    HW131460   3.235   4.593   3.335  0.3133  1.6828  0.2186
 6666SOL    HW231461   3.131   4.547   3.415  0.2632 -2.2460  2.7996
 6667SOL     OW31462   0.434   4.717   3.448  0.3036 -0.0053 -0.6811
 6667SOL    HW131463   0.436   0.046   3.530 -0.0534 -2.4575  0.8495
 6667SOL    HW231464   0.449   0.057   3.377  3.3260  1.4232  1.1864
 6668SOL     OW31465   3.338   4.513   1.519  0.1430 -0.5027 -0.0387
 6668SOL    HW131466   3.257   4.563   1.532  0.2637 -0.1798 -0.5599
 6668SOL    HW231467   3.357   4.515   1.425  0.7691  3.5465  0.2131
 6669SOL     OW31468   4.092   3.504   0.387  0.2771 -0.1495  0.4494
 6669SOL    HW131469   4.146   3.425   0.388 -0.3770 -0.5727  3.5811
 6669SOL    HW231470   4.005   3.469   0.365  1.9256 -1.6387 -3.6719
 6670SOL     OW31471   2.520   2.016   4.817  0.4121 -0.2611 -0.1612
 6670SOL    HW131472   2.541   2.109   4.820 -1.5629  0.1760  0.2266
 6670SOL    HW231473   2.461   2.015   4.893  2.3656 -1.1557  1.3354
 6671SOL     OW31474   0.712   2.411   1.875 -0.1393 -0.4474 -0.2410
 6671SOL    HW131475   0.680   2.419   1.785  1.8523 -0.3035 -0.9353
 6671SOL    HW231476   0.783   2.350   1.858  0.6789  0.2030  0.8502
 6672SOL     OW31477   0.946   4.455   6.609  0.4826 -0.4218 -0.0093
 6672SOL    HW131478   0.866   4.403   6.612  1.0973 -1.4862 -2.0300
 6672SOL    HW231479   0.957   4.473   6.515 -0.4654  1.0231  0.1490
 6673SOL     OW31480   4.280   4.376  10.767 -0.1247 -0.3759  0.0616
 6673SOL    HW131481   4.278   4.462  10.810 -2.0309 -2.0075  3.1885
 6673SOL    HW231482   4.344   4.338  10.827 -0.5724 -0.8971  0.2047
 6674SOL     OW31483   3.695   3.622   5.619 -0.4627  0.4213 -0.1145
 6674SOL    HW131484   3.710   3.585   5.706 -2.2005  1.4461  0.6109
 6674SOL    HW231485   3.705   3.545   5.564  0.7009 -0.6488  1.5882
 6675SOL     OW31486   0.312   4.330   4.482  0.5054  0.1545 -0.1806
 6675SOL    HW131487   0.280   4.343   4.393 -2.1166  1.8318  0.9810
 6675SOL    HW231488   0.395   4.376   4.477  0.1035  0.8816 -0.1850
 6676SOL     OW31489   4.175   3.350  11.032  0.2725  0.0176  0.2998
 6676SOL    HW131490   4.267   3.335  11.055  0.1749 -1.9958 -0.6469
 6676SOL    HW231491   4.172   3.396  10.948  1.3057 -0.2476  0.1194
 6677SOL     OW31492   3.224   0.711   3.306  0.5240 -0.1185  0.2164
 6677SOL    HW131493   3.179   0.627   3.314 -0.8753  0.6693  0.6777
 6677SOL    HW231494   3.263   0.713   3.394  2.1148  1.3485 -0.5250
 6678SOL     OW31495   1.028   2.413   8.462  0.3181 -0.1952  0.1509
 6678SOL    HW131496   1.039   2.331   8.511 -0.8467  0.0551  0.8391
 6678SOL    HW231497   0.972   2.372   8.396  0.3170  0.2749 -0.1367
 6679SOL     OW31498   1.083   0.301  16.910 -0.1289 -0.1797 -0.2234
 6679SOL    HW131499   1.068   0.208  16.925  0.4835 -0.4258 -1.1039
 6679SOL    HW231500   1.167   0.311  16.955  0.2555 -0.0815 -0.9533
 6680SOL     OW31501   1.986   0.837  17.001  0.0122  0.0227  0.0579
 6680SOL    HW131502   1.966   0.779  16.927  1.6275  1.9471 -1.8836
 6680SOL    HW231503   1.903   0.833  17.047 -0.0023  0.4773  0.0720
 6681SOL     OW31504   0.519   4.086   8.308  0.3214  0.0894  0.6913
 6681SOL    HW131505   0.438   4.049   8.343  1.8045 -1.9974  1.9112
 6681SOL    HW231506   0.515   4.172   8.350 -0.2003  1.0599 -1.3323
 6682SOL     OW31507   2.067   2.503   4.228  0.4162  0.8708 -0.5970
 6682SOL    HW131508   2.000   2.528   4.165 -1.7644 -2.3700  0.4079
 6682SOL    HW231509   2.121   2.447   4.171  3.5510  1.6360  1.6615
 6683SOL     OW31510   3.598   3.240  17.193  0.4729 -0.3874 -0.1868
 6683SOL    HW131511   3.547   3.286  17.259 -3.6766 -1.5919 -2.5903
 6683SOL    HW231512   3.595   3.295  17.114  2.1540 -0.6159 -0.4277
 6684SOL     OW31513   0.287   3.968   6.981  0.1079  0.0135 -0.3073
 6684SOL    HW131514   0.197   3.968   7.013  0.6433  0.2794  1.1720
 6684SOL    HW231515   0.305   3.875   6.970  0.6893  0.0092  0.7124
 6685SOL     OW31516   4.470   3.906   6.619 -0.1771  0.5078 -0.4303
 6685SOL    HW131517   4.440   3.973   6.558 -1.7879 -0.0877 -0.3016
 6685SOL    HW231518   4.469   3.828   6.564 -0.4926 -1.5936  2.5518
 6686SOL     OW31519   2.305   1.139  14.275 -0.9056 -0.3582 -0.4574
 6686SOL    HW131520   2.360   1.164  14.349 -1.5943 -0.1638 -0.0100
 6686SOL    HW231521   2.289   1.045  14.287 -0.2088 -0.2469  1.2266
 6687SOL     OW31522   1.267   2.618   8.722  0.1258 -0.1320  0.0123
 6687SOL    HW131523   1.296   2.527   8.720 -0.3740 -0.2645 -0.7893
 6687SOL    HW231524   1.202   2.629   8.653  0.4555 -0.4123 -0.3477
 6688SOL     OW31525   0.694   4.076   5.768  0.9545  0.0286  0.5206
 6688SOL    HW131526   0.693   4.023   5.688 -0.7023  1.6589 -0.5498
 6688SOL    HW231527   0.743   4.019   5.827  2.3262  2.6011  1.8938
 6689SOL     OW31528   4.126   1.557   4.022  0.1553  0.2894  0.1447
 6689SOL    HW131529   4.203   1.524   3.976 -1.7621 -1.5926 -1.6927
 6689SOL    HW231530   4.055   1.509   3.980  1.3050  0.0444 -1.5551
 6690SOL     OW31531   1.583   4.628   7.706  1.3536  0.0270  1.0683
 6690SOL    HW131532   1.585   4.718   7.674  1.3611 -1.6605 -3.6571
 6690SOL    HW231533   1.584   4.649   7.799  0.7098 -0.7984  1.2584
 6691SOL     OW31534   4.385   2.357   5.557  0.0629  0.4795  0.2036
 6691SOL    HW131535   4.406   2.279   5.506  1.4076  1.9286 -1.4763
 6691SOL    HW231536   4.325   2.404   5.499 -0.2807  0.4136  0.5074
 6692SOL     OW31537   4.289   3.072   0.880  0.4518 -0.1142 -0.1993
 6692SOL    HW131538   4.309   3.066   0.974  0.2227  0.5438 -0.1081
 6692SOL    HW231539   4.256   3.162   0.877 -0.0455 -0.2371  1.2617
 6693SOL     OW31540   2.704   1.957   3.912  0.3149  0.6769 -0.4986
 6693SOL    HW131541   2.749   1.908   3.981 -0.2338 -0.6168 -1.0508
 6693SOL    HW231542   2.741   2.044   3.921  0.3114  0.5888  0.4421
 6694SOL     OW31543   0.649   0.663   4.775  0.0280  0.8788 -0.3705
 6694SOL    HW131544   0.668   0.677   4.868 -2.8913  1.2358  0.1655
 6694SOL    HW231545   0.592   0.586   4.776  0.5698  0.4612 -1.5610
 6695SOL     OW31546   1.874   0.156   7.936  0.3722  0.5058  0.4292
 6695SOL    HW131547   1.940   0.116   7.880 -1.4835  0.2643 -1.5864
 6695SOL    HW231548   1.836   0.221   7.876  1.1071  0.5328 -0.0007
 6696SOL     OW31549   3.982   4.384  13.431 -0.1316  0.4661  0.4070
 6696SOL    HW131550   4.020   4.467  13.402  0.3076 -0.5171 -1.8257
 6696SOL    HW231551   4.039   4.325  13.381  1.5065 -0.9268  3.8794
 6697SOL     OW31552   2.823   1.844  12.552 -0.4354  0.0417 -0.2106
 6697SOL    HW131553   2.746   1.825  12.605 -0.5708  1.3716  0.0789
 6697SOL    HW231554   2.798   1.932  12.523 -1.6009 -0.8460 -1.8609
 6698SOL     OW31555   0.242   3.251  10.364 -0.0544  0.2421  0.3758
 6698SOL    HW131556   0.197   3.225  10.284  4.3085 -0.8875 -1.7528
 6698SOL    HW231557   0.284   3.169  10.390 -1.4385  0.8265  4.3594
 6699SOL     OW31558   3.476   3.438   7.559 -0.4063  0.3509 -0.0555
 6699SOL    HW131559   3.452   3.487   7.638  2.4184  0.4874  0.7182
 6699SOL    HW231560   3.470   3.348   7.592 -2.3843  0.1908 -0.8255
 6700SOL     OW31561   1.793   0.239   5.205 -0.5809  0.1997 -0.1716
 6700SOL    HW131562   1.720   0.295   5.178  0.8637  2.6095  1.0389
 6700SOL    HW231563   1.865   0.263   5.148 -0.9409  1.8795  0.0983
 6701SOL     OW31564   2.454   1.583   7.449 -0.3408  0.5370  0.2846
 6701SOL    HW131565   2.413   1.500   7.473 -2.0143  1.7232  1.4194
 6701SOL    HW231566   2.390   1.616   7.386 -0.7078 -2.1894 -0.7814
 6702SOL     OW31567   4.340   3.022  13.159 -0.2013 -0.0662  0.6296
 6702SOL    HW131568   4.314   2.937  13.195 -1.6570  0.2268  0.2782
 6702SOL    HW231569   4.435   3.025  13.164 -0.0462 -3.4061  0.0672
 6703SOL     OW31570   2.201   0.107  13.785 -0.4230 -0.3057  0.0552
 6703SOL    HW131571   2.168   0.123  13.696  0.3663 -0.4257 -0.2661
 6703SOL    HW231572   2.201   0.012  13.777 -2.0941 -0.2536 -0.4719
 6704SOL     OW31573   4.508   0.023  11.422  0.0910  0.4450  0.2114
 6704SOL    HW131574   4.522   0.083  11.496  2.4255  0.7321 -0.4604
 6704SOL    HW231575   4.435   0.069  11.381  0.3603  0.8241  0.1594
 6705SOL     OW31576   1.053   0.446   3.821  0.5767  0.3339  0.0903
 6705SOL    HW131577   1.112   0.371   3.826 -4.5283 -3.6331  0.6197
 6705SOL    HW231578   1.055   0.463   3.915 -0.1382  0.1871  0.1306
 6706SOL     OW31579   4.151   4.208   9.801 -0.3746 -0.4389 -0.1846
 6706SOL    HW131580   4.167   4.120   9.768 -0.8057 -0.1116 -1.2544
 6706SOL    HW231581   4.147   4.261   9.721 -2.9327  0.8475  0.7933
 6707SOL     OW31582   3.696   0.971   4.041  0.2174  0.0878  0.6487
 6707SOL    HW131583   3.694   1.016   4.125 -0.2056  0.1180  0.6249
 6707SOL    HW231584   3.646   0.895   4.071 -0.0240  0.3064  0.8051
 6708SOL     OW31585   3.508   1.822   2.430 -0.1512  0.7310  0.1776
 6708SOL    HW131586   3.470   1.812   2.343 -1.1186  0.0130  0.6760
 6708SOL    HW231587   3.574   1.890   2.416  0.0337  0.5664  0.2594
 6709SOL     OW31588   4.682   0.941   7.885  0.4136 -0.2020  0.2868
 6709SOL    HW131589   4.598   0.978   7.912  0.4571  2.3874 -3.0254
 6709SOL    HW231590   4.695   0.866   7.943 -1.5629 -0.6164  0.1801
 6710SOL     OW31591   3.902   0.622   1.901 -0.0042  0.1293 -0.5600
 6710SOL    HW131592   3.944   0.652   1.821  1.5704  0.8131  0.5248
 6710SOL    HW231593   3.966   0.637   1.971 -0.3936 -1.5437  0.1844
 6711SOL     OW31594   1.988   0.788   5.910 -0.5208 -0.7103 -0.4737
 6711SOL    HW131595   2.051   0.726   5.946  0.7907  1.5492  1.1143
 6711SOL    HW231596   2.014   0.777   5.819  1.1638 -1.3937  0.0995
 6712SOL     OW31597   1.739   4.055   7.026 -0.8588  0.0955 -0.1196
 6712SOL    HW131598   1.773   4.006   7.100 -0.1482  1.6183  0.5560
 6712SOL    HW231599   1.818   4.097   6.993  0.6705 -1.2167  1.8821
 6713SOL     OW31600   3.719   3.475   5.876 -0.2793  0.0944  0.5531
 6713SOL    HW131601   3.680   3.549   5.923 -2.8663 -1.3445  0.6894
 6713SOL    HW231602   3.807   3.466   5.911 -0.1679 -0.5160  0.1267
 6714SOL     OW31603   0.543   2.938   7.505 -0.5455  0.0920 -0.0344
 6714SOL    HW131604   0.462   2.975   7.540  0.0753  2.1871 -0.8480
 6714SOL    HW231605   0.536   2.945   7.410 -0.3044  0.9746  0.0125
 6715SOL     OW31606   0.834   1.244   0.787  0.0216  0.1688 -0.3343
 6715SOL    HW131607   0.880   1.196   0.856  0.7436  2.4611  0.7569
 6715SOL    HW231608   0.896   1.306   0.749  0.0577 -0.4461 -1.2818
 6716SOL     OW31609   3.529   0.928  14.981  0.0323 -0.1278  0.0317
 6716SOL    HW131610   3.485   0.933  15.066  1.9550  0.0447  1.0125
 6716SOL    HW231611   3.620   0.933  15.010  0.2709 -0.0021 -0.7493
 6717SOL     OW31612   0.360   1.674   5.759 -0.2970  0.7736  0.6550
 6717SOL    HW131613   0.393   1.756   5.796 -0.6194  0.4597  1.6310
 6717SOL    HW231614   0.289   1.646   5.817 -0.2142 -0.5451  0.0993
 6718SOL     OW31615   2.420   4.359  15.335  0.0699  0.0322 -0.4085
 6718SOL    HW131616   2.331   4.327  15.319  0.2688 -2.3686  3.4639
 6718SOL    HW231617   2.434   4.423  15.265 -0.0363 -0.9773 -1.3530
 6719SOL     OW31618   0.468   1.873   7.248 -0.8475  0.7443 -0.4007
 6719SOL    HW131619   0.415   1.861   7.327  1.3588  0.1621  0.9892
 6719SOL    HW231620   0.530   1.938   7.281  1.1671 -1.3355 -0.0970
 6720SOL     OW31621   0.670   4.404   6.813 -0.0913 -0.3229  0.3204
 6720SOL    HW131622   0.649   4.438   6.900 -1.3880  1.4081 -0.6851
 6720SOL    HW231623   0.691   4.312   6.829 -1.9493 -0.9198 -0.6389
 6721SOL     OW31624   1.121   1.091   8.678  0.4214 -0.4059 -0.1228
 6721SOL    HW131625   1.169   1.011   8.700  0.7849 -0.2935 -0.5259
 6721SOL    HW231626   1.173   1.150   8.732 -0.9093 -0.2115  0.9627
 6722SOL     OW31627   1.590   0.449   5.189 -0.0275  0.4268  0.3017
 6722SOL    HW131628   1.656   0.496   5.239 -0.8564 -1.1946  2.8802
 6722SOL    HW231629   1.526   0.402   5.243 -1.6387  1.3035 -0.8191
 6723SOL     OW31630   2.883   2.596   4.822  0.1964  0.2236  0.4348
 6723SOL    HW131631   2.901   2.508   4.788 -0.5815 -0.0226  0.6734
 6723SOL    HW231632   2.891   2.588   4.917 -0.1812  0.1873  0.4612
 6724SOL     OW31633   1.544   1.811  16.459 -0.9199 -0.0310 -0.0229
 6724SOL    HW131634   1.469   1.869  16.440 -2.4333 -2.0009 -0.0519
 6724SOL    HW231635   1.503   1.746  16.517  0.5619  0.3859  1.4982
 6725SOL     OW31636   1.121   3.142   8.469 -0.2795 -0.1367 -0.6281
 6725SOL    HW131637   1.208   3.181   8.482 -1.0617  1.1128  0.9648
 6725SOL    HW231638   1.098   3.079   8.537  1.1829 -0.1222 -0.1244
 6726SOL     OW31639   3.347   1.363   2.766  0.0926 -0.1534 -0.5526
 6726SOL    HW131640   3.262   1.362   2.809  0.6719  2.5868  0.6510
 6726SOL    HW231641   3.327   1.323   2.682  0.7141  0.7024 -1.1116
 6727SOL     OW31642   1.198   0.723   3.289 -0.9018  0.0285  0.1910
 6727SOL    HW131643   1.239   0.701   3.372  0.8659  0.5143 -0.5399
 6727SOL    HW231644   1.133   0.653   3.278 -1.9888  0.5567  3.4079
 6728SOL     OW31645   0.451   3.222   5.706  0.0890 -0.6547  0.6037
 6728SOL    HW131646   0.379   3.177   5.662  1.2654 -0.7968 -1.1516
 6728SOL    HW231647   0.395   3.253   5.778  1.2475  0.0473  1.1970
 6729SOL     OW31648   3.134   4.431   6.707  0.3836  0.5846 -0.3126
 6729SOL    HW131649   3.138   4.335   6.708 -0.7838  0.5312 -0.5700
 6729SOL    HW231650   3.049   4.451   6.668 -0.7272 -3.0546  0.2178
 6730SOL     OW31651   0.956   0.262  10.402 -0.3236 -0.3966 -0.1286
 6730SOL    HW131652   0.903   0.199  10.354 -0.9555 -0.5141  0.7129
 6730SOL    HW231653   0.943   0.340  10.348 -2.2707 -0.5233  0.1461
 6731SOL     OW31654   2.723   2.665   8.973  0.9291 -0.0038 -0.1121
 6731SOL    HW131655   2.659   2.596   8.987  0.2981  0.4309 -0.8514
 6731SOL    HW231656   2.794   2.646   9.035  0.1751 -1.2722  0.3414
 6732SOL     OW31657   1.709   1.786   5.096  0.1995  0.1423 -0.2862
 6732SOL    HW131658   1.628   1.830   5.070 -1.1054 -1.5069  1.0476
 6732SOL    HW231659   1.750   1.853   5.151  1.9307  1.0200 -2.6404
 6733SOL     OW31660   0.961   0.102  15.458  0.4063 -0.7280  0.4080
 6733SOL    HW131661   1.045   0.118  15.415 -0.4615  1.0417 -0.5891
 6733SOL    HW231662   0.908   0.180  15.447  0.5703  0.0643  4.9970
 6734SOL     OW31663   1.326   2.169   8.430  0.2820  0.1694 -0.2723
 6734SOL    HW131664   1.271   2.125   8.365  0.0273  2.2229 -1.4304
 6734SOL    HW231665   1.316   2.111   8.505 -0.1191  0.9345  0.2595
 6735SOL     OW31666   1.288   2.373  16.433  0.2706 -0.1974 -0.0877
 6735SOL    HW131667   1.283   2.443  16.367  1.2848  0.1922  0.2619
 6735SOL    HW231668   1.202   2.331  16.429  1.2806 -2.1137 -1.8012
 6736SOL     OW31669   3.171   3.130  10.295  0.0184 -0.0374  0.3008
 6736SOL    HW131670   3.179   3.042  10.334 -4.0387 -0.3615  0.4515
 6736SOL    HW231671   3.262   3.158  10.296  0.2727 -0.8739  0.6366
 6737SOL     OW31672   1.933   2.157   5.989  0.1772  0.7166 -0.7210
 6737SOL    HW131673   2.016   2.171   5.943  0.3207  0.1481 -0.6308
 6737SOL    HW231674   1.893   2.244   5.986  2.3354  1.7369 -0.0862
 6738SOL     OW31675   1.658   0.458  13.210  0.0991 -0.1927  0.3148
 6738SOL    HW131676   1.681   0.501  13.127  0.3503  2.8284  1.9581
 6738SOL    HW231677   1.566   0.483  13.220  0.4065  0.7650  0.7304
 6739SOL     OW31678   4.649   4.626   4.579  0.4280 -0.0992 -0.5229
 6739SOL    HW131679   4.569   4.575   4.565 -0.0748  0.3969  0.5523
 6739SOL    HW231680   4.672   4.593   4.666 -0.8836  0.7832  0.1618
 6740SOL     OW31681   1.299   1.644   2.260  0.3314 -0.4294 -0.4272
 6740SOL    HW131682   1.384   1.680   2.236  0.2276 -0.1142 -0.3139
 6740SOL    HW231683   1.308   1.551   2.239 -0.8338 -0.3874 -1.1381
 6741SOL     OW31684   0.568   3.883  16.848  0.1182  0.1591 -0.1799
 6741SOL    HW131685   0.579   3.959  16.905  2.3486 -1.3030  1.3337
 6741SOL    HW231686   0.510   3.912  16.777  0.8493 -1.4247 -1.4200
 6742SOL     OW31687   0.881   1.156   9.238 -0.0145  0.2586 -0.8452
 6742SOL    HW131688   0.823   1.116   9.302  0.8608 -0.3677 -0.4470
 6742SOL    HW231689   0.940   1.085   9.212  0.7290 -0.7398  3.6645
 6743SOL     OW31690   1.398   0.992   5.059  0.3260 -0.3047  0.0485
 6743SOL    HW131691   1.471   0.932   5.074  0.2696 -0.2170  0.6590
 6743SOL    HW231692   1.450   1.063   5.021  0.2634 -0.6880 -0.7569
 6744SOL     OW31693   2.640   4.657   3.737 -0.1641 -0.4895  0.1978
 6744SOL    HW131694   2.574   4.682   3.672 -0.8398 -0.5808  0.8488
 6744SOL    HW231695   2.602   4.575   3.768  1.1033 -1.1451  0.0040
 6745SOL     OW31696   4.613   0.822   0.766  0.0669  0.2233 -0.1351
 6745SOL    HW131697   4.563   0.851   0.843 -1.7606 -0.7315 -0.9581
 6745SOL    HW231698   4.663   0.751   0.805 -2.5974 -1.4346  0.2921
 6746SOL     OW31699   3.345   0.508  12.246  0.3899 -0.2588 -0.1051
 6746SOL    HW131700   3.383   0.450  12.311 -1.5089 -0.9232  0.4006
 6746SOL    HW231701   3.264   0.533  12.290  0.9938  2.6588 -0.6224
 6747SOL     OW31702   3.033   2.891   7.597  0.4100  0.9669 -0.6443
 6747SOL    HW131703   2.957   2.850   7.639  2.6058  0.7597  3.1533
 6747SOL    HW231704   2.980   2.952   7.545 -0.7812  0.5947  0.1122
 6748SOL     OW31705   0.515   1.647   7.097 -0.3588 -0.3049  0.0982
 6748SOL    HW131706   0.529   1.695   7.016  0.3035 -1.2558 -0.3615
 6748SOL    HW231707   0.516   1.726   7.150  2.3419  1.5885 -2.8105
 6749SOL     OW31708   3.541   0.493   3.530 -0.2791 -0.0216  0.0840
 6749SOL    HW131709   3.531   0.473   3.437  1.9424  2.2352 -0.6370
 6749SOL    HW231710   3.580   0.580   3.521 -0.4143  0.0239 -0.0709
 6750SOL     OW31711   3.354   3.474  11.738  0.4165 -0.2750 -0.4852
 6750SOL    HW131712   3.404   3.485  11.657  0.2036  0.0604 -0.5716
 6750SOL    HW231713   3.291   3.545  11.723 -1.0372 -1.5421 -0.3263
 6751SOL     OW31714   0.917   1.613  14.938  0.1463  0.2491 -0.3041
 6751SOL    HW131715   0.885   1.550  14.874  0.7977 -0.5643  0.1797
 6751SOL    HW231716   0.891   1.573  15.021 -1.4680 -2.0178 -1.9144
 6752SOL     OW31717   2.702   2.351   9.709  0.4508  0.5909 -0.4284
 6752SOL    HW131718   2.696   2.338   9.614 -0.1804 -0.9995 -0.1542
 6752SOL    HW231719   2.755   2.275   9.730 -0.2151  0.2718  0.0950
 6753SOL     OW31720   0.454   1.933   3.635 -0.8798  0.4522 -0.1267
 6753SOL    HW131721   0.463   1.867   3.566 -1.0188  0.7504 -0.4322
 6753SOL    HW231722   0.386   1.991   3.598 -1.7486 -1.1620 -1.0686
 6754SOL     OW31723   2.957   1.286   5.609 -0.3991  0.1192  0.3012
 6754SOL    HW131724   3.005   1.206   5.632 -1.3044 -0.8631 -1.2134
 6754SOL    HW231725   2.950   1.331   5.694  0.4197 -0.0306  0.4546
 6755SOL     OW31726   1.445   4.493   2.834  0.3894  0.0688  0.5382
 6755SOL    HW131727   1.525   4.442   2.850  1.1079  0.6339 -1.2184
 6755SOL    HW231728   1.416   4.513   2.923  1.2117 -0.0707  0.8361
 6756SOL     OW31729   2.709   2.668  14.303 -0.0876  0.3188  0.2994
 6756SOL    HW131730   2.749   2.582  14.312 -0.7202  0.0630  0.6632
 6756SOL    HW231731   2.742   2.685  14.215  1.2706  1.6610  1.0677
 6757SOL     OW31732   4.137   0.420   4.855 -0.5312  0.1621 -0.0359
 6757SOL    HW131733   4.209   0.357   4.865 -1.9743 -1.3537  0.8336
 6757SOL    HW231734   4.145   0.450   4.765 -0.5001  1.0395  0.2614
 6758SOL     OW31735   3.030   2.613   6.806 -0.5158  0.6023 -0.2405
 6758SOL    HW131736   2.949   2.653   6.838 -1.1956 -0.3076 -0.8112
 6758SOL    HW231737   3.085   2.689   6.823 -0.4863  0.1229  1.8431
 6759SOL     OW31738   2.791   4.152  10.437 -0.1748 -0.1306  0.2375
 6759SOL    HW131739   2.804   4.152  10.342  1.8176 -2.0341  0.5014
 6759SOL    HW231740   2.807   4.244  10.458 -1.0794 -0.0772  0.6529
 6760SOL     OW31741   4.633   0.263  12.881  0.0989  0.1233 -0.0460
 6760SOL    HW131742   4.544   0.226  12.884  0.6805 -1.2324  0.4169
 6760SOL    HW231743   4.677   0.212  12.814  1.2454 -0.0046  0.8199
 6761SOL     OW31744   2.797   4.035   5.518  0.5068  0.1308  0.1969
 6761SOL    HW131745   2.750   3.962   5.557 -1.6519  0.8364 -1.0726
 6761SOL    HW231746   2.853   3.988   5.456  0.4013  1.7110 -1.1111
 6762SOL     OW31747   2.349   3.024  16.688 -0.4175 -0.2463  0.1936
 6762SOL    HW131748   2.274   3.069  16.649 -0.6466 -0.5746  0.2609
 6762SOL    HW231749   2.357   2.958  16.619 -2.6324  0.4247 -0.6957
 6763SOL     OW31750   1.831   1.336  12.912 -0.1376 -0.1472 -0.1595
 6763SOL    HW131751   1.824   1.292  12.997 -2.5284 -0.0199 -0.2833
 6763SOL    HW231752   1.864   1.266  12.855  0.0438 -0.2878  0.1202
 6764SOL     OW31753   2.294   2.709   5.657 -0.5623 -0.1251 -0.7103
 6764SOL    HW131754   2.273   2.735   5.567 -0.0886  0.0379 -0.7733
 6764SOL    HW231755   2.231   2.756   5.711 -0.7336  0.5178 -1.4644
 6765SOL     OW31756   3.465   4.256   1.219  0.0065 -0.1195 -0.1404
 6765SOL    HW131757   3.483   4.192   1.150 -1.0991  0.1500 -0.6791
 6765SOL    HW231758   3.370   4.251   1.221 -0.0203  0.0341 -0.9511
 6766SOL     OW31759   0.681   3.050   1.428 -0.5325  0.5110  0.0636
 6766SOL    HW131760   0.596   3.081   1.396 -0.6256 -0.3905 -0.5636
 6766SOL    HW231761   0.732   3.050   1.346  0.0810  0.0383  0.4425
 6767SOL     OW31762   3.318   3.550   1.680 -0.1950  0.0861 -0.3337
 6767SOL    HW131763   3.337   3.524   1.770 -0.1004  0.3150 -0.2886
 6767SOL    HW231764   3.407   3.575   1.657 -0.5540  3.0028  1.4450
 6768SOL     OW31765   3.415   1.994  15.388  0.3853 -0.1783 -0.4168
 6768SOL    HW131766   3.488   2.020  15.333  0.7019 -0.1223  0.0277
 6768SOL    HW231767   3.442   1.909  15.423 -1.0686 -0.2790  0.4647
 6769SOL     OW31768   1.586   4.222  13.358 -0.0094 -0.0961  0.2825
 6769SOL    HW131769   1.511   4.175  13.321  1.3212 -0.7023 -1.6591
 6769SOL    HW231770   1.546   4.261  13.435 -0.2578  0.3040 -0.0465
 6770SOL     OW31771   1.487   4.004   8.685 -0.2658  0.3296 -0.3084
 6770SOL    HW131772   1.439   3.974   8.762 -0.1808 -0.9992 -0.7798
 6770SOL    HW231773   1.475   4.099   8.696  0.4921  0.5134 -1.1471
 6771SOL     OW31774   0.146   2.310   8.282  0.3289  0.4028 -0.2007
 6771SOL    HW131775   0.103   2.362   8.215 -0.4788 -2.2462 -1.7316
 6771SOL    HW231776   0.207   2.263   8.225 -1.4869 -1.0428 -0.9216
 6772SOL     OW31777   2.370   2.777  12.767  0.2737  0.3627 -0.1692
 6772SOL    HW131778   2.353   2.695  12.719  3.0994 -0.2364 -0.1697
 6772SOL    HW231779   2.444   2.759  12.825  0.7047  0.5144 -0.6659
 6773SOL     OW31780   3.595   2.178  10.691 -0.6647  0.4109 -0.0651
 6773SOL    HW131781   3.648   2.104  10.721  2.1465  3.0201  1.3418
 6773SOL    HW231782   3.542   2.210  10.764 -1.3918  0.8258 -0.7712
 6774SOL     OW31783   1.170   1.358   6.556  0.4474 -0.0638  0.4377
 6774SOL    HW131784   1.123   1.406   6.624  0.4127  1.0466 -0.3807
 6774SOL    HW231785   1.103   1.289   6.550  1.7006 -1.2539  0.2924
 6775SOL     OW31786   0.190   2.983   7.025 -0.0927 -0.2526 -0.7896
 6775SOL    HW131787   0.115   2.990   6.967 -0.1655  0.2297 -0.6400
 6775SOL    HW231788   0.166   3.060   7.077  1.4074  0.0517 -0.5399
 6776SOL     OW31789   2.064   4.049  17.255 -0.2017 -0.8130  0.5600
 6776SOL    HW131790   2.042   4.138  17.284  0.5250 -0.2509 -0.5851
 6776SOL    HW231791   1.987   4.032  17.201 -0.9863 -0.5968  1.6056
 6777SOL     OW31792   0.839   0.488   3.277 -0.1210 -0.3346 -0.2031
 6777SOL    HW131793   0.892   0.408   3.285  1.4776  0.6498 -0.8043
 6777SOL    HW231794   0.766   0.466   3.221 -0.4022  1.0764 -0.3777
 6778SOL     OW31795   3.935   4.113   3.971  0.1744  0.2839  0.1639
 6778SOL    HW131796   3.885   4.112   3.889 -1.8760  1.0749  1.4016
 6778SOL    HW231797   3.897   4.038   4.017 -0.7530  1.4926  1.3623
 6779SOL     OW31798   2.487   3.586   2.701 -0.5676 -0.6903 -0.5239
 6779SOL    HW131799   2.572   3.616   2.668 -0.3497 -1.1436 -0.3723
 6779SOL    HW231800   2.439   3.570   2.619  0.1673 -1.9646 -0.7050
 6780SOL     OW31801   2.795   4.269   8.859 -0.4478  0.3114  1.0741
 6780SOL    HW131802   2.850   4.345   8.877  2.2462 -0.9897 -1.6528
 6780SOL    HW231803   2.799   4.268   8.763  1.0156  0.7211  1.1288
 6781SOL     OW31804   0.516   0.951  17.338  0.4092  0.4640 -0.4777
 6781SOL    HW131805   0.611   0.956  17.348  0.0479  1.8911  2.0357
 6781SOL    HW231806   0.513   0.856  17.352 -0.3763  0.5427 -0.1576
 6782SOL     OW31807   0.019   4.453  10.039 -0.1524 -0.2178 -0.5726
 6782SOL    HW131808   0.092   4.486  10.090  0.5222 -0.2638 -1.5156
 6782SOL    HW231809   0.066   4.394   9.980  0.6560  0.2677 -0.4161
 6783SOL     OW31810   2.784   3.764  14.923 -0.0345 -0.0591  0.0983
 6783SOL    HW131811   2.775   3.670  14.907  0.9899 -0.2898  0.8598
 6783SOL    HW231812   2.724   3.800  14.857  2.0520  1.0565 -1.1812
 6784SOL     OW31813   3.841   0.862   3.188 -0.4816 -0.2185  0.1327
 6784SOL    HW131814   3.840   0.952   3.157 -2.7529 -0.1188  0.4955
 6784SOL    HW231815   3.825   0.873   3.282 -0.2637  0.9204  0.0391
 6785SOL     OW31816   0.691   4.610   6.591  0.1264  0.6119  0.1277
 6785SOL    HW131817   0.656   4.562   6.516  0.2239 -2.8486  2.2690
 6785SOL    HW231818   0.708   4.536   6.650  0.4204  1.3810  1.0021
 6786SOL     OW31819   2.500   0.245   3.788  1.0638 -0.0021  0.2340
 6786SOL    HW131820   2.569   0.311   3.776  2.3195 -0.9510  2.1211
 6786SOL    HW231821   2.537   0.183   3.852 -0.2727 -1.0312 -0.0035
 6787SOL     OW31822   1.186   1.369   2.075  0.1818  0.6731  0.0248
 6787SOL    HW131823   1.277   1.356   2.100 -0.2509 -0.7669  0.8459
 6787SOL    HW231824   1.134   1.306   2.124 -1.1454  1.8585  0.1364
 6788SOL     OW31825   3.463   3.244   6.624 -0.1177  0.4598 -0.2984
 6788SOL    HW131826   3.545   3.228   6.670  1.5339  0.5383 -3.2233
 6788SOL    HW231827   3.438   3.330   6.658  0.4365 -0.2066  1.7384
 6789SOL     OW31828   0.246   3.298   5.898 -0.2115 -0.8176 -0.1705
 6789SOL    HW131829   0.301   3.366   5.937 -0.5375  0.6428 -2.2758
 6789SOL    HW231830   0.274   3.230   5.959 -0.8235 -0.4800  0.4815
 6790SOL     OW31831   0.424   3.621   3.664  0.5352  0.3910  0.3725
 6790SOL    HW131832   0.494   3.632   3.728  0.4427  1.7902  0.2471
 6790SOL    HW231833   0.392   3.533   3.685 -0.1285 -0.1235 -2.7078
 6791SOL     OW31834   2.673   3.883   1.373  0.5477  0.0930  0.5159
 6791SOL    HW131835   2.672   3.942   1.298  0.4838  1.4887  1.6096
 6791SOL    HW231836   2.679   3.795   1.336  0.5690  0.0257  0.6807
 6792SOL     OW31837   0.783   2.746   8.715 -0.2460  0.3173 -0.3881
 6792SOL    HW131838   0.843   2.768   8.786 -0.2066  0.1995 -0.3855
 6792SOL    HW231839   0.779   2.651   8.712 -2.1113  0.3534  0.6902
 6793SOL     OW31840   2.967   0.224   4.539 -0.4721 -0.5977  0.5907
 6793SOL    HW131841   3.017   0.261   4.467 -2.4797 -1.2680 -1.1619
 6793SOL    HW231842   2.914   0.157   4.494  1.3715 -2.0624  0.5916
 6794SOL     OW31843   4.500   4.305   5.549 -0.6551 -0.2818 -0.3916
 6794SOL    HW131844   4.453   4.349   5.478 -2.5867  0.2050  1.1788
 6794SOL    HW231845   4.481   4.352   5.631  0.5816 -0.0810 -0.2171
 6795SOL     OW31846   1.143   0.408   1.820 -0.2670 -0.3123 -0.0191
 6795SOL    HW131847   1.195   0.376   1.746 -0.9900 -1.5800  0.0199
 6795SOL    HW231848   1.135   0.328   1.873  1.6664  0.6845  1.7490
 6796SOL     OW31849   3.402   2.055   4.303  0.0349  0.7050 -0.1576
 6796SOL    HW131850   3.475   2.117   4.309 -0.4907  1.1357  1.7009
 6796SOL    HW231851   3.385   2.052   4.397 -1.2958 -0.3480 -0.4419
 6797SOL     OW31852   2.307   0.591   2.428  0.4520 -0.6709  0.4538
 6797SOL    HW131853   2.275   0.677   2.455  1.5691  0.3241 -1.4157
 6797SOL    HW231854   2.222   0.547   2.430  1.3104 -2.4002 -0.8965
 6798SOL     OW31855   0.946   3.714  11.952 -0.3723  0.5369  0.0020
 6798SOL    HW131856   0.917   3.805  11.948 -0.3810  0.5544  0.5090
 6798SOL    HW231857   0.867   3.664  11.936  0.5346 -0.5592 -0.9933
 6799SOL     OW31858   3.508   0.127  14.867  0.4285  0.0128  0.3766
 6799SOL    HW131859   3.586   0.071  14.867  0.7682  0.4780  1.2125
 6799SOL    HW231860   3.489   0.145  14.775  0.7897 -1.3711  0.0181
 6800SOL     OW31861   3.302   0.346   4.069  0.6322  0.1567 -0.2716
 6800SOL    HW131862   3.314   0.301   4.153 -2.4270 -0.4326 -0.1474
 6800SOL    HW231863   3.228   0.302   4.028  1.6449  0.9315 -2.9010
 6801SOL     OW31864   0.547   2.003  15.305  0.1077  0.4821  0.2697
 6801SOL    HW131865   0.592   1.921  15.324  1.1594  1.4865  2.0850
 6801SOL    HW231866   0.607   2.044  15.243 -2.6258  3.5134 -0.4214
 6802SOL     OW31867   4.096   3.505  10.499  0.4536  0.1059  0.0486
 6802SOL    HW131868   4.103   3.583  10.554 -0.4215  0.2161  0.0107
 6802SOL    HW231869   4.079   3.437  10.566  0.4769 -1.1353 -1.2050
 6803SOL     OW31870   4.409   4.346   2.558 -0.2553 -0.2231 -0.3816
 6803SOL    HW131871   4.492   4.387   2.535 -0.7488  0.9219 -0.1349
 6803SOL    HW231872   4.392   4.315   2.469  0.4679 -1.1788 -0.1805
 6804SOL     OW31873   4.267   1.975   8.107  0.2009  0.3093 -0.0288
 6804SOL    HW131874   4.260   2.009   8.018  0.1632 -0.6125 -0.3758
 6804SOL    HW231875   4.180   1.935   8.111  1.2006 -2.0173 -1.7141
 6805SOL     OW31876   0.519   1.747   0.219 -0.1311 -0.7655 -0.1353
 6805SOL    HW131877   0.510   1.821   0.159  0.4729 -0.0790  0.6105
 6805SOL    HW231878   0.426   1.723   0.225 -0.8532  1.5902 -1.9670
 6806SOL     OW31879   3.468   2.209   8.472  0.4551 -0.4472  0.0459
 6806SOL    HW131880   3.374   2.228   8.470  0.7273  1.1051  1.9406
 6806SOL    HW231881   3.493   2.229   8.562 -1.2112  1.9715 -0.0410
 6807SOL     OW31882   1.873   2.670   5.419  0.3100 -0.1915 -0.9073
 6807SOL    HW131883   1.890   2.579   5.398  1.8537  0.0227 -0.5394
 6807SOL    HW231884   1.942   2.686   5.483  0.2407  1.9829 -1.3882
 6808SOL     OW31885   3.760   0.246   6.759 -0.2769  0.3235  0.6531
 6808SOL    HW131886   3.736   0.335   6.734  0.3307  0.5275  0.8069
 6808SOL    HW231887   3.848   0.261   6.791 -0.3080  3.9815 -1.0066
 6809SOL     OW31888   1.323   3.810   7.723  0.1219 -0.5652 -0.3161
 6809SOL    HW131889   1.344   3.731   7.772 -1.4924 -1.8916 -1.7400
 6809SOL    HW231890   1.402   3.862   7.731  0.4960 -0.9419 -1.4813
 6810SOL     OW31891   4.662   0.805   4.149  0.0245 -0.1155 -0.0303
 6810SOL    HW131892   4.712   0.878   4.186  1.4103 -0.9166 -0.3010
 6810SOL    HW231893   4.580   0.826   4.193  1.2880  0.4425  2.0845
 6811SOL     OW31894   2.832   1.775  12.993  0.8485 -0.1635  0.2741
 6811SOL    HW131895   2.919   1.763  12.954  0.5399 -3.4327  0.5949
 6811SOL    HW231896   2.838   1.861  13.034 -1.1513  0.7407 -1.3280
 6812SOL     OW31897   2.388   3.003   0.944 -0.4949  0.0028 -0.3871
 6812SOL    HW131898   2.373   3.096   0.927  0.2803  0.3143  0.6032
 6812SOL    HW231899   2.307   2.967   0.907  0.1257 -2.1940  0.3503
 6813SOL     OW31900   2.187   2.789   8.283  0.0390  0.1210  0.0037
 6813SOL    HW131901   2.114   2.841   8.248  0.0626 -0.8661 -1.5272
 6813SOL    HW231902   2.177   2.809   8.376 -0.0059  1.6766 -0.3314
 6814SOL     OW31903   3.249   4.623   8.376 -0.3206 -0.5661  0.6302
 6814SOL    HW131904   3.211   4.701   8.417 -1.9876  0.0545 -2.1146
 6814SOL    HW231905   3.233   4.643   8.284  0.8230 -0.1678  0.5174
 6815SOL     OW31906   3.084   2.435   3.259  0.3551 -0.0253  0.0109
 6815SOL    HW131907   2.994   2.403   3.263  0.0591  0.7158 -0.7240
 6815SOL    HW231908   3.140   2.368   3.299 -0.2394  0.1740  1.1605
 6816SOL     OW31909   3.335   1.803  11.138 -0.3088  0.3096 -0.0320
 6816SOL    HW131910   3.295   1.848  11.213  1.1094  0.5508  0.5902
 6816SOL    HW231911   3.330   1.710  11.159  0.4536  0.8018  2.3048
 6817SOL     OW31912   3.084   2.100   5.291  0.2682 -0.0221  0.1135
 6817SOL    HW131913   3.038   2.072   5.371 -1.2216  1.6032 -0.1943
 6817SOL    HW231914   3.056   2.036   5.226 -1.9993  1.0773  0.0030
 6818SOL     OW31915   0.290   4.145   4.164 -0.2552 -0.5359 -0.2298
 6818SOL    HW131916   0.200   4.133   4.192 -0.8963  2.6437 -0.9053
 6818SOL    HW231917   0.301   4.231   4.204 -0.7485  0.0702 -1.3963
 6819SOL     OW31918   4.185   3.501   9.944 -0.1651 -0.0274  0.1295
 6819SOL    HW131919   4.193   3.529  10.035  0.2180 -1.8069  0.6351
 6819SOL    HW231920   4.236   3.561   9.889 -0.0161 -0.1299  0.1576
 6820SOL     OW31921   4.091   3.210   8.676 -0.9592 -0.1350  0.2561
 6820SOL    HW131922   4.046   3.204   8.591 -0.9026 -0.8002  0.2690
 6820SOL    HW231923   4.035   3.157   8.733 -0.8748 -1.5809 -0.9812
 6821SOL     OW31924   0.309   0.774   1.236  0.6244  0.5211 -0.4442
 6821SOL    HW131925   0.336   0.806   1.322 -1.5911 -0.2819  0.5441
 6821SOL    HW231926   0.238   0.718   1.266  0.6587  0.2419 -0.8857
 6822SOL     OW31927   2.155   2.733   7.518  0.3605  0.4006  0.0519
 6822SOL    HW131928   2.140   2.640   7.529  0.6956  0.2525 -0.7618
 6822SOL    HW231929   2.209   2.738   7.597  0.4833 -0.8177  0.0387
 6823SOL     OW31930   1.566   3.864  12.347 -0.3529 -0.0760  0.0938
 6823SOL    HW131931   1.657   3.844  12.327 -0.0409  0.0551  1.3705
 6823SOL    HW231932   1.574   3.932  12.414  1.0957  0.2279 -0.3890
 6824SOL     OW31933   0.546   4.111   7.332  0.6757 -0.2058 -0.1761
 6824SOL    HW131934   0.469   4.142   7.378  1.2476  1.7599 -0.5257
 6824SOL    HW231935   0.595   4.191   7.312 -0.6555  0.1362 -2.1164
 6825SOL     OW31936   3.152   1.707  13.508 -0.1106  0.2048  0.6265
 6825SOL    HW131937   3.139   1.755  13.426  1.3777 -0.5978 -0.0780
 6825SOL    HW231938   3.114   1.627  13.472 -0.6894  0.1673  1.3142
 6826SOL     OW31939   4.209   2.797   5.902 -0.6252  0.0533  0.0179
 6826SOL    HW131940   4.167   2.882   5.916  1.7193  0.9713  1.6013
 6826SOL    HW231941   4.179   2.739   5.972 -0.3988  0.4370  0.4381
 6827SOL     OW31942   0.898   3.677  13.878  0.1713 -0.3995 -0.6047
 6827SOL    HW131943   0.927   3.705  13.791 -0.4318 -0.9566 -0.9926
 6827SOL    HW231944   0.824   3.624  13.848 -1.1667  1.3507 -0.4172
 6828SOL     OW31945   2.483   3.376   4.631 -0.5649 -0.3344 -0.3070
 6828SOL    HW131946   2.569   3.378   4.674 -0.1704 -0.0212 -1.0906
 6828SOL    HW231947   2.462   3.284   4.642  0.6103 -0.6771 -0.9394
 6829SOL     OW31948   0.841   1.921   7.617 -0.0503 -1.1443  0.9805
 6829SOL    HW131949   0.812   1.943   7.706 -1.1227 -1.2545  0.6524
 6829SOL    HW231950   0.932   1.904   7.641  0.8670  0.4157 -1.4347
 6830SOL     OW31951   0.063   0.474   6.425 -0.9586  0.1061 -0.2337
 6830SOL    HW131952   0.013   0.407   6.379 -1.2924  0.6407 -0.6560
 6830SOL    HW231953   0.143   0.482   6.373 -1.4700  1.8883 -0.7398
 6831SOL     OW31954   3.753   2.525  14.461  0.5756  0.1056  0.0066
 6831SOL    HW131955   3.675   2.484  14.423 -0.0595  2.3249 -1.0512
 6831SOL    HW231956   3.828   2.477  14.425 -1.1537 -1.9578 -0.8547
 6832SOL     OW31957   2.575   0.876  12.186  0.1912 -0.1740 -0.0234
 6832SOL    HW131958   2.585   0.952  12.128 -1.5760  1.1714  1.4158
 6832SOL    HW231959   2.482   0.859  12.173  0.3991 -0.3796 -1.2456
 6833SOL     OW31960   4.555   1.585   4.414  0.4811 -0.0809  0.0436
 6833SOL    HW131961   4.622   1.565   4.480  0.7128  0.0883 -0.1382
 6833SOL    HW231962   4.531   1.674   4.440 -0.8228 -0.3863 -0.1605
 6834SOL     OW31963   1.802   2.064   2.897 -0.1347 -0.4908  0.4988
 6834SOL    HW131964   1.793   2.075   2.802  1.0292  0.3892  0.4804
 6834SOL    HW231965   1.882   2.109   2.924  0.2105  0.6722 -2.4076
 6835SOL     OW31966   3.094   2.667   1.695 -0.1113 -0.2028  0.1502
 6835SOL    HW131967   3.017   2.625   1.734 -0.0992 -0.6478 -0.3053
 6835SOL    HW231968   3.075   2.648   1.604  4.2062  0.6818 -0.9318
 6836SOL     OW31969   3.372   4.287   3.272  0.0062  0.5833  0.3000
 6836SOL    HW131970   3.322   4.350   3.219  0.8339  1.5294  0.6452
 6836SOL    HW231971   3.320   4.207   3.259 -0.5771  0.6172  2.5412
 6837SOL     OW31972   3.823   2.224   2.116  0.2938  0.0098  0.4257
 6837SOL    HW131973   3.882   2.232   2.190  0.6148 -0.6325  0.2439
 6837SOL    HW231974   3.861   2.147   2.072 -2.1752  0.2483 -2.1452
 6838SOL     OW31975   4.198   4.256   4.862 -0.0056  0.1195 -0.0459
 6838SOL    HW131976   4.105   4.250   4.884  0.0783 -0.0113  0.2758
 6838SOL    HW231977   4.225   4.164   4.867 -0.4336  0.0211  0.4039
 6839SOL     OW31978   4.402   2.229  10.067 -0.1106  0.2645 -0.0887
 6839SOL    HW131979   4.345   2.275  10.128 -0.6563 -0.3036 -0.1669
 6839SOL    HW231980   4.372   2.138  10.074 -1.2400  0.4845 -1.8831
 6840SOL     OW31981   2.853   1.311   8.477 -0.6794 -0.1829  0.2135
 6840SOL    HW131982   2.809   1.259   8.410 -0.6633  0.7962 -0.5614
 6840SOL    HW231983   2.918   1.248   8.508  0.6933  1.9266  1.5332
 6841SOL     OW31984   4.401   1.727   3.631 -0.4777 -0.1994  0.0567
 6841SOL    HW131985   4.377   1.762   3.545 -0.0965  0.2017  0.1141
 6841SOL    HW231986   4.327   1.752   3.687 -0.2531 -4.1641  2.1103
 6842SOL     OW31987   0.421   2.098  11.106  0.9801  0.1809  0.2663
 6842SOL    HW131988   0.390   2.185  11.130  4.2675  1.4239  0.0212
 6842SOL    HW231989   0.437   2.053  11.189 -0.1107 -1.8215 -0.5890
 6843SOL     OW31990   4.578   3.007   9.913  0.0269  0.0874  0.4437
 6843SOL    HW131991   4.490   2.995   9.880 -0.2872  2.7378  0.3329
 6843SOL    HW231992   4.635   2.991   9.838  2.1990 -1.5533  2.4275
 6844SOL     OW31993   0.540   4.145  12.094  0.3363  1.3672  0.2847
 6844SOL    HW131994   0.515   4.219  12.039 -3.6518 -0.8010 -0.7888
 6844SOL    HW231995   0.634   4.155  12.109  0.3438 -0.8229  1.5791
 6845SOL     OW31996   1.511   1.477   7.796  0.0025  0.2131  0.1341
 6845SOL    HW131997   1.538   1.516   7.712  2.0161  0.0473  0.6873
 6845SOL    HW231998   1.454   1.414   7.752 -0.1581  1.2689 -1.1872
 6846SOL     OW31999   0.849   1.418   2.544  0.4045  0.4094  0.5016
 6846SOL    HW132000   0.892   1.434   2.460  1.7959 -1.3423  0.8844
 6846SOL    HW232001   0.818   1.505   2.570  1.9200  1.8486 -2.5760
 6847SOL     OW32002   1.642   4.493   7.937  0.1142 -0.0130  0.1806
 6847SOL    HW132003   1.667   4.481   8.028 -0.3925 -0.6996  0.2288
 6847SOL    HW232004   1.728   4.488   7.896 -0.5551 -1.3292 -1.0827
 6848SOL     OW32005   3.910   3.178  15.268 -0.6472 -0.0279  0.6019
 6848SOL    HW132006   3.967   3.107  15.298  0.5019  0.1703 -1.0849
 6848SOL    HW232007   3.954   3.201  15.186  0.2485 -2.6550  0.3400
 6849SOL     OW32008   4.325   0.253   1.746 -0.7620 -0.8915  0.2000
 6849SOL    HW132009   4.250   0.213   1.790 -0.1363 -2.3445 -0.0655
 6849SOL    HW232010   4.289   0.261   1.658 -1.0725  0.5015  0.4424
 6850SOL     OW32011   0.143   0.648   3.911  0.4447  0.2452  0.3154
 6850SOL    HW132012   0.148   0.607   3.997  1.6680 -2.6968 -1.1801
 6850SOL    HW232013   0.113   0.738   3.924 -0.3811  0.0582 -0.3474
 6851SOL     OW32014   2.255   0.186  16.162 -0.1936 -0.5195 -0.2650
 6851SOL    HW132015   2.307   0.116  16.201 -2.2014 -3.0092 -2.0478
 6851SOL    HW232016   2.256   0.156  16.071  0.1835 -0.8758 -0.1450
 6852SOL     OW32017   3.396   3.216   2.597  0.0404  0.1222 -0.2814
 6852SOL    HW132018   3.452   3.155   2.548  1.4646  0.1141  1.3646
 6852SOL    HW232019   3.306   3.185   2.593  0.4377 -0.9958 -0.4439
 6853SOL     OW32020   1.983   2.033  13.629 -0.5685  0.7161 -0.1164
 6853SOL    HW132021   1.936   2.100  13.679 -1.2130  0.1215  0.0591
 6853SOL    HW232022   1.961   1.949  13.669  1.6954 -0.5927 -1.6413
 6854SOL     OW32023   2.617   2.672   4.170 -0.0838 -0.0144 -0.7075
 6854SOL    HW132024   2.595   2.755   4.128  2.3362  0.0502 -1.8207
 6854SOL    HW232025   2.655   2.630   4.093  2.6031 -1.5409  1.4711
 6855SOL     OW32026   3.567   3.221   0.636  0.5629  0.5996  0.2322
 6855SOL    HW132027   3.658   3.219   0.605  0.6433  0.1453  0.4991
 6855SOL    HW232028   3.524   3.191   0.557 -0.5786 -0.0106  1.0783
 6856SOL     OW32029   0.736   4.191  15.602  0.2049 -0.1165 -0.4075
 6856SOL    HW132030   0.758   4.196  15.695 -1.2998 -0.1679 -0.0548
 6856SOL    HW232031   0.810   4.223  15.550  0.5021 -2.5760 -1.5229
 6857SOL     OW32032   3.500   3.221   3.765 -0.6985  0.3592 -0.0530
 6857SOL    HW132033   3.547   3.289   3.717 -1.2811  2.1049  1.8568
 6857SOL    HW232034   3.501   3.266   3.849 -2.4310 -0.4738  0.4081
 6858SOL     OW32035   0.898   0.778   2.269  0.0004 -0.1636 -0.4873
 6858SOL    HW132036   0.989   0.767   2.295 -0.2404  0.2801  0.5221
 6858SOL    HW232037   0.900   0.848   2.204 -1.0295 -0.3196 -0.6898
 6859SOL     OW32038   1.003   4.286  13.455 -0.3121  0.0394  0.1407
 6859SOL    HW132039   0.953   4.205  13.443  0.8790 -1.1467  3.0295
 6859SOL    HW232040   1.055   4.263  13.532  0.0170 -0.7380 -0.3140
 6860SOL     OW32041   2.296   3.858   3.079 -0.2530 -0.0618  0.1167
 6860SOL    HW132042   2.317   3.933   3.024  3.8306  0.5863  2.5535
 6860SOL    HW232043   2.278   3.800   3.005  0.7584  1.6577 -1.4720
 6861SOL     OW32044   0.611   4.423  12.669  0.3952  0.8595  0.1531
 6861SOL    HW132045   0.643   4.445  12.756  1.7422  0.4258 -0.2349
 6861SOL    HW232046   0.537   4.364  12.683  0.8517 -0.2074 -1.9440
 6862SOL     OW32047   0.976   0.910   5.938 -0.3078  0.3570  0.1495
 6862SOL    HW132048   0.968   0.861   5.855  0.8262  0.3862  0.0255
 6862SOL    HW232049   0.888   0.900   5.974  0.2374 -1.8135  0.9225
 6863SOL     OW32050   2.903   4.121  11.905  0.1034  0.0363 -0.0643
 6863SOL    HW132051   2.949   4.070  11.838 -0.9669 -0.9594 -0.0268
 6863SOL    HW232052   2.974   4.173  11.944 -0.8763  1.3297 -0.0048
 6864SOL     OW32053   2.268   3.528   7.633 -0.3174 -0.2613  0.0726
 6864SOL    HW132054   2.228   3.549   7.717  0.2512  0.4396  0.1631
 6864SOL    HW232055   2.257   3.433   7.637 -1.5996 -0.0929  0.5930
 6865SOL     OW32056   0.410   2.810   6.145  0.8813  0.1728 -0.1173
 6865SOL    HW132057   0.321   2.840   6.130  0.4481 -1.3642 -0.5549
 6865SOL    HW232058   0.413   2.762   6.228  1.8225  1.4511  0.5990
 6866SOL     OW32059   1.222   0.901   2.852  0.5944 -0.3186 -0.0038
 6866SOL    HW132060   1.195   0.815   2.822  0.3959 -0.4139  0.4485
 6866SOL    HW232061   1.253   0.871   2.938 -2.2120  1.7533  1.7499
 6867SOL     OW32062   1.685   3.321   0.231  0.4645 -0.2839 -0.3649
 6867SOL    HW132063   1.644   3.237   0.249 -0.2656  0.0797 -0.3623
 6867SOL    HW232064   1.768   3.311   0.278 -0.3464  0.8044  1.2904
 6868SOL     OW32065   4.368   3.277   2.391 -0.6854 -0.1997 -0.1165
 6868SOL    HW132066   4.390   3.369   2.381  1.0401 -0.5816  0.1684
 6868SOL    HW232067   4.276   3.269   2.368 -1.1810  1.4783  1.3403
 6869SOL     OW32068   2.866   4.403   9.786  0.2132  0.4375  0.4863
 6869SOL    HW132069   2.861   4.308   9.780  1.6684  0.1834  3.0626
 6869SOL    HW232070   2.891   4.431   9.698 -0.6811 -0.0695  0.0744
 6870SOL     OW32071   1.331   3.109   1.623  0.2079  0.0809  0.1276
 6870SOL    HW132072   1.364   3.197   1.607  0.8405  0.0629  1.3292
 6870SOL    HW232073   1.268   3.128   1.693  0.4584  1.3645  0.0116
 6871SOL     OW32074   1.266   4.026   5.652 -0.8280 -0.4790 -0.7657
 6871SOL    HW132075   1.326   4.100   5.645 -0.1927 -1.1518 -2.3259
 6871SOL    HW232076   1.190   4.072   5.688  1.6588  0.8884  2.6934
 6872SOL     OW32077   0.616   0.646  11.703  0.3210 -0.0251 -0.1144
 6872SOL    HW132078   0.530   0.675  11.734  0.9847  1.0197  0.7213
 6872SOL    HW232079   0.649   0.727  11.665  0.1682 -0.1681 -0.5574
 6873SOL     OW32080   3.998   1.396   3.811 -0.3842  0.3037 -0.7013
 6873SOL    HW132081   3.925   1.372   3.755 -0.2323 -0.5023 -0.5513
 6873SOL    HW232082   4.015   1.310   3.849 -0.2835 -0.3710 -2.2810
 6874SOL     OW32083   3.931   0.823   0.232  0.0480  0.0041 -0.0544
 6874SOL    HW132084   4.004   0.782   0.278 -0.9499  0.5989  2.0944
 6874SOL    HW232085   3.885   0.843   0.314  0.0227 -1.1512  0.2057
 6875SOL     OW32086   4.048   0.636  17.678 -0.1232  0.1375 -0.4055
 6875SOL    HW132087   4.081   0.701  17.616 -0.0437  0.5311  0.0453
 6875SOL    HW232088   3.954   0.648  17.666 -0.3500 -0.3711  0.8489
 6876SOL     OW32089   2.480   0.732   6.666 -0.3864  0.0730 -0.0261
 6876SOL    HW132090   2.548   0.787   6.705 -1.9839 -0.1663  3.0462
 6876SOL    HW232091   2.414   0.794   6.634 -1.5405 -0.8169  0.6374
 6877SOL     OW32092   1.636   1.685   9.587 -0.2575 -0.2182 -0.2036
 6877SOL    HW132093   1.619   1.623   9.658  0.7352  1.5912  1.6076
 6877SOL    HW232094   1.587   1.763   9.611 -2.0122 -1.5441  0.4959
 6878SOL     OW32095   3.736   0.136   2.396 -0.0529 -0.0345  0.8722
 6878SOL    HW132096   3.736   0.151   2.490 -0.5883  0.5580  0.7788
 6878SOL    HW232097   3.649   0.168   2.370  0.5094  0.3818 -0.5027
 6879SOL     OW32098   3.533   1.781  12.433  0.3041  0.4877  0.2862
 6879SOL    HW132099   3.471   1.709  12.442 -2.6166  3.1718  1.5726
 6879SOL    HW232100   3.509   1.847  12.498  1.3565 -1.1261  2.3216
 6880SOL     OW32101   4.400   2.275   3.023  0.6082  0.0684  0.1123
 6880SOL    HW132102   4.457   2.222   3.079 -2.5288 -4.4137 -0.8925
 6880SOL    HW232103   4.328   2.212   3.024  0.1904  0.5471  0.1149
 6881SOL     OW32104   0.538   4.553   8.820 -0.4755 -0.7486 -0.2751
 6881SOL    HW132105   0.572   4.639   8.845  0.9124 -1.0126 -1.2102
 6881SOL    HW232106   0.504   4.536   8.907 -1.1138  2.2997  0.0827
 6882SOL     OW32107   4.713   3.780   5.061  0.2955 -0.0046 -0.3436
 6882SOL    HW132108   0.080   3.816   5.049 -0.4201  0.7583 -3.2100
 6882SOL    HW232109   0.018   3.689   5.043  1.0290  0.2154 -0.3872
 6883SOL     OW32110   1.078   0.142   6.171 -0.5575 -0.3113  0.6138
 6883SOL    HW132111   1.026   0.164   6.094  0.5178 -0.5295 -0.1859
 6883SOL    HW232112   1.164   0.146   6.128 -1.6182  0.2622 -1.4541
 6884SOL     OW32113   0.748   4.190   8.172 -0.3087  0.1437 -0.2821
 6884SOL    HW132114   0.682   4.130   8.207  0.6370 -0.2527  0.8145
 6884SOL    HW232115   0.805   4.214   8.245 -0.5526 -1.1885  0.3429
 6885SOL     OW32116   2.315   4.494   8.913 -0.4575 -0.0578  0.3216
 6885SOL    HW132117   2.327   4.404   8.883  0.2880  0.5700 -1.1998
 6885SOL    HW232118   2.406   4.516   8.931 -0.2002 -0.3473 -0.6431
 6886SOL     OW32119   2.341   1.740   8.780 -0.3203  0.1466  0.3074
 6886SOL    HW132120   2.433   1.764   8.768 -0.2646  0.1273  0.6830
 6886SOL    HW232121   2.348   1.649   8.807  0.9255  0.1725  0.0796
 6887SOL     OW32122   0.620   0.233  14.587  0.5782 -0.3235 -0.1315
 6887SOL    HW132123   0.535   0.275  14.570  1.3779  1.6683  0.7945
 6887SOL    HW232124   0.631   0.162  14.524 -1.3866 -1.2843  0.6028
 6888SOL     OW32125   1.338   3.764   3.221  0.3515  0.1226 -0.1183
 6888SOL    HW132126   1.350   3.858   3.232 -0.8157  0.4897 -1.9177
 6888SOL    HW232127   1.422   3.720   3.209  0.5188  0.4697 -0.2159
 6889SOL     OW32128   2.782   3.198   5.553  0.6378  0.2869  0.4026
 6889SOL    HW132129   2.844   3.243   5.496  0.6825  0.7320  0.8107
 6889SOL    HW232130   2.844   3.144   5.601 -2.0854 -1.0234  2.4475
 6890SOL     OW32131   3.859   3.116   2.554  0.4890  0.2145  0.2269
 6890SOL    HW132132   3.774   3.131   2.515 -0.2158  2.8869  2.8510
 6890SOL    HW232133   3.862   3.020   2.556 -1.3639  0.1722  0.3517
 6891SOL     OW32134   4.383   4.545   4.547  0.5560 -0.1267  0.3052
 6891SOL    HW132135   4.324   4.471   4.565  1.2358 -0.4853  1.0590
 6891SOL    HW232136   4.317   4.600   4.504 -0.0733 -1.6932 -0.7120
 6892SOL     OW32137   3.324   2.517   1.777 -0.2463 -0.2532  0.1176
 6892SOL    HW132138   3.242   2.565   1.781 -0.5655 -0.6890 -1.1437
 6892SOL    HW232139   3.299   2.436   1.822 -2.8147  0.2739 -0.3990
 6893SOL     OW32140   2.208   1.147   2.154  0.3873  0.4875  0.1079
 6893SOL    HW132141   2.195   1.200   2.076  1.9101  1.2182  0.3486
 6893SOL    HW232142   2.299   1.117   2.147  0.7816  1.8338 -0.3567
 6894SOL     OW32143   4.479   1.744   2.684 -0.4507  0.1342  0.1760
 6894SOL    HW132144   4.455   1.827   2.725 -1.6022 -0.2068  0.1796
 6894SOL    HW232145   4.397   1.730   2.637  0.1071  4.5928 -2.1041
 6895SOL     OW32146   1.289   2.375   7.431  0.6269 -0.1663 -0.1539
 6895SOL    HW132147   1.237   2.455   7.438  0.7448 -0.0508 -0.6103
 6895SOL    HW232148   1.283   2.358   7.337  0.3528 -1.9973  0.1890
 6896SOL     OW32149   2.091   1.232  12.502 -0.2490 -0.0426 -0.4519
 6896SOL    HW132150   2.118   1.141  12.511  0.5178  0.0770 -1.4880
 6896SOL    HW232151   1.995   1.229  12.501 -0.2844  1.3075 -1.4543
 6897SOL     OW32152   0.314   1.670  12.606  0.6974 -0.2235 -0.5884
 6897SOL    HW132153   0.300   1.757  12.644  1.1412 -0.8179  0.9213
 6897SOL    HW232154   0.297   1.611  12.680 -1.8721  1.5634  0.2506
 6898SOL     OW32155   2.419   4.417   6.038 -0.0518 -0.0910  0.1354
 6898SOL    HW132156   2.386   4.503   6.009  1.4104  0.6075  0.5715
 6898SOL    HW232157   2.336   4.369   6.035 -0.0729 -0.1682  2.1375
 6899SOL     OW32158   1.723   1.190   5.193 -0.8757  0.0424 -0.0406
 6899SOL    HW132159   1.762   1.277   5.188 -2.3669  0.6483 -1.2109
 6899SOL    HW232160   1.643   1.220   5.235  0.7032  1.0928  2.2140
 6900SOL     OW32161   1.404   4.497   6.109  0.4660  0.4521  0.0503
 6900SOL    HW132162   1.341   4.547   6.055  1.4284 -0.6393 -2.0933
 6900SOL    HW232163   1.484   4.547   6.094 -1.8203  3.2563 -2.8293
 6901SOL     OW32164   3.543   2.842   5.918 -0.5570  0.0318  0.1829
 6901SOL    HW132165   3.571   2.752   5.938  0.9865  0.4358 -0.1828
 6901SOL    HW232166   3.456   2.848   5.958 -0.3250 -1.8029  1.0106
 6902SOL     OW32167   3.626   2.801  15.817  0.1181  0.0104  0.0313
 6902SOL    HW132168   3.567   2.854  15.870 -1.5239  0.7817 -2.5579
 6902SOL    HW232169   3.598   2.713  15.841  2.1865 -0.5247  0.5036
 6903SOL     OW32170   0.548   3.957   3.410  0.5395  0.1159 -0.0441
 6903SOL    HW132171   0.480   3.914   3.462  0.2014 -0.0253 -0.5931
 6903SOL    HW232172   0.559   3.911   3.326 -0.7738  0.3717 -0.3657
 6904SOL     OW32173   2.282   3.198   6.187  0.2504 -0.2925  0.2254
 6904SOL    HW132174   2.326   3.150   6.117 -0.4101  1.0424 -1.1033
 6904SOL    HW232175   2.211   3.238   6.137 -1.0279 -0.8714  1.5778
 6905SOL     OW32176   1.409   1.390  12.020  0.3506  0.0335 -0.6422
 6905SOL    HW132177   1.344   1.359  12.083  2.9451 -0.6224  1.7121
 6905SOL    HW232178   1.351   1.419  11.949  0.3172  0.6907 -0.3472
 6906SOL     OW32179   2.539   1.279  16.098 -0.3857 -0.3724 -0.8606
 6906SOL    HW132180   2.576   1.202  16.141 -1.9348 -0.0065  1.1493
 6906SOL    HW232181   2.465   1.299  16.156  0.0898 -0.4479 -0.2311
 6907SOL     OW32182   4.373   2.614   7.132  0.0768  0.2664 -0.2738
 6907SOL    HW132183   4.279   2.601   7.118  0.2264 -0.4202 -0.6218
 6907SOL    HW232184   4.394   2.550   7.200 -1.0779 -2.5206 -2.5240
 6908SOL     OW32185   2.793   0.874  16.249 -0.2315  0.0198  0.3485
 6908SOL    HW132186   2.764   0.787  16.221 -2.0667  0.4775  0.8319
 6908SOL    HW232187   2.788   0.924  16.167 -2.4255  1.7571  1.5238
 6909SOL     OW32188   0.737   4.151   6.814 -0.3674 -0.0330  0.5416
 6909SOL    HW132189   0.773   4.155   6.725  1.1818 -2.7010  1.0547
 6909SOL    HW232190   0.811   4.114   6.861  1.0196 -0.4513 -1.9798
 6910SOL     OW32191   4.363   1.242  16.294  0.1831 -0.3764 -0.2625
 6910SOL    HW132192   4.355   1.221  16.387  2.0829 -1.1314 -0.2738
 6910SOL    HW232193   4.458   1.243  16.287  0.1857 -1.0394 -0.4044
 6911SOL     OW32194   1.428   2.291   2.955 -0.5596 -0.3125 -0.4754
 6911SOL    HW132195   1.517   2.312   2.928 -0.2417 -1.8226 -0.5906
 6911SOL    HW232196   1.393   2.251   2.875 -0.1454 -1.2419 -0.1895
 6912SOL     OW32197   0.864   2.812   8.079 -0.0174 -0.3627  0.1542
 6912SOL    HW132198   0.869   2.895   8.031  2.7841 -1.2170 -1.0317
 6912SOL    HW232199   0.866   2.747   8.009  1.6765 -1.0366  0.8262
 6913SOL     OW32200   4.164   1.413   2.991 -0.0883 -0.2310  0.2429
 6913SOL    HW132201   4.156   1.403   3.086 -2.0981 -1.6618 -0.0798
 6913SOL    HW232202   4.086   1.464   2.970  1.8398  3.0882  1.1126
 6914SOL     OW32203   0.608   2.805   3.169 -0.3424  0.0764 -0.0899
 6914SOL    HW132204   0.580   2.863   3.098 -0.5622  2.7563  2.1957
 6914SOL    HW232205   0.530   2.803   3.224 -0.9771 -3.3477 -1.0488
 6915SOL     OW32206   4.429   2.411   7.326 -0.7351 -0.3162  0.0806
 6915SOL    HW132207   4.506   2.360   7.301 -2.4945 -1.2033 -3.4726
 6915SOL    HW232208   4.452   2.413   7.419 -1.3556 -0.3732  0.2350
 6916SOL     OW32209   2.056   4.521   5.743  0.1565 -0.0270  0.1057
 6916SOL    HW132210   2.009   4.490   5.820  1.4823  0.4811  1.1179
 6916SOL    HW232211   1.983   4.548   5.687  0.4124  2.0333  0.7698
 6917SOL     OW32212   2.394   0.059   3.598 -0.1767  0.5609  0.1681
 6917SOL    HW132213   2.402   0.116   3.674 -2.1189 -0.2934  1.0298
 6917SOL    HW232214   2.385   0.125   3.529 -2.0543 -0.4703 -0.5864
 6918SOL     OW32215   3.892   0.108   5.215  0.2527  0.3041 -0.0189
 6918SOL    HW132216   3.889   0.107   5.311  3.1355  2.5221  0.0957
 6918SOL    HW232217   3.898   0.203   5.204  0.2064  0.6558  2.9873
 6919SOL     OW32218   0.084   2.385  13.231 -0.1049 -0.5441  0.7412
 6919SOL    HW132219   0.072   2.408  13.139  0.7504 -0.3588  0.6739
 6919SOL    HW232220   0.057   2.464  13.277 -0.7294 -0.0998 -0.4071
 6920SOL     OW32221   0.348   0.208   9.240 -0.1022  0.3531 -0.7376
 6920SOL    HW132222   0.409   0.140   9.272  0.8495  2.0679  1.1061
 6920SOL    HW232223   0.324   0.239   9.327  0.2376 -0.8297 -0.2138
 6921SOL     OW32224   0.030   4.491   1.742 -0.3243  0.1636  0.1194
 6921SOL    HW132225   0.084   4.412   1.740 -0.9294 -0.3129  2.8948
 6921SOL    HW232226   4.669   4.448   1.766 -1.3806  1.5265 -1.0646
 6922SOL     OW32227   2.219   0.552   8.905  0.3061  0.1307  0.2799
 6922SOL    HW132228   2.241   0.592   8.989  1.8626 -0.7770  0.3071
 6922SOL    HW232229   2.271   0.472   8.907  2.2388  1.3320 -1.4254
 6923SOL     OW32230   2.296   3.578   0.406  0.4837  0.6188  0.4357
 6923SOL    HW132231   2.341   3.558   0.323  0.3178  0.3081  0.4197
 6923SOL    HW232232   2.213   3.607   0.369  0.4395  0.0255  0.0558
 6924SOL     OW32233   3.738   3.148   2.802 -0.8396  0.2392 -0.7583
 6924SOL    HW132234   3.814   3.147   2.860 -0.1378 -0.3694 -1.6689
 6924SOL    HW232235   3.782   3.128   2.719  0.6737  1.0469 -0.1493
 6925SOL     OW32236   4.574   0.637   8.905 -0.1545  0.2497  0.0928
 6925SOL    HW132237   4.501   0.682   8.862  2.1558  4.5119  0.6501
 6925SOL    HW232238   4.540   0.629   8.994 -1.8213 -0.3101 -0.5920
 6926SOL     OW32239   4.244   0.418   2.233 -0.0199  0.7420 -0.1072
 6926SOL    HW132240   4.247   0.323   2.245  2.4749  1.2620  3.3181
 6926SOL    HW232241   4.277   0.443   2.319 -0.8854  0.2674  0.3684
 6927SOL     OW32242   3.288   1.182   7.788  0.4385  0.1129 -0.7693
 6927SOL    HW132243   3.341   1.255   7.755 -0.1192  0.5854 -0.6215
 6927SOL    HW232244   3.300   1.179   7.883 -0.4310  1.7209 -0.6034
 6928SOL     OW32245   0.677   2.527   5.217 -0.0461 -0.3100 -0.0367
 6928SOL    HW132246   0.583   2.529   5.238 -0.2653  1.2584 -1.1470
 6928SOL    HW232247   0.711   2.497   5.302 -1.8938 -0.4478  0.6484
 6929SOL     OW32248   3.383   0.534   3.904 -0.0452  0.4255 -0.0919
 6929SOL    HW132249   3.457   0.485   3.868  0.0034  0.4686 -0.0514
 6929SOL    HW232250   3.362   0.477   3.977  1.5777 -0.9769 -0.7327
 6930SOL     OW32251   1.083   2.827  10.488 -0.0931  0.1642 -0.3260
 6930SOL    HW132252   1.095   2.748  10.435  0.0592 -0.5740  0.8291
 6930SOL    HW232253   1.002   2.807  10.535  0.1334  0.1521  0.0607
 6931SOL     OW32254   3.156   2.073  12.913  0.0307  0.3626  0.3722
 6931SOL    HW132255   3.131   2.031  12.830 -0.1649 -0.2414  0.7401
 6931SOL    HW232256   3.148   1.997  12.970  0.7507  0.1577  0.1983
 6932SOL     OW32257   3.187   1.537   6.724 -0.9491 -0.1214 -0.2840
 6932SOL    HW132258   3.119   1.513   6.661 -0.0817 -0.0096 -1.2532
 6932SOL    HW232259   3.242   1.597   6.674 -0.4257 -2.1956 -2.2205
 6933SOL     OW32260   0.337   4.697   5.542 -0.5128 -0.0536  0.3861
 6933SOL    HW132261   0.358   4.692   5.636  1.2948 -1.8645 -0.1279
 6933SOL    HW232262   0.391   4.626   5.509  2.2175  2.9369 -1.5766
 6934SOL     OW32263   0.180   0.696   4.665  0.1613 -0.2001  0.0244
 6934SOL    HW132264   0.260   0.741   4.693  1.5167 -1.1799 -2.3371
 6934SOL    HW232265   0.173   0.727   4.575 -2.6325 -1.1073 -0.0741
 6935SOL     OW32266   1.610   3.797   6.729  0.2418  0.2390 -0.0266
 6935SOL    HW132267   1.663   3.804   6.650 -0.8947 -2.0359 -0.9861
 6935SOL    HW232268   1.614   3.890   6.751  3.5818 -0.0774  0.6142
 6936SOL     OW32269   2.054   2.220   7.029 -0.3181 -0.0810 -0.4402
 6936SOL    HW132270   1.974   2.199   6.980  0.0860  1.4610 -1.7477
 6936SOL    HW232271   2.090   2.132   7.042 -1.1639 -0.4301 -0.4322
 6937SOL     OW32272   4.496   1.383  12.677  0.0990  0.1487  0.4392
 6937SOL    HW132273   4.583   1.381  12.637 -1.1586  2.6855 -2.3812
 6937SOL    HW232274   4.508   1.448  12.746  1.6728 -0.8207  1.0788
 6938SOL     OW32275   4.108   4.434   9.239  0.2664 -0.1617  0.4284
 6938SOL    HW132276   4.094   4.350   9.282  1.9736 -0.2832  0.7542
 6938SOL    HW232277   4.203   4.436   9.234  0.3572  0.1257  2.1198
 6939SOL     OW32278   1.616   2.913   5.677 -0.1376  0.2401  0.0502
 6939SOL    HW132279   1.617   3.007   5.697  0.9106  0.1002  0.6658
 6939SOL    HW232280   1.663   2.913   5.593  1.6103  0.9511  1.0272
 6940SOL     OW32281   3.172   3.429   7.186 -0.2803  0.4987 -0.1784
 6940SOL    HW132282   3.158   3.489   7.113  1.5798 -0.2085 -1.1044
 6940SOL    HW232283   3.109   3.466   7.247 -0.6883  1.3177 -1.1001
 6941SOL     OW32284   3.260   2.398  13.418 -0.1048 -0.1264  0.4710
 6941SOL    HW132285   3.231   2.470  13.474  1.3174  0.1331  0.8652
 6941SOL    HW232286   3.326   2.349  13.467  0.4321 -0.8065 -0.9352
 6942SOL     OW32287   2.655   3.121   9.740 -0.1138  0.0119 -0.4024
 6942SOL    HW132288   2.652   3.050   9.676  0.7649  0.1441 -0.5923
 6942SOL    HW232289   2.617   3.192   9.688  1.9757  1.7675  0.4733
 6943SOL     OW32290   0.557   2.301   6.540  0.3226 -0.2779 -0.5418
 6943SOL    HW132291   0.604   2.352   6.475 -2.2152  2.2427 -0.4276
 6943SOL    HW232292   0.620   2.305   6.612 -0.6065  1.2189  0.1934
 6944SOL     OW32293   4.554   4.578   8.032  0.0287  0.1519 -0.0199
 6944SOL    HW132294   4.483   4.631   7.995  0.4591 -0.3216 -1.5264
 6944SOL    HW232295   4.548   4.598   8.125  2.2601  0.7294 -0.0018
 6945SOL     OW32296   3.163   0.465   3.405 -0.3971  0.1381  0.5005
 6945SOL    HW132297   3.210   0.382   3.413  0.9716  0.8822  0.1770
 6945SOL    HW232298   3.114   0.461   3.487 -0.1415 -0.4484  0.6285
 6946SOL     OW32299   4.143   0.306   5.312 -0.4102  0.5231  0.1961
 6946SOL    HW132300   4.148   0.300   5.408  1.1173 -0.4188  0.0648
 6946SOL    HW232301   4.156   0.215   5.284 -1.6725 -0.3903  2.5407
 6947SOL     OW32302   2.428   3.084   6.392  0.1374  0.2587 -0.1326
 6947SOL    HW132303   2.399   3.137   6.318 -0.9836 -0.8499 -0.4836
 6947SOL    HW232304   2.412   3.148   6.461  1.7949 -1.7736  2.1550
 6948SOL     OW32305   2.611   3.430   4.389  0.4006 -0.1969  0.3689
 6948SOL    HW132306   2.630   3.395   4.476 -0.4617 -0.4592  0.4444
 6948SOL    HW232307   2.528   3.390   4.364  1.2013 -1.4563 -0.2916
 6949SOL     OW32308   3.912   4.196  10.502  0.3172 -0.3152  0.0350
 6949SOL    HW132309   3.895   4.123  10.561  0.9475 -1.3202 -1.0499
 6949SOL    HW232310   4.008   4.202  10.507  0.1936  1.9322 -0.1784
 6950SOL     OW32311   3.804   4.011   7.254 -1.0893 -0.3540 -0.6765
 6950SOL    HW132312   3.868   3.955   7.298  0.6177  1.3423 -0.9757
 6950SOL    HW232313   3.724   3.974   7.291 -2.9078  1.8384 -2.3755
 6951SOL     OW32314   2.558   2.369   9.432 -0.4111  0.4694 -0.1205
 6951SOL    HW132315   2.499   2.432   9.474 -0.1397  0.6485 -0.0056
 6951SOL    HW232316   2.502   2.304   9.390 -1.5638  0.0723  2.0199
 6952SOL     OW32317   0.015   1.538  10.287 -0.0254 -0.1472  0.0655
 6952SOL    HW132318   0.010   1.618  10.235 -2.0173 -0.3797 -0.1136
 6952SOL    HW232319   4.691   1.472  10.233 -2.0363  1.4341 -0.1739
 6953SOL     OW32320   2.354   3.485   8.030 -0.6615 -0.5825  0.1643
 6953SOL    HW132321   2.389   3.433   7.957  1.3917  0.6622  0.2526
 6953SOL    HW232322   2.267   3.512   8.000  0.1033 -0.7738 -2.2266
 6954SOL     OW32323   4.448   3.385   3.712  0.1641 -0.6410 -0.3387
 6954SOL    HW132324   4.355   3.407   3.709 -0.0001 -1.1610  0.7528
 6954SOL    HW232325   4.444   3.319   3.781 -1.1024  0.4773  0.6445
 6955SOL     OW32326   3.167   3.501   8.885  0.3678  0.1579  0.3253
 6955SOL    HW132327   3.115   3.540   8.815 -0.4846 -1.7662 -0.1238
 6955SOL    HW232328   3.240   3.563   8.889  0.0681  0.5430 -0.2303
 6956SOL     OW32329   0.706   0.840   8.421  0.5704  0.0971  0.1287
 6956SOL    HW132330   0.626   0.797   8.450  0.4548 -1.5205 -2.5864
 6956SOL    HW232331   0.744   0.851   8.508  1.9573 -4.1801  0.0471
 6957SOL     OW32332   2.969   4.190   4.331  0.8977 -0.5029  0.2920
 6957SOL    HW132333   2.958   4.100   4.299  0.0409 -0.6347  0.9753
 6957SOL    HW232334   2.936   4.239   4.256  1.1456  1.3553  1.4146
 6958SOL     OW32335   2.707   1.439   6.238 -0.0243  0.6729  0.1797
 6958SOL    HW132336   2.732   1.359   6.284  0.0588  0.1777 -0.7202
 6958SOL    HW232337   2.674   1.489   6.312 -0.6284 -0.3861  0.6212
 6959SOL     OW32338   1.119   1.657   0.229  0.7342 -0.4080 -0.1133
 6959SOL    HW132339   1.108   1.566   0.255  1.7076 -0.7241 -0.8233
 6959SOL    HW232340   1.120   1.651   0.134 -1.6078 -0.7309 -0.1291
 6960SOL     OW32341   1.932   1.149   6.359 -0.1004  0.1776 -0.1329
 6960SOL    HW132342   1.922   1.109   6.273  1.6945 -1.1469  0.2777
 6960SOL    HW232343   1.849   1.196   6.364  0.5249  1.2715 -0.0708
 6961SOL     OW32344   0.566   2.319   7.523 -0.1495 -0.2624  0.1328
 6961SOL    HW132345   0.478   2.296   7.551 -0.0847 -0.0538  0.5000
 6961SOL    HW232346   0.544   2.403   7.484 -2.6439 -1.1520 -0.3696
 6962SOL     OW32347   4.119   3.074   5.933  0.4738 -0.2243 -0.2703
 6962SOL    HW132348   4.066   3.080   6.012  0.4673  1.4242 -0.3873
 6962SOL    HW232349   4.169   3.156   5.937  0.2121 -0.2632  3.4818
 6963SOL     OW32350   2.679   1.307  15.074  0.2583  0.3600  0.2769
 6963SOL    HW132351   2.592   1.344  15.089 -0.3286 -1.7570  2.0589
 6963SOL    HW232352   2.710   1.360  15.001  0.3124 -1.1024 -0.7699
 6964SOL     OW32353   3.397   3.670   9.193 -0.2980 -0.3432 -0.5435
 6964SOL    HW132354   3.405   3.673   9.288 -0.1911 -2.2360 -0.4907
 6964SOL    HW232355   3.469   3.612   9.168  0.6224  1.3453 -1.8647
 6965SOL     OW32356   2.989   1.817  13.679 -0.2982  0.1789  0.1833
 6965SOL    HW132357   2.916   1.756  13.670  0.7961 -1.1161  0.0478
 6965SOL    HW232358   3.053   1.760  13.637 -1.1480 -0.0818 -0.7374
 6966SOL     OW32359   1.289   2.005   2.419  0.3116 -0.2606 -0.3837
 6966SOL    HW132360   1.304   2.098   2.433  2.4079 -0.6023 -0.3733
 6966SOL    HW232361   1.336   1.965   2.493  1.4041  1.8781  0.0625
 6967SOL     OW32362   0.524   2.491   0.923  0.6479  0.2202  0.4198
 6967SOL    HW132363   0.561   2.538   0.848 -0.1988  0.2414  0.0148
 6967SOL    HW232364   0.493   2.414   0.877  1.0599  0.6500 -0.5701
 6968SOL     OW32365   0.656   2.300   3.832 -0.3071 -0.7280  0.0833
 6968SOL    HW132366   0.594   2.318   3.903 -1.2150  0.5978 -1.0635
 6968SOL    HW232367   0.662   2.204   3.835  2.8684 -0.5609 -0.8013
 6969SOL     OW32368   1.627   0.878   2.751 -0.3627 -0.4406  0.1700
 6969SOL    HW132369   1.676   0.960   2.747 -0.9135 -0.1614 -0.9464
 6969SOL    HW232370   1.568   0.877   2.675  0.6933  0.9104 -0.6779
 6970SOL     OW32371   4.056   0.289  12.412  0.1567  0.2971 -0.5771
 6970SOL    HW132372   4.128   0.311  12.470  1.0772 -1.0522 -1.1924
 6970SOL    HW232373   4.098   0.291  12.326  0.6952  1.0416 -0.2903
 6971SOL     OW32374   1.429   2.656   5.697  0.2812 -0.4574 -0.4576
 6971SOL    HW132375   1.381   2.701   5.767 -1.5103 -2.4797 -0.3806
 6971SOL    HW232376   1.489   2.728   5.677  0.3378 -0.0675  1.0888
 6972SOL     OW32377   2.594   2.165   0.861  0.5244  0.0075 -0.0788
 6972SOL    HW132378   2.673   2.212   0.834  0.3358  1.1297  1.2898
 6972SOL    HW232379   2.527   2.227   0.836 -0.1929 -1.2581 -1.2477
 6973SOL     OW32380   2.136   3.848   3.559 -0.1008  0.0796  0.5989
 6973SOL    HW132381   2.153   3.755   3.576 -0.7325 -0.1700 -0.1496
 6973SOL    HW232382   2.212   3.884   3.605 -0.6991  0.6003  1.1634
 6974SOL     OW32383   0.082   1.443  11.558 -0.3600  0.1257 -0.0961
 6974SOL    HW132384   0.140   1.453  11.482  1.1726  1.3190  1.2239
 6974SOL    HW232385   0.138   1.452  11.635 -0.6185 -1.1145  0.2362
 6975SOL     OW32386   4.187   3.940   9.734  0.4574  0.0911  0.2208
 6975SOL    HW132387   4.139   3.857   9.726 -0.4678  0.9241 -2.6769
 6975SOL    HW232388   4.228   3.927   9.649 -0.7604  1.8880 -0.6583
 6976SOL     OW32389   3.256   3.954   5.775 -0.4164 -0.5683 -0.4554
 6976SOL    HW132390   3.168   3.979   5.803 -0.7229 -1.1803 -0.8866
 6976SOL    HW232391   3.251   4.006   5.695  0.4610  1.2749  0.6680
 6977SOL     OW32392   1.194   0.229  15.345  0.3074  0.2429  0.6387
 6977SOL    HW132393   1.253   0.190  15.409  0.4188  0.6022  0.7561
 6977SOL    HW232394   1.247   0.223  15.265  0.5787  2.6746  0.6427
 6978SOL     OW32395   2.481   2.921   8.292 -0.3786 -0.7416  0.2814
 6978SOL    HW132396   2.431   2.841   8.275 -1.2230 -0.3726  1.0344
 6978SOL    HW232397   2.571   2.888   8.292  0.1598  0.7409  0.4227
 6979SOL     OW32398   3.884   2.393   8.220 -0.2762 -0.1031  0.1087
 6979SOL    HW132399   3.903   2.310   8.263  0.5982 -0.6364 -1.3073
 6979SOL    HW232400   3.962   2.441   8.248 -0.5948 -0.0161  0.8542
 6980SOL     OW32401   3.531   1.919   0.142  0.0756 -0.0615  0.3688
 6980SOL    HW132402   3.476   1.966   0.079  0.9638  0.4190 -0.0517
 6980SOL    HW232403   3.526   1.982   0.214  2.3640 -1.6882  1.9293
 6981SOL     OW32404   1.018   3.939   8.437  0.0491  0.4084 -0.1501
 6981SOL    HW132405   1.053   3.912   8.521  1.5987  1.4862 -0.4482
 6981SOL    HW232406   1.078   3.894   8.377 -1.2711 -2.7086  0.8641
 6982SOL     OW32407   4.036   1.637   1.664 -0.1884 -0.0287 -0.2472
 6982SOL    HW132408   4.126   1.627   1.694 -0.8203 -0.3478  1.5442
 6982SOL    HW232409   4.010   1.545   1.674 -0.4337 -0.2209 -2.5811
 6983SOL     OW32410   3.907   2.150   6.961 -0.6104 -0.2853 -0.2616
 6983SOL    HW132411   3.891   2.211   7.032  1.8635 -1.1814  1.0679
 6983SOL    HW232412   3.920   2.068   7.008  0.9722 -1.7247 -3.1692
 6984SOL     OW32413   1.327   3.512   4.428 -0.8313 -0.0514  0.1087
 6984SOL    HW132414   1.253   3.548   4.476 -1.0129  1.2097 -1.1178
 6984SOL    HW232415   1.332   3.429   4.476 -2.2849 -0.8859 -1.1358
 6985SOL     OW32416   0.366   0.883   1.471  0.2130  0.8838  0.7410
 6985SOL    HW132417   0.445   0.884   1.526  1.2528  1.7486 -0.7742
 6985SOL    HW232418   0.354   0.975   1.450  1.1153  0.9149  0.3271
 6986SOL     OW32419   3.881   1.282  13.177  0.2470 -0.4465  0.2532
 6986SOL    HW132420   3.949   1.237  13.228 -0.0781 -0.6905  0.4765
 6986SOL    HW232421   3.928   1.277  13.094 -0.2131  2.3811 -0.1747
 6987SOL     OW32422   4.032   3.287   7.895 -0.2082  0.1305  0.7747
 6987SOL    HW132423   4.117   3.262   7.858 -0.1079 -0.8145  1.6661
 6987SOL    HW232424   4.047   3.287   7.989  0.2996 -0.4185  0.6961
 6988SOL     OW32425   3.695   1.807   6.972 -0.0900  0.1056 -0.1969
 6988SOL    HW132426   3.699   1.811   7.068  0.7244  1.0176 -0.2734
 6988SOL    HW232427   3.625   1.872   6.963 -0.1659  0.1154  0.4622
 6989SOL     OW32428   3.988   2.409   1.618  0.3333 -0.1032 -0.2617
 6989SOL    HW132429   4.036   2.334   1.652 -0.3805 -0.9285 -1.0679
 6989SOL    HW232430   3.919   2.360   1.573 -1.7034  1.2787  1.3423
 6990SOL     OW32431   3.277   0.148   7.154  0.6572 -0.0676 -0.1144
 6990SOL    HW132432   3.243   0.141   7.244  1.4452 -2.6622  0.0018
 6990SOL    HW232433   3.199   0.170   7.104  0.5930  0.2688  0.1325
 6991SOL     OW32434   2.301   1.780   3.417 -0.2847 -0.3253 -0.1461
 6991SOL    HW132435   2.300   1.760   3.511 -2.5027  0.2045 -0.0638
 6991SOL    HW232436   2.243   1.856   3.413 -1.2632 -1.1052 -0.9444
 6992SOL     OW32437   0.031   3.082   5.940 -0.4719  0.1449  0.6927
 6992SOL    HW132438   0.082   3.163   5.939  1.4503 -1.0778 -0.8825
 6992SOL    HW232439   0.051   3.040   6.024 -0.0778 -2.5312 -0.7091
 6993SOL     OW32440   3.767   0.422   2.257  0.1852 -0.3224  0.2232
 6993SOL    HW132441   3.828   0.482   2.215  3.4170 -2.3205  2.0941
 6993SOL    HW232442   3.836   0.373   2.300 -1.1535 -1.8981  0.5693
 6994SOL     OW32443   3.883   4.684   1.166 -0.5489  0.1634 -0.2443
 6994SOL    HW132444   3.894   4.609   1.107 -0.7735 -0.0599 -0.0027
 6994SOL    HW232445   3.870   4.640   1.250 -1.0198  0.9810  0.1076
 6995SOL     OW32446   4.695   3.441   7.068  0.0483  0.3471 -0.5590
 6995SOL    HW132447   4.613   3.391   7.063  0.7036 -0.6092 -1.5932
 6995SOL    HW232448   4.664   3.519   7.114  0.8876  1.0493 -1.2069
 6996SOL     OW32449   1.657   1.411  15.366 -0.4445  0.6995  0.2702
 6996SOL    HW132450   1.572   1.407  15.411 -1.1150 -0.4316 -1.1191
 6996SOL    HW232451   1.687   1.492  15.409  0.4604  0.0030  0.9476
 6997SOL     OW32452   1.707   3.207   8.356 -0.8369 -0.6508  0.6066
 6997SOL    HW132453   1.785   3.256   8.381 -0.7774  0.3688 -1.5980
 6997SOL    HW232454   1.714   3.131   8.414  0.4693 -2.1218 -1.4721
 6998SOL     OW32455   4.145   2.733  16.064 -0.1627 -0.2756  0.5161
 6998SOL    HW132456   4.219   2.673  16.075 -1.9248 -2.4438  0.6562
 6998SOL    HW232457   4.105   2.681  15.994  1.0371  1.0679 -1.1642
 6999SOL     OW32458   2.073   3.567   5.909  0.2548  0.1882 -0.0184
 6999SOL    HW132459   2.126   3.641   5.879 -1.0011  1.0783 -0.0235
 6999SOL    HW232460   2.026   3.540   5.830  1.0681  1.4695 -0.9451
 7000SOL     OW32461   2.911   2.493  16.239 -0.2363  1.4132 -0.5781
 7000SOL    HW132462   2.865   2.545  16.174 -0.1764 -0.6584 -2.2991
 7000SOL    HW232463   2.902   2.530  16.327  2.5541 -0.4406  0.5319
 7001SOL     OW32464   1.372   4.035   9.646 -0.5084  0.0539 -0.1194
 7001SOL    HW132465   1.429   3.958   9.649 -3.5952 -2.2007  0.2687
 7001SOL    HW232466   1.287   3.990   9.645  0.1385 -1.1231 -1.8420
 7002SOL     OW32467   0.380   0.408   1.299 -0.4134 -0.1875  0.3852
 7002SOL    HW132468   0.379   0.326   1.251 -1.7825 -0.5796  1.0939
 7002SOL    HW232469   0.470   0.431   1.275 -0.3229  0.4785  1.3349
 7003SOL     OW32470   0.086   2.751   3.672  0.1057 -0.0335  0.8095
 7003SOL    HW132471   0.178   2.746   3.698  0.1256  0.3286  0.8090
 7003SOL    HW232472   0.084   2.690   3.598  0.7037  1.2728 -0.2912
 7004SOL     OW32473   3.707   1.348   4.742  0.0632 -0.3468 -0.4513
 7004SOL    HW132474   3.735   1.373   4.654 -0.7867  0.0194 -0.6198
 7004SOL    HW232475   3.653   1.424   4.767  0.5977 -0.8603  2.2619
 7005SOL     OW32476   4.357   3.299  11.478  0.3636  0.2765  0.6067
 7005SOL    HW132477   4.383   3.345  11.558  2.6000 -2.4244  1.4223
 7005SOL    HW232478   4.271   3.341  11.470  1.0135  1.7063  1.1153
 7006SOL     OW32479   2.757   0.492   2.131  0.0097  0.5610 -0.4228
 7006SOL    HW132480   2.694   0.533   2.190  0.5409 -1.6361  1.6758
 7006SOL    HW232481   2.839   0.507   2.178 -0.3704  0.9834  0.0915
 7007SOL     OW32482   1.087   2.650   7.914  0.5758  0.3074 -0.0175
 7007SOL    HW132483   0.996   2.628   7.890  0.4438  0.4225  0.3777
 7007SOL    HW232484   1.109   2.576   7.971 -0.2060 -0.0539 -0.1863
 7008SOL     OW32485   1.767   2.498   7.213 -0.4172  0.0527 -0.1468
 7008SOL    HW132486   1.725   2.478   7.296 -1.5422 -1.4746 -1.0861
 7008SOL    HW232487   1.755   2.413   7.170  1.0515 -0.1631 -0.1489
 7009SOL     OW32488   2.067   1.257  15.891 -0.7847 -0.2270 -0.1758
 7009SOL    HW132489   2.004   1.195  15.854 -0.9022  0.3282 -0.9086
 7009SOL    HW232490   2.151   1.233  15.852  0.6309  1.0505  2.1441
 7010SOL     OW32491   3.673   1.269   3.435  0.1849 -0.3389 -0.1794
 7010SOL    HW132492   3.589   1.313   3.423  0.6150  0.1191 -1.5497
 7010SOL    HW232493   3.731   1.334   3.397  1.9097 -1.5334  0.4243
 7011SOL     OW32494   1.401   4.359   8.436  1.0629  0.5703  0.1377
 7011SOL    HW132495   1.404   4.431   8.500  0.1860  1.9153 -1.3254
 7011SOL    HW232496   1.322   4.316   8.470  0.3957  0.7090 -1.2150
 7012SOL     OW32497   1.908   2.937   6.434 -0.2048  0.4297 -0.2178
 7012SOL    HW132498   1.996   2.968   6.415  0.0464 -0.2566 -0.1399
 7012SOL    HW232499   1.873   2.999   6.499  0.7826  1.4142 -0.6337
 7013SOL     OW32500   2.384   2.565   3.746 -0.2518 -0.0757 -0.5541
 7013SOL    HW132501   2.445   2.549   3.674  0.1166  1.6461 -0.6070
 7013SOL    HW232502   2.328   2.494   3.713 -0.0393 -0.0659 -0.9322
 7014SOL     OW32503   3.204   3.613  10.229 -0.2653  0.3034  0.4337
 7014SOL    HW132504   3.138   3.546  10.215  1.0542 -0.4196 -2.2987
 7014SOL    HW232505   3.282   3.561  10.248 -1.4940 -0.7429  2.5806
 7015SOL     OW32506   4.717   1.954   6.815 -0.4018  0.9431  0.2368
 7015SOL    HW132507   4.717   1.936   6.721 -2.4833  2.5230 -0.0690
 7015SOL    HW232508   0.088   1.980   6.816 -0.2820  0.5663 -0.7069
 7016SOL     OW32509   4.485   2.543   3.781  0.8946  0.2217 -0.0325
 7016SOL    HW132510   4.409   2.602   3.774  1.2565  0.6397 -0.5373
 7016SOL    HW232511   4.529   2.591   3.851  0.6716  0.4392 -0.0394
 7017SOL     OW32512   1.443   0.466   9.181 -0.0485 -0.4444  0.0616
 7017SOL    HW132513   1.468   0.376   9.158  0.1791 -0.7050  1.2880
 7017SOL    HW232514   1.348   0.459   9.168 -0.6614  0.1868  4.1473
 7018SOL     OW32515   1.333   0.334  13.108 -0.1880 -0.5538  0.5505
 7018SOL    HW132516   1.311   0.375  13.024  0.0018  0.8204  1.1700
 7018SOL    HW232517   1.359   0.404  13.167  0.6788 -1.5211  1.3065
 7019SOL     OW32518   0.284   4.105   1.689 -1.0062 -0.3489 -0.5696
 7019SOL    HW132519   0.221   4.102   1.618 -1.5068 -0.8247 -0.1032
 7019SOL    HW232520   0.319   4.016   1.685 -1.7133 -0.5337 -2.2454
 7020SOL     OW32521   4.532   2.481  14.535 -0.8345 -0.0891  0.0694
 7020SOL    HW132522   4.572   2.399  14.563 -0.8742  0.0031  0.4069
 7020SOL    HW232523   4.568   2.536  14.605  0.6079 -0.3475 -0.4712
 7021SOL     OW32524   2.708   1.546   5.568 -0.5356 -0.2919  0.1579
 7021SOL    HW132525   2.703   1.517   5.659 -0.7619  0.9354  0.5403
 7021SOL    HW232526   2.698   1.465   5.519 -2.0458 -0.1801  0.2646
 7022SOL     OW32527   1.325   4.574   0.163 -0.5301 -0.8932  0.2256
 7022SOL    HW132528   1.405   4.529   0.191  0.7135  0.4060 -1.2571
 7022SOL    HW232529   1.368   4.650   0.124  1.1801  0.0686  3.9577
 7023SOL     OW32530   0.016   0.210   9.784 -0.1636  0.1573 -0.8034
 7023SOL    HW132531   4.707   0.279   9.725 -3.9119 -0.8202 -0.0619
 7023SOL    HW232532   0.110   0.207   9.768  0.0356 -0.6904  0.5454
 7024SOL     OW32533   2.461   0.764   4.281  0.1362 -0.2356  0.3215
 7024SOL    HW132534   2.484   0.681   4.323  2.2243 -0.9127 -2.1303
 7024SOL    HW232535   2.442   0.816   4.359  1.8590  1.7583 -0.5916
 7025SOL     OW32536   1.044   4.560   4.582  0.0041 -0.0515 -0.2510
 7025SOL    HW132537   1.113   4.505   4.545  0.9028  2.8657 -2.8549
 7025SOL    HW232538   1.075   4.572   4.672 -1.0658 -1.3171  0.2920
 7026SOL     OW32539   0.717   3.843  13.408 -0.2943 -0.5095 -0.4165
 7026SOL    HW132540   0.733   3.825  13.501 -0.2589  1.1401 -0.1190
 7026SOL    HW232541   0.799   3.827  13.362 -0.9526 -2.5631 -0.8650
 7027SOL     OW32542   0.347   2.621   7.510  0.3685 -0.2187 -0.0359
 7027SOL    HW132543   0.312   2.581   7.431 -0.2825 -0.9382  0.6169
 7027SOL    HW232544   0.441   2.629   7.500  0.6600  0.4324  3.0667
 7028SOL     OW32545   1.383   3.385  15.980  0.0119  0.3042 -0.3214
 7028SOL    HW132546   1.463   3.353  15.939  0.0961 -1.2398  1.0520
 7028SOL    HW232547   1.313   3.350  15.924 -2.2869  0.1028  2.7020
 7029SOL     OW32548   4.170   2.406  12.447 -0.4535 -0.4899  0.3419
 7029SOL    HW132549   4.121   2.458  12.511 -0.7723 -0.2626 -0.0849
 7029SOL    HW232550   4.250   2.458  12.437  1.0172 -3.1808 -1.7690
 7030SOL     OW32551   4.446   1.695   1.326  0.1004  0.0463 -0.0762
 7030SOL    HW132552   4.374   1.634   1.342 -0.1014  0.5631  1.0022
 7030SOL    HW232553   4.432   1.761   1.394  1.5331  2.1148 -1.8037
 7031SOL     OW32554   1.041   1.779   3.902  0.0786 -0.1510 -0.0427
 7031SOL    HW132555   1.063   1.859   3.854  0.6840 -0.2270  0.1086
 7031SOL    HW232556   1.034   1.711   3.835 -2.9305  2.2127 -2.0955
 7032SOL     OW32557   1.053   1.532   3.742  0.0297 -0.5203  0.0898
 7032SOL    HW132558   0.961   1.520   3.715  0.4995 -2.3410 -0.7023
 7032SOL    HW232559   1.045   1.503   3.833 -0.3064 -4.7835 -1.2753
 7033SOL     OW32560   1.822   0.824   0.755 -0.2990  0.4663  0.2300
 7033SOL    HW132561   1.844   0.817   0.848  0.3967  0.5686  0.0712
 7033SOL    HW232562   1.907   0.811   0.713 -0.3993 -0.3844  0.2987
 7034SOL     OW32563   0.314   4.316   2.403  0.0483 -0.1352  0.8017
 7034SOL    HW132564   0.319   4.251   2.334  1.5237 -0.2554  1.0133
 7034SOL    HW232565   0.400   4.305   2.445  0.4187 -0.4880 -0.0588
 7035SOL     OW32566   3.528   2.688   4.516 -0.6001  0.3117  0.2031
 7035SOL    HW132567   3.440   2.707   4.484  0.2866  0.7768 -1.9205
 7035SOL    HW232568   3.505   2.628   4.588  1.3003 -0.6014  0.0606
 7036SOL     OW32569   3.580   3.472  10.045 -0.0176 -0.4202  0.1932
 7036SOL    HW132570   3.615   3.432   9.966 -0.6981 -0.0073 -0.3116
 7036SOL    HW232571   3.651   3.535  10.058 -0.0824 -0.2870 -0.1021
 7037SOL     OW32572   3.807   3.644   7.841  0.2990  0.0703  0.3082
 7037SOL    HW132573   3.815   3.739   7.831 -1.4664  0.5232  2.9418
 7037SOL    HW232574   3.756   3.621   7.764 -0.8564 -0.0125  1.0878
 7038SOL     OW32575   1.602   2.518   3.800 -0.6468  0.3289  0.0836
 7038SOL    HW132576   1.592   2.461   3.724  0.6140  0.3381 -0.0882
 7038SOL    HW232577   1.693   2.498   3.822 -1.2757 -0.9019  1.5735
 7039SOL     OW32578   2.244   2.814   4.219 -0.5949  0.7302  0.6273
 7039SOL    HW132579   2.312   2.874   4.189  0.3330  0.3900  2.0474
 7039SOL    HW232580   2.221   2.772   4.136  1.6819 -0.7455  0.7298
 7040SOL     OW32581   3.536   4.691   6.434  0.9423 -0.6430  0.5401
 7040SOL    HW132582   3.490   4.623   6.483  1.4254 -2.3528 -1.3635
 7040SOL    HW232583   3.478   0.043   6.457  0.4491 -0.8366 -0.0868
 7041SOL     OW32584   4.397   1.227   7.223 -0.2402  0.3529  0.4330
 7041SOL    HW132585   4.386   1.132   7.218 -0.7799  0.4526 -0.3414
 7041SOL    HW232586   4.459   1.237   7.150 -1.6173 -1.8165 -1.0300
 7042SOL     OW32587   0.258   1.683  10.857 -0.0387  0.4347 -0.1066
 7042SOL    HW132588   0.341   1.636  10.847 -1.7020 -2.0158 -2.2254
 7042SOL    HW232589   0.204   1.649  10.786  0.2523  0.1577 -0.1958
 7043SOL     OW32590   4.403   3.189   3.105 -0.1061  0.4954 -0.7442
 7043SOL    HW132591   4.367   3.144   3.182 -1.3624  1.1201 -0.9607
 7043SOL    HW232592   4.455   3.261   3.141  0.3977  0.8599 -2.2397
 7044SOL     OW32593   4.369   0.695  10.042  0.0141  0.1624 -0.6918
 7044SOL    HW132594   4.290   0.746  10.061 -0.1651 -0.8052  1.1197
 7044SOL    HW232595   4.420   0.677  10.121 -0.1011 -0.3174 -0.7263
 7045SOL     OW32596   4.564   1.171  10.824  0.4570  0.0163  0.0263
 7045SOL    HW132597   4.585   1.221  10.746 -0.7239 -0.2615 -0.4729
 7045SOL    HW232598   4.565   1.082  10.789 -1.1527  0.4178 -1.0352
 7046SOL     OW32599   2.280   3.850  12.888 -0.0797 -0.3912 -0.0408
 7046SOL    HW132600   2.277   3.923  12.950  3.3653  2.1233 -2.8007
 7046SOL    HW232601   2.375   3.838  12.896 -0.2194 -0.6033  1.1724
 7047SOL     OW32602   3.648   1.571   2.390 -0.0692 -0.5318 -0.0244
 7047SOL    HW132603   3.733   1.594   2.427  0.0837  1.3155 -1.5258
 7047SOL    HW232604   3.593   1.643   2.420  0.8209  1.1815 -2.4496
 7048SOL     OW32605   0.850   3.023   1.178  0.4275  0.1103 -0.7897
 7048SOL    HW132606   0.904   2.955   1.219 -1.1390 -0.0325  1.0426
 7048SOL    HW232607   0.910   3.097   1.182  0.6720 -0.1649  0.5965
 7049SOL     OW32608   4.700   0.821  17.502  0.0581 -0.3045 -0.1433
 7049SOL    HW132609   0.060   0.861  17.532 -0.0933  0.1989 -0.4149
 7049SOL    HW232610   4.655   0.901  17.477 -0.6949  0.2078  2.9175
 7050SOL     OW32611   2.803   0.533   0.528  0.0533  0.3934 -0.7258
 7050SOL    HW132612   2.714   0.567   0.524  0.1711  0.6734 -0.9833
 7050SOL    HW232613   2.854   0.602   0.572 -2.1194  0.1746  2.1329
 7051SOL     OW32614   2.617   1.232   4.775  0.6970 -0.1563  0.1096
 7051SOL    HW132615   2.683   1.240   4.844  0.7050  1.5242 -0.0992
 7051SOL    HW232616   2.540   1.215   4.829  0.7825 -2.0651 -0.3617
 7052SOL     OW32617   2.815   0.725   6.506  0.7973 -0.2683  0.4378
 7052SOL    HW132618   2.780   0.639   6.482  1.4939 -0.6097  0.6729
 7052SOL    HW232619   2.867   0.739   6.427 -2.1712  2.5502 -1.0580
 7053SOL     OW32620   0.665   2.110  10.711  0.5743 -0.0686  0.9613
 7053SOL    HW132621   0.632   2.155  10.789 -0.9278  1.6902 -0.6795
 7053SOL    HW232622   0.697   2.179  10.653 -0.2986  0.1573  0.7468
 7054SOL     OW32623   2.703   3.087   3.766  0.1272  0.0238  0.0832
 7054SOL    HW132624   2.750   3.086   3.683  0.2551 -1.2024  0.1698
 7054SOL    HW232625   2.692   3.180   3.789  0.4083 -0.1847  1.0579
 7055SOL     OW32626   2.225   4.084   3.893  0.1614 -0.3893  0.4600
 7055SOL    HW132627   2.177   4.003   3.907 -1.9436  1.0151  1.3302
 7055SOL    HW232628   2.154   4.138   3.859  2.0683  0.5204 -2.0766
 7056SOL     OW32629   1.891   1.278   5.504 -0.8278 -0.3853  0.3738
 7056SOL    HW132630   1.801   1.304   5.524 -0.2529  2.0991 -0.2861
 7056SOL    HW232631   1.927   1.366   5.492 -0.9342 -0.2371  1.1636
 7057SOL     OW32632   1.155   1.764   9.015 -0.1138 -0.0066  0.0804
 7057SOL    HW132633   1.201   1.685   9.044 -1.1311 -0.3524  0.7411
 7057SOL    HW232634   1.099   1.793   9.087 -2.8338 -1.4000 -1.4815
 7058SOL     OW32635   0.850   3.569  12.191 -0.3458 -0.0675 -0.7236
 7058SOL    HW132636   0.755   3.576  12.189 -0.2209  1.9834  0.7193
 7058SOL    HW232637   0.868   3.651  12.145 -0.4947 -0.5582 -1.6564
 7059SOL     OW32638   0.454   0.947  12.574 -0.0267  0.1757  0.2244
 7059SOL    HW132639   0.465   0.854  12.594  0.7894 -0.3694 -2.7051
 7059SOL    HW232640   0.441   0.936  12.480  0.1678 -0.5210  0.2763
 7060SOL     OW32641   2.373   0.381  15.221 -0.2665 -0.4967 -0.0730
 7060SOL    HW132642   2.417   0.466  15.227 -0.0284 -0.7638  2.0149
 7060SOL    HW232643   2.288   0.410  15.254  0.3705  0.3788  0.8011
 7061SOL     OW32644   1.314   1.124   0.629 -0.3336  0.7000  0.0819
 7061SOL    HW132645   1.254   1.061   0.590  0.0053  1.2499 -1.3343
 7061SOL    HW232646   1.395   1.088   0.593 -0.7938 -0.9121  0.6496
 7062SOL     OW32647   2.161   3.772   5.679 -0.0589 -0.2679  0.1548
 7062SOL    HW132648   2.110   3.727   5.611 -0.7675  0.3721  0.2593
 7062SOL    HW232649   2.091   3.825   5.718 -0.4458  0.1010 -1.0289
 7063SOL     OW32650   0.994   2.315   5.849  0.0099  0.7172  0.3946
 7063SOL    HW132651   1.035   2.273   5.774  1.2596  0.6531  1.1258
 7063SOL    HW232652   0.979   2.407   5.827 -0.5316  0.9235  1.5907
 7064SOL     OW32653   1.278   4.515   2.315  0.0954 -0.0435 -0.4791
 7064SOL    HW132654   1.249   4.607   2.312  1.8212  0.4954 -0.6971
 7064SOL    HW232655   1.273   4.502   2.409 -1.3700  0.5201 -0.4663
 7065SOL     OW32656   2.942   4.293  14.315  0.0131  0.2759  0.5797
 7065SOL    HW132657   2.991   4.351  14.257 -1.4181  0.7281 -0.1545
 7065SOL    HW232658   2.878   4.351  14.356 -0.5655 -1.5555  2.2798
 7066SOL     OW32659   2.285   2.815   3.765 -0.6696 -0.4272  0.0854
 7066SOL    HW132660   2.238   2.794   3.846 -0.1413  0.8996  0.7219
 7066SOL    HW232661   2.323   2.728   3.751  1.5300  0.7152 -1.0699
 7067SOL     OW32662   0.741   2.193   2.504 -0.4221 -0.4930  0.3791
 7067SOL    HW132663   0.740   2.185   2.599 -2.5654 -1.4763  0.2725
 7067SOL    HW232664   0.672   2.260   2.499  0.4287  0.6006  3.2612
 7068SOL     OW32665   1.686   0.846  13.741  0.1346 -0.7757 -0.2720
 7068SOL    HW132666   1.758   0.840  13.678  0.5348  3.6143 -0.2071
 7068SOL    HW232667   1.611   0.872  13.687  0.7824 -0.4314 -0.9968
 7069SOL     OW32668   0.171   0.734  17.328 -0.1108  0.1022  0.0054
 7069SOL    HW132669   0.103   0.713  17.265  1.7944  0.0839 -2.0482
 7069SOL    HW232670   0.112   0.746  17.403  1.0921 -2.6839  1.4095
 7070SOL     OW32671   0.987   1.711   5.534  0.0789  0.0476 -0.1568
 7070SOL    HW132672   0.954   1.719   5.624 -0.2162 -0.5093 -0.2160
 7070SOL    HW232673   1.061   1.772   5.529  1.8470 -2.0206  0.5767
 7071SOL     OW32674   1.327   1.978  11.611  0.1055 -0.5252 -0.3345
 7071SOL    HW132675   1.249   2.031  11.625  3.1281  3.5952  0.9888
 7071SOL    HW232676   1.356   2.017  11.529  0.6839 -1.4129 -0.5475
 7072SOL     OW32677   3.829   1.238   4.176  0.7976  0.2580  0.0399
 7072SOL    HW132678   3.910   1.189   4.161  1.2108  0.5795  1.2646
 7072SOL    HW232679   3.760   1.172   4.183  1.1898 -0.2282 -0.6500
 7073SOL     OW32680   0.657   2.573   9.043 -0.0784  0.0708 -0.4615
 7073SOL    HW132681   0.606   2.652   9.054 -1.1207 -0.3122 -2.4087
 7073SOL    HW232682   0.602   2.528   8.978  1.6883  2.1040 -3.3742
 7074SOL     OW32683   0.116   2.848   6.411 -0.2062  0.2393  0.3350
 7074SOL    HW132684   0.042   2.788   6.415 -1.0311  1.4105  2.4559
 7074SOL    HW232685   0.163   2.828   6.492  0.9677  0.2020 -0.3406
 7075SOL     OW32686   3.813   4.388   9.171 -0.0898  0.1959  0.5155
 7075SOL    HW132687   3.805   4.308   9.118  2.0106  0.5223 -0.2871
 7075SOL    HW232688   3.907   4.380   9.186 -0.0022  1.6550  0.6907
 7076SOL     OW32689   1.627   2.370   2.269  0.5573 -0.1588  0.0259
 7076SOL    HW132690   1.664   2.282   2.272 -0.3943 -0.5486  0.2863
 7076SOL    HW232691   1.621   2.389   2.175  1.0607  0.5143  0.1290
 7077SOL     OW32692   0.907   0.064   7.922  0.1824 -0.1000 -0.0462
 7077SOL    HW132693   0.881   0.131   7.985  2.9169 -0.1771  1.1288
 7077SOL    HW232694   0.999   0.052   7.945  0.0537 -0.9756  0.0061
 7078SOL     OW32695   4.288   1.970   2.336  0.7011 -0.2761  0.0112
 7078SOL    HW132696   4.316   2.003   2.251 -0.0671  1.6127  0.5064
 7078SOL    HW232697   4.281   2.054   2.380 -3.1186 -1.1823  1.1303
 7079SOL     OW32698   2.987   2.820   1.991 -0.7276  0.2092 -0.5441
 7079SOL    HW132699   3.068   2.823   1.941 -1.4265  2.0722 -1.5572
 7079SOL    HW232700   3.026   2.781   2.069  2.6805  1.8038 -1.4760
 7080SOL     OW32701   0.060   3.076  15.721 -0.4322 -1.0004 -0.3626
 7080SOL    HW132702   0.147   3.052  15.689 -1.3098 -1.3012 -2.5225
 7080SOL    HW232703   0.025   3.128  15.648  0.6301  0.9031  0.4979
 7081SOL     OW32704   3.836   3.919  14.537 -0.7592  0.3448  0.1614
 7081SOL    HW132705   3.843   4.005  14.578 -1.4904 -0.3552  1.7534
 7081SOL    HW232706   3.767   3.874  14.586  0.0923  1.7739  2.6922
 7082SOL     OW32707   0.164   3.785   2.734 -0.4632  0.1735  0.1476
 7082SOL    HW132708   0.246   3.756   2.693  0.4811  2.9689 -0.0023
 7082SOL    HW232709   0.154   3.874   2.699 -1.6277 -0.4691 -1.1373
 7083SOL     OW32710   2.002   0.904  12.976 -0.0462  0.1715  0.0414
 7083SOL    HW132711   2.032   0.860  13.056  1.0336  0.8157 -0.0012
 7083SOL    HW232712   1.923   0.949  13.005  1.4795  0.6630  3.4968
 7084SOL     OW32713   0.816   4.039   7.110  0.0984  0.0692  0.1658
 7084SOL    HW132714   0.836   4.034   7.204 -0.3556 -3.8719  0.0319
 7084SOL    HW232715   0.722   4.022   7.106  0.0824  0.5558 -1.5016
 7085SOL     OW32716   1.224   3.000   8.918  0.7288 -0.2310  0.1199
 7085SOL    HW132717   1.302   3.014   8.864 -0.2240  0.9846 -0.9562
 7085SOL    HW232718   1.256   2.953   8.994 -0.3501  0.2348  0.8676
 7086SOL     OW32719   1.102   3.726   5.476 -0.0957 -0.4772 -0.0051
 7086SOL    HW132720   1.047   3.648   5.480  0.2777 -0.8339 -1.7585
 7086SOL    HW232721   1.059   3.765   5.401 -1.7473 -0.2592  1.0536
 7087SOL     OW32722   3.765   3.236   6.650  0.4116  0.4949 -0.0914
 7087SOL    HW132723   3.747   3.160   6.595 -2.3974 -0.3224  1.9171
 7087SOL    HW232724   3.835   3.274   6.598  1.1917  0.9396  1.2907
 7088SOL     OW32725   0.834   1.931   8.741  0.0400 -0.0196 -0.8191
 7088SOL    HW132726   0.900   1.995   8.767 -1.0319  0.4533  0.7336
 7088SOL    HW232727   0.814   1.883   8.821  3.8545 -0.1925  0.0324
 7089SOL     OW32728   1.490   0.767  14.783  0.1578 -0.3419 -0.2130
 7089SOL    HW132729   1.526   0.846  14.824 -0.3899 -0.7738  1.1174
 7089SOL    HW232730   1.432   0.806  14.718 -0.9040  1.1315  1.5999
 7090SOL     OW32731   3.467   2.187   6.377  0.0318  0.7561 -0.1643
 7090SOL    HW132732   3.460   2.202   6.283 -0.0171 -1.3083 -0.4921
 7090SOL    HW232733   3.389   2.234   6.407  1.8529  2.7173  1.4866
 7091SOL     OW32734   4.212   3.403  12.385 -0.3743 -0.4482 -1.1656
 7091SOL    HW132735   4.283   3.341  12.402 -0.5459 -0.6418 -1.1590
 7091SOL    HW232736   4.248   3.447  12.308 -0.2482 -2.0924 -2.0384
 7092SOL     OW32737   1.356   3.050  16.608 -0.0364 -0.1569 -0.1671
 7092SOL    HW132738   1.413   3.085  16.540 -2.0466  1.4623 -1.0284
 7092SOL    HW232739   1.381   2.957  16.600 -2.3519 -0.6511 -1.7889
 7093SOL     OW32740   3.185   1.296   8.193  0.9842  0.0145 -0.0260
 7093SOL    HW132741   3.117   1.234   8.218  0.6589 -0.4463 -2.0575
 7093SOL    HW232742   3.262   1.248   8.224 -1.4785 -1.8503  3.1019
 7094SOL     OW32743   1.558   0.794  17.261 -0.3116 -0.2396  0.0723
 7094SOL    HW132744   1.541   0.806  17.355  0.4347 -1.7409  0.3992
 7094SOL    HW232745   1.483   0.741  17.232 -1.1170  2.1497 -2.2630
 7095SOL     OW32746   2.776   0.667   9.155  0.2998  0.2754 -0.1107
 7095SOL    HW132747   2.757   0.642   9.065 -2.0379 -1.0715  0.7638
 7095SOL    HW232748   2.828   0.593   9.186  2.3108  1.6775 -0.1525
 7096SOL     OW32749   0.855   0.694   0.052 -0.3056 -0.3548 -0.4357
 7096SOL    HW132750   0.780   0.690  17.678 -0.8086 -1.3584  0.2778
 7096SOL    HW232751   0.925   0.688  17.672 -1.7560 -1.9523 -1.8533
 7097SOL     OW32752   3.877   2.501  13.292  0.3240 -0.3247 -0.3345
 7097SOL    HW132753   3.817   2.537  13.357  2.2304  1.9458  0.1257
 7097SOL    HW232754   3.950   2.478  13.350  0.7313 -0.6878 -0.9861
 7098SOL     OW32755   2.478   0.228  17.241  0.3442 -0.4669  0.0233
 7098SOL    HW132756   2.521   0.189  17.165 -2.1919 -0.3901 -1.4323
 7098SOL    HW232757   2.463   0.144  17.284 -1.8366 -1.2139 -2.2031
 7099SOL     OW32758   0.732   0.953   6.085  0.7791  0.1813  0.1526
 7099SOL    HW132759   0.693   1.010   6.019 -1.1430 -1.0536  0.2447
 7099SOL    HW232760   0.720   1.002   6.167 -0.9048 -2.4580  1.4642
 7100SOL     OW32761   2.305   1.369  12.228 -0.0066  1.0828  0.2728
 7100SOL    HW132762   2.226   1.399  12.274 -1.0046  0.1629 -0.8377
 7100SOL    HW232763   2.261   1.319  12.159  0.1229 -0.6509  1.4440
 7101SOL     OW32764   1.916   0.773   4.398  0.2430  0.4644 -0.0611
 7101SOL    HW132765   1.824   0.791   4.378  0.2319  1.8541  1.3163
 7101SOL    HW232766   1.965   0.780   4.316 -0.2092  0.6668 -0.3137
 7102SOL     OW32767   3.909   3.051   8.227 -0.3247 -0.3287  0.2686
 7102SOL    HW132768   3.837   3.064   8.165 -0.0293  0.3060  0.0669
 7102SOL    HW232769   3.889   3.127   8.280 -1.3151 -0.7404  0.4904
 7103SOL     OW32770   3.901   1.097   0.529 -0.8468 -0.6613  0.4743
 7103SOL    HW132771   3.974   1.070   0.473 -1.4598 -0.5196 -0.3979
 7103SOL    HW232772   3.833   1.032   0.511  1.9973 -3.1233 -1.2617
 7104SOL     OW32773   1.761   1.984   8.003 -0.3039  0.2333  0.2719
 7104SOL    HW132774   1.691   1.976   8.068 -0.6363  1.3363  0.0494
 7104SOL    HW232775   1.847   1.979   8.045  0.5551 -0.0055 -1.5260
 7105SOL     OW32776   1.806   2.955   9.342 -0.5662 -0.0397 -0.2897
 7105SOL    HW132777   1.878   2.898   9.317 -0.4821 -0.6086  1.2275
 7105SOL    HW232778   1.855   3.002   9.408  0.6565 -1.1955 -0.3797
 7106SOL     OW32779   2.550   4.662  13.951  0.2551  0.4119  0.5349
 7106SOL    HW132780   2.583   4.572  13.957  0.3926  0.4464  0.3127
 7106SOL    HW232781   2.482   4.667  14.018  0.6470 -0.6245  1.0139
 7107SOL     OW32782   3.917   1.363   5.406  0.0321  0.3655 -0.0169
 7107SOL    HW132783   3.908   1.438   5.347 -1.5571  0.5689  0.5074
 7107SOL    HW232784   3.955   1.399   5.485 -2.4330 -0.7678  1.6918
 7108SOL     OW32785   1.376   0.661   5.285 -0.3504  0.1138 -0.0907
 7108SOL    HW132786   1.281   0.675   5.289 -0.2565  1.1468 -1.3480
 7108SOL    HW232787   1.384   0.572   5.318  0.7297 -0.4741 -1.9347
 7109SOL     OW32788   1.333   2.698  17.493  0.4209 -0.5894  0.8269
 7109SOL    HW132789   1.270   2.643  17.447  0.8872  0.2389 -0.7985
 7109SOL    HW232790   1.351   2.773  17.437 -2.5739 -0.0304  0.6160
 7110SOL     OW32791   2.713   2.516  13.127 -0.7222 -0.4068  0.3171
 7110SOL    HW132792   2.753   2.506  13.214  0.2511 -0.5724 -0.1544
 7110SOL    HW232793   2.751   2.439  13.085 -2.0655 -0.9037  0.0056
 7111SOL     OW32794   1.164   2.455   6.711  0.0624 -0.3945 -0.1057
 7111SOL    HW132795   1.207   2.538   6.692 -0.6754  0.0714  0.2649
 7111SOL    HW232796   1.191   2.422   6.625  1.8659 -1.1219  0.7301
 7112SOL     OW32797   0.932   1.165   1.690  0.0396 -0.3808 -0.2645
 7112SOL    HW132798   0.846   1.128   1.711 -1.1773  2.8738  0.4107
 7112SOL    HW232799   0.941   1.238   1.750  0.8749 -0.1184 -0.7063
 7113SOL     OW32800   1.634   2.212  12.352 -0.0694  0.2463 -0.2644
 7113SOL    HW132801   1.658   2.304  12.355 -3.3088  1.0465  0.4292
 7113SOL    HW232802   1.592   2.202  12.437 -0.1186  0.1028 -0.3050
 7114SOL     OW32803   2.387   3.245  11.045 -0.7795  0.5153 -0.3628
 7114SOL    HW132804   2.310   3.236  11.102  0.2631 -3.1060  0.4632
 7114SOL    HW232805   2.356   3.312  10.984 -0.8873  0.5915 -0.2243
 7115SOL     OW32806   2.948   3.583   4.747  0.5307  0.1728 -0.3122
 7115SOL    HW132807   3.036   3.544   4.750  0.9669  1.1635 -0.2928
 7115SOL    HW232808   2.976   3.656   4.692 -1.8551  0.2036 -1.4638
 7116SOL     OW32809   3.460   0.316  12.418  0.1528  0.2893 -0.3882
 7116SOL    HW132810   3.504   0.236  12.446 -1.5484 -0.3151  0.5575
 7116SOL    HW232811   3.503   0.382  12.473  2.0505 -1.2235 -0.0738
 7117SOL     OW32812   0.483   0.893   7.544 -0.7797 -0.5272  0.1108
 7117SOL    HW132813   0.418   0.937   7.598 -0.8494 -0.6167  0.0989
 7117SOL    HW232814   0.470   0.929   7.456 -0.7947  1.3373  0.8779
 7118SOL     OW32815   0.823   0.768   7.169 -0.3462 -0.6734  0.7725
 7118SOL    HW132816   0.852   0.844   7.221 -1.4241  0.7554 -0.7014
 7118SOL    HW232817   0.873   0.694   7.203  1.0685 -0.3641 -0.6449
 7119SOL     OW32818   4.404   3.008   9.398 -0.3463  0.4959 -0.3919
 7119SOL    HW132819   4.443   3.085   9.439 -0.3991  0.9849 -1.2562
 7119SOL    HW232820   4.488   2.968   9.373  0.6919  1.1490  2.0849
 7120SOL     OW32821   3.735   4.201   0.886 -0.5778  0.1367 -0.2254
 7120SOL    HW132822   3.658   4.255   0.868 -1.2622 -0.2776  1.4419
 7120SOL    HW232823   3.748   4.150   0.806 -2.6228  0.7643 -0.9707
 7121SOL     OW32824   2.281   1.546  16.475  0.0475 -0.4495 -0.1964
 7121SOL    HW132825   2.316   1.631  16.449 -0.8152 -0.0031  0.1135
 7121SOL    HW232826   2.308   1.527  16.565  1.0707 -2.5851 -0.9691
 7122SOL     OW32827   3.297   0.849  10.970  0.0786  0.6421 -0.1102
 7122SOL    HW132828   3.221   0.827  11.023  0.1024  0.9550  0.0543
 7122SOL    HW232829   3.359   0.791  11.016  1.9743 -0.1772 -3.7135
 7123SOL     OW32830   4.387   1.362   1.551 -0.2466 -0.4110  0.4502
 7123SOL    HW132831   4.312   1.402   1.509 -0.5538 -3.4372 -1.8726
 7123SOL    HW232832   4.446   1.437   1.562  1.9164 -2.0226 -0.0515
 7124SOL     OW32833   0.575   3.401   8.403 -0.4508  0.7517  0.7340
 7124SOL    HW132834   0.492   3.421   8.359 -0.0447 -2.0863 -1.2955
 7124SOL    HW232835   0.536   3.352   8.476  0.1984 -2.1057 -0.8608
 7125SOL     OW32836   3.010   0.951   6.559 -0.2134  0.1368 -0.1690
 7125SOL    HW132837   3.015   1.027   6.500  2.7082 -0.1356 -0.2957
 7125SOL    HW232838   2.996   0.870   6.510  0.0035  0.9748 -1.6403
 7126SOL     OW32839   1.187   0.478   4.139  0.1966  0.2789 -0.2043
 7126SOL    HW132840   1.167   0.394   4.097 -0.8724 -0.1811  1.2369
 7126SOL    HW232841   1.124   0.483   4.211  1.2588 -5.3142  1.1472
 7127SOL     OW32842   0.969   4.264  13.865  0.9327  0.1129 -0.0148
 7127SOL    HW132843   0.942   4.353  13.843 -0.3573 -0.8024 -2.1285
 7127SOL    HW232844   1.007   4.272  13.952 -0.0304  0.1070  0.4032
 7128SOL     OW32845   2.814   3.202  17.576 -0.4205 -0.2866 -0.3790
 7128SOL    HW132846   2.793   3.109  17.584  1.0390 -0.7296 -1.5415
 7128SOL    HW232847   2.863   3.218  17.657  0.5678 -0.8052 -0.8725
 7129SOL     OW32848   3.617   1.942   3.376  0.4613 -0.2303  0.0445
 7129SOL    HW132849   3.646   1.851   3.372 -0.6138 -0.4845 -1.6417
 7129SOL    HW232850   3.527   1.933   3.408 -0.4360 -1.2032 -2.8196
 7130SOL     OW32851   2.452   0.055   4.529 -0.2206 -0.3692  0.0629
 7130SOL    HW132852   2.518   0.056   4.598  0.2849  1.9066 -0.4500
 7130SOL    HW232853   2.497   4.703   4.485 -0.3171 -0.1027 -0.4698
 7131SOL     OW32854   1.496   0.546   5.999  0.3671  0.1044 -0.4088
 7131SOL    HW132855   1.586   0.545   5.968  0.9196  0.7820  1.1801
 7131SOL    HW232856   1.462   0.628   5.965  1.1646  0.5035 -0.2404
 7132SOL     OW32857   3.685   2.336   9.133  0.1557 -0.1064  0.1033
 7132SOL    HW132858   3.658   2.419   9.171  1.4750  0.2712  0.2395
 7132SOL    HW232859   3.638   2.265   9.176 -1.3814  1.2667  0.6714
 7133SOL     OW32860   1.721   3.613  10.157 -0.1512  0.2469 -0.9474
 7133SOL    HW132861   1.707   3.535  10.211  0.3693  0.4227 -0.5582
 7133SOL    HW232862   1.816   3.618  10.151  0.0098 -0.4831  0.9944
 7134SOL     OW32863   3.335   2.488   1.155  0.5349  0.1525 -0.0831
 7134SOL    HW132864   3.294   2.545   1.090 -1.1162  0.5895  1.3232
 7134SOL    HW232865   3.272   2.496   1.227 -0.1715  1.6254 -0.8610
 7135SOL     OW32866   3.886   2.294   3.514 -0.0041 -0.0079 -0.1522
 7135SOL    HW132867   3.907   2.373   3.464 -1.6809 -0.8416 -2.1725
 7135SOL    HW232868   3.960   2.238   3.491 -0.0893 -0.1505 -0.0808
 7136SOL     OW32869   4.076   2.926   5.293 -0.6192 -0.1304 -0.3020
 7136SOL    HW132870   4.031   2.971   5.364  0.7017 -0.2031  0.5656
 7136SOL    HW232871   4.035   2.964   5.215 -1.8110 -0.6198  0.0903
 7137SOL     OW32872   1.972   4.003   2.405  1.0225 -0.7446 -0.0524
 7137SOL    HW132873   1.948   4.070   2.340 -1.1954  0.0274  1.5870
 7137SOL    HW232874   1.892   3.953   2.395  0.1460  0.9898 -1.7430
 7138SOL     OW32875   0.601   1.271   8.200  0.7743  0.0287 -0.2603
 7138SOL    HW132876   0.612   1.180   8.170  2.4473  0.9371 -2.4026
 7138SOL    HW232877   0.691   1.305   8.198  0.9835 -0.4627  0.5279
 7139SOL     OW32878   0.111   0.678   6.947 -0.3211 -0.4975  0.7507
 7139SOL    HW132879   0.170   0.642   7.013  2.0644  0.1588 -1.0439
 7139SOL    HW232880   0.160   0.670   6.865  0.6912  3.2146  1.0396
 7140SOL     OW32881   3.068   2.502   7.816 -0.2947 -0.1372  0.1565
 7140SOL    HW132882   3.152   2.476   7.777  0.7043  3.0011  0.1999
 7140SOL    HW232883   3.097   2.520   7.905 -1.6567  1.4899  0.2797
 7141SOL     OW32884   2.654   1.789   7.408 -0.4666  0.1378  0.4919
 7141SOL    HW132885   2.624   1.699   7.420  1.8438 -0.8173 -0.9786
 7141SOL    HW232886   2.640   1.830   7.494 -1.5874 -0.0524  0.3935
 7142SOL     OW32887   4.494   2.108   6.327 -0.0546 -0.4850 -0.1162
 7142SOL    HW132888   4.503   2.202   6.341  0.2888 -0.6966  1.0616
 7142SOL    HW232889   4.552   2.102   6.251  0.7842 -0.8124  0.5449
 7143SOL     OW32890   1.894   2.489  12.190 -0.2117  0.2513  0.7453
 7143SOL    HW132891   1.972   2.436  12.200 -0.1399  0.1729 -0.2118
 7143SOL    HW232892   1.917   2.566  12.139  0.6302  0.5204  1.5434
 7144SOL     OW32893   1.596   0.592  13.763  0.4186  0.0273  0.1213
 7144SOL    HW132894   1.670   0.562  13.711  0.0217  1.0143 -1.0093
 7144SOL    HW232895   1.605   0.685  13.745 -0.6921 -0.0854 -1.0303
 7145SOL     OW32896   2.845   1.387   9.616  0.9095  0.3578 -0.2103
 7145SOL    HW132897   2.758   1.425   9.621  1.4850  1.7287 -0.6094
 7145SOL    HW232898   2.816   1.296   9.626  0.9127  0.4082  0.2345
 7146SOL     OW32899   4.094   3.757   9.500 -0.2292 -0.5224  0.2523
 7146SOL    HW132900   4.072   3.848   9.477  1.4438 -0.2477 -0.3216
 7146SOL    HW232901   4.048   3.737   9.582 -0.4811  1.3819  0.5808
 7147SOL     OW32902   4.330   2.562  16.360  0.3895  0.0150  0.0390
 7147SOL    HW132903   4.300   2.472  16.365 -1.0581  0.5189  0.2208
 7147SOL    HW232904   4.343   2.564  16.265 -1.0761  2.1616 -0.1114
 7148SOL     OW32905   0.358   0.213  14.042  0.2678 -0.0495 -0.0003
 7148SOL    HW132906   0.311   0.248  14.117  0.0789  1.8374 -1.0088
 7148SOL    HW232907   0.395   0.293  14.006 -1.2001 -0.5457 -2.6010
 7149SOL     OW32908   0.938   0.573  12.870  0.0142 -0.0550 -0.1465
 7149SOL    HW132909   0.934   0.617  12.785  0.2866  0.5474  0.1548
 7149SOL    HW232910   0.987   0.629  12.930  0.8458 -0.0641 -0.8079
 7150SOL     OW32911   0.744   4.514  12.447  0.2488  0.3613 -0.9750
 7150SOL    HW132912   0.840   4.520  12.452  0.1313  0.1383  1.1609
 7150SOL    HW232913   0.743   4.469  12.531  0.3840 -0.1752 -1.2631
 7151SOL     OW32914   3.278   4.486   2.511  0.8405  0.7691 -0.6388
 7151SOL    HW132915   3.237   4.528   2.587 -0.1642 -1.5514  0.0888
 7151SOL    HW232916   3.281   4.394   2.535  0.7887  0.5158 -1.6188
 7152SOL     OW32917   0.021   4.560  12.071 -0.1374 -0.0067 -0.3145
 7152SOL    HW132918   4.690   4.493  12.027 -0.4852  0.5242 -0.7222
 7152SOL    HW232919   0.110   4.537  12.044 -0.1273 -0.5959  0.2354
 7153SOL     OW32920   3.415   4.375   2.800 -0.3955  0.2512  0.8617
 7153SOL    HW132921   3.489   4.313   2.800 -0.6186 -0.0207  1.8762
 7153SOL    HW232922   3.368   4.334   2.873 -1.7050  0.9985  0.4335
 7154SOL     OW32923   1.227   3.474   3.765  0.0022 -0.3172  0.3610
 7154SOL    HW132924   1.235   3.501   3.674  0.8033 -1.9268 -0.0457
 7154SOL    HW232925   1.135   3.495   3.780 -0.0042 -0.0157 -0.1108
 7155SOL     OW32926   2.124   0.247   4.756  0.3868 -0.4932  0.1817
 7155SOL    HW132927   2.213   0.260   4.722 -1.0849  1.6501 -2.9174
 7155SOL    HW232928   2.113   0.155   4.733 -0.8869 -0.2209 -0.3176
 7156SOL     OW32929   0.167   1.135   0.077  1.1160  0.0663  0.0799
 7156SOL    HW132930   0.146   1.070   0.143 -0.5962 -0.9735 -1.4865
 7156SOL    HW232931   0.080   1.150   0.039  0.3479 -0.0742  1.7688
 7157SOL     OW32932   1.949   3.662   6.670  0.0202  0.0050  0.7178
 7157SOL    HW132933   1.883   3.717   6.628 -1.5509 -1.9487  0.5778
 7157SOL    HW232934   2.026   3.717   6.659  1.0375 -1.3668  1.0278
 7158SOL     OW32935   1.132   1.479   2.689  0.3205  0.2855  0.1077
 7158SOL    HW132936   1.119   1.572   2.675  0.8005  0.2766 -0.4159
 7158SOL    HW232937   1.081   1.436   2.620  0.5546 -0.3886  0.3530
 7159SOL     OW32938   1.972   2.439   4.499 -0.2715  0.3710 -0.3647
 7159SOL    HW132939   2.004   2.353   4.525 -2.3765  0.2226  1.8194
 7159SOL    HW232940   1.963   2.438   4.404  0.1873  0.6179 -0.4063
 7160SOL     OW32941   2.121   1.589   9.118 -0.6059  0.0162  0.2797
 7160SOL    HW132942   2.156   1.652   9.055 -0.8255  0.0823  0.2261
 7160SOL    HW232943   2.071   1.645   9.177 -0.7727 -0.3868  0.5115
 7161SOL     OW32944   2.643   0.545   8.293 -0.0639 -0.3480 -0.2203
 7161SOL    HW132945   2.664   0.499   8.212 -1.1717  0.2217 -0.8271
 7161SOL    HW232946   2.550   0.528   8.306 -0.2302  1.6468  1.1603
 7162SOL     OW32947   0.280   4.235   6.327  0.8554 -0.2705 -0.1816
 7162SOL    HW132948   0.221   4.160   6.327 -0.8500  1.0553  1.9880
 7162SOL    HW232949   0.268   4.280   6.243 -0.4246  1.1755  0.7668
 7163SOL     OW32950   4.433   4.191   9.586 -0.4301  0.0219 -0.1705
 7163SOL    HW132951   4.506   4.157   9.637 -0.9391 -1.2292 -0.2601
 7163SOL    HW232952   4.380   4.111   9.577  0.3264 -0.4754 -0.1532
 7164SOL     OW32953   0.053   0.060   7.072  0.9348  0.6621 -0.2516
 7164SOL    HW132954   0.056   0.145   7.117 -1.3950 -0.8868  2.8491
 7164SOL    HW232955   0.129   0.077   7.017  0.6011 -1.1521 -1.2564
 7165SOL     OW32956   4.554   1.350  13.708 -0.5062  0.1364  0.0914
 7165SOL    HW132957   4.516   1.438  13.716 -0.1088  0.2825  0.3741
 7165SOL    HW232958   4.534   1.326  13.798 -3.5083 -0.4070 -0.7093
 7166SOL     OW32959   1.144   0.409   0.855 -0.0231 -0.1310  0.3175
 7166SOL    HW132960   1.062   0.418   0.806 -0.3727 -0.4318  0.8531
 7166SOL    HW232961   1.107   0.358   0.927 -1.7469  1.0289  0.2551
 7167SOL     OW32962   1.508   1.719   4.077  0.2477 -0.0633 -0.2691
 7167SOL    HW132963   1.470   1.676   4.154  0.3426  1.3599  0.5771
 7167SOL    HW232964   1.433   1.779   4.069  0.2259 -0.0267  0.2433
 7168SOL     OW32965   0.184   2.146   6.474  0.2218  0.4539  0.1468
 7168SOL    HW132966   0.207   2.156   6.566  0.0184 -0.8632  0.3435
 7168SOL    HW232967   0.226   2.064   6.446  1.0480  0.8054  0.3390
 7169SOL     OW32968   1.678   3.775  16.509 -0.1537 -0.0286 -0.2803
 7169SOL    HW132969   1.615   3.753  16.577 -0.5563 -0.3915 -0.7693
 7169SOL    HW232970   1.620   3.787  16.434  0.9850 -2.5329 -1.5487
 7170SOL     OW32971   4.093   1.422  11.148 -0.9142 -0.0621  0.1887
 7170SOL    HW132972   4.181   1.459  11.150  0.2647 -2.9218  0.9411
 7170SOL    HW232973   4.057   1.461  11.227 -0.7972  1.8208 -0.6804
 7171SOL     OW32974   4.022   0.293   1.866 -0.5124  0.3227 -0.2343
 7171SOL    HW132975   3.942   0.328   1.905 -0.6323  1.7991 -1.8319
 7171SOL    HW232976   4.068   0.372   1.837 -0.0988  0.9131  2.0280
 7172SOL     OW32977   2.092   3.841  15.246  0.3122  0.2701  0.1095
 7172SOL    HW132978   2.077   3.748  15.258 -2.4243  0.3620 -2.6886
 7172SOL    HW232979   2.176   3.842  15.200  0.4054 -1.8145  0.2394
 7173SOL     OW32980   0.138   3.236   4.202  0.3862  0.0956  0.5571
 7173SOL    HW132981   0.169   3.258   4.290 -0.1158 -1.3587  1.0897
 7173SOL    HW232982   0.072   3.169   4.222  0.3168  0.6094  2.0294
 7174SOL     OW32983   3.178   0.699   3.993 -0.5074  0.0062 -0.7066
 7174SOL    HW132984   3.088   0.720   3.971 -0.8462  0.1280  0.8159
 7174SOL    HW232985   3.181   0.623   3.935 -1.6343 -0.0546 -0.6785
 7175SOL     OW32986   2.918   4.642   8.603 -0.6711  0.0102 -0.1801
 7175SOL    HW132987   2.975   4.719   8.609 -2.5147  1.2675  1.1623
 7175SOL    HW232988   2.868   4.641   8.521 -1.7866  2.6300  0.4577
 7176SOL     OW32989   0.965   1.038  10.126  0.0272 -0.6007 -0.8850
 7176SOL    HW132990   0.966   0.994  10.211 -0.6058 -0.6201 -0.8868
 7176SOL    HW232991   0.981   0.960  10.071 -2.1804 -2.6574  1.3858
 7177SOL     OW32992   0.541   0.442   6.643 -0.6279  0.0822  0.1625
 7177SOL    HW132993   0.579   0.492   6.570 -0.2076 -0.7027 -0.1517
 7177SOL    HW232994   0.604   0.371   6.659 -0.8696  0.3240  2.2274
 7178SOL     OW32995   0.975   4.079  14.327  0.0430  0.0216 -0.2259
 7178SOL    HW132996   1.070   4.092  14.334  0.1845  0.5433 -3.0109
 7178SOL    HW232997   0.961   4.008  14.389 -0.3391  0.5124  0.2547
 7179SOL     OW32998   1.545   0.429   2.157  0.2082  0.0509  0.2555
 7179SOL    HW132999   1.496   0.441   2.075 -1.2318  0.4071  1.1615
 7179SOL    HW233000   1.570   0.337   2.151  0.4680  0.3320 -3.1406
 7180SOL     OW33001   0.998   2.939   7.253 -0.2288  0.9475  0.5780
 7180SOL    HW133002   1.090   2.921   7.272  0.5679  1.5858 -2.7286
 7180SOL    HW233003   0.952   2.885   7.318 -2.0177  0.0686 -1.4472
 7181SOL     OW33004   2.566   0.485  17.278 -0.5808 -0.2800 -0.4941
 7181SOL    HW133005   2.500   0.501  17.345 -0.6656  0.7551 -0.8169
 7181SOL    HW233006   2.542   0.401  17.240  2.4081 -0.6011 -1.6864
 7182SOL     OW33007   2.296   2.330   8.578 -0.0370 -0.0731  0.0454
 7182SOL    HW133008   2.328   2.373   8.498  3.4643 -0.0690  1.4580
 7182SOL    HW233009   2.239   2.395   8.620 -0.2576  0.1662 -0.6163
 7183SOL     OW33010   4.327   2.821   6.646  0.9224  0.4853 -0.7345
 7183SOL    HW133011   4.286   2.744   6.606 -1.2705  2.3169 -2.0181
 7183SOL    HW233012   4.270   2.878   6.594 -1.8276 -2.5436 -1.0041
 7184SOL     OW33013   2.545   3.798  16.366 -0.4870 -0.5849  0.0832
 7184SOL    HW133014   2.529   3.881  16.412 -0.2279 -0.9968  0.9037
 7184SOL    HW233015   2.602   3.829  16.296 -1.3058  1.0475  0.1139
 7185SOL     OW33016   0.563   0.856   2.320 -0.1612  0.5302 -0.0181
 7185SOL    HW133017   0.644   0.899   2.343  0.4824 -1.8648  2.2381
 7185SOL    HW233018   0.494   0.914   2.351 -0.1203  0.5012  0.1255
 7186SOL     OW33019   3.606   3.264   3.063 -0.0884 -0.1480  0.0256
 7186SOL    HW133020   3.687   3.240   3.017 -0.9171 -0.9096 -1.0369
 7186SOL    HW233021   3.598   3.353   3.029  1.3148 -0.4842 -1.1903
 7187SOL     OW33022   3.907   3.265   9.539  0.0846  0.4202 -0.1655
 7187SOL    HW133023   3.992   3.303   9.562  0.4801 -0.9410  0.6468
 7187SOL    HW233024   3.931   3.195   9.479 -0.1471  0.0152  0.2124
 7188SOL     OW33025   3.385   4.697   1.839  0.3844  0.0771 -0.3377
 7188SOL    HW133026   3.420   0.011   1.921 -0.6424  3.9073 -1.5139
 7188SOL    HW233027   3.295   4.696   1.872  0.5038  2.7346  0.0414
 7189SOL     OW33028   2.164   4.062   6.594 -0.2562 -0.5721 -0.3364
 7189SOL    HW133029   2.238   4.032   6.646 -0.1954 -0.9350 -0.6256
 7189SOL    HW233030   2.162   3.993   6.527 -0.8916  0.7920 -1.7301
 7190SOL     OW33031   1.543   1.432  12.629  0.2463  0.3180 -0.0590
 7190SOL    HW133032   1.513   1.371  12.561  1.6931 -0.9194  0.4165
 7190SOL    HW233033   1.458   1.437  12.673  0.0659  0.3833 -0.4095
 7191SOL     OW33034   2.659   1.774   8.781  0.2183 -0.1571 -0.1730
 7191SOL    HW133035   2.670   1.867   8.761  1.5916 -0.5224 -1.1649
 7191SOL    HW233036   2.685   1.731   8.699  1.1785  0.1002  0.0019
 7192SOL     OW33037   1.334   1.035   3.353  0.1485 -0.1032  0.4193
 7192SOL    HW133038   1.318   1.125   3.380 -1.1159 -0.8842  2.3309
 7192SOL    HW233039   1.427   1.034   3.332  0.3072 -0.0725  1.1004
 7193SOL     OW33040   1.722   0.614   6.705  0.0441  0.5425 -0.5607
 7193SOL    HW133041   1.724   0.630   6.799 -0.5172 -1.5635 -0.1869
 7193SOL    HW233042   1.661   0.682   6.675  0.4177  0.7194 -0.9319
 7194SOL     OW33043   2.573   1.764  13.439 -0.0877 -0.4114 -0.3927
 7194SOL    HW133044   2.501   1.771  13.502 -0.7844 -2.4928 -0.9551
 7194SOL    HW233045   2.549   1.838  13.383  0.8422 -0.4226 -0.7995
 7195SOL     OW33046   0.290   1.634   6.747  0.2049 -0.4934  0.3324
 7195SOL    HW133047   0.265   1.554   6.793 -1.3266 -0.7349 -0.9727
 7195SOL    HW233048   0.212   1.637   6.693 -0.3870 -0.8383  1.1618
 7196SOL     OW33049   0.333   3.071   7.626  0.1993 -0.2400  0.8193
 7196SOL    HW133050   0.334   3.167   7.627  1.7463 -0.2373 -2.4621
 7196SOL    HW233051   0.239   3.059   7.616  0.0588  1.0066  0.6031
 7197SOL     OW33052   2.954   1.751  17.021 -0.1951 -0.5262  0.2306
 7197SOL    HW133053   2.958   1.655  17.028  2.0387 -0.3497  1.5269
 7197SOL    HW233054   2.988   1.771  17.108 -2.8330 -0.2275  1.1876
 7198SOL     OW33055   2.667   1.783   6.779 -0.2189 -0.1476  0.2613
 7198SOL    HW133056   2.594   1.769   6.720  0.4831  3.0470 -1.3041
 7198SOL    HW233057   2.701   1.694   6.793  1.2070  0.4120  0.3146
 7199SOL     OW33058   2.775   2.326   3.230  0.1836 -0.2921 -0.2229
 7199SOL    HW133059   2.733   2.240   3.218 -0.5828  0.2332 -1.3130
 7199SOL    HW233060   2.791   2.352   3.139  0.1792 -3.7591 -1.2166
 7200SOL     OW33061   2.661   0.321   7.141 -0.1819  0.5979 -0.0683
 7200SOL    HW133062   2.668   0.244   7.198  0.4185  1.4226  0.9650
 7200SOL    HW233063   2.700   0.277   7.065 -1.5510 -2.2148  0.8530
 7201SOL     OW33064   3.595   2.859   6.213 -0.0253 -0.3976  0.1249
 7201SOL    HW133065   3.549   2.885   6.133  0.0681 -0.4375  0.0576
 7201SOL    HW233066   3.535   2.886   6.283 -0.1101 -0.4841  0.0855
 7202SOL     OW33067   3.495   0.175   3.668  0.4776  0.5538  0.3650
 7202SOL    HW133068   3.574   0.133   3.702  0.7064  2.5620  2.2781
 7202SOL    HW233069   3.511   0.269   3.669  0.7568  0.4970  1.3326
 7203SOL     OW33070   1.578   0.256   9.503  0.1276 -0.1198  0.2284
 7203SOL    HW133071   1.563   0.348   9.482 -0.2488  0.2110  1.9048
 7203SOL    HW233072   1.540   0.211   9.428  0.4428  1.5922 -0.9265
 7204SOL     OW33073   2.415   3.086  15.431  0.2149 -0.2785 -0.0439
 7204SOL    HW133074   2.320   3.072  15.432  0.0635  0.7467  0.1886
 7204SOL    HW233075   2.436   3.128  15.514  1.0986  0.5253 -0.6634
 7205SOL     OW33076   0.466   1.118  11.357  0.4622 -0.4441 -0.0427
 7205SOL    HW133077   0.432   1.048  11.413 -0.3311  1.9029  2.3902
 7205SOL    HW233078   0.383   1.161  11.335 -1.3788 -2.9757  1.9491
 7206SOL     OW33079   4.646   3.930   5.468  0.6938  0.4885  0.1102
 7206SOL    HW133080   4.685   4.017   5.476 -1.9855  1.5984  1.0685
 7206SOL    HW233081   4.707   3.866   5.503 -0.5440 -0.0811  1.2108
 7207SOL     OW33082   4.093   4.691  13.097  0.0551 -0.0659  0.2776
 7207SOL    HW133083   4.114   4.607  13.056  2.5990  0.3001  0.8695
 7207SOL    HW233084   4.081   0.029  13.023  1.2031 -0.0956  0.0687
 7208SOL     OW33085   4.147   3.263   1.963  0.2471  0.5645 -0.0474
 7208SOL    HW133086   4.118   3.215   2.041  0.2967 -0.4203 -0.6329
 7208SOL    HW233087   4.199   3.194   1.922  0.7316  0.9388 -0.0626
 7209SOL     OW33088   1.731   3.140   8.801 -0.7524  0.2508 -0.1945
 7209SOL    HW133089   1.704   3.221   8.846  0.1959 -0.5528  1.8309
 7209SOL    HW233090   1.825   3.142   8.818 -1.1480 -2.1583  2.3385
 7210SOL     OW33091   3.583   0.147   5.911 -0.2413  0.7271  0.5427
 7210SOL    HW133092   3.666   0.161   5.957 -0.7651  1.9814  1.1253
 7210SOL    HW233093   3.544   0.070   5.953 -2.2069  1.4725  0.1092
 7211SOL     OW33094   0.708   3.294   4.132  0.7218 -0.7385  0.5899
 7211SOL    HW133095   0.632   3.246   4.165 -0.2092  0.5608  0.3544
 7211SOL    HW233096   0.717   3.269   4.040  2.0458 -0.2708  0.5962
 7212SOL     OW33097   1.140   1.224   2.502 -0.0184  0.0697  0.0953
 7212SOL    HW133098   1.202   1.152   2.514 -0.5378 -0.3553  0.2144
 7212SOL    HW233099   1.100   1.203   2.418  1.2098  1.4839 -0.8506
 7213SOL     OW33100   3.611   1.838   7.784 -0.7308 -0.6578  0.0145
 7213SOL    HW133101   3.584   1.829   7.875 -0.7301  0.6934  0.1425
 7213SOL    HW233102   3.525   1.855   7.746 -1.2658 -0.8110  1.1523
 7214SOL     OW33103   3.233   3.880   8.230  0.5495 -0.4890  0.7504
 7214SOL    HW133104   3.201   3.969   8.240  0.5184 -0.5706  1.3395
 7214SOL    HW233105   3.271   3.869   8.317  1.7922  3.3456  0.6949
 7215SOL     OW33106   2.418   2.495   4.194  0.2120  0.1881 -0.4219
 7215SOL    HW133107   2.496   2.552   4.195  0.4804 -0.1868 -0.1502
 7215SOL    HW233108   2.457   2.410   4.174  1.2452  0.5575  0.0066
 7216SOL     OW33109   3.794   0.600   0.066  0.0760 -0.1773 -0.3355
 7216SOL    HW133110   3.847   0.627   0.141  0.8526  2.2202 -1.7384
 7216SOL    HW233111   3.790   0.505   0.078 -0.7471 -0.1100 -0.0340
 7217SOL     OW33112   0.938   0.630   9.305  0.2224 -0.5889 -0.4176
 7217SOL    HW133113   0.858   0.662   9.264 -0.7039 -1.2567  0.8683
 7217SOL    HW233114   0.926   0.535   9.306 -2.7868 -0.1950 -0.1708
 7218SOL     OW33115   2.453   2.349   7.534  0.1283 -0.5064  0.3283
 7218SOL    HW133116   2.474   2.262   7.568 -1.3068 -1.2079 -0.6257
 7218SOL    HW233117   2.419   2.386   7.616 -2.3321 -1.8785 -0.0891
 7219SOL     OW33118   2.066   1.707   6.668 -0.8170 -0.6166  0.0044
 7219SOL    HW133119   2.015   1.643   6.718 -1.6172  1.1548  1.4498
 7219SOL    HW233120   2.011   1.782   6.689  2.1390  2.0859 -1.8354
 7220SOL     OW33121   1.937   0.337  10.761  0.3764 -0.4442 -0.8018
 7220SOL    HW133122   1.858   0.292  10.790  1.0341 -2.6653 -2.4263
 7220SOL    HW233123   1.935   0.417  10.813  0.3876 -0.5830 -0.5871
 7221SOL     OW33124   2.319   1.794   5.111  0.0986  0.1091 -0.4405
 7221SOL    HW133125   2.286   1.737   5.181  3.3336  1.3874  2.1411
 7221SOL    HW233126   2.411   1.796   5.135  0.5463 -1.8100 -1.9900
 7222SOL     OW33127   1.403   0.605   6.874  0.1135 -0.0325  0.5602
 7222SOL    HW133128   1.427   0.521   6.835  1.3604  0.1797  0.8791
 7222SOL    HW233129   1.413   0.582   6.967 -0.1052  2.6909  1.2657
 7223SOL     OW33130   0.577   0.947   3.897 -0.9118  0.2415  0.2795
 7223SOL    HW133131   0.521   0.956   3.820  2.8531  0.5815 -2.3902
 7223SOL    HW233132   0.629   0.867   3.885 -0.7565  0.3290  0.3777
 7224SOL     OW33133   4.146   1.308   6.194 -0.4674 -0.1623 -0.1438
 7224SOL    HW133134   4.068   1.300   6.139 -0.2763 -1.5145 -0.1953
 7224SOL    HW233135   4.110   1.368   6.260 -1.5258  0.0860 -0.9346
 7225SOL     OW33136   3.634   0.638  12.854 -0.0489 -0.0325  0.3199
 7225SOL    HW133137   3.689   0.711  12.881 -0.4025 -0.0861  1.2058
 7225SOL    HW233138   3.645   0.636  12.759 -2.1628  0.3523  0.0646
 7226SOL     OW33139   0.773   1.921   2.140  0.3840  0.1860 -0.5224
 7226SOL    HW133140   0.861   1.884   2.151 -0.6636 -2.1261 -0.0834
 7226SOL    HW233141   0.804   1.998   2.092 -0.8219  0.5915 -0.6509
 7227SOL     OW33142   0.390   0.533  13.853  0.4913  0.7926 -0.1345
 7227SOL    HW133143   0.411   0.463  13.791  1.0284  1.4376 -0.6773
 7227SOL    HW233144   0.474   0.567  13.883  0.8688 -2.8030  2.9211
 7228SOL     OW33145   4.383   2.398   0.614 -0.4378 -0.2303 -0.7165
 7228SOL    HW133146   4.311   2.420   0.555 -0.6034 -1.0069 -0.7998
 7228SOL    HW233147   4.406   2.488   0.637 -1.8650 -0.3445  1.1572
 7229SOL     OW33148   3.817   4.436   6.987  0.0506 -0.4057  0.2413
 7229SOL    HW133149   3.828   4.435   6.892 -0.6172  4.8725  0.0997
 7229SOL    HW233150   3.740   4.382   7.007 -1.5568  1.6378 -0.4502
 7230SOL     OW33151   4.038   2.895   6.605  0.1398  0.3123  0.6036
 7230SOL    HW133152   4.025   2.948   6.683  0.4337  0.5298  0.5047
 7230SOL    HW233153   3.979   2.822   6.625  0.3421  0.4708  1.7807
 7231SOL     OW33154   1.865   2.594  13.139  0.4563 -0.3923  0.2941
 7231SOL    HW133155   1.902   2.509  13.160 -1.0615 -1.3269 -0.8357
 7231SOL    HW233156   1.769   2.591  13.140  0.4466  0.3202  1.4437
 7232SOL     OW33157   0.262   3.270   5.453 -0.3864 -0.0216  0.3497
 7232SOL    HW133158   0.210   3.292   5.529  0.0776 -0.7805  0.8912
 7232SOL    HW233159   0.193   3.225   5.404  0.5245  0.6595 -1.5607
 7233SOL     OW33160   3.361   0.476   8.058  0.2935  0.3944  0.3615
 7233SOL    HW133161   3.309   0.487   7.978 -0.4309 -1.9799  0.4997
 7233SOL    HW233162   3.320   0.544   8.111  2.8269  1.2323  1.2509
 7234SOL     OW33163   2.586   0.537   7.289  0.0203 -0.0320 -0.3133
 7234SOL    HW133164   2.624   0.459   7.249 -2.7369 -1.6533  0.1977
 7234SOL    HW233165   2.536   0.580   7.219  1.0448  0.3114 -0.8304
 7235SOL     OW33166   0.396   3.607   7.706 -0.1261  0.8239 -0.4178
 7235SOL    HW133167   0.417   3.698   7.726  0.8308  0.9304 -1.8909
 7235SOL    HW233168   0.321   3.583   7.761  0.1188 -1.1836 -0.9628
 7236SOL     OW33169   3.086   1.126   2.930  0.1817  0.3153  0.3587
 7236SOL    HW133170   3.015   1.148   2.990  0.7405  1.0094  0.7705
 7236SOL    HW233171   3.059   1.185   2.860  1.3028  0.3330 -0.0508
 7237SOL     OW33172   4.390   1.573   3.321 -0.4228 -0.0113 -0.5783
 7237SOL    HW133173   4.372   1.667   3.318  0.4712  0.1378 -1.1964
 7237SOL    HW233174   4.485   1.570   3.321 -0.4354 -0.3619 -1.4770
 7238SOL     OW33175   0.991   1.303   5.189 -0.3723  0.4718 -0.3386
 7238SOL    HW133176   0.919   1.348   5.233 -1.3867 -1.2957 -0.1783
 7238SOL    HW233177   0.997   1.354   5.108  0.3310  0.9934  0.0492
 7239SOL     OW33178   3.651   0.902   5.966  0.2670  0.6277  0.0147
 7239SOL    HW133179   3.589   0.968   5.935  2.0933  3.1796  1.8012
 7239SOL    HW233180   3.597   0.839   6.014  1.7717  0.5158  1.5739
 7240SOL     OW33181   2.058   1.562   4.735  0.0635 -0.5254 -0.0842
 7240SOL    HW133182   2.092   1.640   4.779 -1.7044  0.1980 -0.0045
 7240SOL    HW233183   1.965   1.586   4.729 -0.2280 -0.9417  2.7946
 7241SOL     OW33184   0.506   1.285   6.796  0.4268 -0.3291  0.6319
 7241SOL    HW133185   0.458   1.347   6.850 -3.2763 -2.1274 -0.6072
 7241SOL    HW233186   0.598   1.283   6.822 -0.1569 -0.5576  2.6525
 7242SOL     OW33187   3.980   3.873   4.824  0.3574  0.4621 -0.0809
 7242SOL    HW133188   4.054   3.903   4.772 -0.6825  0.1523 -1.7554
 7242SOL    HW233189   4.020   3.844   4.906 -3.1196 -1.0411  1.0846
 7243SOL     OW33190   2.851   0.776   2.976 -0.3409 -0.0125  0.2999
 7243SOL    HW133191   2.938   0.806   2.948 -0.8858  1.2516 -0.0344
 7243SOL    HW233192   2.881   0.692   3.009 -2.3581 -0.6361  0.5314
 7244SOL     OW33193   4.280   1.078   7.869  0.3058 -0.4839 -0.3174
 7244SOL    HW133194   4.317   1.089   7.957 -0.3121 -0.1448 -0.0975
 7244SOL    HW233195   4.298   1.162   7.828  1.0238 -0.5810 -0.1920
 7245SOL     OW33196   4.080   0.805   7.588 -0.2469  0.4218 -0.4359
 7245SOL    HW133197   3.998   0.856   7.590 -1.2719 -1.2879  1.4558
 7245SOL    HW233198   4.113   0.819   7.499  0.0715  0.6960 -0.2726
 7246SOL     OW33199   1.396   0.736   9.530  0.0989 -0.1729  0.2058
 7246SOL    HW133200   1.320   0.678   9.518 -1.5755  1.7218  1.5503
 7246SOL    HW233201   1.466   0.676   9.504  1.1506  1.5817 -1.0080
 7247SOL     OW33202   0.559   0.139  16.788 -0.4435  0.0954 -0.0084
 7247SOL    HW133203   0.604   0.060  16.758 -2.4562 -0.9038 -0.4441
 7247SOL    HW233204   0.514   0.184  16.717  0.4578  3.5168  1.5560
 7248SOL     OW33205   2.699   0.336   2.430 -0.4738  0.3011  0.5917
 7248SOL    HW133206   2.636   0.408   2.429  0.2891  1.0325  3.5015
 7248SOL    HW233207   2.783   0.373   2.458  0.6145 -1.6271 -0.0807
 7249SOL     OW33208   1.144   3.862   8.674 -0.3571  0.2079  0.4523
 7249SOL    HW133209   1.105   3.778   8.694 -0.0526  0.3592  1.6870
 7249SOL    HW233210   1.135   3.906   8.759  2.5967 -1.3140  1.5401
 7250SOL     OW33211   0.725   2.260   7.768 -0.4555  0.4468 -0.1148
 7250SOL    HW133212   0.701   2.259   7.676  3.5959  3.4545 -1.1912
 7250SOL    HW233213   0.673   2.331   7.806 -0.3991 -0.5608  1.8596
 7251SOL     OW33214   4.026   4.587   6.267  0.0523  0.8176  0.0558
 7251SOL    HW133215   4.015   4.679   6.294 -0.2233  0.5296  0.9323
 7251SOL    HW233216   4.098   4.554   6.321 -0.8402  0.4422  1.0037
 7252SOL     OW33217   1.042   3.867   3.233  0.2589  0.4210  0.2880
 7252SOL    HW133218   0.981   3.798   3.204 -0.7081  1.5739 -0.3958
 7252SOL    HW233219   1.102   3.824   3.294 -0.4842  0.0622  0.7725
 7253SOL     OW33220   4.079   4.079   4.239  0.4844 -0.0475 -0.1926
 7253SOL    HW133221   4.015   4.054   4.172  0.8465 -0.5705 -0.3463
 7253SOL    HW233222   4.056   4.015   4.306 -0.9648 -1.1270 -1.7175
 7254SOL     OW33223   0.602   4.070   4.629 -0.0928  0.1289 -0.2759
 7254SOL    HW133224   0.629   3.987   4.591  4.0805  0.8273  1.1483
 7254SOL    HW233225   0.550   4.031   4.699 -0.2774  0.3940 -0.2670
 7255SOL     OW33226   0.859   2.279   2.994 -1.0256  0.4177  0.1427
 7255SOL    HW133227   0.847   2.301   3.086  1.6074 -0.7101  0.7741
 7255SOL    HW233228   0.852   2.183   2.996 -0.0496  0.3711  1.9146
 7256SOL     OW33229   2.316   3.676  16.236 -0.0710  0.1977 -0.7510
 7256SOL    HW133230   2.387   3.728  16.274  0.1014  0.4033 -1.3512
 7256SOL    HW233231   2.351   3.588  16.229  0.0252  0.1447  0.4580
 7257SOL     OW33232   2.246   0.710   4.706  0.5209  0.2505  0.7238
 7257SOL    HW133233   2.319   0.649   4.718 -0.7146 -0.9392  2.2792
 7257SOL    HW233234   2.200   0.662   4.638  3.3448 -0.2116 -0.8529
 7258SOL     OW33235   1.072   3.311   8.021  0.3350 -0.2955  0.4347
 7258SOL    HW133236   1.143   3.265   7.976 -0.1327  1.0147 -1.6366
 7258SOL    HW233237   1.117   3.332   8.103  1.1209 -2.3416  0.5179
 7259SOL     OW33238   4.211   0.380   7.074 -0.2823  0.3033 -0.5677
 7259SOL    HW133239   4.152   0.311   7.105 -3.4890  2.3283 -2.1785
 7259SOL    HW233240   4.302   0.350   7.082 -0.2927  0.4950  0.3016
 7260SOL     OW33241   3.598   2.597  16.009  0.4877  0.0821  0.4154
 7260SOL    HW133242   3.661   2.634  16.070  1.1003  0.7091 -0.5918
 7260SOL    HW233243   3.526   2.562  16.061  1.0786 -1.0315  0.4905
 7261SOL     OW33244   2.995   4.051   1.374 -0.1855  0.8657  0.4764
 7261SOL    HW133245   2.979   3.964   1.337 -0.5604  0.5287  1.4120
 7261SOL    HW233246   2.982   4.023   1.465  1.0832 -2.2895 -0.3235
 7262SOL     OW33247   1.092   4.282   2.877 -0.4148  0.1832 -0.0900
 7262SOL    HW133248   1.120   4.198   2.914  2.1655  1.3542  0.6086
 7262SOL    HW233249   1.036   4.329   2.940 -0.3499  0.1211  0.0134
 7263SOL     OW33250   4.689   0.819   3.338  0.4091 -0.1595 -0.1411
 7263SOL    HW133251   4.596   0.815   3.316  1.0924 -0.9468 -2.8275
 7263SOL    HW233252   4.690   0.888   3.404 -0.2582 -0.7887  0.5265
 7264SOL     OW33253   4.536   2.104   7.722 -1.0109 -0.3964  0.1025
 7264SOL    HW133254   4.454   2.081   7.677 -0.9320  1.4210 -0.9834
 7264SOL    HW233255   4.596   2.054   7.667 -1.5246  0.3148 -1.1190
 7265SOL     OW33256   3.738   4.508  13.467 -0.1393 -0.2693 -0.8762
 7265SOL    HW133257   3.693   4.507  13.552  1.5262  0.2184 -0.0007
 7265SOL    HW233258   3.783   4.424  13.462 -1.1659 -1.0241  2.4886
 7266SOL     OW33259   3.702   1.909  10.713 -0.4019  0.0845 -0.4723
 7266SOL    HW133260   3.757   1.839  10.749 -0.3723 -1.1401 -2.9074
 7266SOL    HW233261   3.616   1.883  10.745 -0.5960  0.9016 -0.3294
 7267SOL     OW33262   0.141   2.113   8.727 -0.5666  0.4288 -0.1056
 7267SOL    HW133263   0.142   2.202   8.762 -0.4290  0.6597 -0.6859
 7267SOL    HW233264   0.105   2.063   8.800  0.0583 -0.1309 -0.1854
 7268SOL     OW33265   0.852   0.403  10.599  0.0174 -0.0951  0.1225
 7268SOL    HW133266   0.922   0.342  10.577  1.3846  0.4215  2.9553
 7268SOL    HW233267   0.856   0.415  10.694  2.0488  0.8981 -0.0785
 7269SOL     OW33268   0.194   1.984   9.590  0.2351 -0.3016 -0.6181
 7269SOL    HW133269   0.132   2.041   9.544  0.4538 -0.3546 -0.9791
 7269SOL    HW233270   0.244   1.955   9.514 -1.7726 -2.9154 -0.9371
 7270SOL     OW33271   0.182   3.108   6.731 -0.2773 -0.2247  0.3240
 7270SOL    HW133272   0.240   3.032   6.722 -0.6150 -0.3329 -0.9757
 7270SOL    HW233273   0.104   3.078   6.777  0.0300 -0.8683  0.4187
 7271SOL     OW33274   0.679   3.549  13.751  0.6751  0.2914 -0.1924
 7271SOL    HW133275   0.670   3.493  13.829  0.1526  1.4272  0.5629
 7271SOL    HW233276   0.707   3.484  13.687 -0.9930 -1.0306  0.4232
 7272SOL     OW33277   0.910   4.104   2.435  0.1818 -0.4889  0.0266
 7272SOL    HW133278   0.917   4.194   2.467 -1.3366 -0.5657  0.5935
 7272SOL    HW233279   1.004   4.090   2.428  0.3508  0.5981  0.1085
 7273SOL     OW33280   3.085   0.585   6.084  0.6212 -0.0939 -0.9153
 7273SOL    HW133281   3.027   0.582   6.008 -1.3295  0.7216  0.5517
 7273SOL    HW233282   3.152   0.519   6.066  0.8652 -0.4223  1.1638
 7274SOL     OW33283   2.104   3.651   4.979 -0.2537  0.4589  0.7379
 7274SOL    HW133284   2.179   3.603   4.943  0.3974 -0.1811  2.9174
 7274SOL    HW233285   2.149   3.719   5.030 -1.1778  0.7176  1.1979
 7275SOL     OW33286   1.067   2.982   1.787  0.2074 -0.2809  0.1883
 7275SOL    HW133287   1.041   2.961   1.876 -0.0967 -2.0158 -0.3245
 7275SOL    HW233288   1.079   3.077   1.794  2.5221 -0.5735  0.2316
 7276SOL     OW33289   1.387   2.230  15.144 -0.0820 -0.1631  0.0384
 7276SOL    HW133290   1.314   2.242  15.204  0.1586 -0.9306  0.4785
 7276SOL    HW233291   1.451   2.204  15.210 -0.4320 -1.5595 -0.1716
 7277SOL     OW33292   0.730   1.261   5.987 -0.4550 -0.0733 -0.3899
 7277SOL    HW133293   0.719   1.331   5.923  1.2866 -0.3425 -0.9793
 7277SOL    HW233294   0.820   1.229   5.984 -0.0928  0.7861  1.5992
 7278SOL     OW33295   1.454   0.796  16.135  0.6695  0.1815 -0.1748
 7278SOL    HW133296   1.448   0.871  16.076  1.5249 -0.7052 -1.3736
 7278SOL    HW233297   1.538   0.817  16.175  1.2245  2.0475 -2.3281
 7279SOL     OW33298   2.658   1.956   7.655 -0.0560  0.3043  0.3009
 7279SOL    HW133299   2.632   1.908   7.735 -1.3404  0.4645 -0.0207
 7279SOL    HW233300   2.749   1.968   7.682  0.5663 -0.2855 -1.5837
 7280SOL     OW33301   3.930   4.344   2.531  0.3935 -0.0142  0.6160
 7280SOL    HW133302   4.002   4.354   2.594  1.4070 -0.6318 -0.4380
 7280SOL    HW233303   3.885   4.270   2.572 -0.5058  0.9828  1.4319
 7281SOL     OW33304   4.214   1.656  16.937  1.0360  0.1463 -0.2531
 7281SOL    HW133305   4.129   1.631  16.971  0.4357  1.2303 -0.9611
 7281SOL    HW233306   4.193   1.688  16.849  1.7665 -0.7103 -0.7553
 7282SOL     OW33307   2.889   2.764   9.683  0.4327 -0.6138  0.0286
 7282SOL    HW133308   2.973   2.721   9.702  0.8686  0.1155 -0.2126
 7282SOL    HW233309   2.837   2.753   9.762 -0.2781  0.2610 -0.3200
 7283SOL     OW33310   1.761   0.742   2.455 -0.2791  0.2505  0.1813
 7283SOL    HW133311   1.831   0.729   2.519 -1.6845 -3.1383  1.0063
 7283SOL    HW233312   1.812   0.771   2.379  1.2387 -1.6418  0.4904
 7284SOL     OW33313   3.238   1.350   0.289  0.8303 -0.1070 -0.3610
 7284SOL    HW133314   3.243   1.284   0.220  0.1874 -2.2664  1.6612
 7284SOL    HW233315   3.205   1.299   0.363  0.3146 -0.0472 -0.5531
 7285SOL     OW33316   1.359   1.327   8.414  0.1616  0.0530 -0.3513
 7285SOL    HW133317   1.387   1.400   8.360  3.5940 -0.5803  0.5380
 7285SOL    HW233318   1.441   1.279   8.404 -0.4324 -0.7956 -1.1162
 7286SOL     OW33319   2.311   2.694   9.612 -0.0087  0.3543 -0.5035
 7286SOL    HW133320   2.300   2.610   9.567  0.8686  0.4007 -0.8108
 7286SOL    HW233321   2.405   2.683   9.623 -0.0917  0.7698  0.5744
 7287SOL     OW33322   1.284   0.619   5.010  0.2281  0.1181 -0.2373
 7287SOL    HW133323   1.358   0.580   4.963 -0.7605 -2.2012  0.1447
 7287SOL    HW233324   1.327   0.621   5.096 -1.3163 -0.9804  0.5481
 7288SOL     OW33325   0.891   2.885   3.192  0.3695 -0.2935  0.0897
 7288SOL    HW133326   0.808   2.838   3.188 -1.0849  2.1133  1.7536
 7288SOL    HW233327   0.872   2.967   3.145  0.5825 -0.3299 -0.0624
 7289SOL     OW33328   4.167   0.711   2.426 -0.1314  0.1213  0.3200
 7289SOL    HW133329   4.195   0.637   2.480  2.5614  0.7677 -0.2148
 7289SOL    HW233330   4.072   0.700   2.421 -0.4271  2.2045  1.3702
 7290SOL     OW33331   4.648   2.697   0.992 -0.6243 -0.5774  0.6237
 7290SOL    HW133332   4.615   2.774   1.037  1.3900 -0.9700  2.7663
 7290SOL    HW233333   4.562   2.656   0.979 -1.5783  1.2949  1.0280
 7291SOL     OW33334   2.440   2.904   0.410 -0.4665  0.2589  0.2130
 7291SOL    HW133335   2.399   2.952   0.338  0.6106  0.5479 -0.2096
 7291SOL    HW233336   2.406   2.943   0.490 -1.0272  1.0040 -0.3839
 7292SOL     OW33337   1.172   1.171   4.773 -0.3547 -0.2486  0.0805
 7292SOL    HW133338   1.185   1.097   4.832  1.8037 -0.5904 -0.8515
 7292SOL    HW233339   1.255   1.216   4.791  0.2434 -0.8874 -1.1555
 7293SOL     OW33340   1.840   0.080  14.221 -0.2670  0.0336  0.6870
 7293SOL    HW133341   1.921   0.073  14.170  0.4440  0.6527  1.7349
 7293SOL    HW233342   1.832   0.175  14.222  1.5461  0.1874  1.0991
 7294SOL     OW33343   0.882   1.736   0.764  0.1687  0.1928 -0.2623
 7294SOL    HW133344   0.941   1.786   0.708  2.5947 -3.2147 -0.7601
 7294SOL    HW233345   0.934   1.717   0.843 -1.6014 -0.1436  0.8204
 7295SOL     OW33346   1.324   2.404  14.491 -0.3760  0.0795  0.1729
 7295SOL    HW133347   1.392   2.450  14.441 -0.1093 -0.3559  0.1395
 7295SOL    HW233348   1.252   2.397  14.428  0.4376  0.9567 -0.8666
 7296SOL     OW33349   3.232   4.209   4.467  0.0114  0.3821 -0.0063
 7296SOL    HW133350   3.147   4.185   4.431  1.3231 -2.1884 -1.3938
 7296SOL    HW233351   3.230   4.300   4.435  2.0639  0.4228 -0.0338
 7297SOL     OW33352   0.054   2.711   7.959  1.2043  0.0653  0.1067
 7297SOL    HW133353   0.049   2.807   7.960 -0.0552  0.0294 -2.6063
 7297SOL    HW233354   0.098   2.701   7.875 -1.2681  1.6723 -1.3848
 7298SOL     OW33355   1.776   3.670   3.421  0.3230  0.5810 -0.2070
 7298SOL    HW133356   1.828   3.749   3.409  0.1561  0.6587 -0.4254
 7298SOL    HW233357   1.737   3.653   3.335 -0.8742  1.0454  0.2482
 7299SOL     OW33358   1.635   4.045  12.566  0.4004 -0.2178  0.3894
 7299SOL    HW133359   1.731   4.038  12.560  0.3878 -1.2330  1.2465
 7299SOL    HW233360   1.632   4.116  12.630  0.1990  2.2528 -2.4068
 7300SOL     OW33361   2.292   3.767   2.097  0.4266 -0.7579 -0.1037
 7300SOL    HW133362   2.373   3.801   2.136 -1.3109  0.0255  2.7679
 7300SOL    HW233363   2.326   3.744   2.010  1.1360  3.1413 -0.8755
 7301SOL     OW33364   1.663   0.427  14.976 -0.2633  0.5874 -0.0084
 7301SOL    HW133365   1.721   0.351  14.963  0.4502  0.8236  1.8228
 7301SOL    HW233366   1.731   0.493  14.964 -1.2208  1.7942  1.2801
 7302SOL     OW33367   2.764   1.699   5.041  0.1143 -0.2854 -0.4717
 7302SOL    HW133368   2.750   1.624   4.983  0.4917 -0.6985 -0.0294
 7302SOL    HW233369   2.689   1.687   5.100 -0.2376  0.5057 -0.7632
 7303SOL     OW33370   2.633   3.719  15.126  0.5269  0.0837  1.2527
 7303SOL    HW133371   2.682   3.749  15.050  0.9233  0.4751  1.6672
 7303SOL    HW233372   2.569   3.666  15.077  0.7089  0.6259  0.4472
 7304SOL     OW33373   3.613   2.929   0.667 -0.2523  0.1408 -0.1876
 7304SOL    HW133374   3.603   3.024   0.668  0.5157  0.2216  0.0761
 7304SOL    HW233375   3.611   2.910   0.573  0.9538  1.1088 -0.4198
 7305SOL     OW33376   2.877   0.947   7.513 -0.0019  0.2643 -0.5583
 7305SOL    HW133377   2.809   0.921   7.452 -0.1497 -0.7904  0.0582
 7305SOL    HW233378   2.821   0.973   7.587  0.8354  2.0256 -0.5345
 7306SOL     OW33379   4.347   1.818   5.550 -0.0900 -0.5955  0.3240
 7306SOL    HW133380   4.316   1.876   5.620 -1.9963  0.3522 -1.2957
 7306SOL    HW233381   4.378   1.884   5.487 -0.4559 -0.8684 -0.1378
 7307SOL     OW33382   4.296   1.706   7.195 -0.2162 -0.1139 -0.5922
 7307SOL    HW133383   4.358   1.700   7.267 -0.5825 -0.9672 -0.3468
 7307SOL    HW233384   4.237   1.774   7.229 -1.1094 -0.6242 -1.1219
 7308SOL     OW33385   1.302   0.917   4.222 -0.2338 -0.0826 -0.6117
 7308SOL    HW133386   1.222   0.872   4.251  0.4952 -0.3773  0.9017
 7308SOL    HW233387   1.330   0.862   4.149 -0.8221 -1.5716  0.2935
 7309SOL     OW33388   1.746   3.782   0.425 -0.6392  0.3159 -0.3071
 7309SOL    HW133389   1.771   3.692   0.408  0.2637  0.9889 -2.6045
 7309SOL    HW233390   1.832   3.819   0.406  0.4235 -0.3082  3.4683
 7310SOL     OW33391   2.351   2.650   3.145 -0.2180  0.0700 -0.0047
 7310SOL    HW133392   2.356   2.707   3.221  0.4114  0.6962 -0.5062
 7310SOL    HW233393   2.393   2.570   3.177 -0.9838 -1.6093 -3.1136
 7311SOL     OW33394   3.446   4.462   7.907  0.2030  0.0673 -0.4122
 7311SOL    HW133395   3.466   4.380   7.953 -4.0783 -1.3832 -1.1050
 7311SOL    HW233396   3.472   4.449   7.816  0.3648  0.2577 -0.3931
 7312SOL     OW33397   4.570   2.433   2.080  0.3438 -1.2811 -0.2191
 7312SOL    HW133398   4.567   2.355   2.024 -0.7198 -0.0065 -1.9130
 7312SOL    HW233399   4.638   2.485   2.037  0.3470 -1.4677 -0.4400
 7313SOL     OW33400   0.939   0.343   6.285  0.2270  0.7875 -0.0640
 7313SOL    HW133401   1.003   0.278   6.255  0.0719  0.0482  1.2233
 7313SOL    HW233402   0.961   0.420   6.233  0.5631  1.0319  0.4393
 7314SOL     OW33403   2.073   4.186   3.209  0.6611 -0.1262 -0.3999
 7314SOL    HW133404   2.078   4.121   3.139 -0.0240 -1.4093  0.7252
 7314SOL    HW233405   2.162   4.221   3.202  1.7312 -2.8516 -0.3887
 7315SOL     OW33406   1.664   1.865   0.347  0.5227 -0.0609 -0.3523
 7315SOL    HW133407   1.629   1.953   0.332  1.1848  0.3820  0.7307
 7315SOL    HW233408   1.581   1.822   0.367 -1.5706  2.1752 -4.1019
 7316SOL     OW33409   2.437   0.951   7.258 -0.2308 -0.2844 -0.4014
 7316SOL    HW133410   2.440   1.002   7.339  1.1303 -0.6762 -0.2038
 7316SOL    HW233411   2.356   0.901   7.267 -1.7877  1.7356 -3.4319
 7317SOL     OW33412   1.774   0.753   9.217 -0.0669  0.4189 -0.2391
 7317SOL    HW133413   1.795   0.662   9.241 -2.0662 -0.1202 -0.4754
 7317SOL    HW233414   1.787   0.809   9.293 -1.6782 -1.3301  1.3393
 7318SOL     OW33415   0.298   0.992   7.098  0.3741  0.3826  0.5693
 7318SOL    HW133416   0.206   0.985   7.073  0.4027  0.9708  0.2976
 7318SOL    HW233417   0.338   0.948   7.023  1.2864 -0.6970  1.6939
 7319SOL     OW33418   3.212   2.234   2.289 -0.0353 -0.0920 -0.4123
 7319SOL    HW133419   3.154   2.209   2.217 -1.0418  1.6085 -0.1845
 7319SOL    HW233420   3.186   2.181   2.365  0.2650 -0.1124 -0.3244
 7320SOL     OW33421   0.321   2.056  10.073  0.1709  0.4352 -0.1060
 7320SOL    HW133422   0.393   2.031  10.014 -1.3775 -0.9553 -1.4093
 7320SOL    HW233423   0.250   1.994  10.055  2.5260 -1.6927 -2.0308
 7321SOL     OW33424   2.455   2.928   5.655  0.1491  0.1892  0.2097
 7321SOL    HW133425   2.523   2.903   5.592  0.3346 -0.2511  0.5899
 7321SOL    HW233426   2.417   2.841   5.668  2.6118 -0.9251  0.0211
 7322SOL     OW33427   2.381   2.262   9.950 -0.3694  0.3121 -0.2825
 7322SOL    HW133428   2.353   2.216  10.030  1.3545  0.3177  0.3117
 7322SOL    HW233429   2.464   2.301   9.976 -0.6253  1.0585 -0.5823
 7323SOL     OW33430   0.915   1.196   2.707 -0.3338  0.3525 -0.0907
 7323SOL    HW133431   0.884   1.254   2.638 -0.1705 -0.2350 -0.6648
 7323SOL    HW233432   1.007   1.220   2.713 -0.4126  0.4568  0.6947
 7324SOL     OW33433   4.430   2.088   3.714 -0.2504 -0.5130 -0.3854
 7324SOL    HW133434   4.455   1.997   3.727 -1.2884 -0.9002 -1.0850
 7324SOL    HW233435   4.443   2.118   3.804  1.3664 -0.5439 -0.6022
 7325SOL     OW33436   0.574   3.175   2.747 -0.5991 -0.4404 -0.3701
 7325SOL    HW133437   0.548   3.130   2.667 -0.7186  2.1645 -1.7946
 7325SOL    HW233438   0.490   3.212   2.773 -0.9182 -1.0033 -0.5983
 7326SOL     OW33439   4.116   3.196   4.018 -0.8417 -0.0106 -0.2903
 7326SOL    HW133440   4.137   3.156   4.103  3.0435 -2.3900 -2.3784
 7326SOL    HW233441   4.088   3.114   3.976  0.1111  0.7040 -2.3143
 7327SOL     OW33442   0.171   4.568  15.011  0.3989  0.0758  0.1998
 7327SOL    HW133443   0.203   4.628  14.944  0.9618 -1.6615 -1.0529
 7327SOL    HW233444   0.088   4.541  14.973  0.1133 -0.9089  1.5206
 7328SOL     OW33445   3.985   1.484   8.137 -0.7452  0.4418  0.6269
 7328SOL    HW133446   3.998   1.504   8.230  0.0793  0.7700  0.4365
 7328SOL    HW233447   3.917   1.417   8.143 -1.2660  0.8127 -1.4589
 7329SOL     OW33448   3.400   1.551   0.177 -0.3633 -0.7138 -0.5676
 7329SOL    HW133449   3.360   1.470   0.209 -1.6543 -0.2749 -1.0822
 7329SOL    HW233450   3.328   1.604   0.212 -2.1439 -3.1224 -0.5888
 7330SOL     OW33451   3.959   3.008   5.074  0.2757  0.3111  0.1605
 7330SOL    HW133452   3.928   3.066   5.005  0.8580  0.8329  0.3447
 7330SOL    HW233453   3.931   2.928   5.029  0.3976 -0.1441  0.8848
 7331SOL     OW33454   4.279   1.563   5.491  0.4424 -0.7197  0.0156
 7331SOL    HW133455   4.282   1.654   5.522 -1.1120 -0.6876  0.0981
 7331SOL    HW233456   4.201   1.539   5.541 -0.2942 -1.1172 -1.3213
 7332SOL     OW33457   1.510   3.434   4.704 -0.3258  0.2618 -0.0968
 7332SOL    HW133458   1.508   3.357   4.761 -0.0297 -0.4962 -1.1149
 7332SOL    HW233459   1.596   3.418   4.664 -0.4042 -3.0366  0.9910
 7333SOL     OW33460   1.823   0.245   3.892  0.2687 -0.1166 -0.0648
 7333SOL    HW133461   1.842   0.162   3.935  0.7650 -0.0259 -0.1151
 7333SOL    HW233462   1.867   0.304   3.953 -0.8665  2.1356 -1.3941
 7334SOL     OW33463   0.728   3.859  14.018 -0.3989  0.0181 -0.0794
 7334SOL    HW133464   0.788   3.795  13.980 -0.8756  1.2570 -2.9217
 7334SOL    HW233465   0.748   3.931  13.958  0.3172  1.7736  2.2729
 7335SOL     OW33466   3.206   4.278   9.393 -0.4455  0.2508  0.3952
 7335SOL    HW133467   3.272   4.311   9.332 -0.5027  1.5390  1.0230
 7335SOL    HW233468   3.149   4.354   9.406 -0.5531 -0.0223  1.5744
 7336SOL     OW33469   2.512   4.306   4.323  0.2064 -0.2263  0.4653
 7336SOL    HW133470   2.538   4.297   4.231  0.5660 -0.6059  0.6043
 7336SOL    HW233471   2.525   4.216   4.354  0.7056 -0.6307 -0.9179
 7337SOL     OW33472   3.458   2.476  15.800  0.6305 -0.4385  0.1306
 7337SOL    HW133473   3.362   2.478  15.806  0.6214  0.9672 -0.5721
 7337SOL    HW233474   3.488   2.498  15.888 -1.9199 -1.2532  1.2137
 7338SOL     OW33475   1.541   0.555   7.442  0.2322  0.5777  0.2524
 7338SOL    HW133476   1.554   0.465   7.412 -0.9800  0.5979 -0.3763
 7338SOL    HW233477   1.455   0.574   7.404  0.5816  0.1267 -0.7718
 7339SOL     OW33478   1.473   1.794   6.030 -0.1093  0.4104  0.3028
 7339SOL    HW133479   1.396   1.839   6.064  0.8386  0.2180  2.6898
 7339SOL    HW233480   1.500   1.873   5.983  0.6586 -0.4731 -0.7443
 7340SOL     OW33481   3.785   2.307   2.628  0.1709  0.6679 -0.4873
 7340SOL    HW133482   3.868   2.265   2.651  0.3447  1.0563 -0.4017
 7340SOL    HW233483   3.731   2.234   2.659 -0.9418  1.2058 -1.1616
 7341SOL     OW33484   3.844   0.921  14.319 -0.1952  0.2926 -0.3913
 7341SOL    HW133485   3.886   0.882  14.243  4.5019  2.9706  0.8773
 7341SOL    HW233486   3.849   0.849  14.382  2.8212  0.6684 -0.1979
 7342SOL     OW33487   2.329   4.264   4.587  0.1938  0.0964  0.2330
 7342SOL    HW133488   2.376   4.222   4.659  1.0402 -0.5269 -0.6977
 7342SOL    HW233489   2.379   4.234   4.512  0.5131 -0.4088  0.6474
 7343SOL     OW33490   2.412   4.279   7.864 -0.3830  0.2863 -0.2466
 7343SOL    HW133491   2.460   4.236   7.934  0.4489 -0.2593 -1.1540
 7343SOL    HW233492   2.473   4.344   7.830 -1.7740  0.6081 -2.1289
 7344SOL     OW33493   0.989   0.284   3.564 -0.2444 -0.6802 -0.5754
 7344SOL    HW133494   0.987   0.320   3.475 -0.4215  1.5946  0.3420
 7344SOL    HW233495   1.081   0.303   3.579 -1.0049  2.8467 -0.2519
 7345SOL     OW33496   3.270   0.703   6.410 -0.0079 -0.2213 -0.0370
 7345SOL    HW133497   3.344   0.647   6.433  2.0030  2.5841  0.3079
 7345SOL    HW233498   3.232   0.729   6.494 -1.1355 -0.8901 -0.3419
 7346SOL     OW33499   2.586   0.211   5.339  0.8276  0.4643 -0.0963
 7346SOL    HW133500   2.638   0.228   5.260 -1.7790  0.9403 -1.7393
 7346SOL    HW233501   2.558   0.124   5.311 -2.1527  1.1480  0.7159
 7347SOL     OW33502   2.134   1.092   1.298 -0.0059  0.0612  0.0679
 7347SOL    HW133503   2.158   1.160   1.235  2.3957  0.2136  1.1597
 7347SOL    HW233504   2.198   1.092   1.369  1.6264 -0.9625 -1.4144
 7348SOL     OW33505   1.991   0.898   6.769  0.2219 -0.0410 -0.2683
 7348SOL    HW133506   1.923   0.875   6.705 -1.1274 -0.1950  1.2257
 7348SOL    HW233507   1.964   0.858   6.851 -0.2748  1.4117  0.2775
 7349SOL     OW33508   4.102   2.427   7.617 -0.2127  0.5026 -0.4861
 7349SOL    HW133509   4.091   2.488   7.545 -0.1258 -0.5236 -1.3661
 7349SOL    HW233510   4.032   2.364   7.602 -1.2238  1.6105 -0.4534
 7350SOL     OW33511   4.464   1.516   6.073 -0.1275  0.2995  0.1909
 7350SOL    HW133512   4.484   1.564   5.993  1.2985  1.3295  1.1599
 7350SOL    HW233513   4.470   1.569   6.152 -1.0630 -2.5726  2.2031
 7351SOL     OW33514   4.036   2.809   7.289  0.8358 -0.6901  0.2861
 7351SOL    HW133515   4.108   2.840   7.234 -0.1493  0.1645 -0.5419
 7351SOL    HW233516   3.990   2.890   7.309  0.5388 -0.8456  0.2422
 7352SOL     OW33517   0.020   1.417   6.141  0.6831  0.4617  0.5374
 7352SOL    HW133518   0.080   1.374   6.080  3.3025  2.7684  1.4722
 7352SOL    HW233519   4.653   1.400   6.109  0.2618  0.8497  1.4843
 7353SOL     OW33520   4.425   2.879   0.465 -0.3154 -0.2999 -0.0028
 7353SOL    HW133521   4.510   2.836   0.455  1.0203  2.5720 -1.2177
 7353SOL    HW233522   4.456   2.969   0.458  0.6027 -0.6397 -0.2707
 7354SOL     OW33523   3.773   0.529   4.104 -0.1948 -0.1292 -0.1435
 7354SOL    HW133524   3.753   0.582   4.027 -2.4605  0.3189  0.7449
 7354SOL    HW233525   3.795   0.443   4.069 -1.1127 -0.0090 -1.0120
 7355SOL     OW33526   4.247   1.849   4.815  0.0305  0.0867 -0.0729
 7355SOL    HW133527   4.254   1.786   4.887 -0.4194 -0.1947 -0.2733
 7355SOL    HW233528   4.333   1.852   4.775 -0.5160  1.3784 -1.1231
 7356SOL     OW33529   0.447   3.729   6.629  0.1535  1.0697 -0.2970
 7356SOL    HW133530   0.417   3.816   6.600 -1.9042 -0.6378 -3.3108
 7356SOL    HW233531   0.490   3.758   6.709  1.6260  1.6691 -1.2995
 7357SOL     OW33532   2.299   2.009   7.248  0.6355 -0.0747 -0.7289
 7357SOL    HW133533   2.394   2.014   7.253  0.5469  1.4980 -0.5335
 7357SOL    HW233534   2.300   1.955   7.169  2.5110 -0.3483 -0.5084
 7358SOL     OW33535   1.697   1.593   3.152  0.0180 -0.1770 -0.2489
 7358SOL    HW133536   1.776   1.543   3.133  1.3231  0.2468  3.9613
 7358SOL    HW233537   1.715   1.672   3.101 -0.7050  0.7314  0.8968
 7359SOL     OW33538   0.870   1.169  10.877  0.8169  0.2601 -0.6077
 7359SOL    HW133539   0.875   1.136  10.966  2.7416  2.2036  0.0035
 7359SOL    HW233540   0.961   1.190  10.857  0.7479  0.7106 -0.4504
 7360SOL     OW33541   1.287   0.457   4.534  0.0402  0.0569  0.5205
 7360SOL    HW133542   1.325   0.513   4.467 -1.2674 -0.5054 -0.6953
 7360SOL    HW233543   1.334   0.374   4.527 -1.8598 -0.9807 -0.1703
 7361SOL     OW33544   0.058   3.188  13.494 -0.3349  0.3870  0.1955
 7361SOL    HW133545   4.696   3.146  13.472  0.1275 -0.9960  1.0402
 7361SOL    HW233546   0.116   3.112  13.505 -0.2593  0.3878 -0.2110
 7362SOL     OW33547   2.015   2.963   2.178 -0.0901 -0.4449  0.6181
 7362SOL    HW133548   2.037   3.020   2.104  0.6213 -1.3936  0.0978
 7362SOL    HW233549   1.996   2.882   2.129 -2.2346  0.6322 -0.3103
 7363SOL     OW33550   3.983   4.328   1.667 -0.0028 -0.9388 -0.4287
 7363SOL    HW133551   3.965   4.405   1.721 -0.3525 -0.3961 -1.3133
 7363SOL    HW233552   4.058   4.284   1.706  0.9393  0.5553 -0.5323
 7364SOL     OW33553   4.583   0.160   4.160 -0.2653  0.2086 -0.5626
 7364SOL    HW133554   4.630   0.087   4.200 -1.3816 -0.9525 -1.3590
 7364SOL    HW233555   4.511   0.156   4.222 -1.2979 -0.4073 -1.7953
 7365SOL     OW33556   3.300   0.607  16.318  0.1198  0.9404  0.0681
 7365SOL    HW133557   3.223   0.557  16.289 -0.7338  1.9208  0.6597
 7365SOL    HW233558   3.295   0.605  16.413 -0.4234 -2.1830 -0.0237
 7366SOL     OW33559   1.147   0.789   2.372 -0.2520 -0.1845  0.0842
 7366SOL    HW133560   1.205   0.761   2.443 -0.8243  0.0732  0.6493
 7366SOL    HW233561   1.202   0.848   2.320  1.0698 -0.2222  1.4565
 7367SOL     OW33562   3.376   1.806   3.162 -0.2956 -0.0228  0.5168
 7367SOL    HW133563   3.364   1.823   3.256  0.1184  2.1475  0.1606
 7367SOL    HW233564   3.338   1.890   3.139  2.8030  0.8293 -1.4166
 7368SOL     OW33565   3.756   0.186   3.006 -0.0611 -0.2220 -0.7147
 7368SOL    HW133566   3.682   0.167   3.064  0.8883  0.0303  0.5862
 7368SOL    HW233567   3.715   0.253   2.952 -0.3266  0.0354 -0.1900
 7369SOL     OW33568   4.383   0.603   7.793 -0.6720  0.2859  0.7320
 7369SOL    HW133569   4.304   0.645   7.828 -1.2369 -0.4904  0.3885
 7369SOL    HW233570   4.386   0.650   7.710 -0.1968 -0.8964  0.0898
 7370SOL     OW33571   2.600   2.588   7.241  0.1490  0.4242  0.2403
 7370SOL    HW133572   2.639   2.675   7.248 -0.3233  0.5517  1.3801
 7370SOL    HW233573   2.508   2.611   7.233  0.0293  0.0300  0.4626
 7371SOL     OW33574   1.207   3.905   2.125  0.3228 -0.0378  0.2763
 7371SOL    HW133575   1.289   3.902   2.174  1.4846  0.2665 -1.6731
 7371SOL    HW233576   1.175   3.815   2.133  0.9079 -0.4568 -2.2250
 7372SOL     OW33577   1.932   0.537  14.959  0.4307  0.3924 -0.3751
 7372SOL    HW133578   2.001   0.580  15.008 -1.1945  1.5959  0.8615
 7372SOL    HW233579   1.939   0.587  14.878  0.6328  1.5750  0.3756
 7373SOL     OW33580   2.903   1.759   4.484 -0.2936  0.1450  0.3125
 7373SOL    HW133581   2.900   1.758   4.579  0.5557  0.9326  0.3509
 7373SOL    HW233582   2.823   1.807   4.463 -2.0043 -2.0527  1.9240
 7374SOL     OW33583   1.421   3.345   4.098 -0.4142  1.1431 -0.1057
 7374SOL    HW133584   1.410   3.273   4.035 -2.2857  1.4574 -0.1540
 7374SOL    HW233585   1.335   3.337   4.139 -1.2660 -2.2301 -2.5276
 7375SOL     OW33586   2.721   0.994   5.124 -0.3852  0.0398  0.2137
 7375SOL    HW133587   2.627   0.986   5.109 -0.4704 -0.7139  1.2159
 7375SOL    HW233588   2.701   1.016   5.215 -2.2438 -1.5001  0.1824
 7376SOL     OW33589   4.334   2.861   3.186  0.1589 -0.0656  0.1672
 7376SOL    HW133590   4.291   2.812   3.117 -0.7336  1.5949 -0.4693
 7376SOL    HW233591   4.404   2.906   3.138  1.9284 -1.3389  1.5328
 7377SOL     OW33592   2.548   0.016   6.614  0.1831  0.0605  0.2112
 7377SOL    HW133593   2.590   0.069   6.547 -0.1000  0.6320  0.4897
 7377SOL    HW233594   2.527   4.658   6.563 -0.6214  0.6235 -0.3348
 7378SOL     OW33595   3.285   1.168   6.617  0.2211 -0.4443 -0.0063
 7378SOL    HW133596   3.254   1.166   6.707  2.8850 -3.8905  0.8444
 7378SOL    HW233597   3.246   1.248   6.582  0.4932 -1.2264 -2.0955
 7379SOL     OW33598   3.674   2.577   8.166 -0.3548  0.3533  0.2252
 7379SOL    HW133599   3.748   2.517   8.154 -0.4529  0.4722 -0.9630
 7379SOL    HW233600   3.717   2.653   8.206 -0.6419  0.7494 -0.2174
 7380SOL     OW33601   0.339   0.257   0.914  0.0507  0.2116  0.4302
 7380SOL    HW133602   0.254   0.302   0.910  0.6618  1.2529 -0.7795
 7380SOL    HW233603   0.392   0.284   0.839  2.8828 -0.3982  2.1974
 7381SOL     OW33604   1.806   2.759   6.628 -0.0367 -0.5819  0.0818
 7381SOL    HW133605   1.852   2.819   6.569  1.3210  0.2222  1.9425
 7381SOL    HW233606   1.720   2.801   6.621 -0.6912 -1.9751 -0.1948
 7382SOL     OW33607   4.180   2.124   6.874  0.1125 -0.5359 -0.4454
 7382SOL    HW133608   4.090   2.126   6.907  0.9164  1.0608  1.6643
 7382SOL    HW233609   4.220   2.047   6.914 -0.6981 -0.6882  0.0740
 7383SOL     OW33610   3.347   1.133   9.692  0.1921  0.2733  0.2382
 7383SOL    HW133611   3.407   1.076   9.645  0.3084  1.0029 -0.5113
 7383SOL    HW233612   3.389   1.218   9.679  0.3230  0.2898  0.7689
 7384SOL     OW33613   1.950   4.402  10.245  0.1903  0.7577 -0.3204
 7384SOL    HW133614   1.905   4.381  10.163  1.5339 -1.4354 -0.4762
 7384SOL    HW233615   1.985   4.317  10.268 -0.3021 -0.0451 -2.5050
 7385SOL     OW33616   4.603   1.482  15.394 -0.0371 -0.0132  0.4609
 7385SOL    HW133617   4.660   1.417  15.437 -1.6255 -1.9523 -0.3574
 7385SOL    HW233618   4.597   1.554  15.456  0.1700  1.0791 -0.7882
 7386SOL     OW33619   1.227   3.359   9.156  0.3519 -0.3373 -0.5674
 7386SOL    HW133620   1.172   3.300   9.103  2.7680 -0.2091 -3.2047
 7386SOL    HW233621   1.303   3.302   9.163  0.9837  0.8527  1.9849
 7387SOL     OW33622   4.544   0.217   5.053 -0.0459  0.6721 -0.0728
 7387SOL    HW133623   4.461   0.222   5.005 -1.8628 -1.0690  2.8016
 7387SOL    HW233624   4.586   0.299   5.031 -1.0062  1.0987 -0.3251
 7388SOL     OW33625   2.332   1.315   2.691  0.5408 -0.5150  0.3238
 7388SOL    HW133626   2.289   1.315   2.776  0.6492  0.8570  0.3895
 7388SOL    HW233627   2.399   1.251   2.715  1.5953  0.6490  0.5386
 7389SOL     OW33628   4.341   3.509   7.769  0.4323 -0.3231 -0.1540
 7389SOL    HW133629   4.405   3.576   7.747 -0.0491 -0.4310 -1.9469
 7389SOL    HW233630   4.275   3.535   7.705  1.3923 -0.6538 -1.3028
 7390SOL     OW33631   4.206   0.427   1.131 -0.0553 -0.5036 -0.3316
 7390SOL    HW133632   4.245   0.458   1.213 -3.8263  3.2773  0.0075
 7390SOL    HW233633   4.239   0.337   1.135  0.1922 -0.3781  0.4711
 7391SOL     OW33634   1.505   2.488  12.391 -0.2456 -0.4090 -0.8575
 7391SOL    HW133635   1.455   2.458  12.315 -2.6701 -0.0296  0.5980
 7391SOL    HW233636   1.465   2.571  12.418 -0.0129 -0.8382  0.7693
 7392SOL     OW33637   1.442   2.521  11.402  0.8933  0.0080  0.2360
 7392SOL    HW133638   1.409   2.602  11.362  0.1482  0.7298  2.3140
 7392SOL    HW233639   1.420   2.522  11.495 -1.5671 -4.0040 -0.2971
 7393SOL     OW33640   4.397   3.442   5.782  0.8311  0.0919  0.3146
 7393SOL    HW133641   4.440   3.521   5.815 -0.4400  0.5315  0.9174
 7393SOL    HW233642   4.452   3.409   5.711  1.0839  1.2841 -0.0470
 7394SOL     OW33643   4.485   0.068   6.373 -0.3358 -0.4881 -0.7930
 7394SOL    HW133644   4.413   0.021   6.332 -0.2239 -2.2665  1.0528
 7394SOL    HW233645   4.528   4.716   6.417 -0.7144  0.2613  0.8400
 7395SOL     OW33646   4.327   3.434   4.059 -0.5455  0.1038  0.1624
 7395SOL    HW133647   4.378   3.362   4.097 -1.9099 -1.0907 -0.2480
 7395SOL    HW233648   4.245   3.417   4.105  0.3938 -0.4413  1.6263
 7396SOL     OW33649   1.010   3.082  16.726 -0.6280  0.6862  0.1788
 7396SOL    HW133650   1.078   3.146  16.711  0.3933 -0.6134 -0.7285
 7396SOL    HW233651   0.952   3.104  16.653  2.0297 -1.4050 -2.5648
 7397SOL     OW33652   2.972   3.560   8.238 -0.1223 -0.2663 -0.0447
 7397SOL    HW133653   2.928   3.527   8.316 -1.3536  2.7791  0.5369
 7397SOL    HW233654   2.910   3.559   8.166  2.4882 -0.8511 -2.2862
 7398SOL     OW33655   2.935   3.538   6.599 -0.0698  0.3727 -0.1187
 7398SOL    HW133656   2.997   3.476   6.562 -2.3697 -1.3538 -1.0379
 7398SOL    HW233657   2.976   3.550   6.685 -0.9885  0.7697  0.2565
 7399SOL     OW33658   1.366   2.745  12.385  0.9749  0.0221 -0.4539
 7399SOL    HW133659   1.357   2.808  12.456  0.1604 -0.8957  0.2510
 7399SOL    HW233660   1.323   2.792  12.313  2.7407 -1.7353 -2.6532
 7400SOL     OW33661   2.495   2.070   2.249 -0.0465 -0.4239  0.3649
 7400SOL    HW133662   2.575   2.113   2.220 -0.0362 -1.2819 -0.8884
 7400SOL    HW233663   2.430   2.139   2.237 -0.7536 -1.3839 -1.3872
 7401SOL     OW33664   2.433   3.094   0.201  0.0140  0.4928 -0.0906
 7401SOL    HW133665   2.419   3.059   0.113 -0.4274 -0.1409  0.2245
 7401SOL    HW233666   2.489   3.170   0.190 -0.2461  0.6496 -0.3289
 7402SOL     OW33667   1.397   1.110  14.762 -0.2199  0.1505  0.4331
 7402SOL    HW133668   1.449   1.191  14.758 -2.7689  1.7225 -0.8430
 7402SOL    HW233669   1.422   1.067  14.680  3.7932  1.3638  1.0005
 7403SOL     OW33670   4.485   0.294   6.719  0.5379 -0.3965  0.1824
 7403SOL    HW133671   4.577   0.308   6.701  0.3678  0.3994 -0.0458
 7403SOL    HW233672   4.444   0.347   6.651  0.0571  0.5910  1.2543
 7404SOL     OW33673   3.379   0.428   4.810 -0.5042 -0.5914 -0.1072
 7404SOL    HW133674   3.395   0.360   4.876  0.8494  0.2230  0.3927
 7404SOL    HW233675   3.413   0.501   4.861 -0.2926 -1.6018  1.2066
 7405SOL     OW33676   2.855   0.860   8.056 -0.5599  0.2758 -0.3743
 7405SOL    HW133677   2.912   0.789   8.087 -0.3629 -0.2206 -1.8837
 7405SOL    HW233678   2.919   0.930   8.047  0.8130 -0.7954  0.9638
 7406SOL     OW33679   1.191   0.758   7.710 -0.2388  0.0620 -0.2159
 7406SOL    HW133680   1.125   0.804   7.659  1.8543  1.4145 -1.7343
 7406SOL    HW233681   1.149   0.680   7.746 -1.3003  0.6235 -0.2550
 7407SOL     OW33682   1.509   2.597   7.414  0.1725  0.4306 -0.3580
 7407SOL    HW133683   1.591   2.591   7.464  0.2290  1.4675 -0.3378
 7407SOL    HW233684   1.466   2.511   7.418 -0.3396  0.7407  0.8156
 7408SOL     OW33685   2.587   1.154   5.593 -0.0358  0.2504  0.2364
 7408SOL    HW133686   2.656   1.210   5.557 -1.0807  0.7398 -1.0068
 7408SOL    HW233687   2.610   1.148   5.686  0.1579  0.0303  0.1733
 7409SOL     OW33688   0.045   1.743   0.865 -0.1597 -0.3944  0.0968
 7409SOL    HW133689   4.705   1.693   0.918  0.5736  1.6736  2.8570
 7409SOL    HW233690   0.114   1.765   0.927 -0.7106 -0.3147  0.6750
 7410SOL     OW33691   0.661   0.399   3.068  0.0788  0.5314 -0.1349
 7410SOL    HW133692   0.733   0.364   3.015 -0.3029  1.2201 -1.1129
 7410SOL    HW233693   0.596   0.333   3.045  1.7683 -1.1158 -0.2656
 7411SOL     OW33694   2.604   2.856   6.700  0.6052 -0.3569  0.2380
 7411SOL    HW133695   2.643   2.773   6.728  0.5406 -0.8118 -1.0060
 7411SOL    HW233696   2.601   2.838   6.606  0.7601 -1.0351  0.3656
 7412SOL     OW33697   0.754   1.197   1.147  0.2992 -0.5238  0.5916
 7412SOL    HW133698   0.830   1.168   1.096 -0.3828 -1.9571  0.3903
 7412SOL    HW233699   0.793   1.254   1.214  0.2083  0.2219  0.0142
 7413SOL     OW33700   4.660   0.541   7.781  0.4313  0.6330  0.3661
 7413SOL    HW133701   4.718   0.609   7.746  0.0406  1.6053  1.5755
 7413SOL    HW233702   4.573   0.580   7.789  0.3861  0.5241  0.4072
 7414SOL     OW33703   0.525   1.238  15.798 -0.2197 -0.2706  0.5252
 7414SOL    HW133704   0.496   1.320  15.760  0.5573 -1.2640 -2.1914
 7414SOL    HW233705   0.481   1.247  15.883  1.5505  1.8338  1.2042
 7415SOL     OW33706   0.252   4.104   3.108 -0.0187 -0.5380  0.4523
 7415SOL    HW133707   0.260   4.103   3.203  0.0566 -0.2361  0.4488
 7415SOL    HW233708   0.182   4.039   3.100 -0.6948  0.0854  1.4872
 7416SOL     OW33709   3.226   3.234  13.722  0.1779  0.1659 -0.6596
 7416SOL    HW133710   3.256   3.309  13.774 -0.0470 -0.7200  0.7440
 7416SOL    HW233711   3.134   3.252  13.707  0.0823  0.9761  0.8928
 7417SOL     OW33712   3.047   2.742   8.819 -0.0060  0.7391 -0.5969
 7417SOL    HW133713   3.109   2.688   8.867 -1.6188  0.3923  1.0665
 7417SOL    HW233714   3.056   2.821   8.873 -2.4804 -0.2777  1.2853
 7418SOL     OW33715   4.191   0.316  14.132 -0.5800 -0.5850 -0.1710
 7418SOL    HW133716   4.245   0.268  14.194  1.6073  0.0220 -1.5657
 7418SOL    HW233717   4.256   0.310  14.061 -1.7390  2.9410 -1.5686
 7419SOL     OW33718   3.919   1.236  11.072 -0.8617  0.3566 -0.2097
 7419SOL    HW133719   3.979   1.310  11.081  1.1136 -1.4182  1.2276
 7419SOL    HW233720   3.943   1.206  10.985 -2.1958 -0.5135 -0.2766
 7420SOL     OW33721   0.825   2.794   3.745  0.1087  0.3981  0.5479
 7420SOL    HW133722   0.869   2.812   3.662 -1.4202  0.0118 -0.3463
 7420SOL    HW233723   0.817   2.700   3.735  1.3383  0.1042  2.1686
 7421SOL     OW33724   1.262   2.625   7.263 -0.0672 -0.0127  0.4070
 7421SOL    HW133725   1.272   2.543   7.215 -2.9776 -1.8965  3.0588
 7421SOL    HW233726   1.343   2.631   7.314  0.6844 -0.4808 -0.7288
 7422SOL     OW33727   1.745   4.156  15.523  0.0049 -0.3093 -0.1896
 7422SOL    HW133728   1.775   4.134  15.611  0.7913 -4.4663 -1.4879
 7422SOL    HW233729   1.816   4.106  15.484 -0.9051 -0.4528 -1.6748
 7423SOL     OW33730   3.869   2.097   6.067 -0.2733 -0.4642  0.0957
 7423SOL    HW133731   3.905   2.111   6.155 -0.3380 -2.3950  0.4340
 7423SOL    HW233732   3.949   2.121   6.020 -0.1907  3.0971  2.0934
 7424SOL     OW33733   0.208   3.906   9.274 -0.0186 -0.0316  0.2461
 7424SOL    HW133734   0.279   3.898   9.210  0.1989  0.7702  0.3896
 7424SOL    HW233735   0.203   3.999   9.292  0.2136  0.2327 -1.0184
 7425SOL     OW33736   1.756   2.610   9.158  0.0024  0.1449  0.6781
 7425SOL    HW133737   1.840   2.651   9.175  0.5393 -0.2962 -0.9238
 7425SOL    HW233738   1.699   2.686   9.173 -1.6317 -0.5322 -2.0546
 7426SOL     OW33739   0.375   1.568   3.424  0.0208 -0.4304  0.2448
 7426SOL    HW133740   0.416   1.489   3.390  1.2937  0.8987 -1.2704
 7426SOL    HW233741   0.330   1.538   3.503 -0.3233 -1.3125 -0.2817
 7427SOL     OW33742   4.275   2.929   7.214  0.4132  0.4303  0.1684
 7427SOL    HW133743   4.326   2.849   7.200 -1.2284 -0.8265  1.3136
 7427SOL    HW233744   4.337   2.965   7.277  1.1980 -0.5665 -0.0331
 7428SOL     OW33745   2.283   3.667   3.286  0.6058 -0.0459  0.5331
 7428SOL    HW133746   2.337   3.717   3.348 -1.7329  2.7067  0.3390
 7428SOL    HW233747   2.269   3.737   3.222  1.4197 -0.9032 -0.5695
 7429SOL     OW33748   2.326   1.928   5.646 -0.4274  0.2485  0.4927
 7429SOL    HW133749   2.413   1.961   5.670 -0.1987 -0.0252  0.0382
 7429SOL    HW233750   2.354   1.850   5.597  1.4509  0.3783  1.3433
 7430SOL     OW33751   3.992   3.984  14.327 -0.0717 -0.3433 -0.1575
 7430SOL    HW133752   3.951   3.946  14.405 -0.1389  0.2672  0.1029
 7430SOL    HW233753   4.049   3.909  14.309  1.1613  0.0885  2.0209
 7431SOL     OW33754   0.148   0.661   0.355  0.0548  0.0370  0.0075
 7431SOL    HW133755   0.153   0.684   0.448 -0.8795 -0.7778  0.2679
 7431SOL    HW233756   0.163   0.744   0.309  3.0714  0.6898  2.1901
 7432SOL     OW33757   2.958   0.687   7.040  0.2711 -0.1143  0.0389
 7432SOL    HW133758   2.864   0.692   7.025  0.0670 -0.8679  1.1405
 7432SOL    HW233759   2.993   0.761   6.990  0.9626  1.5057  2.8730
 7433SOL     OW33760   2.308   2.569   8.974  0.1156 -1.3260  0.1354
 7433SOL    HW133761   2.393   2.525   8.972 -0.2581 -2.0074 -0.6420
 7433SOL    HW233762   2.252   2.502   8.935 -2.0683  1.0154 -0.7569
 7434SOL     OW33763   2.301   2.788   6.748  0.1686 -0.3038 -0.1232
 7434SOL    HW133764   2.304   2.729   6.673 -0.1557  2.4293 -2.2401
 7434SOL    HW233765   2.366   2.853   6.724 -1.9138  2.6543  2.0840
 7435SOL     OW33766   1.684   2.283   4.439 -0.3470 -0.2007  0.5356
 7435SOL    HW133767   1.773   2.251   4.455 -0.1940  0.1137  0.3099
 7435SOL    HW233768   1.648   2.206   4.395 -2.6714  1.2620 -0.1539
 7436SOL     OW33769   1.040   4.206  11.819  0.3320  0.3449  0.3563
 7436SOL    HW133770   1.094   4.145  11.770 -0.5481  0.3111 -0.5700
 7436SOL    HW233771   1.097   4.281  11.835 -0.5074  0.8996  0.8083
 7437SOL     OW33772   2.826   2.140   4.569  0.2835  0.2461 -0.2820
 7437SOL    HW133773   2.839   2.120   4.662  1.1288  1.0718 -0.2166
 7437SOL    HW233774   2.915   2.117   4.540  0.8084 -0.1277  1.6408
 7438SOL     OW33775   2.917   0.231  12.689  0.2305 -0.2031  0.2512
 7438SOL    HW133776   2.839   0.176  12.692 -1.2748  2.0127  2.6410
 7438SOL    HW233777   2.966   0.189  12.760 -0.4608 -2.7645 -0.7993
 7439SOL     OW33778   0.731   3.395   6.412  0.2936 -0.1938  0.2620
 7439SOL    HW133779   0.660   3.333   6.428 -1.1318  1.6044  0.8867
 7439SOL    HW233780   0.749   3.425   6.501  1.5453 -1.1808  0.3542
 7440SOL     OW33781   0.927   2.969   2.053  0.0203  0.1539  0.4083
 7440SOL    HW133782   0.977   2.959   2.134 -1.8039  1.2934  1.6526
 7440SOL    HW233783   0.873   3.046   2.070  0.0774  0.3298 -0.1934
 7441SOL     OW33784   3.169   1.009   6.011  0.7241 -0.1569  0.4803
 7441SOL    HW133785   3.203   0.951   6.079 -1.7294 -1.9954  0.1237
 7441SOL    HW233786   3.131   0.940   5.957 -0.2313  0.0186  0.9409
 7442SOL     OW33787   3.087   2.301   2.661  0.4254  0.0715  0.0498
 7442SOL    HW133788   3.094   2.372   2.725 -0.7566 -0.2891  0.5764
 7442SOL    HW233789   2.995   2.305   2.636  0.4841 -2.4502 -0.5894
 7443SOL     OW33790   2.278   3.671   2.892 -0.2314 -0.6986 -0.4310
 7443SOL    HW133791   2.352   3.633   2.845  0.5117 -0.7066  0.7666
 7443SOL    HW233792   2.230   3.594   2.922  0.2117 -0.4203  1.0010
 7444SOL     OW33793   3.739   3.631   1.093  0.4008  0.1354  0.5331
 7444SOL    HW133794   3.678   3.574   1.140  0.3422  0.6053  1.0301
 7444SOL    HW233795   3.749   3.574   1.017 -1.4703 -0.0908  0.4661
 7445SOL     OW33796   2.816   1.716   2.415  0.4508 -0.9824 -0.3991
 7445SOL    HW133797   2.864   1.708   2.333  1.3247 -1.1842  0.1357
 7445SOL    HW233798   2.763   1.637   2.423  0.3164 -0.6444  2.0391
 7446SOL     OW33799   0.242   2.661   7.752  0.0164  0.1088  0.3806
 7446SOL    HW133800   0.318   2.695   7.800  1.1518 -0.0153 -1.3209
 7446SOL    HW233801   0.268   2.665   7.660 -1.0475 -1.6306  0.0090
 7447SOL     OW33802   2.710   1.456  17.094  0.4715 -0.2609  0.2913
 7447SOL    HW133803   2.627   1.415  17.073 -0.1472  1.8215 -1.2967
 7447SOL    HW233804   2.684   1.548  17.104  1.8423  0.1593 -0.0335
 7448SOL     OW33805   0.206   1.341   6.549  0.0002 -0.1831 -0.3125
 7448SOL    HW133806   0.251   1.420   6.521  0.2263 -0.3488 -0.4184
 7448SOL    HW233807   0.274   1.284   6.514 -1.7455 -0.6154 -2.9818
 7449SOL     OW33808   3.985   0.521  13.987 -0.1947  0.4257 -0.0138
 7449SOL    HW133809   4.021   0.491  14.070  0.7646 -0.2298 -0.6756
 7449SOL    HW233810   4.066   0.513  13.936  0.8022 -0.2727  1.6803
 7450SOL     OW33811   3.840   4.678   2.830  0.1768 -0.7013 -0.1461
 7450SOL    HW133812   3.782   4.617   2.784  0.4288 -0.7813 -0.3567
 7450SOL    HW233813   3.784   4.713   2.900  0.6789  0.3842 -0.2926
 7451SOL     OW33814   3.750   2.537  10.606  0.2548 -0.3703 -0.4104
 7451SOL    HW133815   3.673   2.486  10.580  1.0997 -1.1451 -1.3817
 7451SOL    HW233816   3.813   2.465  10.613  0.5504 -0.0777 -0.0944
 7452SOL     OW33817   2.493   1.433  16.651 -0.8506  0.3096  0.3252
 7452SOL    HW133818   2.532   1.355  16.690  0.9027  0.2622 -1.5187
 7452SOL    HW233819   2.549   1.459  16.578 -2.3784  2.8707  0.0430
 7453SOL     OW33820   3.228   2.900   2.842  0.3592  0.0863  0.0568
 7453SOL    HW133821   3.269   2.902   2.928 -0.7177  0.8502  0.5386
 7453SOL    HW233822   3.303   2.915   2.783 -0.7801  0.5508 -1.2714
 7454SOL     OW33823   0.603   0.874   0.813  0.6613  0.4974  0.1444
 7454SOL    HW133824   0.578   0.889   0.904  1.9970 -0.5933  0.7034
 7454SOL    HW233825   0.580   0.959   0.775  0.6330  0.1387 -0.6542
 7455SOL     OW33826   1.026   0.557   6.124  0.2774 -0.6207 -0.2077
 7455SOL    HW133827   1.109   0.558   6.172  0.1829  0.9242 -0.0753
 7455SOL    HW233828   0.989   0.633   6.167 -1.3168 -3.9238  4.1871
 7456SOL     OW33829   0.930   2.374   7.587  0.2071  0.2242 -0.1536
 7456SOL    HW133830   0.866   2.435   7.551  2.1181  1.7467 -0.9470
 7456SOL    HW233831   0.866   2.327   7.641  0.0135  0.5855 -0.0686
 7457SOL     OW33832   3.984   1.266   8.828 -0.4643 -0.3867 -0.3321
 7457SOL    HW133833   4.057   1.324   8.848 -1.8231  0.4869  2.0987
 7457SOL    HW233834   3.929   1.331   8.785 -0.4773 -0.7236 -0.8249
 7458SOL     OW33835   1.135   2.623  13.051  0.3201 -0.2024  0.3807
 7458SOL    HW133836   1.124   2.718  13.045 -1.6819 -0.5924 -2.1152
 7458SOL    HW233837   1.183   2.600  12.971  1.7429  1.9679  0.6181
 7459SOL     OW33838   3.258   2.910   3.107  0.3731 -0.2528 -0.3415
 7459SOL    HW133839   3.266   2.826   3.152 -0.7249  0.9794  2.1701
 7459SOL    HW233840   3.164   2.919   3.096  0.1861  1.5709  2.7874
 7460SOL     OW33841   1.901   4.014  11.073 -0.6768 -0.1506 -0.5720
 7460SOL    HW133842   1.994   4.027  11.052 -1.2740  2.8834 -1.3549
 7460SOL    HW233843   1.867   4.088  11.123  1.5006  1.2700 -1.2198
 7461SOL     OW33844   4.405   2.301   6.936 -0.2169  0.3279  0.0209
 7461SOL    HW133845   4.329   2.244   6.925  1.0689 -0.8000 -3.0138
 7461SOL    HW233846   4.467   2.239   6.898 -0.5087  1.4622 -2.3363
 7462SOL     OW33847   2.460   1.210   7.715  0.2514 -0.1276 -0.6167
 7462SOL    HW133848   2.534   1.268   7.696 -0.3923  0.8277 -0.1629
 7462SOL    HW233849   2.468   1.216   7.810 -2.0656 -0.1766 -0.4357
 7463SOL     OW33850   3.604   0.472   5.942 -0.0875  0.1721 -0.2452
 7463SOL    HW133851   3.560   0.556   5.958 -0.6626 -0.2695  0.4902
 7463SOL    HW233852   3.637   0.460   6.031 -0.6115 -0.3834 -0.1245
 7464SOL     OW33853   4.184   4.358   4.576  0.4588  0.1779 -0.2610
 7464SOL    HW133854   4.090   4.370   4.565 -0.0414 -0.9574  2.6578
 7464SOL    HW233855   4.202   4.323   4.664 -0.7909  1.8698  0.6645
 7465SOL     OW33856   1.923   0.278   7.044  0.2927  0.1046  0.6610
 7465SOL    HW133857   1.872   0.359   7.049 -1.8229 -1.3208  2.5922
 7465SOL    HW233858   1.974   0.288   6.965  0.3418  1.6962  0.8926
 7466SOL     OW33859   3.835   2.986   6.209 -0.1326  0.3156  0.1051
 7466SOL    HW133860   3.885   2.935   6.145 -0.7768 -0.6723  0.3970
 7466SOL    HW233861   3.747   2.955   6.190  0.0076  0.1441 -0.2620
 7467SOL     OW33862   4.142   0.299   8.641  0.4902  0.2595 -0.4170
 7467SOL    HW133863   4.128   0.362   8.711 -0.8321  0.7777 -1.1376
 7467SOL    HW233864   4.179   0.363   8.580  0.1528 -0.3803 -1.3004
 7468SOL     OW33865   0.427   0.002   0.849 -0.3843 -0.0022 -0.4190
 7468SOL    HW133866   0.358   0.065   0.871 -0.5448 -0.9312  1.7720
 7468SOL    HW233867   0.445   0.032   0.760 -1.8037  0.9688 -0.3644
 7469SOL     OW33868   4.283   2.961  16.086 -0.0685 -0.1643  0.2161
 7469SOL    HW133869   4.236   3.025  16.032 -1.3747 -2.7830 -1.7535
 7469SOL    HW233870   4.222   2.888  16.075  0.0006 -0.0475 -0.9344
 7470SOL     OW33871   0.291   4.024   3.925  0.8928 -0.4097 -0.2051
 7470SOL    HW133872   0.276   4.083   3.999 -1.7852 -1.1307 -0.1764
 7470SOL    HW233873   0.202   4.033   3.893  1.1973 -0.8852 -1.1775
 7471SOL     OW33874   1.676   4.087   3.613 -0.3629  0.4791 -0.1057
 7471SOL    HW133875   1.587   4.065   3.638 -0.8381  1.0512 -1.3240
 7471SOL    HW233876   1.662   4.129   3.529  0.3754  1.8890  0.4638
 7472SOL     OW33877   0.479   2.171   1.172  0.0755  0.3304  0.6220
 7472SOL    HW133878   0.437   2.085   1.177 -2.3057  1.7365  4.5036
 7472SOL    HW233879   0.417   2.206   1.109 -0.3759  0.3096  1.0589
 7473SOL     OW33880   3.512   4.163   0.501  0.3649  0.4848 -0.3606
 7473SOL    HW133881   3.517   4.119   0.586  0.0599 -0.8227 -1.0042
 7473SOL    HW233882   3.528   4.090   0.441 -0.4241 -0.2619  0.3404
 7474SOL     OW33883   3.096   1.691  12.937 -0.1228  0.3939 -0.0586
 7474SOL    HW133884   3.095   1.596  12.944  1.5523  0.2390 -1.9802
 7474SOL    HW233885   3.190   1.703  12.924  0.5186 -3.1176  1.3613
 7475SOL     OW33886   3.231   3.848   5.304 -0.1045 -0.2479  0.6720
 7475SOL    HW133887   3.284   3.774   5.277 -2.0560 -1.7881  1.0166
 7475SOL    HW233888   3.229   3.899   5.223 -0.8450  1.3400  1.7086
 7476SOL     OW33889   4.342   3.130   9.784 -0.6368 -0.3402 -0.3690
 7476SOL    HW133890   4.367   3.047   9.741  2.0881  0.6898 -0.8085
 7476SOL    HW233891   4.306   3.102   9.868 -2.5748 -1.7516 -1.6789
 7477SOL     OW33892   3.807   1.769   9.822  0.0551 -0.1908  0.3738
 7477SOL    HW133893   3.893   1.728   9.816 -0.5298 -1.4807  0.9504
 7477SOL    HW233894   3.836   1.810   9.904 -0.7114 -0.5259  0.8068
 7478SOL     OW33895   2.780   2.378  14.680  0.2190 -0.3091 -0.1961
 7478SOL    HW133896   2.859   2.351  14.728  2.0547  0.7141 -2.6570
 7478SOL    HW233897   2.769   2.301  14.624  0.7989 -1.1674  0.8435
 7479SOL     OW33898   2.249   3.865   5.064 -0.4627  0.0871  0.2346
 7479SOL    HW133899   2.243   3.945   5.012 -3.7946  0.7006  1.5973
 7479SOL    HW233900   2.344   3.854   5.058 -0.6317 -1.3005  0.0607
 7480SOL     OW33901   1.012   0.640  10.397  0.2520 -0.1292 -0.3903
 7480SOL    HW133902   0.992   0.595  10.314 -1.3614 -0.9170  0.4213
 7480SOL    HW233903   0.974   0.583  10.464  2.4975  0.9957  1.8032
 7481SOL     OW33904   3.631   2.040   2.638  0.1163 -0.1379 -0.2467
 7481SOL    HW133905   3.686   1.962   2.645  0.0267 -0.0396  1.6951
 7481SOL    HW233906   3.646   2.061   2.546 -0.0075 -1.0381 -0.4689
 7482SOL     OW33907   4.404   4.085   5.673 -0.1505 -0.0903  0.0669
 7482SOL    HW133908   4.463   4.153   5.641  0.0754 -0.7560 -0.9125
 7482SOL    HW233909   4.326   4.095   5.619  1.3420  0.5357 -1.9991
 7483SOL     OW33910   1.853   0.855   1.028 -0.4643  0.0714 -0.7290
 7483SOL    HW133911   1.895   0.814   1.104  4.1677 -0.4512 -3.5100
 7483SOL    HW233912   1.768   0.874   1.067  0.2820  1.1963  0.3549
 7484SOL     OW33913   4.265   0.286  12.168  0.0053 -0.4410 -0.8909
 7484SOL    HW133914   4.248   0.202  12.126 -0.0537 -0.0995 -1.5495
 7484SOL    HW233915   4.353   0.314  12.143  0.4367  0.1707  1.2976
 7485SOL     OW33916   2.933   2.789   8.189 -0.5894 -0.1426 -0.7130
 7485SOL    HW133917   2.969   2.870   8.224  2.4230 -1.3795 -0.9420
 7485SOL    HW233918   2.932   2.816   8.097 -2.8589 -2.1787 -1.2918
 7486SOL     OW33919   2.537   3.492   8.512 -0.3127  0.0809 -0.1246
 7486SOL    HW133920   2.472   3.466   8.577 -2.1877 -0.0017 -2.0408
 7486SOL    HW233921   2.486   3.501   8.432 -1.2317 -1.7748  0.2512
 7487SOL     OW33922   0.684   1.670   1.767  0.3861 -0.2008 -0.0490
 7487SOL    HW133923   0.741   1.727   1.716  0.0672  2.9435  3.1345
 7487SOL    HW233924   0.736   1.655   1.846 -1.6153 -1.0506  1.1302
 7488SOL     OW33925   2.718   1.086   2.690 -0.0615 -0.1367 -0.7677
 7488SOL    HW133926   2.691   1.169   2.728  1.7085 -0.1941  0.5885
 7488SOL    HW233927   2.796   1.116   2.645  1.0876 -0.8836  0.7429
 7489SOL     OW33928   1.650   2.738   8.038  0.0971  0.3186 -0.1671
 7489SOL    HW133929   1.730   2.748   7.987  0.6753  1.9641  1.0626
 7489SOL    HW233930   1.665   2.803   8.107 -0.4565  0.4976 -0.2172
 7490SOL     OW33931   1.366   3.170   4.702  0.3301 -0.4726  0.0634
 7490SOL    HW133932   1.396   3.079   4.696 -0.4224 -0.8851  2.5990
 7490SOL    HW233933   1.323   3.182   4.617 -0.8337 -2.6715  0.3266
 7491SOL     OW33934   0.811   4.495  11.992  0.3821 -0.4608  0.0262
 7491SOL    HW133935   0.832   4.563  11.929  1.3647 -0.0900  0.7532
 7491SOL    HW233936   0.728   4.527  12.026  0.0829  0.7176 -1.8428
 7492SOL     OW33937   2.077   2.675  12.995 -0.2476 -0.0428 -0.0869
 7492SOL    HW133938   1.990   2.658  13.033 -0.8905  2.6323 -0.3616
 7492SOL    HW233939   2.117   2.746  13.044  1.0938 -1.7382  1.2576
 7493SOL     OW33940   0.777   3.397   7.950 -0.0657  0.0452  0.0945
 7493SOL    HW133941   0.773   3.463   7.881  1.5042 -0.3323 -0.3528
 7493SOL    HW233942   0.697   3.418   7.997  0.4530  0.1518  0.9153
 7494SOL     OW33943   1.294   2.378  15.559 -0.4308  0.0676  0.1419
 7494SOL    HW133944   1.375   2.407  15.518  0.2069 -0.8605  0.7295
 7494SOL    HW233945   1.327   2.336  15.638  0.3209 -0.1693 -0.2996
 7495SOL     OW33946   1.311   4.109  10.421 -0.3286 -0.1141  0.4079
 7495SOL    HW133947   1.287   4.033  10.369 -1.9552  0.0136  0.9799
 7495SOL    HW233948   1.395   4.120  10.376 -0.2981 -0.8323  0.2886
 7496SOL     OW33949   0.848   2.433  14.588  0.2705  0.8223  0.0509
 7496SOL    HW133950   0.871   2.343  14.565  0.0395  0.4613  1.2006
 7496SOL    HW233951   0.927   2.460  14.634  0.1376 -1.9977  1.9533
 7497SOL     OW33952   1.630   3.504   5.608  0.5331  0.1210 -0.1399
 7497SOL    HW133953   1.611   3.434   5.671 -0.6133  0.8875  0.3699
 7497SOL    HW233954   1.617   3.587   5.654 -1.7243 -1.4024  1.9674
 7498SOL     OW33955   2.359   1.620   6.252  0.3126  0.4007  0.0835
 7498SOL    HW133956   2.270   1.609   6.285  0.4498  0.7763  0.5699
 7498SOL    HW233957   2.408   1.608   6.333 -1.4004  1.1392  1.2123
 7499SOL     OW33958   2.682   1.293   6.757  0.2709 -0.3541 -0.1301
 7499SOL    HW133959   2.730   1.211   6.748  2.6268  0.8779  1.3492
 7499SOL    HW233960   2.593   1.258   6.765 -0.1921  1.2120  1.4849
 7500SOL     OW33961   3.030   1.193  17.335 -0.0327 -0.3631  0.0002
 7500SOL    HW133962   3.057   1.281  17.361  1.5480 -0.8750  0.1110
 7500SOL    HW233963   2.963   1.173  17.400  0.7686  0.3985  1.0571
 7501SOL     OW33964   3.063   2.647   4.085  0.1362 -0.8980  0.0752
 7501SOL    HW133965   3.044   2.722   4.027 -0.2162 -0.5352  0.6668
 7501SOL    HW233966   3.151   2.627   4.053  0.0050 -0.9364 -0.2589
 7502SOL     OW33967   0.225   0.386   5.989  0.0824 -0.5776  0.4308
 7502SOL    HW133968   0.178   0.304   6.000 -0.2868 -0.3947  0.2252
 7502SOL    HW233969   0.165   0.423   5.925 -1.9477 -1.5572  1.7836
 7503SOL     OW33970   2.382   4.257   8.814 -0.0143 -0.2825 -0.2948
 7503SOL    HW133971   2.350   4.171   8.840 -1.5387  0.6140  0.8486
 7503SOL    HW233972   2.380   4.262   8.719 -0.5864 -2.5184 -0.3949
 7504SOL     OW33973   0.078   3.219   1.458  0.2230 -0.4259 -0.1747
 7504SOL    HW133974   0.161   3.219   1.505  0.8683 -1.3023 -1.3240
 7504SOL    HW233975   0.056   3.311   1.440 -0.4961  0.2314  4.0431
 7505SOL     OW33976   1.045   3.711   7.739 -0.2779 -0.4562 -0.2176
 7505SOL    HW133977   1.133   3.744   7.717 -0.2856 -1.1915 -1.3591
 7505SOL    HW233978   1.067   3.666   7.820  1.8235 -1.0378 -1.0915
 7506SOL     OW33979   1.789   3.864  12.769  0.2423 -0.0615 -1.1194
 7506SOL    HW133980   1.817   3.906  12.689 -0.7852  2.3906 -0.1881
 7506SOL    HW233981   1.874   3.822  12.777  0.3538  0.0724 -1.6334
 7507SOL     OW33982   4.623   3.048   1.809  0.2177  0.0021 -0.3850
 7507SOL    HW133983   4.711   3.033   1.775  0.0497  1.2901 -1.3916
 7507SOL    HW233984   4.571   3.075   1.733  0.8257  0.3576 -0.6778
 7508SOL     OW33985   4.466   4.624   0.815 -0.7155 -0.3035 -0.2477
 7508SOL    HW133986   4.451   4.654   0.905  1.2530 -0.8332  0.2730
 7508SOL    HW233987   4.560   4.604   0.813 -0.5961  0.2175 -0.0437
 7509SOL     OW33988   1.315   2.642   2.251  0.1133  0.5468 -0.3289
 7509SOL    HW133989   1.235   2.693   2.244 -0.1531  0.2336  0.4630
 7509SOL    HW233990   1.345   2.653   2.160 -0.8141  1.4481 -0.5186
 7510SOL     OW33991   4.353   2.181   6.059 -0.1543 -0.0340  0.6121
 7510SOL    HW133992   4.332   2.090   6.081  1.5524 -1.1694 -2.4677
 7510SOL    HW233993   4.440   2.172   6.021 -0.0297  0.3049  0.8177
 7511SOL     OW33994   3.118   3.257  12.729 -0.3150  0.0043  0.1722
 7511SOL    HW133995   3.164   3.302  12.800 -0.9273 -1.0096  1.1936
 7511SOL    HW233996   3.069   3.327  12.686  0.7327 -0.0906 -1.1706
 7512SOL     OW33997   1.086   0.681  15.528 -0.4217 -0.2215  0.2083
 7512SOL    HW133998   1.050   0.677  15.440  1.3691 -1.9545 -0.4376
 7512SOL    HW233999   1.164   0.627  15.515 -0.0661 -0.0427  1.5308
 7513SOL     OW34000   3.151   1.293  11.621  0.4588 -0.6064 -0.5628
 7513SOL    HW134001   3.237   1.279  11.660 -0.2162 -0.2551  1.0396
 7513SOL    HW234002   3.123   1.374  11.663  0.6025  0.9922 -3.6054
 7514SOL     OW34003   1.937   3.056  10.698 -0.2987  0.3352 -0.2187
 7514SOL    HW134004   1.951   3.009  10.781 -2.3417  1.5093  0.7921
 7514SOL    HW234005   1.884   3.129  10.730 -2.3709 -1.7333  0.9783
 7515SOL     OW34006   2.707   0.401   3.285 -0.0363  0.0222  0.5974
 7515SOL    HW134007   2.723   0.318   3.240  1.8719  0.9386 -0.4523
 7515SOL    HW234008   2.629   0.434   3.241 -0.2992 -0.0069  1.0479
 7516SOL     OW34009   3.383   3.653   2.069 -0.0806  0.1810  0.3422
 7516SOL    HW134010   3.407   3.715   2.000 -0.4158 -0.2954 -0.2057
 7516SOL    HW234011   3.397   3.572   2.019  1.2521  0.2912  0.5203
 7517SOL     OW34012   2.622   2.834  11.828  0.0802 -0.0963  0.2249
 7517SOL    HW134013   2.684   2.852  11.757  0.5535 -0.7132  0.4812
 7517SOL    HW234014   2.677   2.769  11.872  1.2968  0.3988 -0.5568
 7518SOL     OW34015   4.086   4.258  14.826 -0.0649  0.1862 -0.1560
 7518SOL    HW134016   4.001   4.214  14.825 -0.6961  1.4947 -2.4255
 7518SOL    HW234017   4.071   4.336  14.773 -2.1206 -0.0463  0.0948
 7519SOL     OW34018   4.514   1.118   6.459  0.0583 -0.8834 -0.5048
 7519SOL    HW134019   4.568   1.195   6.441  0.7931 -1.3453 -0.3205
 7519SOL    HW234020   4.502   1.072   6.376  2.7530 -0.3950 -1.1761
 7520SOL     OW34021   3.593   4.512  13.234 -0.3473 -0.5934 -0.5582
 7520SOL    HW134022   3.631   4.430  13.204  0.2256 -0.2879 -0.6599
 7520SOL    HW234023   3.653   4.528  13.307 -0.0152  1.0175 -1.1731
 7521SOL     OW34024   1.242   0.145  12.910  0.7104  0.1426 -0.1582
 7521SOL    HW134025   1.250   0.240  12.901 -1.3473  0.2846 -0.5591
 7521SOL    HW234026   1.275   0.138  12.999 -0.2411  0.3236  0.2079
 7522SOL     OW34027   4.666   2.076   1.979  0.2296 -0.1525  0.5809
 7522SOL    HW134028   4.695   2.167   1.967  0.1941 -0.4228 -1.5348
 7522SOL    HW234029   0.023   2.040   2.021 -0.4410  1.3235  3.1257
 7523SOL     OW34030   3.535   2.641   6.909 -0.2908 -0.2570  0.2167
 7523SOL    HW134031   3.510   2.566   6.856  1.1939 -1.7025  1.5385
 7523SOL    HW234032   3.557   2.605   6.995 -3.7510  0.5716  1.4292
 7524SOL     OW34033   0.000   3.689   9.622  0.2754  0.8169  0.4486
 7524SOL    HW134034   0.082   3.677   9.573  1.1448 -0.6899  2.2554
 7524SOL    HW234035   4.713   3.609   9.674  2.3986  0.1974 -0.1560
 7525SOL     OW34036   0.844   2.378   2.191  0.3450  0.5143  0.7254
 7525SOL    HW134037   0.798   2.453   2.153 -0.7578 -0.5279  0.0065
 7525SOL    HW234038   0.934   2.410   2.183  0.7994 -1.2925 -1.1404
 7526SOL     OW34039   0.588   3.938  15.470  0.1068 -0.3489  0.1121
 7526SOL    HW134040   0.616   3.936  15.379 -2.3620  2.5132 -0.7061
 7526SOL    HW234041   0.643   3.877  15.518 -2.0686 -1.6055  1.0132
 7527SOL     OW34042   3.968   2.605   3.675 -0.2053 -0.4552 -0.1487
 7527SOL    HW134043   4.012   2.537   3.623  3.6313  0.6271  1.7375
 7527SOL    HW234044   3.948   2.674   3.612  0.3778  0.3631  0.5671
 7528SOL     OW34045   0.335   4.003  12.165 -0.2290 -0.0319 -0.4096
 7528SOL    HW134046   0.416   4.054  12.154 -0.9577  1.0137 -0.9519
 7528SOL    HW234047   0.277   4.067  12.124 -3.0454 -2.5781 -0.3830
 7529SOL     OW34048   2.151   0.579  11.358  0.1583 -0.1663  0.0580
 7529SOL    HW134049   2.112   0.667  11.355 -0.4159 -0.3766  1.3705
 7529SOL    HW234050   2.135   0.551  11.268  0.7870  1.0331 -0.4297
 7530SOL     OW34051   2.705   2.096   4.203 -0.0852 -0.4571 -0.5426
 7530SOL    HW134052   2.732   2.162   4.267 -0.5707  0.6340 -1.4664
 7530SOL    HW234053   2.612   2.093   4.221 -0.0234  3.4007  0.2488
 7531SOL     OW34054   0.668   0.165   0.885 -0.1377 -0.3021  0.0347
 7531SOL    HW134055   0.595   0.102   0.885 -1.7854  1.5926  1.1352
 7531SOL    HW234056   0.628   0.230   0.827 -4.0273 -3.2070 -0.6045
 7532SOL     OW34057   4.129   1.745   7.694  0.5678 -0.2424  0.3913
 7532SOL    HW134058   4.047   1.744   7.643  1.6206 -3.2655 -1.2839
 7532SOL    HW234059   4.112   1.696   7.775  2.3997  0.0011  0.9150
 7533SOL     OW34060   0.417   3.947   4.797  0.9158 -0.2569 -0.6379
 7533SOL    HW134061   0.337   3.987   4.832  0.3377 -0.8177 -1.3348
 7533SOL    HW234062   0.398   3.854   4.804  3.0713 -0.4778  2.5648
 7534SOL     OW34063   4.696   1.819   0.230 -0.3020  0.0969 -0.3151
 7534SOL    HW134064   4.633   1.749   0.211 -0.1918  0.1708 -0.9781
 7534SOL    HW234065   4.639   1.893   0.252  1.1595  0.4941  2.0433
 7535SOL     OW34066   1.507   1.344   7.069  0.1745  0.3403  0.3743
 7535SOL    HW134067   1.425   1.366   7.025  1.8135  0.2078 -2.7645
 7535SOL    HW234068   1.553   1.427   7.052  0.6510  0.3835  1.8524
 7536SOL     OW34069   1.519   1.890   9.143 -0.1723 -0.0814  0.1754
 7536SOL    HW134070   1.582   1.839   9.093 -1.9986 -3.2251  1.1309
 7536SOL    HW234071   1.515   1.979   9.107  2.1393 -0.9382 -2.1461
 7537SOL     OW34072   1.507   3.339  17.289  0.2543 -0.2442 -0.3977
 7537SOL    HW134073   1.500   3.318  17.382 -2.2947  0.4495 -0.4424
 7537SOL    HW234074   1.483   3.252  17.256 -0.5665 -0.2785  0.3137
 7538SOL     OW34075   1.050   4.164   5.754 -0.0411  0.1998  0.4845
 7538SOL    HW134076   1.000   4.215   5.690  0.4383  2.0218  1.5494
 7538SOL    HW234077   1.008   4.208   5.828 -0.1537 -0.8717  1.0527
 7539SOL     OW34078   0.483   4.589   7.755  0.0357 -0.4086  0.0833
 7539SOL    HW134079   0.540   4.639   7.813  1.7401 -3.4866  1.0387
 7539SOL    HW234080   0.430   4.544   7.821  0.1929  0.4731  0.8085
 7540SOL     OW34081   3.417   0.864  16.314  0.6934 -0.1887  0.9831
 7540SOL    HW134082   3.369   0.901  16.240  0.4211  0.0382  1.2687
 7540SOL    HW234083   3.372   0.779  16.310  0.3469 -0.1527  4.2349
 7541SOL     OW34084   0.321   4.159   3.378 -0.4516  0.3743  0.1764
 7541SOL    HW134085   0.289   4.093   3.440 -0.7254 -0.9162 -1.3283
 7541SOL    HW234086   0.274   4.233   3.416 -0.8890 -0.1071  0.5662
 7542SOL     OW34087   1.665   3.237   1.632 -0.2410 -0.6261  0.4048
 7542SOL    HW134088   1.626   3.163   1.586  0.1056 -0.5625  0.0130
 7542SOL    HW234089   1.640   3.207   1.720  1.0905 -0.1964  0.9306
 7543SOL     OW34090   1.293   0.464   3.631  0.3683 -0.0984 -0.0387
 7543SOL    HW134091   1.260   0.408   3.701  1.7833  0.2107  0.8915
 7543SOL    HW234092   1.383   0.433   3.620  0.9701  1.6682 -0.1433
 7544SOL     OW34093   4.078   4.531  16.634 -0.4946  0.3211 -0.0943
 7544SOL    HW134094   3.989   4.525  16.671 -0.1840  0.4259  0.6822
 7544SOL    HW234095   4.084   4.605  16.574 -2.8107 -0.5036 -1.3337
 7545SOL     OW34096   3.355   0.246  13.165  0.2164 -0.0200 -0.4256
 7545SOL    HW134097   3.297   0.316  13.136  0.3184  1.0865  2.0360
 7545SOL    HW234098   3.441   0.285  13.151  0.1326  0.4547  0.3868
 7546SOL     OW34099   3.255   0.070  10.684  0.3155  0.0506 -0.4899
 7546SOL    HW134100   3.254   0.109  10.771 -1.1633  0.7070 -0.7928
 7546SOL    HW234101   3.346   0.085  10.659  0.2815  2.3277  0.7259
 7547SOL     OW34102   4.302   1.016   5.344  0.1006 -0.4960 -0.3123
 7547SOL    HW134103   4.300   0.940   5.286  1.2116 -1.6057  1.1221
 7547SOL    HW234104   4.309   1.088   5.281  1.8898 -0.3793  0.0285
 7548SOL     OW34105   3.748   4.448  14.523  0.4459  0.4325  0.1335
 7548SOL    HW134106   3.678   4.477  14.464 -1.4742 -1.6560  1.4062
 7548SOL    HW234107   3.716   4.374  14.575  0.5386 -0.2595 -0.7894
 7549SOL     OW34108   0.837   4.665  11.793  0.0091  0.2534  0.2029
 7549SOL    HW134109   0.762   4.669  11.733  3.0279  0.2125 -3.5158
 7549SOL    HW234110   0.903   4.709  11.739  0.3557 -0.4132  0.0896
 7550SOL     OW34111   4.633   0.939   5.975 -0.2073 -0.2924  0.4826
 7550SOL    HW134112   4.548   0.969   6.007  0.0067 -0.3483  1.1059
 7550SOL    HW234113   4.653   0.876   6.044 -0.6062  1.3170  2.0642
 7551SOL     OW34114   4.201   3.869   8.614 -0.1620 -0.5245  0.1925
 7551SOL    HW134115   4.235   3.913   8.536 -0.1344 -1.1931 -0.1750
 7551SOL    HW234116   4.120   3.916   8.631 -0.8412 -0.9516 -1.8684
 7552SOL     OW34117   3.949   0.750   3.682 -0.2561 -0.3513  0.7743
 7552SOL    HW134118   4.023   0.739   3.622  1.6963  3.9206  2.3992
 7552SOL    HW234119   3.985   0.809   3.749  1.6969 -1.4388  0.6931
 7553SOL     OW34120   4.525   3.647  10.387 -0.2755  0.0219 -0.6690
 7553SOL    HW134121   4.478   3.571  10.421 -0.0406  0.9443  1.7454
 7553SOL    HW234122   4.462   3.695  10.334 -1.4235 -0.1556  0.5380
 7554SOL     OW34123   3.028   2.347   8.651 -0.2331  0.0903  0.2762
 7554SOL    HW134124   3.070   2.268   8.686 -0.2148  1.5793  3.5882
 7554SOL    HW234125   2.952   2.352   8.709  0.1411 -0.6845  0.8384
 7555SOL     OW34126   1.687   3.045   4.773  0.3836  0.1250  0.4273
 7555SOL    HW134127   1.712   2.991   4.848  3.7336 -1.1832 -1.6293
 7555SOL    HW234128   1.602   3.007   4.749 -1.1010  3.4251  0.4693
 7556SOL     OW34129   0.250   4.679   0.367  0.1600 -0.4951 -0.5238
 7556SOL    HW134130   0.301   4.674   0.286 -1.4939 -0.1263 -1.5730
 7556SOL    HW234131   0.242   0.053   0.364  2.1560 -0.4082 -3.0750
 7557SOL     OW34132   2.434   1.376  15.170 -0.1277 -0.5040  0.0737
 7557SOL    HW134133   2.411   1.311  15.236  0.0893 -2.2095 -1.5150
 7557SOL    HW234134   2.362   1.371  15.106 -1.2889  2.2181  1.1868
 7558SOL     OW34135   0.069   2.523   5.275  0.1084  0.5465 -0.1044
 7558SOL    HW134136   4.703   2.563   5.272 -1.1173 -2.1464 -0.7997
 7558SOL    HW234137   0.058   2.455   5.342  2.1942 -0.1823 -0.4840
 7559SOL     OW34138   4.350   2.679   4.100  0.2475  0.1569 -0.0662
 7559SOL    HW134139   4.441   2.681   4.071  0.4760 -1.5970  0.5547
 7559SOL    HW234140   4.369   2.725   4.182 -1.8353  2.4797 -0.8610
 7560SOL     OW34141   2.225   3.244   4.118 -0.2427 -0.1386  0.1845
 7560SOL    HW134142   2.226   3.283   4.205  0.0621 -1.0371  0.5851
 7560SOL    HW234143   2.133   3.234   4.093 -0.5441 -0.9501  1.6042
 7561SOL     OW34144   2.811   1.852   0.099  0.1434  0.1726 -0.2090
 7561SOL    HW134145   2.720   1.879   0.106 -0.0441 -0.2898 -0.9137
 7561SOL    HW234146   2.847   1.938   0.077 -2.2894  1.0958 -0.5474
 7562SOL     OW34147   1.588   1.415   3.417 -0.1237  0.4255 -0.2029
 7562SOL    HW134148   1.626   1.499   3.393  0.6455  0.1558  0.0738
 7562SOL    HW234149   1.569   1.435   3.509 -0.7980  1.3449 -0.5466
 7563SOL     OW34150   1.154   2.364   5.201  0.5017  0.4919  0.2434
 7563SOL    HW134151   1.238   2.350   5.245 -0.9871 -0.7988  2.7283
 7563SOL    HW234152   1.101   2.306   5.256  1.3652  0.9280  1.5386
 7564SOL     OW34153   4.158   0.020   1.839 -0.2502 -0.0321 -0.8967
 7564SOL    HW134154   4.099   4.677   1.880  0.2305  0.8363  1.1678
 7564SOL    HW234155   4.087   0.073   1.804  0.0255  0.8314 -0.1584
 7565SOL     OW34156   3.365   3.854   4.240 -0.1843  0.1512  0.0169
 7565SOL    HW134157   3.341   3.939   4.203 -2.7190 -0.4214  0.3474
 7565SOL    HW234158   3.312   3.798   4.183 -0.5227 -0.0684  0.5462
 7566SOL     OW34159   4.591   1.049   7.522  0.2056  0.4652  0.1405
 7566SOL    HW134160   4.593   1.133   7.569  0.4681 -1.2234  3.1045
 7566SOL    HW234161   4.618   1.085   7.437  1.0445 -0.8555 -0.1426
 7567SOL     OW34162   0.736   2.685   1.754 -0.0379  0.1776 -0.5459
 7567SOL    HW134163   0.641   2.677   1.751 -0.1519  0.9621  0.8738
 7567SOL    HW234164   0.754   2.684   1.660  0.5063  0.5371 -0.4475
 7568SOL     OW34165   4.392   3.163  17.156  0.4877  0.1683 -0.4367
 7568SOL    HW134166   4.402   3.071  17.134 -0.5993  0.0742 -0.5574
 7568SOL    HW234167   4.366   3.148  17.247  0.2202 -2.5706 -0.9769
 7569SOL     OW34168   4.592   0.412   2.758 -0.1624  0.2487 -0.0792
 7569SOL    HW134169   4.560   0.488   2.710 -3.1058  0.6418  2.4710
 7569SOL    HW234170   4.680   0.435   2.789 -0.4132  0.7416  0.2799
 7570SOL     OW34171   4.716   4.520   7.558 -0.1086  0.4381  0.6216
 7570SOL    HW134172   4.624   4.528   7.534 -0.1225 -2.5968 -0.3859
 7570SOL    HW234173   0.032   4.550   7.475  1.0468  0.8831  1.2864
 7571SOL     OW34174   2.341   4.181   2.638  0.2030 -0.0262  0.5838
 7571SOL    HW134175   2.285   4.109   2.611 -0.5639  1.5766 -2.0590
 7571SOL    HW234176   2.302   4.263   2.608 -0.9229 -0.9613 -0.5078
 7572SOL     OW34177   4.309   4.218  12.852 -0.2694 -0.3021  0.6079
 7572SOL    HW134178   4.214   4.233  12.853 -0.3056 -0.7390  3.7177
 7572SOL    HW234179   4.337   4.266  12.774  1.4404 -0.8063  0.9044
 7573SOL     OW34180   4.713   2.696   5.773  0.1365  0.1618  0.0557
 7573SOL    HW134181   4.658   2.696   5.694  0.8008 -0.3971 -0.4142
 7573SOL    HW234182   4.659   2.754   5.828  1.9261  1.6721  0.2277
 7574SOL     OW34183   3.739   3.835   6.383 -0.1032 -0.3692  0.1843
 7574SOL    HW134184   3.657   3.785   6.394  0.8610 -2.2278 -1.0660
 7574SOL    HW234185   3.748   3.852   6.476 -1.2316  0.9456  0.0537
 7575SOL     OW34186   0.841   4.219   4.759  0.0589 -0.1780  0.1554
 7575SOL    HW134187   0.766   4.176   4.719  0.7457  0.3536 -1.7066
 7575SOL    HW234188   0.890   4.262   4.688 -0.5333  2.5425  1.3935
 7576SOL     OW34189   1.507   0.429   6.696 -0.3491  0.7819 -0.2010
 7576SOL    HW134190   1.599   0.404   6.697 -1.0856 -1.9264 -0.4176
 7576SOL    HW234191   1.506   0.511   6.647 -1.2814  1.5560  1.1097
 7577SOL     OW34192   3.680   3.004  14.831  0.0399 -0.0182 -0.4535
 7577SOL    HW134193   3.590   3.004  14.863 -0.6828  0.4445 -2.4750
 7577SOL    HW234194   3.725   2.934  14.879 -0.6205  0.3810  0.7203
 7578SOL     OW34195   3.412   3.194   6.344 -0.2604 -0.2114 -0.0496
 7578SOL    HW134196   3.437   3.274   6.391 -1.8725 -0.5817  1.4305
 7578SOL    HW234197   3.442   3.118   6.394 -0.1509 -0.3086 -0.2616
 7579SOL     OW34198   1.139   0.763  12.562  0.6682 -0.0716  0.9208
 7579SOL    HW134199   1.046   0.753  12.584  0.6238 -1.1335  0.2664
 7579SOL    HW234200   1.141   0.828  12.492  1.3992 -0.4607  0.5780
 7580SOL     OW34201   2.625   4.518   2.939 -0.0918 -0.2006 -0.1481
 7580SOL    HW134202   2.562   4.539   2.870 -0.3537 -1.1192 -0.1878
 7580SOL    HW234203   2.559   4.497   3.004  1.2875  0.8290  1.5702
 7581SOL     OW34204   3.658   1.881   5.938 -0.2289  0.4702  0.0283
 7581SOL    HW134205   3.696   1.848   5.857  0.8408 -0.4846  0.9115
 7581SOL    HW234206   3.671   1.976   5.934 -1.3640  0.5327 -2.1576
 7582SOL     OW34207   2.367   2.638   0.812  0.5637 -0.2065  0.2053
 7582SOL    HW134208   2.283   2.606   0.845 -0.4610  1.4992 -0.6880
 7582SOL    HW234209   2.339   2.684   0.732  0.3644  0.6838  0.7894
 7583SOL     OW34210   1.128   1.021   0.279 -0.0129  0.6327  0.0259
 7583SOL    HW134211   1.187   0.994   0.349  1.1049 -0.3139 -1.2773
 7583SOL    HW234212   1.056   0.958   0.281 -0.2054  0.8871  0.9277
 7584SOL     OW34213   1.110   3.094  11.716 -0.2003 -0.2951 -0.3995
 7584SOL    HW134214   1.084   3.003  11.732  2.6238 -1.1095 -0.3631
 7584SOL    HW234215   1.171   3.105  11.789  0.2936 -0.6178 -0.7626
 7585SOL     OW34216   2.071   4.027  13.013 -0.5165 -0.5798 -0.0479
 7585SOL    HW134217   2.027   3.942  13.010 -1.1714 -0.2108 -1.0092
 7585SOL    HW234218   2.094   4.052  12.923  0.7109 -1.8010 -0.0653
 7586SOL     OW34219   3.097   0.940  13.882  0.2569 -0.1229  0.1632
 7586SOL    HW134220   3.095   0.976  13.793 -0.4915 -1.6170 -0.4173
 7586SOL    HW234221   3.040   0.864  13.876 -2.0983  1.4442  2.7462
 7587SOL     OW34222   2.093   3.598   6.232 -0.4137 -0.0473  1.5077
 7587SOL    HW134223   2.034   3.523   6.244  0.4846 -1.0385 -0.2195
 7587SOL    HW234224   2.043   3.657   6.176  1.1082  0.0180  0.2329
 7588SOL     OW34225   0.556   0.288   4.980  0.7263 -0.3123  0.3283
 7588SOL    HW134226   0.568   0.309   5.073  2.8930  0.4703 -0.1339
 7588SOL    HW234227   0.472   0.242   4.986  0.7310 -0.2811  0.6419
 7589SOL     OW34228   2.774   0.700  12.256  0.0679  0.7540  0.0073
 7589SOL    HW134229   2.713   0.769  12.229 -0.6724 -0.6323 -1.9298
 7589SOL    HW234230   2.787   0.667  12.167 -1.5001  1.3919 -0.4589
 7590SOL     OW34231   4.166   4.472   7.984  0.7059 -0.1490  0.0633
 7590SOL    HW134232   4.175   4.566   7.972  0.5163 -0.1486 -0.0809
 7590SOL    HW234233   4.203   4.432   7.905 -0.7853  0.9498 -1.1957
 7591SOL     OW34234   0.520   3.641   4.223 -0.8265 -0.0215 -0.0200
 7591SOL    HW134235   0.443   3.666   4.172 -0.7267 -1.4090 -0.8522
 7591SOL    HW234236   0.536   3.728   4.260  0.7180 -0.1847 -0.3313
 7592SOL     OW34237   1.082   3.509   9.355 -0.0165  0.3567 -0.1095
 7592SOL    HW134238   1.145   3.447   9.317 -1.0740 -1.5873  1.3241
 7592SOL    HW234239   1.132   3.590   9.363 -0.8168  0.9129 -0.6422
 7593SOL     OW34240   3.283   2.964   4.682 -0.1090 -0.2821  0.0186
 7593SOL    HW134241   3.271   2.869   4.677  1.2434 -0.5324  1.5682
 7593SOL    HW234242   3.376   2.977   4.662 -0.3682 -0.5115 -1.3066
 7594SOL     OW34243   1.204   2.858   3.710 -0.4364  0.2673 -0.2240
 7594SOL    HW134244   1.288   2.851   3.754 -0.5289  0.6294  0.0100
 7594SOL    HW234245   1.147   2.917   3.759  1.0388  1.7007 -0.2353
 7595SOL     OW34246   4.084   2.563   8.343  0.3160  0.4635 -0.4321
 7595SOL    HW134247   4.040   2.647   8.359 -0.1415  0.0628  0.4247
 7595SOL    HW234248   4.158   2.585   8.288 -0.4964  3.9673 -0.0919
 7596SOL     OW34249   3.767   3.482  12.440 -0.0255  0.0830 -0.3649
 7596SOL    HW134250   3.832   3.529  12.492 -1.5220  0.5186  1.1121
 7596SOL    HW234251   3.828   3.428  12.389 -1.2506 -1.0666 -0.6338
 7597SOL     OW34252   4.589   2.699  15.453 -0.0433 -0.3996  0.3196
 7597SOL    HW134253   4.624   2.734  15.535 -0.7083  2.2027 -0.5241
 7597SOL    HW234254   4.654   2.722  15.387 -0.6702  3.8532  1.2208
 7598SOL     OW34255   2.521   3.490   5.045  0.2968 -0.7171 -0.1387
 7598SOL    HW134256   2.547   3.559   4.985 -1.7632  1.0646  1.0192
 7598SOL    HW234257   2.448   3.452   4.995 -1.1110  0.0070  1.3628
 7599SOL     OW34258   3.113   0.974  10.392 -0.4628  0.0962 -0.3748
 7599SOL    HW134259   3.088   0.990  10.300  0.8126  0.9133 -0.5687
 7599SOL    HW234260   3.130   1.063  10.422 -0.4669 -0.4114  1.1386
 7600SOL     OW34261   2.728   1.487   2.528 -0.0102 -0.3557 -0.3816
 7600SOL    HW134262   2.746   1.409   2.475  0.4673  0.7238 -1.8385
 7600SOL    HW234263   2.788   1.483   2.602  0.6619  0.4700 -0.8835
 7601SOL     OW34264   4.608   0.336   9.273  0.4195 -0.0559 -0.2615
 7601SOL    HW134265   4.564   0.267   9.224 -1.9362  0.8238  0.6146
 7601SOL    HW234266   4.644   0.283   9.344  2.9458  2.1922  0.1503
 7602SOL     OW34267   3.427   1.705   5.048  0.2678 -0.2351  0.3702
 7602SOL    HW134268   3.401   1.649   5.121 -0.0256  0.0070  0.4458
 7602SOL    HW234269   3.504   1.753   5.079  0.4577 -1.9357  2.5303
 7603SOL     OW34270   4.495   2.335   3.473 -0.6335 -0.4421  0.3229
 7603SOL    HW134271   4.575   2.373   3.510 -2.0760  1.0800  1.8804
 7603SOL    HW234272   4.436   2.410   3.478 -0.3341 -0.1757 -0.1731
 7604SOL     OW34273   2.072   4.720  15.009 -0.0956 -0.4906  0.1353
 7604SOL    HW134274   2.140   4.656  15.031 -0.1709 -0.5816  0.1073
 7604SOL    HW234275   2.084   0.061  15.081 -0.6886 -0.9645  0.6431
 7605SOL     OW34276   0.461   2.129   5.015  0.0861 -0.2205  0.8219
 7605SOL    HW134277   0.433   2.041   5.042  0.7433 -0.8502 -0.5462
 7605SOL    HW234278   0.512   2.100   4.940 -0.8801 -0.4199  0.2370
 7606SOL     OW34279   1.041   4.358  12.103  0.3212 -0.4034 -0.2656
 7606SOL    HW134280   0.969   4.409  12.065 -0.2802  0.0616  1.4877
 7606SOL    HW234281   1.080   4.307  12.032  3.1038  1.2459  0.0524
 7607SOL     OW34282   1.349   1.905   5.303  0.5241  0.2869  0.3975
 7607SOL    HW134283   1.413   1.974   5.317  1.6187 -0.3855 -1.2448
 7607SOL    HW234284   1.300   1.942   5.230  0.9171 -0.8476 -0.4528
 7608SOL     OW34285   1.702   1.064  15.927 -0.0135  0.5886 -0.2802
 7608SOL    HW134286   1.689   1.108  15.844  1.9040 -2.1219 -2.0147
 7608SOL    HW234287   1.651   1.120  15.986 -0.7063 -0.4162  0.0837
 7609SOL     OW34288   4.302   0.469   2.979  0.0494  0.3185  0.0795
 7609SOL    HW134289   4.257   0.429   2.904 -1.3096  0.5182  0.7883
 7609SOL    HW234290   4.266   0.420   3.053  2.1121 -1.1017  0.1678
 7610SOL     OW34291   1.691   3.731   4.138  0.1091  0.1177  0.2596
 7610SOL    HW134292   1.608   3.684   4.146  0.6784 -0.8711  0.4088
 7610SOL    HW234293   1.725   3.695   4.056  1.9203 -0.3428  1.2086
 7611SOL     OW34294   4.505   3.172   9.108 -0.0492 -0.0664 -0.1450
 7611SOL    HW134295   4.480   3.208   9.194 -0.1477  0.4641 -0.3930
 7611SOL    HW234296   4.441   3.207   9.046  2.1049  0.3932 -2.1350
 7612SOL     OW34297   1.553   0.188   3.307  0.7239 -0.3370  0.3994
 7612SOL    HW134298   1.495   0.113   3.320  1.9793 -1.5112 -0.6806
 7612SOL    HW234299   1.512   0.223   3.229 -0.0184  1.1456  1.4739
 7613SOL     OW34300   4.637   0.767   1.395 -0.0667  0.7911  0.6575
 7613SOL    HW134301   4.656   0.756   1.488  0.6594  0.1719  0.4419
 7613SOL    HW234302   4.705   0.728   1.339  0.6001  0.1155  1.9294
 7614SOL     OW34303   2.511   0.770   5.429  0.9822 -0.2140 -0.5380
 7614SOL    HW134304   2.584   0.832   5.436 -1.4675  2.7366 -1.2886
 7614SOL    HW234305   2.539   0.718   5.354  3.7219 -1.3659  1.2958
 7615SOL     OW34306   1.296   4.034   8.255  0.3990  0.5260  0.2113
 7615SOL    HW134307   1.235   4.064   8.187  0.4147  2.1412  0.9389
 7615SOL    HW234308   1.256   3.952   8.285 -0.0566 -0.1674 -2.2007
 7616SOL     OW34309   4.594   0.333   0.225  0.0499  0.2809  0.1985
 7616SOL    HW134310   4.649   0.399   0.184 -1.7731  0.4479 -2.0134
 7616SOL    HW234311   4.549   0.293   0.150 -2.1436 -1.8553  2.6632
 7617SOL     OW34312   3.564   1.559  12.118 -0.4982 -0.0770  0.3156
 7617SOL    HW134313   3.580   1.501  12.192  1.2194 -1.7738 -1.3944
 7617SOL    HW234314   3.574   1.648  12.154  1.5041 -1.0564  2.2020
 7618SOL     OW34315   0.201   0.746   5.442 -0.1198  0.2112 -0.2401
 7618SOL    HW134316   0.267   0.769   5.377 -0.9846 -0.5184 -1.3664
 7618SOL    HW234317   0.239   0.666   5.479 -1.7713 -1.9117 -3.1422
 7619SOL     OW34318   4.488   1.099   1.630 -0.7361 -0.1780 -0.1125
 7619SOL    HW134319   4.479   1.087   1.535 -1.2962 -1.4059  0.0941
 7619SOL    HW234320   4.466   1.192   1.632  0.4784  0.0672  1.9969
 7620SOL     OW34321   2.293   2.453   2.490  0.3740 -0.5862 -0.0260
 7620SOL    HW134322   2.228   2.448   2.559 -0.2859  0.3644 -0.5851
 7620SOL    HW234323   2.264   2.528   2.439  0.9665  0.7572  1.6257
 7621SOL     OW34324   0.960   3.173  14.606 -0.0334  0.6884  0.1778
 7621SOL    HW134325   1.036   3.157  14.662  0.9441 -2.2867 -1.9541
 7621SOL    HW234326   0.993   3.127  14.528  0.5161 -0.9347  1.3721
 7622SOL     OW34327   4.370   4.381   8.321  0.4168  0.0546 -0.0126
 7622SOL    HW134328   4.288   4.358   8.276  0.5580  0.9837 -0.7527
 7622SOL    HW234329   4.391   4.294   8.354  1.8297  0.4222  0.0492
 7623SOL     OW34330   2.445   4.200   9.964  0.0696 -0.3362 -0.0491
 7623SOL    HW134331   2.530   4.155   9.964  0.4470  0.3259 -3.1847
 7623SOL    HW234332   2.403   4.133   9.910  0.3733 -1.5199  1.1883
 7624SOL     OW34333   0.457   3.403   5.148 -0.3739  0.0536 -0.2156
 7624SOL    HW134334   0.479   3.425   5.239 -1.6657 -0.2588  0.1768
 7624SOL    HW234335   0.525   3.448   5.099  0.5089 -1.2752 -0.2171
 7625SOL     OW34336   4.508   3.100   4.728  0.2162  0.0884 -0.0403
 7625SOL    HW134337   4.576   3.129   4.790  0.0707  0.9036 -0.2546
 7625SOL    HW234338   4.441   3.074   4.791  1.2638 -1.1665  0.5532
 7626SOL     OW34339   2.044   3.730  12.845 -0.4312  0.0953 -0.2212
 7626SOL    HW134340   2.021   3.739  12.938 -1.1519  1.0097 -0.4820
 7626SOL    HW234341   2.131   3.768  12.860 -0.5362 -0.5641  2.0157
 7627SOL     OW34342   3.747   3.046  10.031  0.0522 -0.0215  0.2854
 7627SOL    HW134343   3.832   3.060  10.073  1.9553  1.0311 -3.9543
 7627SOL    HW234344   3.685   3.035  10.103  0.3183  0.8713  0.6521
 7628SOL     OW34345   1.779   4.423  16.532 -0.2770  0.0125 -0.0759
 7628SOL    HW134346   1.733   4.490  16.583  2.4499  2.4743 -0.8698
 7628SOL    HW234347   1.792   4.358  16.602 -1.8598 -1.7716 -1.4408
 7629SOL     OW34348   3.161   1.697   3.028  0.0642  0.2178 -0.8742
 7629SOL    HW134349   3.240   1.748   3.043 -0.9917  1.2368  1.1262
 7629SOL    HW234350   3.186   1.605   3.037  3.8050  1.6517  2.9343
 7630SOL     OW34351   2.290   3.438   5.257 -0.8176 -0.2757 -0.1165
 7630SOL    HW134352   2.279   3.344   5.272  0.9673 -0.0924  2.4881
 7630SOL    HW234353   2.382   3.434   5.230 -0.0003  0.6234  2.5044
 7631SOL     OW34354   2.674   0.336   7.573  0.2721 -0.1819  0.3158
 7631SOL    HW134355   2.616   0.293   7.636 -1.9863  1.7770 -0.4103
 7631SOL    HW234356   2.758   0.337   7.620  0.3268 -1.4192  0.2215
 7632SOL     OW34357   3.419   4.149   3.895  0.0328 -0.1687  0.1785
 7632SOL    HW134358   3.415   4.237   3.857  0.0618 -0.0144  0.5380
 7632SOL    HW234359   3.476   4.107   3.830 -1.5557 -0.9738 -0.7003
 7633SOL     OW34360   0.470   3.257   1.068  0.0868  0.1079  0.5183
 7633SOL    HW134361   0.559   3.238   1.040  0.3202  1.9025  0.0269
 7633SOL    HW234362   0.425   3.257   0.983  0.8075  2.2320  0.1542
 7634SOL     OW34363   2.253   0.365   5.108  0.1282 -0.3494 -0.2630
 7634SOL    HW134364   2.164   0.380   5.076  0.2460  0.1589 -0.3491
 7634SOL    HW234365   2.242   0.277   5.144  0.2516 -0.0068  0.6246
 7635SOL     OW34366   2.630   0.096   6.367 -0.4471  0.1125  0.3098
 7635SOL    HW134367   2.708   0.152   6.358  0.6345 -1.0381  2.6133
 7635SOL    HW234368   2.584   0.120   6.286  0.4330  2.8537  0.6179
 7636SOL     OW34369   0.270   4.074   5.352 -0.4657  0.3402  0.6676
 7636SOL    HW134370   0.312   4.160   5.346  0.7249 -0.2457  0.4380
 7636SOL    HW234371   0.186   4.100   5.389 -0.9635  0.0686 -0.2960
 7637SOL     OW34372   3.954   4.459   7.702  0.4823  0.0507  0.1649
 7637SOL    HW134373   3.992   4.545   7.716  0.4768 -0.0179  0.6065
 7637SOL    HW234374   3.891   4.476   7.632 -0.6682 -1.3717  0.8389
 7638SOL     OW34375   0.170   2.919  10.446  0.0037  0.0665  1.3305
 7638SOL    HW134376   0.180   2.941  10.539  0.3732  3.5155  0.4754
 7638SOL    HW234377   0.255   2.949  10.413  0.6468 -1.7483  1.3225
 7639SOL     OW34378   4.510   3.429   5.012 -0.0347 -0.2160  0.4669
 7639SOL    HW134379   4.523   3.491   4.941 -2.5051 -1.3908 -1.0027
 7639SOL    HW234380   4.534   3.489   5.083  1.3022 -0.1373 -0.0578
 7640SOL     OW34381   1.126   2.678   6.973  0.1114 -0.0619 -0.1851
 7640SOL    HW134382   1.116   2.695   7.066  2.2447 -1.5819  0.3055
 7640SOL    HW234383   1.220   2.661   6.970  0.3095  0.9069  0.6486
 7641SOL     OW34384   1.934   0.439   3.517  1.1288  0.1802  0.2019
 7641SOL    HW134385   1.884   0.363   3.546 -1.1083  1.3047 -0.6500
 7641SOL    HW234386   1.924   0.423   3.423  1.3305  0.5781  0.1132
 7642SOL     OW34387   3.407   2.558   3.944  0.9015 -0.3285 -0.4484
 7642SOL    HW134388   3.373   2.486   3.997  0.4205 -1.1113 -1.8211
 7642SOL    HW234389   3.453   2.608   4.012  0.7935  0.4725 -0.9625
 7643SOL     OW34390   0.231   1.080   4.752  0.4777  0.0759 -0.0667
 7643SOL    HW134391   0.301   1.039   4.803  0.5409  0.2720  0.0014
 7643SOL    HW234392   0.269   1.067   4.665  1.8382  0.6434  0.4416
 7644SOL     OW34393   1.375   0.036  14.906 -0.1076  0.3100 -0.7787
 7644SOL    HW134394   1.280   0.022  14.901 -0.2755 -0.0336  2.9737
 7644SOL    HW234395   1.409   4.668  14.896 -1.0999 -0.2599  0.8562
 7645SOL     OW34396   3.387   3.635   5.262 -0.0765 -0.1496 -0.4044
 7645SOL    HW134397   3.330   3.559   5.273  1.0056 -0.9800 -0.4746
 7645SOL    HW234398   3.412   3.644   5.354  0.8786  2.0053 -0.8707
 7646SOL     OW34399   1.671   0.420   7.725  0.4212 -0.4831  0.6044
 7646SOL    HW134400   1.728   0.468   7.665  0.7996 -1.4705  0.1698
 7646SOL    HW234401   1.698   0.331   7.700  2.8094  0.4127 -0.0047
 7647SOL     OW34402   3.153   1.372   4.496  0.0980 -0.3824 -0.1739
 7647SOL    HW134403   3.241   1.365   4.458  1.1316  0.8990  2.0031
 7647SOL    HW234404   3.097   1.376   4.418 -1.5601 -1.1217  0.9859
 7648SOL     OW34405   4.415   1.662   6.314 -0.2494 -0.1636 -0.2497
 7648SOL    HW134406   4.470   1.691   6.386 -1.8459 -2.2032  1.7803
 7648SOL    HW234407   4.357   1.602   6.361 -1.2222  0.5468 -0.5322
 7649SOL     OW34408   4.092   1.800   2.068 -0.0996 -0.0772 -0.1371
 7649SOL    HW134409   4.171   1.781   2.119 -0.1129  1.0623  0.3220
 7649SOL    HW234410   4.115   1.766   1.981 -1.1676 -2.1195  0.3970
 7650SOL     OW34411   2.222   4.634  10.098  0.3782 -0.0090 -0.0281
 7650SOL    HW134412   2.242   0.005  10.083  2.5088 -0.4915 -0.1514
 7650SOL    HW234413   2.299   4.587  10.066  0.8102  1.8741 -1.7052
 7651SOL     OW34414   1.711   3.150   3.443  0.1359 -0.0827 -0.0864
 7651SOL    HW134415   1.639   3.214   3.443  0.4710  0.2781 -1.8559
 7651SOL    HW234416   1.747   3.168   3.356  0.2988  1.2503  0.2457
 7652SOL     OW34417   3.781   2.742   4.753 -0.4119 -0.1741 -1.0223
 7652SOL    HW134418   3.777   2.693   4.672  0.9136 -0.0068 -1.1877
 7652SOL    HW234419   3.835   2.814   4.721 -0.9695  0.5186 -0.4254
 7653SOL     OW34420   4.259   2.843  16.809  0.1153 -0.8548  0.0076
 7653SOL    HW134421   4.262   2.786  16.732 -3.7188 -0.3286 -0.5642
 7653SOL    HW234422   4.210   2.911  16.761  0.7364 -0.5435 -0.1805
 7654SOL     OW34423   1.393   4.246   6.217  0.5854  0.4855  0.8003
 7654SOL    HW134424   1.463   4.182   6.230  0.4158 -0.2072 -1.7356
 7654SOL    HW234425   1.447   4.321   6.190 -1.6289  1.3463 -1.2039
 7655SOL     OW34426   1.663   0.192   2.971  0.1420 -0.2830  0.5737
 7655SOL    HW134427   1.675   0.136   2.894 -0.8111  0.4736 -0.1265
 7655SOL    HW234428   1.609   0.266   2.942  2.0681  1.0724  0.4602
 7656SOL     OW34429   2.610   0.312  16.336 -0.1628  0.0585  0.5244
 7656SOL    HW134430   2.556   0.390  16.322 -2.3475 -2.2719 -4.0069
 7656SOL    HW234431   2.549   0.245  16.365  1.4390 -0.2154  3.3134
 7657SOL     OW34432   1.741   4.707   4.773  0.3351  0.2664 -0.5694
 7657SOL    HW134433   1.781   4.625   4.802 -0.3420  0.1051 -0.0915
 7657SOL    HW234434   1.809   0.030   4.721  0.0906  0.6522 -0.5673
 7658SOL     OW34435   3.529   2.253   4.516 -0.0454  0.2784  0.0577
 7658SOL    HW134436   3.504   2.330   4.567 -0.2155  2.0873 -2.8141
 7658SOL    HW234437   3.615   2.234   4.555  1.0373  1.0688 -1.9196
 7659SOL     OW34438   3.404   0.623  12.566 -0.0360 -0.2158  0.2687
 7659SOL    HW134439   3.313   0.599  12.587 -0.3379  1.5589  0.9609
 7659SOL    HW234440   3.386   0.707  12.525  0.4159 -0.7661 -1.0349
 7660SOL     OW34441   1.015   0.328   2.272  0.0434 -1.2765  0.1348
 7660SOL    HW134442   0.951   0.386   2.314  1.0236 -0.4462  0.4983
 7660SOL    HW234443   1.006   0.353   2.180  1.5919  1.0513  0.5995
 7661SOL     OW34444   1.109   1.712   2.097 -0.4938  0.5379 -0.0092
 7661SOL    HW134445   1.181   1.681   2.153 -1.2241  0.9939  1.1792
 7661SOL    HW234446   1.101   1.797   2.139 -0.5298  0.7264 -0.3999
 7662SOL     OW34447   3.179   3.008   9.300 -0.1017  0.5661  0.2415
 7662SOL    HW134448   3.246   2.996   9.233 -0.3479  0.2491  0.0535
 7662SOL    HW234449   3.189   3.103   9.309 -0.4772  0.8539 -2.3177
 7663SOL     OW34450   1.728   3.183   2.330 -0.4905  0.0187  0.0505
 7663SOL    HW134451   1.657   3.247   2.321 -0.3169  0.2968  0.7106
 7663SOL    HW234452   1.798   3.221   2.277  0.1629  0.4552  1.2342
 7664SOL     OW34453   1.088   1.834   7.694  0.2939  0.1258  0.1174
 7664SOL    HW134454   1.149   1.804   7.626  0.6334 -1.2484  1.0333
 7664SOL    HW234455   1.127   1.817   7.780  2.1040  0.7401 -0.5938
 7665SOL     OW34456   0.713   4.466   4.054  0.7535  0.1397  0.9794
 7665SOL    HW134457   0.633   4.497   4.094  0.9585  1.0464  0.6812
 7665SOL    HW234458   0.773   4.478   4.128  0.8174 -2.4738  1.3711
 7666SOL     OW34459   4.125   2.996  15.832  0.2797  0.0037 -0.3491
 7666SOL    HW134460   4.204   2.960  15.791  0.7398 -0.1605  0.6572
 7666SOL    HW234461   4.084   2.912  15.852  0.6532  0.3035  1.6579
 7667SOL     OW34462   4.031   3.962   1.325  0.2127  0.6775 -0.4039
 7667SOL    HW134463   4.094   4.028   1.296 -1.9043  2.8089 -0.1184
 7667SOL    HW234464   3.985   3.947   1.242  1.3287 -0.8130 -0.7550
 7668SOL     OW34465   3.159   0.678   4.650  0.2135  0.0995 -0.6136
 7668SOL    HW134466   3.130   0.730   4.725 -0.3498 -0.1488 -0.6579
 7668SOL    HW234467   3.222   0.620   4.692  1.0836  0.2382 -1.7222
 7669SOL     OW34468   0.603   4.211   3.513  0.0220 -0.3472  0.1786
 7669SOL    HW134469   0.582   4.129   3.469  1.7559  0.5484 -2.3264
 7669SOL    HW234470   0.598   4.177   3.603 -1.8090 -1.1998 -0.2567
 7670SOL     OW34471   0.930   2.637  10.827 -0.4334  0.0564 -0.2066
 7670SOL    HW134472   0.926   2.574  10.899 -0.8978  0.6210  0.2571
 7670SOL    HW234473   0.926   2.582  10.748  1.5451 -0.3253 -0.0244
 7671SOL     OW34474   3.051   2.853  17.428  0.1507  0.2496  0.1478
 7671SOL    HW134475   3.107   2.831  17.354 -1.2745 -2.0398 -0.2340
 7671SOL    HW234476   3.055   2.783  17.493  0.8698 -0.2747 -0.4773
 7672SOL     OW34477   2.013   3.867   1.976 -0.4390  0.4470  0.2048
 7672SOL    HW134478   1.989   3.838   1.888  0.8198  0.5583 -0.1664
 7672SOL    HW234479   2.108   3.877   1.970 -0.3765 -1.2380 -1.4479
 7673SOL     OW34480   4.201   3.732  12.884  0.0315  0.0294  0.2961
 7673SOL    HW134481   4.110   3.752  12.906 -0.2603 -0.7458 -0.2000
 7673SOL    HW234482   4.250   3.793  12.939  1.6134 -1.5745  0.6856
 7674SOL     OW34483   4.024   1.676   7.013 -0.2917 -0.2394 -0.2572
 7674SOL    HW134484   3.952   1.614   7.025 -0.5898  0.2963  0.7678
 7674SOL    HW234485   4.080   1.641   7.082  0.0943 -1.5157 -1.2333
 7675SOL     OW34486   4.102   2.490  10.364 -0.1619  0.1020  0.1051
 7675SOL    HW134487   4.131   2.519  10.451  0.5410 -1.7000  0.4743
 7675SOL    HW234488   4.158   2.412  10.362 -1.0881 -0.5488 -0.2449
 7676SOL     OW34489   0.712   1.031   7.649 -0.1730 -0.1909  0.5158
 7676SOL    HW134490   0.675   1.101   7.596  2.5878 -0.9893 -2.4309
 7676SOL    HW234491   0.638   0.970   7.642  0.2050 -0.7126  1.0512
 7677SOL     OW34492   0.531   3.009   4.578  0.2849 -0.1956  0.4047
 7677SOL    HW134493   0.463   3.065   4.542  0.5113  0.0820  0.4032
 7677SOL    HW234494   0.530   3.043   4.668 -0.8792  1.0629 -0.0795
 7678SOL     OW34495   4.004   1.738   6.746 -0.4229 -0.0346 -0.5059
 7678SOL    HW134496   4.013   1.725   6.840 -1.0139  0.9133 -0.3100
 7678SOL    HW234497   3.974   1.829   6.747 -0.1634  0.0362  0.6101
 7679SOL     OW34498   1.052   1.589   8.521 -0.6221 -0.3680 -0.2475
 7679SOL    HW134499   1.042   1.516   8.460 -0.6938 -1.5296  1.1677
 7679SOL    HW234500   0.964   1.590   8.557 -0.0139  1.9895  1.1703
 7680SOL     OW34501   0.680   0.615   5.384 -0.2087  0.0374  0.0274
 7680SOL    HW134502   0.630   0.697   5.387  0.2605  0.3488 -0.7694
 7680SOL    HW234503   0.612   0.558   5.347 -0.7763  1.7359 -1.5358
 7681SOL     OW34504   2.426   1.616   0.136 -0.4018  0.1764 -0.4718
 7681SOL    HW134505   2.348   1.585   0.090  0.5793  0.4464 -2.2844
 7681SOL    HW234506   2.433   1.707   0.108 -0.9093  1.2054  2.6834
 7682SOL     OW34507   0.948   1.699   6.179  0.3108 -0.0809 -0.1120
 7682SOL    HW134508   0.934   1.746   6.262 -0.0775 -1.2696  0.5018
 7682SOL    HW234509   0.863   1.720   6.141 -0.5170  1.7935  2.7186
 7683SOL     OW34510   1.542   1.334   0.941 -0.1288  0.0483 -0.2386
 7683SOL    HW134511   1.578   1.368   1.023  1.2216  0.3576 -0.9512
 7683SOL    HW234512   1.448   1.343   0.953 -0.6826 -2.3124 -2.6537
 7684SOL     OW34513   1.752   1.598  12.929 -0.0945  0.6658  0.0044
 7684SOL    HW134514   1.768   1.504  12.933  1.4394  0.8041 -2.6904
 7684SOL    HW234515   1.823   1.644  12.974  0.3000 -1.3715  1.4494
 7685SOL     OW34516   1.480   3.324   3.708  0.1112 -0.3816  0.2363
 7685SOL    HW134517   1.460   3.393   3.772  0.7069 -0.5372  0.5943
 7685SOL    HW234518   1.566   3.317   3.751 -0.1700  0.5466  0.9629
 7686SOL     OW34519   1.894   1.598   4.426  0.0053  0.2862  0.1165
 7686SOL    HW134520   1.857   1.549   4.352  1.2097  1.5410 -1.3266
 7686SOL    HW234521   1.987   1.588   4.406 -0.4576 -2.5896 -0.5604
 7687SOL     OW34522   4.361   0.621  12.950 -0.2333  0.5952  0.4031
 7687SOL    HW134523   4.384   0.703  12.993 -0.0332  1.0722 -0.6256
 7687SOL    HW234524   4.444   0.573  12.954  1.0187  2.6648 -1.5134
 7688SOL     OW34525   2.632   2.554  12.768  0.1594  0.2416  0.4840
 7688SOL    HW134526   2.631   2.633  12.823  1.2166  0.5647  0.0236
 7688SOL    HW234527   2.545   2.555  12.728 -0.2909 -0.5776  1.4231
 7689SOL     OW34528   4.064   1.974   3.411  0.4192  0.4261  0.1889
 7689SOL    HW134529   4.026   2.044   3.358  1.5701  0.7789 -0.1488
 7689SOL    HW234530   3.994   1.954   3.474 -0.6333 -0.1078 -1.1450
 7690SOL     OW34531   0.398   3.124   1.293  0.7747  0.6944 -0.3661
 7690SOL    HW134532   0.358   3.158   1.373 -0.9038  1.1199 -1.3861
 7690SOL    HW234533   0.393   3.193   1.227 -0.8042  2.3151  1.4461
 7691SOL     OW34534   3.867   1.220   0.929  0.6387 -0.5542  0.7147
 7691SOL    HW134535   3.943   1.219   0.870  0.3711  1.6468  0.3368
 7691SOL    HW234536   3.801   1.235   0.862  0.8065 -1.4447  0.3407
 7692SOL     OW34537   2.605   1.458   4.312 -0.5006  0.2697 -0.0380
 7692SOL    HW134538   2.694   1.439   4.282 -0.9041 -0.7227 -0.6077
 7692SOL    HW234539   2.611   1.462   4.407  1.0846  2.1400 -0.2111
 7693SOL     OW34540   1.380   0.737   0.582 -0.0011  0.4309  0.3787
 7693SOL    HW134541   1.475   0.728   0.571  0.1423  2.8629 -0.3033
 7693SOL    HW234542   1.366   0.652   0.624 -1.2260  1.0993  1.3197
 7694SOL     OW34543   2.032   4.264   4.959  0.1023  0.0952 -0.4148
 7694SOL    HW134544   2.006   4.337   4.904  0.1614  0.1300 -0.3960
 7694SOL    HW234545   1.955   4.257   5.015 -0.2932 -0.4580 -1.0309
 7695SOL     OW34546   0.105   4.515  10.615 -0.2454 -0.0646  0.5857
 7695SOL    HW134547   0.163   4.566  10.558 -2.9489  1.1556 -1.0802
 7695SOL    HW234548   0.126   4.422  10.606  1.6820  0.5359 -1.3388
 7696SOL     OW34549   4.683   3.624   1.869 -0.0916  0.1229  0.1813
 7696SOL    HW134550   4.601   3.618   1.919 -0.6347  1.0956 -0.5904
 7696SOL    HW234551   0.017   3.566   1.922 -0.9887  0.3050  1.3298
 7697SOL     OW34552   0.218   4.549  10.192 -0.0960 -0.1300 -0.7193
 7697SOL    HW134553   0.223   4.601  10.272 -2.9583  2.0033 -1.9112
 7697SOL    HW234554   0.305   4.509  10.189  0.7613  1.4544  3.5468
 7698SOL     OW34555   2.507   3.057   4.953  0.3156 -0.2009 -0.0739
 7698SOL    HW134556   2.438   3.092   4.897  0.2279 -0.5183 -0.1634
 7698SOL    HW234557   2.471   2.980   4.996  1.1802 -2.2803 -3.1547
 7699SOL     OW34558   3.989   0.762   4.829  0.2581  0.4943  0.3808
 7699SOL    HW134559   4.084   0.749   4.832 -0.2151 -2.8250  1.7073
 7699SOL    HW234560   3.973   0.817   4.906 -1.9029 -0.1224  0.3624
 7700SOL     OW34561   1.407   0.948   5.740  0.1485  0.3989 -0.2745
 7700SOL    HW134562   1.479   0.966   5.679  0.7397 -0.7380  0.0917
 7700SOL    HW234563   1.339   0.930   5.675 -1.9112 -1.1268  2.3106
 7701SOL     OW34564   4.578   1.622   1.044 -0.3629  0.1163  0.2526
 7701SOL    HW134565   4.589   1.625   1.139 -0.9406  0.8836  0.2904
 7701SOL    HW234566   4.486   1.600   1.032 -0.4829  0.5153  0.4501
 7702SOL     OW34567   2.090   1.551  12.593  0.0058  0.2907 -0.1150
 7702SOL    HW134568   1.999   1.570  12.615 -0.1521 -0.6857  0.0620
 7702SOL    HW234569   2.133   1.582  12.673 -1.7365  0.1175  0.8880
 7703SOL     OW34570   1.941   3.893   2.921  0.0760  0.0132 -0.1049
 7703SOL    HW134571   1.986   3.977   2.912  0.0970 -0.3150 -3.0450
 7703SOL    HW234572   1.997   3.842   2.980 -1.1973 -1.2027  0.0376
 7704SOL     OW34573   1.362   4.575   4.437 -0.6964  0.1863 -0.5115
 7704SOL    HW134574   1.359   4.505   4.503 -0.1044  0.4562 -0.1989
 7704SOL    HW234575   1.445   4.616   4.462 -0.9016  1.2381 -1.5795
 7705SOL     OW34576   2.731   3.481   5.233 -0.4716  0.0756  0.4908
 7705SOL    HW134577   2.799   3.525   5.181  0.0472 -1.0522  0.2030
 7705SOL    HW234578   2.656   3.473   5.174 -0.8076  1.3728  0.7346
 7706SOL     OW34579   0.822   3.208   2.742  0.7238  0.3570 -0.8125
 7706SOL    HW134580   0.803   3.277   2.678  0.3881  1.5968  0.6372
 7706SOL    HW234581   0.732   3.182   2.763  1.1706  0.0824  0.7545
 7707SOL     OW34582   3.208   4.700   4.733  0.0479  0.1981  0.3580
 7707SOL    HW134583   3.174   4.709   4.822  0.8901 -0.5755  0.7607
 7707SOL    HW234584   3.136   4.656   4.688  2.1864 -4.0987  1.1653
 7708SOL     OW34585   3.224   3.044   7.725  0.2577 -0.0348 -0.0708
 7708SOL    HW134586   3.241   2.981   7.795 -0.0424  0.5410  0.5186
 7708SOL    HW234587   3.162   3.000   7.667  0.3388  0.8769 -0.8600
 7709SOL     OW34588   0.239   4.097   5.900 -0.4399  0.4398 -0.1758
 7709SOL    HW134589   0.165   4.046   5.934 -0.9062  1.0415 -0.2740
 7709SOL    HW234590   0.272   4.037   5.833 -2.6424  1.1001 -1.8900
 7710SOL     OW34591   0.716   1.335   2.839 -0.3214  0.2120 -0.2297
 7710SOL    HW134592   0.710   1.417   2.791 -1.0714  0.8624  0.9891
 7710SOL    HW234593   0.802   1.304   2.810  0.5073  1.9350  0.4259
 7711SOL     OW34594   1.263   2.966   1.313  0.4206  0.2495 -0.1643
 7711SOL    HW134595   1.310   2.987   1.393 -1.4642 -1.3776  1.3685
 7711SOL    HW234596   1.310   2.888   1.284 -1.7311 -1.6559  1.4229
 7712SOL     OW34597   2.703   2.324   4.345  0.0628 -0.0034 -0.0086
 7712SOL    HW134598   2.742   2.386   4.283  2.1981  0.4278  1.7714
 7712SOL    HW234599   2.738   2.358   4.427 -0.5282  0.2746  0.1349
 7713SOL     OW34600   3.140   2.789   8.540  0.1271 -0.0704 -0.3580
 7713SOL    HW134601   3.234   2.793   8.559  0.1484 -0.3151 -0.4163
 7713SOL    HW234602   3.101   2.792   8.627  2.3052  1.6496  0.5522
 7714SOL     OW34603   2.993   2.346  12.842 -0.5065  0.8062 -0.1497
 7714SOL    HW134604   3.084   2.359  12.816 -0.5876 -1.6776 -1.6993
 7714SOL    HW234605   2.969   2.272  12.786  0.1899  1.7887 -1.7395
 7715SOL     OW34606   2.240   0.597   3.446  0.0837 -0.3820  0.1546
 7715SOL    HW134607   2.146   0.584   3.459  0.5125 -2.3229  1.3677
 7715SOL    HW234608   2.253   0.625   3.356  0.0985  2.1001  0.9278
 7716SOL     OW34609   3.617   4.115   4.071 -0.4212  0.5309 -0.2839
 7716SOL    HW134610   3.693   4.063   4.043 -0.3435 -0.1967  1.3057
 7716SOL    HW234611   3.573   4.142   3.990  1.2833  2.7521 -0.4635
 7717SOL     OW34612   0.174   4.334   4.910 -0.2595 -0.1314  0.3049
 7717SOL    HW134613   0.233   4.405   4.886  0.0274 -0.7557 -0.8535
 7717SOL    HW234614   0.140   4.314   4.822  0.3096  0.1048  0.0313
 7718SOL     OW34615   1.323   4.099   4.589 -0.0141 -0.3993  0.0278
 7718SOL    HW134616   1.323   4.194   4.578 -0.2320 -0.4764 -0.6507
 7718SOL    HW234617   1.409   4.092   4.630 -0.5394  2.3086  1.5956
 7719SOL     OW34618   3.465   2.367   4.259 -0.5248 -0.0935  0.1664
 7719SOL    HW134619   3.498   2.328   4.340  0.4333  0.7776  0.2022
 7719SOL    HW234620   3.503   2.454   4.267  1.2542 -0.5881 -2.6495
 7720SOL     OW34621   3.511   2.667   0.177  0.3240 -0.0969  0.5189
 7720SOL    HW134622   3.430   2.677   0.127  2.2933  1.3813 -2.3712
 7720SOL    HW234623   3.519   2.572   0.190 -1.9442 -0.4794 -0.8299
 7721SOL     OW34624   1.017   2.917  17.260  0.5965 -0.2868  0.2923
 7721SOL    HW134625   0.925   2.943  17.272  0.0598 -0.7211 -2.8892
 7721SOL    HW234626   1.006   2.826  17.285 -1.6972  0.1443  0.8761
 7722SOL     OW34627   0.869   0.809   5.447 -0.2281  0.2596  0.7052
 7722SOL    HW134628   0.870   0.850   5.360  0.7702 -3.0157 -0.8434
 7722SOL    HW234629   0.804   0.742   5.423 -0.9417  0.7247  1.3203
 7723SOL     OW34630   0.723   2.272  10.468  0.2197 -0.1951  0.3188
 7723SOL    HW134631   0.677   2.188  10.471  1.4456 -0.8703  0.4072
 7723SOL    HW234632   0.783   2.263  10.393 -0.1301 -0.1635  0.0370
 7724SOL     OW34633   2.178   3.550  15.342  0.3468  0.3493  0.2409
 7724SOL    HW134634   2.135   3.573  15.424  1.7292  1.4722  0.6533
 7724SOL    HW234635   2.271   3.573  15.344 -0.1109  2.2521 -0.2055
 7725SOL     OW34636   4.069   1.849   8.244 -0.4850  0.2026 -0.2279
 7725SOL    HW134637   4.110   1.815   8.323 -0.2689 -0.4845 -0.6378
 7725SOL    HW234638   3.980   1.857   8.279  0.0394 -0.3694  1.2273
 7726SOL     OW34639   1.284   0.089   4.643 -0.7849 -0.2409 -0.1794
 7726SOL    HW134640   1.264   0.052   4.557  1.2429 -0.0238 -0.7529
 7726SOL    HW234641   1.219   0.057   4.705 -1.0729 -2.9467 -1.8575
 7727SOL     OW34642   1.658   0.515  17.253  0.1709 -0.3683 -0.0796
 7727SOL    HW134643   1.688   0.538  17.165  1.4528  1.9636  0.9734
 7727SOL    HW234644   1.737   0.529  17.305  1.1809 -0.3980 -1.6300
 7728SOL     OW34645   1.189   2.606   9.186 -0.1521 -0.3120  0.3238
 7728SOL    HW134646   1.198   2.593   9.281  1.4734  0.0794  0.2244
 7728SOL    HW234647   1.094   2.612   9.179 -0.2794 -1.0807  1.3156
 7729SOL     OW34648   1.844   2.421   3.890  0.2600 -0.4364  0.0625
 7729SOL    HW134649   1.854   2.326   3.891 -2.0871 -0.6977  0.2668
 7729SOL    HW234650   1.890   2.446   3.810 -0.4543 -0.2025 -0.2748
 7730SOL     OW34651   1.222   0.026   2.988 -0.4048  0.3633  0.0607
 7730SOL    HW134652   1.252   0.042   2.898 -1.0412 -0.1330 -0.2344
 7730SOL    HW234653   1.168   0.103   3.008 -0.4909  0.2567  0.2317
 7731SOL     OW34654   2.051   2.438   8.459 -0.3544  0.1776 -0.3670
 7731SOL    HW134655   2.129   2.453   8.406 -0.3290  0.6387 -0.1995
 7731SOL    HW234656   1.983   2.489   8.415  0.4694  0.7153 -1.0050
 7732SOL     OW34657   3.975   3.464  11.357  0.3446  0.3348  0.4273
 7732SOL    HW134658   3.993   3.392  11.297 -1.0364 -0.1226  0.5502
 7732SOL    HW234659   3.943   3.531  11.296  2.1037  0.3257 -0.4981
 7733SOL     OW34660   1.472   2.677   6.492  0.3685 -0.3389  0.0949
 7733SOL    HW134661   1.553   2.639   6.458  1.4849  0.3873  1.8919
 7733SOL    HW234662   1.408   2.612   6.464  0.0920 -0.4500  0.9710
 7734SOL     OW34663   1.518   1.485  12.989 -0.1773 -0.0858  0.3185
 7734SOL    HW134664   1.590   1.536  12.951  0.3924 -0.3405  1.0555
 7734SOL    HW234665   1.523   1.527  13.075  2.8822  0.5402 -0.1539
 7735SOL     OW34666   2.096   2.948  11.226 -0.2327 -0.3239 -0.0478
 7735SOL    HW134667   2.127   2.923  11.313 -0.8415  1.0782  0.5784
 7735SOL    HW234668   2.150   2.885  11.179 -1.2179  0.7810 -2.6363
 7736SOL     OW34669   3.160   2.366   0.941  0.4581 -0.4210  0.3598
 7736SOL    HW134670   3.109   2.426   0.995  0.3447 -0.2545  0.0673
 7736SOL    HW234671   3.137   2.285   0.986 -2.7570 -0.4529 -1.3170
 7737SOL     OW34672   1.053   0.370  14.644 -0.3480  0.1185  0.0685
 7737SOL    HW134673   0.966   0.330  14.648 -0.1067 -0.0188  4.4509
 7737SOL    HW234674   1.027   0.448  14.596 -1.5310 -0.1891  0.2023
 7738SOL     OW34675   2.837   2.153   5.794  0.0687 -0.0637  0.2948
 7738SOL    HW134676   2.909   2.100   5.828  0.1051 -0.1088  0.1486
 7738SOL    HW234677   2.888   2.214   5.741  1.9432 -3.0472 -1.3730
 7739SOL     OW34678   0.125   4.518   5.754  0.0060  0.2364  0.0663
 7739SOL    HW134679   0.039   4.480   5.770  0.0343  0.5343  0.9713
 7739SOL    HW234680   0.171   4.512   5.839 -0.0668 -1.1838 -0.0065
 7740SOL     OW34681   2.327   1.108  15.854 -0.6275  0.6313  0.7545
 7740SOL    HW134682   2.401   1.066  15.809 -0.4512  0.6986  0.9848
 7740SOL    HW234683   2.365   1.196  15.851 -1.4289  0.9861  0.8755
 7741SOL     OW34684   0.793   0.517   8.811 -0.1280  0.7735  0.2480
 7741SOL    HW134685   0.764   0.443   8.758  1.3571  0.6296 -0.3432
 7741SOL    HW234686   0.720   0.579   8.819 -3.3600 -3.1428  0.7626
 7742SOL     OW34687   2.916   3.492  15.188  0.1260 -0.2014  0.0946
 7742SOL    HW134688   2.865   3.495  15.107  2.4517 -1.9519 -1.4322
 7742SOL    HW234689   2.877   3.416  15.232  0.5000 -1.2161 -1.3528
 7743SOL     OW34690   2.294   2.928   2.154  0.0529  0.6284 -0.2118
 7743SOL    HW134691   2.269   2.986   2.226  1.6631 -2.4807  2.8419
 7743SOL    HW234692   2.249   2.962   2.077 -0.0300  0.8228 -0.0792
 7744SOL     OW34693   0.677   1.133   1.799  0.7263 -0.4685 -0.9083
 7744SOL    HW134694   0.589   1.170   1.785  0.8923  0.9984  1.7723
 7744SOL    HW234695   0.685   1.156   1.892  0.5986  0.5632 -1.1535
 7745SOL     OW34696   2.299   1.648   2.979  0.0072 -0.8679  0.6694
 7745SOL    HW134697   2.288   1.553   2.986  1.6220 -1.1475 -0.7148
 7745SOL    HW234698   2.371   1.653   2.917 -0.6738 -0.2317 -0.0674
 7746SOL     OW34699   3.639   1.653   6.473  0.3605 -0.2969 -0.4571
 7746SOL    HW134700   3.641   1.632   6.379  0.5780  0.1329 -0.5508
 7746SOL    HW234701   3.731   1.661   6.496 -0.0328 -1.6595  1.5375
 7747SOL     OW34702   1.196   0.692   9.072 -0.2666  0.1193 -0.3814
 7747SOL    HW134703   1.186   0.606   9.113  2.0937  0.9141  1.8424
 7747SOL    HW234704   1.223   0.738   9.151  0.6009  0.9462 -1.1556
 7748SOL     OW34705   2.993   1.307   7.157 -0.2586  0.1019  0.1413
 7748SOL    HW134706   3.062   1.296   7.222  1.3750  2.6570 -1.1724
 7748SOL    HW234707   3.035   1.371   7.100 -1.0419  0.3673 -0.1332
 7749SOL     OW34708   1.553   3.826   6.217 -0.3729 -0.4354  0.3897
 7749SOL    HW134709   1.480   3.864   6.168  1.4037  3.1508  0.5526
 7749SOL    HW234710   1.510   3.800   6.299 -1.2983  0.6789  0.2553
 7750SOL     OW34711   0.876   2.776   3.458 -0.0611 -0.3415 -0.1203
 7750SOL    HW134712   0.807   2.792   3.393 -0.3109 -0.6299  0.0768
 7750SOL    HW234713   0.946   2.830   3.420 -0.2358  0.6308  0.9468
 7751SOL     OW34714   3.865   1.482   7.181  0.2640  0.2509  0.2793
 7751SOL    HW134715   3.898   1.535   7.254 -2.6233 -0.9876  2.4847
 7751SOL    HW234716   3.935   1.422   7.156  0.3211  1.1896 -1.7668
 7752SOL     OW34717   1.656   1.250   4.330 -0.2425 -0.1615  0.3615
 7752SOL    HW134718   1.689   1.235   4.418 -1.8058 -0.9941  0.8194
 7752SOL    HW234719   1.564   1.278   4.340 -0.6107 -1.4259  0.4533
 7753SOL     OW34720   3.462   2.265   3.237  0.0997  0.3616 -0.1982
 7753SOL    HW134721   3.519   2.338   3.215 -0.9132  1.7356  1.7748
 7753SOL    HW234722   3.524   2.222   3.296 -0.8284  0.4623  0.8272
 7754SOL     OW34723   2.901   4.695   3.629  0.3184  0.0663 -1.1544
 7754SOL    HW134724   2.885   4.648   3.548  0.4912 -0.4003 -0.9192
 7754SOL    HW234725   2.811   4.698   3.659  0.6568  2.7040 -0.4292
 7755SOL     OW34726   2.717   4.636   7.069 -0.5077 -0.3762 -0.7342
 7755SOL    HW134727   2.800   4.674   7.098 -1.8544  1.2073  1.0270
 7755SOL    HW234728   2.657   4.659   7.140 -0.8957 -0.0331 -1.1719
 7756SOL     OW34729   1.199   2.915   6.762  0.0742 -0.6489 -0.6611
 7756SOL    HW134730   1.242   2.830   6.753  0.0144 -0.8547  1.0337
 7756SOL    HW234731   1.193   2.939   6.669  0.2098  0.6319 -0.3329
 7757SOL     OW34732   2.862   1.714   9.005 -0.0441  0.4654 -0.0133
 7757SOL    HW134733   2.790   1.687   8.949 -1.8627  2.7362  1.2040
 7757SOL    HW234734   2.900   1.788   8.958  0.3835  0.2272 -0.0474
 7758SOL     OW34735   4.108   0.852  10.012 -0.2857  0.2646 -0.0701
 7758SOL    HW134736   4.105   0.756  10.006  0.6501  0.3683 -2.3257
 7758SOL    HW234737   4.017   0.876   9.996  0.4254  2.4214 -0.9115
 7759SOL     OW34738   1.376   0.407   5.420  0.8174 -0.4539 -0.7057
 7759SOL    HW134739   1.297   0.413   5.475  0.8255 -0.6598 -0.6702
 7759SOL    HW234740   1.433   0.394   5.496  1.5544  2.8215 -0.7370
 7760SOL     OW34741   1.285   3.831   4.053  0.0907 -0.1454  0.0620
 7760SOL    HW134742   1.335   3.756   4.084  0.1249  0.4102  1.3607
 7760SOL    HW234743   1.196   3.817   4.086  0.7678  1.8712  2.7783
 7761SOL     OW34744   0.721   1.817  15.440 -0.0134  0.4312 -0.1314
 7761SOL    HW134745   0.703   1.723  15.447  1.6324  0.0129 -1.6615
 7761SOL    HW234746   0.782   1.811  15.367 -1.3513  1.5997 -1.3227
 7762SOL     OW34747   0.626   0.853   1.816 -0.1113 -0.1067 -0.9441
 7762SOL    HW134748   0.644   0.877   1.907  0.5498 -1.9660 -0.5972
 7762SOL    HW234749   0.632   0.940   1.776 -1.0150  1.0832  1.5232
 7763SOL     OW34750   0.247   2.978   8.593 -0.4197  0.7002  0.1925
 7763SOL    HW134751   0.269   2.929   8.672  1.0248  2.1086  0.6559
 7763SOL    HW234752   0.315   3.044   8.605  0.1852  0.0614  0.3402
 7764SOL     OW34753   2.419   0.260   3.424 -0.5526 -0.0962 -0.7913
 7764SOL    HW134754   2.472   0.312   3.485 -1.8217  0.6375 -0.3162
 7764SOL    HW234755   2.403   0.316   3.348 -1.4814 -2.1000 -2.0621
 7765SOL     OW34756   3.907   1.928   7.123 -0.2490 -0.4692  0.2376
 7765SOL    HW134757   3.843   1.907   7.191 -0.1171 -1.6896 -0.0208
 7765SOL    HW234758   3.930   1.841   7.091  0.7633 -1.0166  2.4210
 7766SOL     OW34759   2.609   0.912   5.987 -0.1060 -0.5097  0.0923
 7766SOL    HW134760   2.515   0.931   5.980  0.1507  0.0341 -1.6955
 7766SOL    HW234761   2.617   0.879   6.077 -0.3084 -0.6102  0.0739
 7767SOL     OW34762   0.372   4.181  10.570  0.7872 -0.2131  0.6757
 7767SOL    HW134763   0.284   4.209  10.545 -0.0129 -1.5250  2.0412
 7767SOL    HW234764   0.414   4.266  10.554 -0.2627  0.4948  1.6153
 7768SOL     OW34765   0.274   0.379   6.740 -0.5993  0.0845 -0.4501
 7768SOL    HW134766   0.271   0.382   6.836  1.2592  1.1769 -0.4262
 7768SOL    HW234767   0.367   0.368   6.720  0.3272  3.1485  2.1601
 7769SOL     OW34768   0.259   3.748   4.045 -0.4854  0.2485 -0.1146
 7769SOL    HW134769   0.299   3.826   4.005  2.9227 -1.3866  0.1482
 7769SOL    HW234770   0.175   3.748   3.998 -0.5672  0.9075  0.0313
 7770SOL     OW34771   0.684   0.630   0.597  0.1286 -0.4544 -0.3543
 7770SOL    HW134772   0.622   0.579   0.546 -0.9596  1.0981 -0.5778
 7770SOL    HW234773   0.726   0.684   0.531  0.0898  2.5296  2.0583
 7771SOL     OW34774   1.430   0.164   0.890 -0.1124  0.1162  0.2751
 7771SOL    HW134775   1.381   0.217   0.953  1.1385  0.9582  0.5506
 7771SOL    HW234776   1.431   0.217   0.811  1.9010  1.0795  0.9501
 7772SOL     OW34777   1.906   2.848   3.662  0.2853 -0.0604 -0.2978
 7772SOL    HW134778   1.818   2.884   3.649  0.6201  1.3610  1.3492
 7772SOL    HW234779   1.957   2.879   3.587 -1.4892  0.8924 -1.0838
 7773SOL     OW34780   1.006   2.135   8.785  0.5735  0.0287  0.3342
 7773SOL    HW134781   1.025   2.159   8.695 -0.9846 -0.5003 -0.1307
 7773SOL    HW234782   1.007   2.220   8.830  3.3813  0.0276  0.2852
 7774SOL     OW34783   1.029   2.696   5.823  0.2388 -0.3809 -0.1217
 7774SOL    HW134784   1.079   2.777   5.827  1.0665 -0.8968  0.0461
 7774SOL    HW234785   0.956   2.711   5.883 -0.9746 -2.4364 -1.0913
 7775SOL     OW34786   1.468   3.024  14.690  0.2999  0.2729 -0.1288
 7775SOL    HW134787   1.552   3.015  14.645 -0.2746 -0.8093 -0.9651
 7775SOL    HW234788   1.426   2.942  14.668  0.7941  0.4469 -1.6981
 7776SOL     OW34789   0.905   2.032  16.824  0.5389 -0.5593 -0.2104
 7776SOL    HW134790   0.835   1.991  16.771 -0.1271  1.0363 -0.5504
 7776SOL    HW234791   0.948   2.091  16.762 -0.1231  2.1185  1.9016
 7777SOL     OW34792   4.391   2.745   8.519  0.1719 -0.0656 -0.0433
 7777SOL    HW134793   4.410   2.837   8.532 -0.4822  0.1281 -0.4343
 7777SOL    HW234794   4.430   2.737   8.432 -0.2330 -1.6039 -0.0977
 7778SOL     OW34795   0.451   0.020   4.606 -0.3552 -0.6642 -0.1060
 7778SOL    HW134796   0.474   4.668   4.549  2.9320  0.2509  0.0987
 7778SOL    HW234797   0.383   4.700   4.661  0.9148 -1.6072  0.7638
 7779SOL     OW34798   2.809   3.594   9.699  0.6284 -0.7678 -0.1527
 7779SOL    HW134799   2.714   3.606   9.694  0.5387 -1.5375 -0.3284
 7779SOL    HW234800   2.838   3.615   9.610  0.4975 -0.5373 -0.1397
 7780SOL     OW34801   0.351   4.568   6.357 -0.3496  0.4330  0.0218
 7780SOL    HW134802   0.357   4.547   6.263 -2.2460  1.1698 -0.2646
 7780SOL    HW234803   0.444   4.562   6.378 -0.6351  1.4432  1.5218
 7781SOL     OW34804   1.436   1.450   6.178  0.4889  0.0615  0.4064
 7781SOL    HW134805   1.376   1.520   6.207 -0.0510 -0.0385 -0.4845
 7781SOL    HW234806   1.511   1.498   6.142  0.6298 -0.2166  0.3314
 7782SOL     OW34807   1.342   0.593   8.842 -0.1527 -0.1736  0.5675
 7782SOL    HW134808   1.402   0.527   8.877  0.3667 -0.8512 -1.5831
 7782SOL    HW234809   1.312   0.631   8.924  0.4927  0.8992  0.2999
 7783SOL     OW34810   3.058   4.413   1.241  0.5540  0.1112 -0.4629
 7783SOL    HW134811   3.093   4.502   1.251 -0.2661  0.0727  2.9306
 7783SOL    HW234812   3.135   4.358   1.250  0.0029 -0.2628  1.9165
 7784SOL     OW34813   1.885   1.186   3.640 -0.4379 -0.1552  0.3993
 7784SOL    HW134814   1.793   1.170   3.660 -0.8743  1.6338 -0.1147
 7784SOL    HW234815   1.915   1.173   3.730  1.6117 -0.2650 -0.3023
 7785SOL     OW34816   2.825   2.466  13.415 -0.1620 -0.4337 -0.3928
 7785SOL    HW134817   2.837   2.507  13.500 -1.7308  1.1556 -0.9396
 7785SOL    HW234818   2.818   2.375  13.443  1.2648 -0.4987 -0.2150
 7786SOL     OW34819   4.680   2.565   9.671 -0.1987  0.5209  0.0373
 7786SOL    HW134820   0.015   2.490   9.690 -1.6935 -0.6898 -0.4221
 7786SOL    HW234821   4.663   2.599   9.759 -1.8411  0.7405 -0.3729
 7787SOL     OW34822   2.670   0.434  13.179  0.1509  0.1213 -0.6742
 7787SOL    HW134823   2.612   0.475  13.116 -0.8080 -0.3259 -0.0871
 7787SOL    HW234824   2.748   0.447  13.125 -0.0351 -0.1269 -1.0056
 7788SOL     OW34825   4.493   1.403   4.225  0.5646  0.4265 -0.3194
 7788SOL    HW134826   4.572   1.413   4.172  0.1196  1.8874 -0.7256
 7788SOL    HW234827   4.505   1.473   4.290  1.1277  1.6818 -1.7740
 7789SOL     OW34828   2.382   3.911   5.655 -0.1232  0.0616  0.3338
 7789SOL    HW134829   2.396   3.877   5.567  0.8121 -0.6740  0.7697
 7789SOL    HW234830   2.311   3.852   5.680 -0.7837  0.7106  0.0090
 7790SOL     OW34831   0.534   2.140   7.317  0.1967 -0.4334 -0.6521
 7790SOL    HW134832   0.544   2.203   7.388 -0.1346 -1.0334 -0.0812
 7790SOL    HW234833   0.495   2.193   7.247 -0.2806 -0.6407 -0.5440
 7791SOL     OW34834   4.427   1.173   4.883  0.3892 -0.0493  0.6711
 7791SOL    HW134835   4.427   1.269   4.875 -2.8024 -0.0794  0.3653
 7791SOL    HW234836   4.505   1.145   4.836 -0.2770  0.8907 -1.0317
 7792SOL     OW34837   2.370   1.413   5.277 -0.1380 -0.1973  0.4799
 7792SOL    HW134838   2.364   1.368   5.361  3.9337 -0.5899  0.5588
 7792SOL    HW234839   2.314   1.359   5.221 -0.2463  0.0320  0.3635
 7793SOL     OW34840   2.832   1.538   6.037 -0.4437  0.0832  0.4111
 7793SOL    HW134841   2.894   1.592   6.085  2.6443 -1.6410 -1.5779
 7793SOL    HW234842   2.773   1.513   6.108 -1.4128 -0.5629 -0.6222
 7794SOL     OW34843   1.565   3.036   6.768 -0.3313 -0.1244 -0.3062
 7794SOL    HW134844   1.580   2.991   6.685  1.9961 -0.1555  0.1200
 7794SOL    HW234845   1.528   2.958   6.811 -0.3426  1.1204  1.9664
 7795SOL     OW34846   0.594   0.237  10.876  0.6082 -0.4863  0.3812
 7795SOL    HW134847   0.662   0.211  10.814  0.7072 -3.2221  1.6096
 7795SOL    HW234848   0.538   0.293  10.822  1.3659 -0.6521 -0.5649
 7796SOL     OW34849   1.834   2.880   4.321 -0.6073 -0.3707 -0.1582
 7796SOL    HW134850   1.806   2.925   4.401 -0.3382 -0.2404 -0.1376
 7796SOL    HW234851   1.901   2.818   4.350 -0.0575 -0.6498 -2.0319
 7797SOL     OW34852   0.985   2.637   2.424  0.1206  0.2836  0.5341
 7797SOL    HW134853   1.013   2.623   2.334  2.5685  1.2218  1.1363
 7797SOL    HW234854   1.006   2.549   2.457  1.2551  0.8823  1.4413
 7798SOL     OW34855   3.585   1.516   7.916  0.4799 -0.0165  0.1684
 7798SOL    HW134856   3.631   1.454   7.973  0.7637  1.9425  2.0742
 7798SOL    HW234857   3.503   1.529   7.963  0.5975 -0.9179  0.6187
 7799SOL     OW34858   0.192   4.171  12.021 -0.5182  0.7110  0.1493
 7799SOL    HW134859   0.098   4.159  12.035 -1.0561  3.7765 -0.7437
 7799SOL    HW234860   0.213   4.241  12.083 -4.2508  0.6741  1.4345
 7800SOL     OW34861   3.383   2.461  16.127  0.3847  0.3863  0.1910
 7800SOL    HW134862   3.313   2.525  16.138 -1.8580 -2.1787  0.9929
 7800SOL    HW234863   3.327   2.384  16.141  0.3374  0.2242 -0.8708
 7801SOL     OW34864   1.856   1.424   5.103 -0.5590  0.4041  0.2323
 7801SOL    HW134865   1.866   1.388   5.015  0.4288  1.2577 -0.0103
 7801SOL    HW234866   1.887   1.513   5.088  0.6794  0.0483  0.6772
 7802SOL     OW34867   3.560   0.701   7.155  0.5224 -0.1734  0.6703
 7802SOL    HW134868   3.469   0.718   7.130  1.8010 -0.1583 -3.8724
 7802SOL    HW234869   3.588   0.780   7.110  0.0927 -0.4454 -0.0701
 7803SOL     OW34870   1.895   1.361   4.199  0.0544  0.0186 -0.4201
 7803SOL    HW134871   1.808   1.362   4.159 -0.1695 -0.2253  0.0697
 7803SOL    HW234872   1.858   1.336   4.284  1.2460  1.1758  0.4338
 7804SOL     OW34873   4.717   0.514   9.924 -0.2870  0.0162  0.7610
 7804SOL    HW134874   0.090   0.500   9.916 -0.6133 -0.4935 -2.3729
 7804SOL    HW234875   4.711   0.607   9.945  0.3825  0.2820 -0.2005
 7805SOL     OW34876   3.835   2.766   2.011 -0.1700 -0.1948 -0.4360
 7805SOL    HW134877   3.792   2.681   2.001 -0.8595  0.1116 -0.1132
 7805SOL    HW234878   3.927   2.742   2.001  0.1093  1.4365 -1.8644
 7806SOL     OW34879   2.389   2.906   7.461  0.1753  0.1154  0.3463
 7806SOL    HW134880   2.313   2.849   7.464 -1.1681  1.9185  0.3659
 7806SOL    HW234881   2.380   2.928   7.554  2.6790  1.1670  0.3403
 7807SOL     OW34882   0.164   3.060   3.730  0.2822  0.4218  0.3413
 7807SOL    HW134883   0.142   3.123   3.661  0.2940  1.2409  1.0923
 7807SOL    HW234884   0.125   2.984   3.687  0.4106 -0.0923  1.1348
 7808SOL     OW34885   1.457   0.197   7.916 -0.0797  0.3316  0.6108
 7808SOL    HW134886   1.378   0.249   7.931  0.5180  0.8792  1.8444
 7808SOL    HW234887   1.529   0.257   7.939  0.6098 -0.0840 -0.4384
 7809SOL     OW34888   3.089   0.563   2.811 -0.3735  0.1924  0.3207
 7809SOL    HW134889   3.180   0.551   2.838 -0.8266 -0.9216  1.3456
 7809SOL    HW234890   3.093   0.658   2.807 -0.5728  0.1744 -0.3393
 7810SOL     OW34891   3.226   3.665   2.286 -0.3970  0.5636  0.2635
 7810SOL    HW134892   3.162   3.722   2.242  0.5477  1.5517  0.1682
 7810SOL    HW234893   3.277   3.644   2.207  1.5525 -0.7964  1.9048
 7811SOL     OW34894   0.437   1.010   0.390 -0.0534  0.1518 -0.1178
 7811SOL    HW134895   0.479   1.028   0.474 -1.7244 -1.0467  0.9774
 7811SOL    HW234896   0.428   1.093   0.344 -2.9797 -0.0609  0.0147
 7812SOL     OW34897   3.651   1.032   2.764 -0.1576  0.3448  0.1920
 7812SOL    HW134898   3.640   1.023   2.670  1.5472 -0.3946  0.0734
 7812SOL    HW234899   3.638   1.126   2.768  0.7803  0.5452 -1.4075
 7813SOL     OW34900   1.315   1.768   9.609 -0.6106  0.1495 -0.3445
 7813SOL    HW134901   1.327   1.845   9.554 -1.4182 -0.5628 -1.5077
 7813SOL    HW234902   1.308   1.705   9.537 -0.6615  0.8634 -0.9592
 7814SOL     OW34903   2.691   4.457   5.941  0.1135 -0.5860 -0.3216
 7814SOL    HW134904   2.596   4.465   5.952  0.1515  0.6410 -0.9120
 7814SOL    HW234905   2.720   4.543   5.970  0.1360 -0.1429 -1.6565
 7815SOL     OW34906   3.239   1.358   6.439  0.3386  0.2005  0.4293
 7815SOL    HW134907   3.233   1.453   6.430 -0.7615  0.1226  0.2802
 7815SOL    HW234908   3.308   1.347   6.374  0.7407 -1.5657  1.1502
 7816SOL     OW34909   3.692   4.516   8.410  0.0749 -0.5604  0.2850
 7816SOL    HW134910   3.617   4.468   8.374 -0.1183 -0.6521  0.8160
 7816SOL    HW234911   3.653   4.601   8.426 -0.5313 -0.7264 -0.3240
 7817SOL     OW34912   0.390   2.030   9.793  0.3533 -0.4914  0.3739
 7817SOL    HW134913   0.310   2.036   9.740 -1.0723 -1.7087  2.3817
 7817SOL    HW234914   0.452   2.084   9.745  0.2987  0.9431  1.9112
 7818SOL     OW34915   2.011   4.484   8.407 -0.1440  0.2669  0.4236
 7818SOL    HW134916   1.920   4.454   8.408  0.1175 -0.5494 -0.8313
 7818SOL    HW234917   2.003   4.579   8.399 -2.1185  0.0663  0.0393
 7819SOL     OW34918   2.840   3.371  16.357  0.1316 -0.5855 -0.8963
 7819SOL    HW134919   2.848   3.463  16.333 -0.6159  0.0215  1.1534
 7819SOL    HW234920   2.858   3.377  16.451 -4.1214 -1.3565 -0.0534
 7820SOL     OW34921   2.396   0.603   5.619 -0.2306  0.1406 -0.2668
 7820SOL    HW134922   2.432   0.518   5.595 -0.2255  0.1269 -0.2108
 7820SOL    HW234923   2.449   0.652   5.556 -0.8863  0.9473 -0.1953
 7821SOL     OW34924   0.235   1.385   8.162 -0.4533 -0.2424  0.0868
 7821SOL    HW134925   0.311   1.364   8.216 -0.3146  1.0924  0.4131
 7821SOL    HW234926   0.166   1.398   8.227 -0.9546  1.0277 -0.7067
 7822SOL     OW34927   4.160   4.455  12.994 -0.2144  0.1754 -0.3241
 7822SOL    HW134928   4.116   4.466  12.910 -0.0546  0.9456 -0.3080
 7822SOL    HW234929   4.252   4.459  12.966  0.0584 -0.9543  0.4293
 7823SOL     OW34930   4.557   4.656   3.342 -0.3132  0.1510 -0.0463
 7823SOL    HW134931   4.577   4.639   3.434  1.4081  0.3414 -0.3704
 7823SOL    HW234932   4.562   4.571   3.299  1.9407  1.1147 -1.7144
 7824SOL     OW34933   1.661   0.709   7.196 -0.7793  0.0323 -0.0949
 7824SOL    HW134934   1.611   0.788   7.175  1.2063  1.2083 -0.3600
 7824SOL    HW234935   1.628   0.697   7.285 -0.6580 -1.6806 -0.2775
 7825SOL     OW34936   4.303   4.445  17.353  0.2078  0.1841  0.6812
 7825SOL    HW134937   4.310   4.478  17.443  0.5773 -1.7022  1.3609
 7825SOL    HW234938   4.209   4.440  17.338 -0.7021  0.9576  5.9237
 7826SOL     OW34939   0.524   1.632   9.949  0.1202  0.1050  0.0074
 7826SOL    HW134940   0.445   1.606   9.903 -0.0037  0.0220  0.2625
 7826SOL    HW234941   0.558   1.709   9.904  0.3297 -0.8333 -1.4215
 7827SOL     OW34942   2.082   3.599   4.102 -0.4032 -0.1565 -0.2071
 7827SOL    HW134943   2.024   3.569   4.171 -0.7640  0.2390 -0.3432
 7827SOL    HW234944   2.045   3.558   4.024 -0.9952  2.8131 -1.4878
 7828SOL     OW34945   0.274   2.256  10.860  0.8438  0.0075 -1.1000
 7828SOL    HW134946   0.216   2.192  10.902  2.5395  0.4135  1.8803
 7828SOL    HW234947   0.356   2.223  10.897 -0.3558 -0.2992  1.2763
 7829SOL     OW34948   4.209   2.691   5.202  0.3462  0.1352 -0.2014
 7829SOL    HW134949   4.287   2.735   5.168  1.2538 -1.5254 -0.2643
 7829SOL    HW234950   4.168   2.768   5.239 -0.5859  1.0871 -3.1764
 7830SOL     OW34951   1.824   3.415   6.600  0.2337 -0.1791 -0.0476
 7830SOL    HW134952   1.895   3.463   6.641  0.3498 -0.4653  0.0873
 7830SOL    HW234953   1.803   3.458   6.518 -1.2934  1.1397  1.0277
 7831SOL     OW34954   2.824   2.701   0.974 -0.4470 -0.0080  0.2150
 7831SOL    HW134955   2.776   2.618   0.977  0.0570 -0.2074  3.0754
 7831SOL    HW234956   2.747   2.756   0.965 -1.1737 -1.1078 -0.2490
 7832SOL     OW34957   3.025   2.720  15.895 -0.3454 -0.1750 -0.1036
 7832SOL    HW134958   3.097   2.702  15.956 -1.5885  0.1436  1.4677
 7832SOL    HW234959   3.055   2.797  15.846 -0.4668  0.9747  1.6051
 7833SOL     OW34960   3.450   3.188  10.326  0.3953  0.5573 -0.1956
 7833SOL    HW134961   3.482   3.102  10.299 -1.2140  0.1806 -0.9240
 7833SOL    HW234962   3.491   3.189  10.412 -0.7267  2.5653  0.3014
 7834SOL     OW34963   2.766   3.410   4.628  0.1216 -0.2768  0.4121
 7834SOL    HW134964   2.853   3.446   4.647  0.3069  1.0493 -3.0017
 7834SOL    HW234965   2.760   3.341   4.693  1.4337 -2.1835 -1.4939
 7835SOL     OW34966   3.131   3.056   9.709  0.3223  0.4267 -0.6224
 7835SOL    HW134967   3.183   3.111   9.768 -0.5368  1.2200 -0.5956
 7835SOL    HW234968   3.198   3.005   9.664  0.9248 -0.6044  1.4651
 7836SOL     OW34969   1.400   0.481  17.355  0.0355  0.2182  0.4578
 7836SOL    HW134970   1.489   0.488  17.321 -1.9369  1.3765 -4.5106
 7836SOL    HW234971   1.398   0.539  17.431  2.0585  0.0827  0.6224
 7837SOL     OW34972   0.182   3.673   8.212 -0.2312 -0.1485 -0.2377
 7837SOL    HW134973   0.129   3.737   8.164 -2.6933 -1.8561  0.1981
 7837SOL    HW234974   0.163   3.699   8.302  1.9778 -0.7445  0.4151
 7838SOL     OW34975   2.647   2.617   3.185 -0.5349  0.7426 -0.7626
 7838SOL    HW134976   2.732   2.661   3.191  0.2793 -0.6674 -2.0035
 7838SOL    HW234977   2.653   2.601   3.091 -2.4002  1.0263 -0.9374
 7839SOL     OW34978   1.525   2.208   3.885  0.0792  0.1069  0.4243
 7839SOL    HW134979   1.430   2.205   3.889 -0.1132  1.3064 -2.6582
 7839SOL    HW234980   1.528   2.303   3.883 -1.5307  0.1255 -1.7609
 7840SOL     OW34981   0.850   1.374  14.826 -0.0818 -0.3650 -0.0651
 7840SOL    HW134982   0.838   1.296  14.880  0.4205  0.4928  1.2850
 7840SOL    HW234983   0.825   1.331  14.744 -2.0170  0.3926  0.1182
 7841SOL     OW34984   2.510   2.386   1.967 -0.0069  0.6575  0.9289
 7841SOL    HW134985   2.429   2.342   1.991 -0.3956 -0.2982 -2.1739
 7841SOL    HW234986   2.487   2.464   2.018  1.1424  1.4943  0.1626
 7842SOL     OW34987   3.145   4.634  17.531 -0.4002  0.0666 -0.3099
 7842SOL    HW134988   3.222   4.656  17.480 -0.5015 -0.8128 -0.8398
 7842SOL    HW234989   3.168   4.593  17.615  0.0897  1.5990  0.3061
 7843SOL     OW34990   1.405   1.698   3.115  0.3683  0.5501  0.2189
 7843SOL    HW134991   1.330   1.640   3.104  0.8239 -0.2436  1.3099
 7843SOL    HW234992   1.479   1.647   3.082  0.1929  0.8095 -0.5838
 7844SOL     OW34993   0.223   3.442   1.179  0.3627  0.6106  0.5237
 7844SOL    HW134994   0.293   3.427   1.115  1.2360  0.7207  1.4504
 7844SOL    HW234995   0.172   3.362   1.168  1.0441  0.2921 -0.3764
 7845SOL     OW34996   2.494   2.038   2.919 -0.1696 -0.2174 -0.1759
 7845SOL    HW134997   2.567   1.998   2.872  0.4747  0.6650  0.0853
 7845SOL    HW234998   2.491   1.969   2.986 -2.6778 -0.7346 -0.8227
 7846SOL     OW34999   0.881   3.252   6.704 -0.3590 -0.8209  0.6497
 7846SOL    HW135000   0.848   3.255   6.794 -1.2307 -3.5166  0.3989
 7846SOL    HW235001   0.883   3.347   6.689 -2.4204 -0.4723  2.4976
 7847SOL     OW35002   4.272   1.044   9.896 -0.1947 -0.9065  0.5037
 7847SOL    HW135003   4.225   1.127   9.901 -0.5939 -0.9598 -2.3407
 7847SOL    HW235004   4.206   0.982   9.927 -1.5461 -0.1107 -0.7614
 7848SOL     OW35005   1.494   4.088   9.027 -0.5525 -0.4243  0.2879
 7848SOL    HW135006   1.529   4.117   9.111 -2.6816  1.4069  0.5552
 7848SOL    HW235007   1.447   4.166   8.999  0.0863  0.6851  2.2876
 7849SOL     OW35008   2.528   3.747   1.090 -0.4212 -0.5293 -0.9844
 7849SOL    HW135009   2.597   3.712   1.147 -0.7729 -2.7021 -1.9258
 7849SOL    HW235010   2.560   3.838   1.084  0.2943 -0.6993  0.1049
 7850SOL     OW35011   2.183   4.424  14.629  0.3316 -0.0681 -0.2285
 7850SOL    HW135012   2.115   4.491  14.641  0.0302 -0.3258 -0.4751
 7850SOL    HW235013   2.161   4.373  14.707  1.4170 -0.3677 -0.1311
 7851SOL     OW35014   0.338   1.809   1.777  0.2693  1.2310  0.7745
 7851SOL    HW135015   0.245   1.801   1.797 -0.3083  3.1808 -1.1114
 7851SOL    HW235016   0.351   1.904   1.767 -2.0276  1.3259 -1.1497
 7852SOL     OW35017   2.182   0.578   5.457  0.2165 -0.0385 -0.3341
 7852SOL    HW135018   2.229   0.601   5.536 -0.5868 -0.0995  0.1619
 7852SOL    HW235019   2.118   0.649   5.460 -1.3082 -1.3857 -0.6145
 7853SOL     OW35020   4.477   4.011   0.349  0.1194 -0.3858 -0.0356
 7853SOL    HW135021   4.557   4.014   0.297 -0.2396 -1.3677 -0.6507
 7853SOL    HW235022   4.454   3.918   0.356 -1.5432  0.0933  0.7946
 7854SOL     OW35023   1.519   2.772   6.083 -0.0742  0.2256  0.1502
 7854SOL    HW135024   1.580   2.815   6.142 -0.5524  1.2827 -0.1207
 7854SOL    HW235025   1.433   2.799   6.116  0.5286  0.4656  1.4954
 7855SOL     OW35026   1.959   2.967   3.932 -0.3659  0.0270  0.3514
 7855SOL    HW135027   2.045   2.940   3.964 -0.0084  0.6429 -0.0903
 7855SOL    HW235028   1.947   2.918   3.851  0.9029  0.1063  0.1164
 7856SOL     OW35029   0.310   2.830  13.948  0.4044  0.1433 -0.3410
 7856SOL    HW135030   0.231   2.883  13.936  0.0722 -0.2126  0.2920
 7856SOL    HW235031   0.358   2.857  13.870 -0.9846  4.1393  0.1520
 7857SOL     OW35032   0.118   2.571  12.645 -0.1727 -0.1264  0.2795
 7857SOL    HW135033   0.208   2.575  12.676  0.5253  1.2089 -1.9280
 7857SOL    HW235034   0.127   2.639  12.578  2.2235 -0.0906  0.6545
 7858SOL     OW35035   4.324   3.135   6.171 -0.5112 -0.4736  0.6373
 7858SOL    HW135036   4.337   3.051   6.128  2.5416  0.3842 -0.1013
 7858SOL    HW235037   4.359   3.195   6.106  0.8331 -1.1180  0.7669
 7859SOL     OW35038   0.377   4.655   9.586  0.1053  0.3838 -0.0839
 7859SOL    HW135039   0.282   4.642   9.592 -0.1149  2.4824  0.9378
 7859SOL    HW235040   0.407   4.663   9.676  0.0556 -0.6110  0.0239
 7860SOL     OW35041   2.884   0.378   2.820 -0.1356 -0.6650 -0.0101
 7860SOL    HW135042   2.800   0.425   2.818  0.3375  0.1370 -1.1354
 7860SOL    HW235043   2.940   0.449   2.789 -0.6587 -0.0281  0.5174
 7861SOL     OW35044   2.940   2.777   4.631  0.4104  0.3814 -0.3809
 7861SOL    HW135045   2.905   2.727   4.704 -0.0522  1.5155  0.1688
 7861SOL    HW235046   2.916   2.861   4.670 -1.9306 -1.5634  2.3131
 7862SOL     OW35047   4.363   3.199   8.142  0.0521 -0.1603 -0.0292
 7862SOL    HW135048   4.355   3.280   8.193  0.3379  0.9983 -1.8306
 7862SOL    HW235049   4.391   3.228   8.055 -3.2955  1.0556 -0.7217
 7863SOL     OW35050   2.513   1.295   0.671  0.6294  0.4391 -0.0953
 7863SOL    HW135051   2.600   1.303   0.632  0.1607 -2.3968 -1.8032
 7863SOL    HW235052   2.472   1.351   0.606  0.5979  2.0617  1.3376
 7864SOL     OW35053   0.858   3.885   5.573 -0.2075  0.5266  0.4717
 7864SOL    HW135054   0.870   3.819   5.641  0.1277  0.3187  0.2103
 7864SOL    HW235055   0.945   3.925   5.574 -0.0591  0.1964  0.7268
 7865SOL     OW35056   3.223   2.294  12.354 -0.3420  0.2433  0.1205
 7865SOL    HW135057   3.313   2.309  12.383 -1.0107  1.5617  1.5009
 7865SOL    HW235058   3.240   2.289  12.259 -0.6101  1.2250  0.0248
 7866SOL     OW35059   0.341   1.524   6.383 -0.3160 -0.0502  0.2390
 7866SOL    HW135060   0.389   1.604   6.403 -1.9482  1.1489 -0.6996
 7866SOL    HW235061   0.315   1.537   6.292  1.2142  2.3078  0.1474
 7867SOL     OW35062   1.329   1.044   8.205 -0.1356 -0.0974  0.2939
 7867SOL    HW135063   1.249   1.065   8.254  1.2183 -1.3654  3.0784
 7867SOL    HW235064   1.389   1.033   8.279  1.1099  0.5765 -0.6161
 7868SOL     OW35065   0.908   1.047   7.250 -0.3016  0.2313  0.2736
 7868SOL    HW135066   0.936   1.126   7.296 -0.7766  1.2732 -1.2319
 7868SOL    HW235067   0.822   1.077   7.218 -0.3404 -1.7263 -1.4698
 7869SOL     OW35068   4.134   0.388  17.623 -0.2526 -0.4219 -0.3146
 7869SOL    HW135069   4.116   0.482  17.615 -2.8710 -0.7710  1.5712
 7869SOL    HW235070   4.203   0.401   0.003 -0.0115  0.8878 -0.8289
 7870SOL     OW35071   4.527   3.847   2.933  0.4024  0.1843  0.1688
 7870SOL    HW135072   4.554   3.755   2.939  1.6282  0.5391  0.2933
 7870SOL    HW235073   4.464   3.846   2.861 -1.7188  0.9304  2.0116
 7871SOL     OW35074   3.004   1.551   8.391  0.0353  0.6269  0.0323
 7871SOL    HW135075   2.987   1.457   8.392 -0.9606  0.8068 -0.6857
 7871SOL    HW235076   2.942   1.580   8.458 -0.5109  1.3420 -0.7823
 7872SOL     OW35077   0.001   4.159   6.821 -0.3730 -0.2138  0.0630
 7872SOL    HW135078   0.063   4.205   6.764 -1.2322  2.5037  1.3146
 7872SOL    HW235079   4.649   4.220   6.831 -1.2796 -1.2851 -0.1054
 7873SOL     OW35080   2.170   3.295  10.501 -0.2070 -0.1703 -0.2449
 7873SOL    HW135081   2.142   3.272  10.590 -0.8132  0.3268 -0.3106
 7873SOL    HW235082   2.158   3.207  10.466  0.8778 -1.4153  2.4618
 7874SOL     OW35083   1.319   1.286   3.679  0.2165  0.5968  0.2971
 7874SOL    HW135084   1.273   1.334   3.609 -1.3832 -2.6397 -0.8774
 7874SOL    HW235085   1.282   1.198   3.677 -1.6333  1.4203 -3.6100
 7875SOL     OW35086   1.148   1.049   7.517  0.4436  0.0147  0.4661
 7875SOL    HW135087   1.151   1.145   7.518 -1.0472  0.0439  2.1026
 7875SOL    HW235088   1.236   1.025   7.545  1.3325  2.3372 -0.3701
 7876SOL     OW35089   2.052   3.044   4.623  0.5670 -0.4782  0.7291
 7876SOL    HW135090   2.035   2.949   4.622 -0.4117 -0.2968 -1.2155
 7876SOL    HW235091   1.961   3.074   4.622  0.7392 -0.0533 -1.6546
 7877SOL     OW35092   1.737   3.739   3.849 -0.2872  0.0098  0.0317
 7877SOL    HW135093   1.668   3.710   3.790  0.7974 -1.0485 -0.7117
 7877SOL    HW235094   1.778   3.800   3.788  0.6266  1.6412  2.2304
 7878SOL     OW35095   0.821   0.138   6.990 -0.1783 -0.4541 -0.3674
 7878SOL    HW135096   0.843   0.045   6.977 -1.4123 -0.6873 -0.7279
 7878SOL    HW235097   0.906   0.172   6.962 -0.1640  0.4006  0.7198
 7879SOL     OW35098   0.563   1.757   3.411 -0.6242  0.0120 -0.0322
 7879SOL    HW135099   0.484   1.712   3.441  0.3755 -0.9771  1.0939
 7879SOL    HW235100   0.562   1.773   3.317 -0.6389 -1.9654 -0.3696
 7880SOL     OW35101   3.167   2.071   2.530 -0.2948 -0.1578 -0.7294
 7880SOL    HW135102   3.185   2.009   2.600  0.3086  0.7984 -0.0318
 7880SOL    HW235103   3.171   2.157   2.572 -0.9752 -0.3429 -0.2889
 7881SOL     OW35104   1.928   0.007   8.451  0.0048 -0.0580 -0.3183
 7881SOL    HW135105   1.862   0.047   8.394  0.3247  0.1307 -0.5579
 7881SOL    HW235106   1.927   0.076   8.517 -0.6146 -0.1800 -0.1968
 7882SOL     OW35107   0.424   2.644   6.376 -0.2755  0.0348  0.0849
 7882SOL    HW135108   0.470   2.699   6.439 -1.1016 -0.2954  0.9866
 7882SOL    HW235109   0.344   2.631   6.428 -1.2147 -0.6586 -1.5511
 7883SOL     OW35110   1.137   1.514   8.111  0.6017  0.8316 -0.2275
 7883SOL    HW135111   1.094   1.471   8.185 -0.3140 -0.4383 -1.4816
 7883SOL    HW235112   1.200   1.573   8.152  2.7494 -1.3913 -0.3329
 7884SOL     OW35113   3.378   2.261   6.126  0.2504 -0.0462  0.4218
 7884SOL    HW135114   3.355   2.351   6.104  1.2138 -0.0467 -0.6212
 7884SOL    HW235115   3.458   2.243   6.075  0.2012  3.2438 -0.8316
 7885SOL     OW35116   2.270   1.065   4.049  0.2933  0.3444 -0.2527
 7885SOL    HW135117   2.287   1.146   4.097  2.9418  0.4015 -1.2957
 7885SOL    HW235118   2.176   1.058   4.068  0.1104  0.4507 -1.1279
 7886SOL     OW35119   1.274   1.830  16.187 -0.8182  0.2675 -0.5528
 7886SOL    HW135120   1.242   1.844  16.099  0.7179  1.5130 -0.9202
 7886SOL    HW235121   1.216   1.763  16.224 -0.8829  1.0523  0.7786
 7887SOL     OW35122   3.810   2.008  14.226 -0.3466 -0.1519 -0.3513
 7887SOL    HW135123   3.905   2.013  14.211 -0.5172  0.3346 -1.2594
 7887SOL    HW235124   3.786   2.000  14.133  0.8781 -2.2675 -0.4939
 7888SOL     OW35125   3.849   4.545  13.132 -0.2115 -0.1339  0.7399
 7888SOL    HW135126   3.939   4.576  13.120  1.1937 -4.3069  0.6964
 7888SOL    HW235127   3.845   4.584  13.219 -0.4258  3.4681 -0.8667
 7889SOL     OW35128   3.583   2.948  10.230 -0.5880  0.2236  0.2836
 7889SOL    HW135129   3.515   2.925  10.167 -0.9226  1.2489  0.2776
 7889SOL    HW235130   3.617   2.861  10.251 -2.9267 -0.9160 -0.5771
 7890SOL     OW35131   3.343   0.135   9.897  0.0938 -0.1809 -0.1289
 7890SOL    HW135132   3.313   0.093   9.977 -0.0425  0.1607 -0.0037
 7890SOL    HW235133   3.310   0.072   9.832  0.0247  0.3204 -0.5820
 7891SOL     OW35134   0.584   3.253   5.997 -0.1388 -0.4016  0.5121
 7891SOL    HW135135   0.631   3.267   6.079 -0.6112  0.1854  0.6805
 7891SOL    HW235136   0.643   3.281   5.926 -1.6386  1.2505 -0.0989
 7892SOL     OW35137   3.812   4.045  15.512  0.6952 -0.4558 -0.2772
 7892SOL    HW135138   3.894   4.085  15.482  0.2220  1.9180  1.5327
 7892SOL    HW235139   3.813   4.077  15.603  1.1656  0.8820 -0.7439
 7893SOL     OW35140   2.128   2.011   5.525 -0.5414  0.1512  0.2479
 7893SOL    HW135141   2.207   1.989   5.576 -1.7402 -0.3590  1.9078
 7893SOL    HW235142   2.053   2.005   5.584 -1.1798  3.0748 -0.2814
 7894SOL     OW35143   0.202   0.700   5.020 -0.3670  0.0687 -0.3034
 7894SOL    HW135144   0.213   0.615   4.978  0.6243 -0.3774  0.8584
 7894SOL    HW235145   0.136   0.676   5.085 -0.1262 -2.6492 -1.0706
 7895SOL     OW35146   1.079   2.411   3.305 -0.3797 -0.2346 -0.5731
 7895SOL    HW135147   1.124   2.476   3.252  0.6813 -0.3425  0.1958
 7895SOL    HW235148   1.141   2.344   3.278  0.9428  1.3861 -1.4705
 7896SOL     OW35149   1.216   0.190  11.466 -0.1344  0.7223  0.6500
 7896SOL    HW135150   1.203   0.280  11.496 -0.5114  1.5434 -1.9842
 7896SOL    HW235151   1.198   0.197  11.372  0.6113 -0.0547  0.4477
 7897SOL     OW35152   3.247   2.910   7.393  0.9121 -0.4477  1.0554
 7897SOL    HW135153   3.193   2.932   7.469 -2.1046 -0.0116 -1.2219
 7897SOL    HW235154   3.182   2.886   7.328 -0.7497 -1.9892  3.2759
 7898SOL     OW35155   2.861   0.340  15.938 -0.4412 -0.1928 -0.2464
 7898SOL    HW135156   2.782   0.291  15.962 -0.3173  0.3621  1.2926
 7898SOL    HW235157   2.911   0.287  15.876 -2.3004 -3.0707  0.6942
 7899SOL     OW35158   0.421   0.688  17.403  0.5304 -0.1596  0.0582
 7899SOL    HW135159   0.335   0.720  17.374  1.0922  3.2869  2.1180
 7899SOL    HW235160   0.411   0.602  17.363  1.4188  0.3096 -1.1351
 7900SOL     OW35161   2.541   3.188   5.395 -0.1901  0.1581  0.4566
 7900SOL    HW135162   2.496   3.223   5.472  0.5468  1.0086  0.4957
 7900SOL    HW235163   2.628   3.191   5.434  0.3860  1.1886 -0.8955
 7901SOL     OW35164   2.953   4.090   9.854 -0.8006 -0.3481  0.3209
 7901SOL    HW135165   2.886   4.051   9.797  1.2453 -0.5976 -1.8680
 7901SOL    HW235166   3.010   4.136   9.793 -0.5694 -1.7923 -0.5427
 7902SOL     OW35167   0.022   2.475   6.083  0.1337  0.2173 -0.6524
 7902SOL    HW135168   0.021   2.566   6.111 -1.9639 -0.6906  2.2984
 7902SOL    HW235169   0.053   2.479   5.993  1.4476 -0.8668 -0.2382
 7903SOL     OW35170   1.227   0.634   5.733 -0.2787  0.7932 -0.1350
 7903SOL    HW135171   1.279   0.680   5.798  1.8124  1.1847 -2.0891
 7903SOL    HW235172   1.153   0.604   5.785  1.1407 -1.5227  0.5313
 7904SOL     OW35173   3.272   3.958  11.245  0.9449 -0.8508 -0.3773
 7904SOL    HW135174   3.347   4.013  11.219  1.3781 -0.7743  1.0582
 7904SOL    HW235175   3.315   3.898  11.306 -0.7891 -0.9897  0.6842
 7905SOL     OW35176   2.637   2.066   8.238 -0.0615  0.4683 -0.1317
 7905SOL    HW135177   2.661   2.157   8.254  0.4809  0.3103 -0.0713
 7905SOL    HW235178   2.692   2.066   8.160 -1.0471  2.2828 -0.8317
 7906SOL     OW35179   4.338   3.195  10.166  0.0703 -0.4685  0.1490
 7906SOL    HW135180   4.313   3.138  10.239 -0.3533 -1.4830 -0.7948
 7906SOL    HW235181   4.270   3.176  10.101 -0.5860 -0.0836  0.7128
 7907SOL     OW35182   2.310   2.066   2.436  0.0198 -0.3226 -0.1324
 7907SOL    HW135183   2.386   2.041   2.383 -0.3747 -0.7487 -0.4930
 7907SOL    HW235184   2.300   2.157   2.410 -1.5138 -0.2071  0.8362
 7908SOL     OW35185   4.303   4.216   6.142 -0.3584 -0.4100  0.1925
 7908SOL    HW135186   4.212   4.210   6.174 -0.0674 -2.5379  0.5927
 7908SOL    HW235187   4.344   4.133   6.165 -1.3142 -0.5185  1.4956
 7909SOL     OW35188   2.638   2.507   0.963 -0.1560  0.3419 -0.4359
 7909SOL    HW135189   2.683   2.425   0.945  0.5291  0.7681 -0.7082
 7909SOL    HW235190   2.569   2.500   0.897 -0.1983  0.3735 -0.3951
 7910SOL     OW35191   3.894   2.132  10.890  0.1391 -0.0307 -0.2628
 7910SOL    HW135192   3.858   2.051  10.856 -0.8355 -0.6147  2.1299
 7910SOL    HW235193   3.907   2.116  10.984  0.2001 -0.3787 -0.3311
 7911SOL     OW35194   3.816   2.488  14.113 -0.6634  0.2738 -0.0064
 7911SOL    HW135195   3.756   2.425  14.153 -1.5967  0.3232 -1.3502
 7911SOL    HW235196   3.903   2.457  14.140  0.0265 -0.5743 -3.2253
 7912SOL     OW35197   4.425   4.525   1.523  0.5241 -0.6262 -0.2305
 7912SOL    HW135198   4.376   4.479   1.592  0.4002 -2.0946 -1.2907
 7912SOL    HW235199   4.479   4.588   1.572  0.0824 -0.6724  0.3203
 7913SOL     OW35200   0.471   1.168  10.051 -0.3080  0.4879  0.0525
 7913SOL    HW135201   0.546   1.227  10.056  0.6640 -0.7705  0.3362
 7913SOL    HW235202   0.436   1.184   9.964  0.1331  0.3814 -0.1444
 7914SOL     OW35203   2.425   0.324   2.875 -0.0917  0.0073  0.1863
 7914SOL    HW135204   2.427   0.362   2.787  0.0767  1.5160  0.8444
 7914SOL    HW235205   2.350   0.266   2.866 -0.1806  0.0884  0.4077
 7915SOL     OW35206   1.772   2.066  15.078  0.0926  0.4182  0.0333
 7915SOL    HW135207   1.814   2.150  15.061  3.3981 -1.4141 -1.0278
 7915SOL    HW235208   1.801   2.018  15.001  0.4792  0.0201  0.4211
 7916SOL     OW35209   2.187   1.467  11.783 -0.5880 -0.2534 -0.2865
 7916SOL    HW135210   2.216   1.549  11.823  3.3523 -1.9371  0.2760
 7916SOL    HW235211   2.268   1.436  11.744 -1.2263 -1.5154 -0.6188
 7917SOL     OW35212   4.138   3.653   7.652  0.0031  0.4992 -0.2847
 7917SOL    HW135213   4.105   3.735   7.688  0.3824  1.3112 -1.7850
 7917SOL    HW235214   4.080   3.589   7.693  2.8415 -0.6249  1.9758
 7918SOL     OW35215   1.779   4.012   8.530 -0.5549  0.1100  0.6884
 7918SOL    HW135216   1.795   4.105   8.545 -1.5031  0.1392  1.5796
 7918SOL    HW235217   1.696   4.015   8.483  0.3560  0.5297 -0.8663
 7919SOL     OW35218   1.329   3.822   4.878  0.7728 -0.0254 -0.0854
 7919SOL    HW135219   1.309   3.737   4.839  0.7307  0.8590 -1.9966
 7919SOL    HW235220   1.414   3.809   4.920  0.9016 -0.5126 -0.5007
 7920SOL     OW35221   3.464   2.750   0.794 -0.4859 -0.2143 -0.4495
 7920SOL    HW135222   3.463   2.763   0.889  0.2042 -0.5399 -0.3943
 7920SOL    HW235223   3.524   2.817   0.761  1.7163 -0.3678  3.1659
 7921SOL     OW35224   0.694   0.008   7.412 -0.4107 -0.0297  0.2329
 7921SOL    HW135225   0.745   4.663   7.364 -0.5513  0.3372 -0.4281
 7921SOL    HW235226   0.755   0.035   7.481 -0.7512  2.4551 -0.4448
 7922SOL     OW35227   0.101   4.101   8.927  0.2805  0.2609  0.0545
 7922SOL    HW135228   0.050   4.061   8.998  1.6376 -0.2331  0.7654
 7922SOL    HW235229   0.118   4.190   8.958  1.8531 -0.0104 -0.0281
 7923SOL     OW35230   0.459   2.587  12.591 -0.6866  0.2466  0.2785
 7923SOL    HW135231   0.425   2.540  12.514  0.3149  0.7829 -0.4806
 7923SOL    HW235232   0.539   2.621  12.551 -0.8464 -1.6321 -1.6366
 7924SOL     OW35233   3.088   2.213   8.026  0.2316 -0.0036 -0.2917
 7924SOL    HW135234   3.130   2.296   8.048 -1.9006  1.3927 -1.4689
 7924SOL    HW235235   3.144   2.159   8.081 -2.1692 -1.9584  0.2364
 7925SOL     OW35236   4.400   3.978   5.954 -0.1625 -0.0303 -0.1259
 7925SOL    HW135237   4.307   3.995   5.939 -0.0051  0.7012 -0.2666
 7925SOL    HW235238   4.418   4.011   5.866  0.9894 -2.5564 -0.8606
 7926SOL     OW35239   3.314   2.380  13.800 -0.2312 -0.0814 -0.2099
 7926SOL    HW135240   3.284   2.430  13.724  1.3168 -0.9443 -1.3942
 7926SOL    HW235241   3.336   2.453  13.857 -0.0845  0.0557 -0.4423
 7927SOL     OW35242   3.895   3.149   4.229 -0.0952 -0.0801 -0.4152
 7927SOL    HW135243   3.975   3.106   4.259  0.4116  0.6545 -0.7241
 7927SOL    HW235244   3.835   3.075   4.234  0.4943 -0.4142  1.6423
 7928SOL     OW35245   3.473   1.894  16.242 -0.2928  0.3716  0.3711
 7928SOL    HW135246   3.466   1.983  16.207 -0.5467 -0.7741 -2.4374
 7928SOL    HW235247   3.388   1.859  16.216 -0.4360  1.8096 -1.1128
 7929SOL     OW35248   3.860   1.663   0.006  0.9364  0.7149 -0.0524
 7929SOL    HW135249   3.900   1.590   0.054 -2.3665 -0.5469  0.7788
 7929SOL    HW235250   3.779   1.663   0.057  0.9917 -1.4623  0.0394
 7930SOL     OW35251   1.855   2.492   5.667  0.1152 -0.0692 -0.8940
 7930SOL    HW135252   1.922   2.423   5.672  2.0006  1.7850 -0.4403
 7930SOL    HW235253   1.778   2.457   5.622  0.3269  0.5149 -1.7199
 7931SOL     OW35254   3.429   3.615   8.166  0.7731  0.3650 -0.2836
 7931SOL    HW135255   3.442   3.666   8.086  0.9543  0.8245  0.0402
 7931SOL    HW235256   3.334   3.621   8.176  0.7192 -2.0210  0.7147
 7932SOL     OW35257   2.116   3.343  15.526 -0.3125 -0.0651 -0.3847
 7932SOL    HW135258   2.130   3.378  15.438 -0.6759  1.0238 -0.0145
 7932SOL    HW235259   2.061   3.409  15.569 -2.4365 -2.5135  0.6538
 7933SOL     OW35260   2.726   3.837   6.959 -0.3296  0.5046  0.7038
 7933SOL    HW135261   2.643   3.882   6.944 -0.5371 -0.3279 -0.6738
 7933SOL    HW235262   2.695   3.772   7.021 -2.2119 -1.9634 -2.8231
 7934SOL     OW35263   0.109   4.274   4.656 -0.5298  0.5512 -0.0491
 7934SOL    HW135264   0.182   4.302   4.600 -0.9384  1.7359  0.0223
 7934SOL    HW235265   0.056   4.245   4.582 -0.1212  1.3124 -0.6393
 7935SOL     OW35266   1.305   0.633  17.147  0.2164  0.3053  0.3995
 7935SOL    HW135267   1.298   0.564  17.080  0.6414 -0.5946  1.2880
 7935SOL    HW235268   1.321   0.579  17.224  0.4876 -1.1822 -0.6865
 7936SOL     OW35269   3.646   3.097  13.910 -0.5416  0.2672 -0.1310
 7936SOL    HW135270   3.553   3.076  13.920 -0.1703  0.8102  4.7220
 7936SOL    HW235271   3.637   3.192  13.908 -2.1482  0.2368  4.2633
 7937SOL     OW35272   2.193   4.672   7.679  0.3143 -0.2405 -0.5257
 7937SOL    HW135273   2.102   4.696   7.697 -0.3044 -1.6516 -1.7873
 7937SOL    HW235274   2.209   0.003   7.600  1.6010 -0.5104 -0.4433
 7938SOL     OW35275   2.828   4.693  13.076 -0.2616 -0.0884 -0.0641
 7938SOL    HW135276   2.921   4.710  13.086 -0.2814 -1.5824  2.5466
 7938SOL    HW235277   2.792   0.044  13.129 -1.4475  1.6413 -3.1880
 7939SOL     OW35278   0.722   1.005   3.643 -0.3495 -0.4662  0.2468
 7939SOL    HW135279   0.703   0.914   3.664 -0.4218 -0.4432  0.2843
 7939SOL    HW235280   0.814   1.002   3.669  0.7691  1.9527 -3.3459
 7940SOL     OW35281   1.635   1.181   9.087  0.6748 -0.0156 -0.2312
 7940SOL    HW135282   1.607   1.171   8.996  0.0291 -0.7628  0.0511
 7940SOL    HW235283   1.726   1.153   9.091  0.5616 -0.2095  1.1074
 7941SOL     OW35284   0.755   0.446   7.745 -0.2686  0.2470 -0.2167
 7941SOL    HW135285   0.695   0.519   7.763  0.4715  0.9367 -0.5579
 7941SOL    HW235286   0.823   0.460   7.811 -0.9954 -0.4384  0.6625
 7942SOL     OW35287   2.427   4.601   9.951  0.2873 -0.2318  0.1926
 7942SOL    HW135288   2.403   4.648   9.871  0.9521 -0.9551 -0.4285
 7942SOL    HW235289   2.491   4.537   9.920 -0.4731 -0.9241  0.0611
 7943SOL     OW35290   3.640   4.148   2.538 -0.2048 -0.5330  0.6167
 7943SOL    HW135291   3.603   4.064   2.512  0.3940 -0.7053  0.3116
 7943SOL    HW235292   3.626   4.138   2.632  0.9766 -3.2716  0.5069
 7944SOL     OW35293   3.077   3.094   3.371  0.2985 -0.2076 -0.1984
 7944SOL    HW135294   3.071   2.999   3.380 -1.6246  0.0388  1.1699
 7944SOL    HW235295   3.158   3.107   3.420 -0.6652  2.8956  0.5305
 7945SOL     OW35296   0.840   0.171   8.731 -0.5888 -0.0973 -0.1901
 7945SOL    HW135297   0.888   0.108   8.784 -0.7120 -0.4438 -0.4874
 7945SOL    HW235298   0.899   0.168   8.656  1.1759  0.6835  1.1897
 7946SOL     OW35299   1.543   0.250  16.571 -0.0592 -0.3209 -0.3806
 7946SOL    HW135300   1.549   0.282  16.661  0.3366 -0.2594 -0.4273
 7946SOL    HW235301   1.631   0.222  16.544  0.2893 -0.3768  0.7735
 7947SOL     OW35302   3.855   4.534  11.074  0.0390  0.7595  0.1161
 7947SOL    HW135303   3.862   4.504  11.164 -0.7964 -1.3050 -0.5129
 7947SOL    HW235304   3.949   4.532  11.054  0.2429 -0.2118  1.2051
 7948SOL     OW35305   4.387   3.274   7.863 -0.1378 -0.0095  0.1633
 7948SOL    HW135306   4.456   3.261   7.799 -0.2798 -0.9664  0.2104
 7948SOL    HW235307   4.349   3.356   7.831 -0.6715 -1.2350 -2.3269
 7949SOL     OW35308   0.772   3.522   6.660 -0.1314  0.2762  0.3412
 7949SOL    HW135309   0.690   3.494   6.702 -0.8456  0.1002 -1.1759
 7949SOL    HW235310   0.790   3.608   6.697 -3.5083  0.4850  1.4974
 7950SOL     OW35311   4.221   2.625   8.713 -0.3997 -0.1814  0.8314
 7950SOL    HW135312   4.274   2.554   8.747  0.0813 -0.6277 -0.8280
 7950SOL    HW235313   4.269   2.667   8.641  0.8549 -1.2129  1.0839
 7951SOL     OW35314   1.934   3.147   6.172 -0.1177 -0.7169 -0.2226
 7951SOL    HW135315   1.977   3.230   6.193  0.2032 -1.1631  0.8910
 7951SOL    HW235316   1.860   3.144   6.233 -0.4540  1.5357 -0.5072
 7952SOL     OW35317   3.562   2.336   7.762  0.5480 -0.0549  0.1382
 7952SOL    HW135318   3.479   2.306   7.723  0.6324 -0.2603  0.1187
 7952SOL    HW235319   3.542   2.327   7.855  1.5152 -1.0838  0.2481
 7953SOL     OW35320   4.683   1.025   0.317 -0.3484 -0.6665 -0.1700
 7953SOL    HW135321   4.645   0.993   0.399  2.3421 -2.6234  0.3152
 7953SOL    HW235322   4.630   0.983   0.250  0.5588 -0.7152 -0.8650
 7954SOL     OW35323   0.532   2.860   6.962 -0.8371 -0.0701 -0.1581
 7954SOL    HW135324   0.577   2.857   7.046  0.8594 -1.5418 -1.1083
 7954SOL    HW235325   0.441   2.846   6.988 -0.8341 -0.2827 -0.2600
 7955SOL     OW35326   3.646   4.320  11.254  0.3166  0.2502  0.3593
 7955SOL    HW135327   3.601   4.369  11.186 -0.7604 -0.4512  0.5646
 7955SOL    HW235328   3.587   4.350  11.324 -1.7147 -1.5808 -0.5744
 7956SOL     OW35329   0.741   0.485  13.035 -0.1895 -0.0037  0.0414
 7956SOL    HW135330   0.806   0.499  12.966 -0.6573 -0.7526 -0.5582
 7956SOL    HW235331   0.663   0.530  13.002  0.3775  0.9887  0.0697
 7957SOL     OW35332   4.575   3.494   6.207 -0.3434  0.1431  0.6645
 7957SOL    HW135333   4.589   3.404   6.238 -1.3679 -0.1877  0.1860
 7957SOL    HW235334   4.659   3.532   6.231 -0.9695  1.9058  0.0146
 7958SOL     OW35335   3.483   3.329   8.900 -0.0131  0.9288 -0.1076
 7958SOL    HW135336   3.478   3.247   8.949  3.1457 -0.9246 -2.8691
 7958SOL    HW235337   3.495   3.287   8.815  0.8041 -2.3532  1.6234
 7959SOL     OW35338   3.117   2.702   0.637 -0.3963  0.3312 -0.0843
 7959SOL    HW135339   3.070   2.778   0.603  0.5354  1.0362  0.2306
 7959SOL    HW235340   3.194   2.701   0.580  0.9355  0.2570  1.7507
 7960SOL     OW35341   4.702   3.234   4.930  0.5929 -0.1919 -0.0225
 7960SOL    HW135342   4.636   3.280   4.982  3.0999  1.5701  1.6423
 7960SOL    HW235343   0.061   3.266   4.972 -0.2763  0.2676  1.2857
 7961SOL     OW35344   4.583   2.660   9.893  1.0389 -0.1846 -0.0018
 7961SOL    HW135345   4.607   2.737   9.943 -0.0754 -0.4896  0.9819
 7961SOL    HW235346   4.553   2.595   9.956 -2.9508 -0.8914 -2.6552
 7962SOL     OW35347   3.423   1.550   7.349 -0.2129  0.2367 -0.0043
 7962SOL    HW135348   3.373   1.565   7.430 -1.3729  0.0032 -0.6708
 7962SOL    HW235349   3.507   1.528   7.389 -1.0518 -1.4620  0.8235
 7963SOL     OW35350   1.144   3.660  13.543  0.3421  0.1684 -0.3950
 7963SOL    HW135351   1.139   3.726  13.611 -1.3856  0.8012 -1.1345
 7963SOL    HW235352   1.070   3.679  13.486  0.4435  0.4704 -0.4247
 7964SOL     OW35353   2.386   3.120   4.695  0.5163 -0.4799  1.1943
 7964SOL    HW135354   2.298   3.118   4.659  1.2367 -0.0695 -0.5658
 7964SOL    HW235355   2.427   3.043   4.655 -0.5238 -1.9864  3.0179
 7965SOL     OW35356   2.061   0.340   6.000 -0.1431  0.1972  0.4781
 7965SOL    HW135357   2.082   0.402   5.930 -0.2464  0.7853  0.9678
 7965SOL    HW235358   1.968   0.359   6.012  0.0956  0.4705  1.9628
 7966SOL     OW35359   1.815   3.769   7.924  0.0497 -0.3855 -0.4872
 7966SOL    HW135360   1.779   3.849   7.963 -2.1728 -1.7950  0.3240
 7966SOL    HW235361   1.809   3.792   7.831  0.3764 -0.8844 -0.6285
 7967SOL     OW35362   2.253   4.028   1.782 -0.0164  0.4270  0.3879
 7967SOL    HW135363   2.336   4.019   1.830  0.9756  1.0786 -1.1983
 7967SOL    HW235364   2.261   3.944   1.738 -0.1093  0.5426  0.1460
 7968SOL     OW35365   1.735   2.614   4.454 -0.2395 -0.7920  0.1977
 7968SOL    HW135366   1.803   2.549   4.440 -0.2319 -0.4707 -1.2664
 7968SOL    HW235367   1.783   2.696   4.465 -2.2206  0.6377 -1.5850
 7969SOL     OW35368   0.648   0.467   6.028  0.8224  0.2175  0.0801
 7969SOL    HW135369   0.593   0.535   5.988  1.2420 -0.5703 -1.8094
 7969SOL    HW235370   0.677   0.517   6.104  0.8008  1.2736 -0.6060
 7970SOL     OW35371   3.905   3.523   5.068  0.4155 -0.8730  0.2535
 7970SOL    HW135372   3.815   3.551   5.082  0.6229 -0.6430  1.1109
 7970SOL    HW235373   3.909   3.463   5.142 -0.0815  1.5724  2.2898
 7971SOL     OW35374   1.290   1.549   9.115 -0.4485 -0.5455  0.2094
 7971SOL    HW135375   1.284   1.469   9.167 -1.8316 -0.2547  0.4925
 7971SOL    HW235376   1.375   1.535   9.073 -0.4693 -0.9711  0.3034
 7972SOL     OW35377   2.729   1.568   3.076  1.1923 -0.3939 -0.1355
 7972SOL    HW135378   2.794   1.635   3.093  0.0286  1.2780 -2.2274
 7972SOL    HW235379   2.679   1.618   3.011 -1.2729 -1.9123  0.5929
 7973SOL     OW35380   2.128   3.835  14.764 -0.6614 -0.2269  0.1459
 7973SOL    HW135381   2.211   3.790  14.745 -0.9692  0.2864 -2.4168
 7973SOL    HW235382   2.106   3.868  14.677  0.7021  0.6769  0.1413
 7974SOL     OW35383   0.931   1.394   0.425  0.3281  0.1537 -0.6375
 7974SOL    HW135384   0.949   1.394   0.519  1.5695  1.4126 -0.8699
 7974SOL    HW235385   1.019   1.370   0.396  0.8280 -1.0613  1.8623
 7975SOL     OW35386   3.187   1.564   5.888  0.1918 -0.7232 -0.1112
 7975SOL    HW135387   3.181   1.658   5.901  0.0931 -0.6269 -0.8760
 7975SOL    HW235388   3.198   1.570   5.793  1.8228 -2.7611 -0.0670
 7976SOL     OW35389   1.360   1.747   3.557  0.2166  0.4891  0.6553
 7976SOL    HW135390   1.382   1.793   3.477  3.6823  0.6245  1.6888
 7976SOL    HW235391   1.397   1.809   3.620  0.0847  0.5820  0.6405
 7977SOL     OW35392   1.584   1.062  17.145  0.4031 -0.1629  0.3338
 7977SOL    HW135393   1.543   1.108  17.218 -1.7282 -1.6985  0.0938
 7977SOL    HW235394   1.566   0.971  17.170 -1.7349  0.5559  1.3799
 7978SOL     OW35395   3.388   4.505   6.565 -0.2804 -0.2732  0.1062
 7978SOL    HW135396   3.459   4.465   6.616 -0.0887 -1.3405 -0.9711
 7978SOL    HW235397   3.316   4.481   6.623 -1.4230 -0.0250 -1.2082
 7979SOL     OW35398   1.741   1.885   7.165  0.4301  0.2622 -0.1338
 7979SOL    HW135399   1.821   1.899   7.114  0.1251 -1.2759 -1.0356
 7979SOL    HW235400   1.688   1.929   7.098  1.1436  1.6340  0.2124
 7980SOL     OW35401   3.260   1.772  14.679  0.4457 -0.2073  0.0259
 7980SOL    HW135402   3.260   1.833  14.753 -0.0488  0.7527 -0.7622
 7980SOL    HW235403   3.302   1.827  14.613  1.2436  0.8959  1.4258
 7981SOL     OW35404   3.909   2.199   4.294 -0.5043 -0.7353  0.6010
 7981SOL    HW135405   3.992   2.151   4.301  0.5957  1.1736  0.5228
 7981SOL    HW235406   3.882   2.180   4.204 -2.0064 -1.9086  1.3007
 7982SOL     OW35407   1.002   4.656   3.984  0.0341  0.7017  0.1143
 7982SOL    HW135408   1.088   4.621   3.958  0.0555  1.4394 -0.8347
 7982SOL    HW235409   1.032   4.697   4.065  1.6241 -0.1370 -0.0512
 7983SOL     OW35410   1.375   0.759   5.953  0.1813 -0.0406 -0.6568
 7983SOL    HW135411   1.387   0.825   5.885 -0.9951  0.6440 -0.1904
 7983SOL    HW235412   1.313   0.806   6.008 -1.3515 -1.0217 -1.5420
 7984SOL     OW35413   0.980   0.121  11.587 -0.4363  0.0390  0.6348
 7984SOL    HW135414   1.065   0.137  11.547 -0.4197 -0.5711  0.4149
 7984SOL    HW235415   0.928   0.079  11.518  0.1206  0.5671 -0.1046
 7985SOL     OW35416   1.348   4.541   5.656 -0.0901  0.2037 -0.4224
 7985SOL    HW135417   1.345   4.616   5.597 -0.3430  0.7111  0.2307
 7985SOL    HW235418   1.334   4.465   5.600  0.9060  0.0873 -0.5017
 7986SOL     OW35419   1.112   1.658   5.977 -0.0592  0.3844 -0.1679
 7986SOL    HW135420   1.162   1.736   6.003  1.3812 -1.4544  2.6408
 7986SOL    HW235421   1.047   1.683   6.043 -0.7664 -2.4896  0.2253
 7987SOL     OW35422   1.740   0.138   8.954  0.0560  0.4074  0.3441
 7987SOL    HW135423   1.831   0.166   8.942  1.1177 -3.5143 -0.7675
 7987SOL    HW235424   1.767   0.047   8.968 -0.8499 -0.5121 -3.8631
 7988SOL     OW35425   2.216   1.268   5.122  0.3060 -0.0003  0.3852
 7988SOL    HW135426   2.138   1.298   5.076 -0.2567  1.3712  2.2045
 7988SOL    HW235427   2.185   1.198   5.179  0.8898  0.4676  1.2826
 7989SOL     OW35428   3.694   2.869   5.674  0.0984  0.1348  0.1421
 7989SOL    HW135429   3.733   2.954   5.694 -0.5830  1.0210 -2.3153
 7989SOL    HW235430   3.657   2.842   5.758  0.5046  0.5942  0.4659
 7990SOL     OW35431   2.598   0.378   6.300  0.2940  0.2014  0.1079
 7990SOL    HW135432   2.671   0.347   6.245 -0.7111  2.1076 -2.2550
 7990SOL    HW235433   2.579   0.466   6.268 -0.6576 -0.4772 -1.2100
 7991SOL     OW35434   2.500   3.551   9.694  0.1068 -0.0897  0.0720
 7991SOL    HW135435   2.530   3.494   9.622 -0.7497 -1.2112  0.5932
 7991SOL    HW235436   2.495   3.631   9.643  0.9122 -0.7392 -1.0422
 7992SOL     OW35437   1.378   2.421   8.340 -0.6988 -0.7247  0.0849
 7992SOL    HW135438   1.330   2.341   8.361 -0.2252 -1.0066  0.0978
 7992SOL    HW235439   1.461   2.380   8.316 -0.1217 -0.1183  1.0141
 7993SOL     OW35440   3.003   3.570   1.914 -0.1361 -0.4012  0.0202
 7993SOL    HW135441   3.010   3.487   1.867  1.4589 -0.8526  1.0476
 7993SOL    HW235442   3.037   3.635   1.853 -1.4596 -0.5989 -0.9297
 7994SOL     OW35443   1.877   1.149   4.962 -0.8157 -0.4249 -0.0636
 7994SOL    HW135444   1.952   1.115   5.009  0.3702  0.3825 -1.3609
 7994SOL    HW235445   1.820   1.164   5.037 -0.8281  4.6452 -1.0555
 7995SOL     OW35446   4.711   0.949   9.735 -0.4339  0.4734 -0.5415
 7995SOL    HW135447   4.690   0.902   9.816  2.1997  2.6150  1.3744
 7995SOL    HW235448   0.077   0.987   9.749 -0.2528  0.0393 -0.4835
 7996SOL     OW35449   3.206   3.168   6.652 -0.2376  0.0822  0.2338
 7996SOL    HW135450   3.298   3.176   6.627  0.0760 -0.5152  1.2021
 7996SOL    HW235451   3.213   3.145   6.744  0.3086 -0.0713  0.1498
 7997SOL     OW35452   2.095   2.453   7.446  0.5099  0.1565 -0.5346
 7997SOL    HW135453   2.052   2.457   7.360  0.8229 -1.0798 -0.7458
 7997SOL    HW235454   2.142   2.371   7.432 -1.0355 -0.3470 -2.8117
 7998SOL     OW35455   2.753   4.038   7.632  0.0839 -0.0201  0.1519
 7998SOL    HW135456   2.718   4.121   7.664 -0.4253  1.0133 -3.0925
 7998SOL    HW235457   2.810   4.005   7.702  1.6247  0.6159 -0.8084
 7999SOL     OW35458   4.362   0.611   4.699  0.3557 -0.1140 -0.0897
 7999SOL    HW135459   4.366   0.634   4.792 -1.5855 -1.0584  0.2237
 7999SOL    HW235460   4.313   0.684   4.660 -2.3492 -3.0224 -2.1363
 8000SOL     OW35461   3.702   2.281   1.001  0.1594  0.2455  0.5243
 8000SOL    HW135462   3.791   2.305   0.975 -0.1498  1.6018  0.7306
 8000SOL    HW235463   3.684   2.317   1.088  0.2255  0.2037  0.5561
 8001SOL     OW35464   3.912   2.582   7.829 -0.0448  0.4620  0.5050
 8001SOL    HW135465   4.001   2.565   7.798 -0.0471  2.8271 -0.8057
 8001SOL    HW235466   3.881   2.493   7.842 -1.2718  0.6476 -1.1528
 8002SOL     OW35467   3.425   4.488  15.247  0.5105  0.5689 -0.6371
 8002SOL    HW135468   3.366   4.413  15.239  0.2082  0.4448  2.3835
 8002SOL    HW235469   3.391   4.545  15.178 -1.4222 -1.2944 -1.2168
 8003SOL     OW35470   3.349   3.236  10.675 -0.0197 -0.5832 -0.3464
 8003SOL    HW135471   3.275   3.281  10.635  0.2212 -0.1245 -0.2711
 8003SOL    HW235472   3.393   3.311  10.715  0.3157 -1.1713  0.4054
 8004SOL     OW35473   4.200   2.436   5.360  0.1280  0.0301  0.2838
 8004SOL    HW135474   4.253   2.397   5.290  1.9636 -0.8223  2.1592
 8004SOL    HW235475   4.166   2.510   5.309  0.5101  0.9106  1.3074
 8005SOL     OW35476   2.627   0.604   6.131  0.4821 -0.0067 -0.1192
 8005SOL    HW135477   2.547   0.613   6.182  1.4867 -2.4936  1.9055
 8005SOL    HW235478   2.592   0.572   6.048  0.1542 -1.0632  0.4210
 8006SOL     OW35479   1.677   2.985   3.911  0.6594 -0.0066  0.3813
 8006SOL    HW135480   1.767   2.958   3.930  0.4434 -0.5739  0.6136
 8006SOL    HW235481   1.691   3.048   3.840 -0.8434  0.5406  0.5655
 8007SOL     OW35482   0.280   3.100   2.177  0.2714 -0.1079 -0.3459
 8007SOL    HW135483   0.188   3.074   2.165  0.8608 -1.7281 -1.3568
 8007SOL    HW235484   0.320   3.044   2.111  1.7751 -1.0151  1.3465
 8008SOL     OW35485   2.153   2.901   5.799 -0.1336  0.1143 -0.2092
 8008SOL    HW135486   2.110   2.877   5.881 -0.7227 -0.1536 -0.5918
 8008SOL    HW235487   2.231   2.942   5.837 -1.0232  1.1147  0.5377
 8009SOL     OW35488   0.720   1.617   5.508  0.2665  0.4737  0.1076
 8009SOL    HW135489   0.726   1.563   5.429 -1.5640  1.2721 -0.5869
 8009SOL    HW235490   0.796   1.674   5.495  1.3095 -0.4709  2.1886
 8010SOL     OW35491   0.833   3.690   8.440 -0.4163 -0.2859  0.0281
 8010SOL    HW135492   0.873   3.767   8.402 -0.2794 -0.8283 -0.9135
 8010SOL    HW235493   0.739   3.705   8.428 -0.7298 -0.9358  1.6230
 8011SOL     OW35494   2.801   3.261   4.046  0.4462  0.3187  0.4248
 8011SOL    HW135495   2.715   3.256   4.088  1.5727 -3.9824  2.2054
 8011SOL    HW235496   2.779   3.331   3.984 -1.5224 -0.1301  0.6203
 8012SOL     OW35497   1.956   2.234   9.432 -0.0118 -0.3353  0.2858
 8012SOL    HW135498   2.009   2.275   9.500 -0.6089 -0.0643  0.5912
 8012SOL    HW235499   1.977   2.146   9.464  0.8711 -0.7172 -1.3039
 8013SOL     OW35500   2.397   3.522   0.170 -0.2257  0.0669  0.2181
 8013SOL    HW135501   2.451   3.448   0.140 -0.7083  0.5632 -1.8890
 8013SOL    HW235502   2.372   3.562   0.087 -1.9576  1.5563  1.4912
 8014SOL     OW35503   2.406   4.641  11.778 -0.0572 -0.0045  0.2102
 8014SOL    HW135504   2.314   4.617  11.785 -0.0168 -0.7383 -1.6199
 8014SOL    HW235505   2.422   4.719  11.830 -2.6812 -0.1675  1.2632
 8015SOL     OW35506   2.281   3.062  17.149  0.3397  0.1796  0.0515
 8015SOL    HW135507   2.348   3.050  17.082 -0.7128  1.4983 -1.2320
 8015SOL    HW235508   2.239   3.145  17.128  1.2398  1.4193  3.0480
 8016SOL     OW35509   3.256   1.629   8.360 -0.2102  0.3533  0.0055
 8016SOL    HW135510   3.171   1.587   8.360  0.7341 -1.5462  0.1705
 8016SOL    HW235511   3.214   1.714   8.350 -0.3234  0.2453 -0.4079
 8017SOL     OW35512   1.142   4.398   6.301 -0.5228 -0.2530 -0.6355
 8017SOL    HW135513   1.237   4.393   6.291 -0.1479  0.3023  2.6616
 8017SOL    HW235514   1.114   4.306   6.306 -1.3946  0.0311 -0.2433
 8018SOL     OW35515   0.848   2.147   1.998  0.2242  0.0581 -0.0050
 8018SOL    HW135516   0.903   2.154   2.076 -1.5808  1.1065  1.1832
 8018SOL    HW235517   0.902   2.204   1.943 -0.9454  1.6567  0.4948
 8019SOL     OW35518   4.481   4.668   5.741  0.4896 -0.1557 -0.1763
 8019SOL    HW135519   4.387   4.658   5.733  0.0615  3.0422  0.8889
 8019SOL    HW235520   4.510   4.643   5.829 -1.3403  1.4406  0.8852
 8020SOL     OW35521   3.080   1.274   2.672 -0.0005  0.2525  0.1128
 8020SOL    HW135522   3.014   1.206   2.657  0.9301 -0.6102  0.0190
 8020SOL    HW235523   3.146   1.246   2.609 -0.5938 -0.1491 -0.3320
 8021SOL     OW35524   1.172   2.880   8.219  0.1476  0.4624  0.0713
 8021SOL    HW135525   1.198   2.886   8.310 -1.4057 -5.0206  0.8386
 8021SOL    HW235526   1.149   2.787   8.214 -0.1980  0.5354  0.3277
 8022SOL     OW35527   3.338   3.662   6.944 -0.5811  0.4784 -0.4954
 8022SOL    HW135528   3.370   3.591   6.999 -4.1934  1.2757  2.6163
 8022SOL    HW235529   3.377   3.738   6.986 -3.1438  0.9005  1.0952
 8023SOL     OW35530   2.682   1.544  15.277 -0.6011  0.2229  0.0025
 8023SOL    HW135531   2.610   1.512  15.222  0.5605 -1.6984 -0.4090
 8023SOL    HW235532   2.632   1.548  15.358 -1.4629 -1.5241 -0.4444
 8024SOL     OW35533   2.558   4.625  13.073  0.0946  0.0959  0.0535
 8024SOL    HW135534   2.543   4.540  13.030 -0.8594 -0.3992  1.3717
 8024SOL    HW235535   2.654   4.626  13.069  0.1293 -0.9165  0.6547
 8025SOL     OW35536   1.959   1.223   6.757 -0.4381  1.0748 -0.1855
 8025SOL    HW135537   1.864   1.213   6.752 -0.7619  3.5743  1.2192
 8025SOL    HW235538   1.989   1.132   6.754 -0.8158  0.9299  0.3432
 8026SOL     OW35539   0.354   1.137   1.395 -0.1312 -0.5136  0.1614
 8026SOL    HW135540   0.386   1.094   1.316 -0.0470  1.4275 -0.8649
 8026SOL    HW235541   0.402   1.219   1.379 -2.2013  0.5639 -0.4274
 8027SOL     OW35542   1.120   0.773  17.578 -0.1474 -0.1063  0.5645
 8027SOL    HW135543   1.107   0.794  17.485 -1.2160  0.2449  0.7890
 8027SOL    HW235544   1.138   0.859  17.616 -1.8595  1.8291 -2.9568
 8028SOL     OW35545   4.003   2.200   6.321 -0.1808 -0.1940  0.0032
 8028SOL    HW135546   4.035   2.270   6.265  4.9016 -2.6787 -0.1470
 8028SOL    HW235547   3.916   2.231   6.348  0.0650 -0.9595  1.6670
 8029SOL     OW35548   0.064   0.003   7.763 -0.3143 -0.2185  0.4168
 8029SOL    HW135549   0.092   4.650   7.710 -0.7143  1.4230 -2.0851
 8029SOL    HW235550   0.030   0.065   7.699  0.1458 -0.1172  0.2692
 8030SOL     OW35551   1.569   1.444   0.458 -0.1631  0.3168 -0.2251
 8030SOL    HW135552   1.508   1.432   0.532  0.6867 -0.2869  0.3777
 8030SOL    HW235553   1.619   1.521   0.483 -1.3051  1.4281 -1.3733
 8031SOL     OW35554   1.969   4.692   3.509  0.0133  0.6707 -0.1796
 8031SOL    HW135555   1.998   0.039   3.448 -1.5651  0.4922 -1.1330
 8031SOL    HW235556   1.900   0.017   3.556 -1.0647 -2.2415  1.0876
 8032SOL     OW35557   1.170   0.648   1.286  0.0148 -0.1619  0.4649
 8032SOL    HW135558   1.084   0.668   1.323 -0.3807 -2.2510  0.6582
 8032SOL    HW235559   1.221   0.722   1.321  0.1470  0.0911 -0.2794
 8033SOL     OW35560   2.971   3.953   6.935 -0.3258  0.5631  0.0862
 8033SOL    HW135561   2.883   3.916   6.944 -0.3608  1.5013  3.6468
 8033SOL    HW235562   2.989   3.928   6.845  1.2932 -0.5202  0.7142
 8034SOL     OW35563   1.870   1.615   5.760  0.4506 -0.2567 -0.2771
 8034SOL    HW135564   1.890   1.620   5.666 -0.6699 -0.2197 -0.5106
 8034SOL    HW235565   1.790   1.666   5.751 -0.2734 -1.5237 -0.9274
 8035SOL     OW35566   3.720   3.333   8.407  0.3054  0.3013 -0.3391
 8035SOL    HW135567   3.682   3.376   8.330  1.1018  2.6558  0.5661
 8035SOL    HW235568   3.645   3.341   8.467  0.6554 -0.1314  0.1515
 8036SOL     OW35569   0.500   0.942  15.802 -0.0476 -0.3573  0.1220
 8036SOL    HW135570   0.593   0.920  15.807 -0.2400 -0.4305  3.4434
 8036SOL    HW235571   0.490   1.016  15.862  0.6224  0.2919 -0.5715
 8037SOL     OW35572   3.675   2.845   9.866  0.0932 -0.5947  0.1226
 8037SOL    HW135573   3.697   2.920   9.921  0.4670  0.8754 -2.0598
 8037SOL    HW235574   3.715   2.870   9.783  0.1978 -0.3559  0.2447
 8038SOL     OW35575   2.615   1.806   7.880  0.2877 -0.4666 -0.1624
 8038SOL    HW135576   2.649   1.802   7.969  1.1075 -4.5913 -0.6994
 8038SOL    HW235577   2.527   1.787   7.912  0.2405  1.6009  0.9954
 8039SOL     OW35578   4.520   4.720  10.533  0.6722 -0.0169  0.0413
 8039SOL    HW135579   4.481   0.085  10.547 -1.9932 -1.1454 -0.4686
 8039SOL    HW235580   4.570   0.010  10.451 -0.2635 -0.1189 -0.5441
 8040SOL     OW35581   3.556   2.261   5.693 -0.3609 -0.1668  0.9233
 8040SOL    HW135582   3.536   2.325   5.625 -0.0830 -0.3116  0.7089
 8040SOL    HW235583   3.513   2.308   5.765  0.7391  0.2507  1.3054
 8041SOL     OW35584   2.191   0.528   2.922 -0.0657 -1.0003  0.7152
 8041SOL    HW135585   2.125   0.566   2.864 -0.8966  0.7280  2.7790
 8041SOL    HW235586   2.250   0.491   2.857 -1.1549  2.1483 -2.0787
 8042SOL     OW35587   3.041   2.510   7.544 -0.2450 -0.1801  0.1062
 8042SOL    HW135588   3.047   2.552   7.630 -1.2060 -1.2550  0.7063
 8042SOL    HW235589   2.953   2.473   7.548 -0.9083  1.4004  0.0248
 8043SOL     OW35590   1.793   4.318   8.901  0.0699  0.4024  0.6722
 8043SOL    HW135591   1.787   4.322   8.996 -0.4607  1.3189  0.5962
 8043SOL    HW235592   1.769   4.405   8.867  0.1434  0.3716  0.5384
 8044SOL     OW35593   3.189   1.457   3.391  0.4437 -0.5452  0.0624
 8044SOL    HW135594   3.108   1.503   3.368  1.0205  0.7922  0.6863
 8044SOL    HW235595   3.178   1.425   3.481  0.1441 -0.8544 -0.0849
 8045SOL     OW35596   0.002   4.658   2.014  0.7072 -0.7179  0.2916
 8045SOL    HW135597   4.636   4.620   2.030  1.0942 -1.5257  0.4490
 8045SOL    HW235598   0.032   4.623   1.931  0.2683 -1.8012  0.5860
 8046SOL     OW35599   2.666   1.186   3.622  0.2423 -0.3860  0.3812
 8046SOL    HW135600   2.669   1.281   3.611  1.1529 -0.5958 -1.1840
 8046SOL    HW235601   2.621   1.174   3.706 -0.5344  0.1927  0.0363
 8047SOL     OW35602   0.426   4.501   4.895 -0.0076  0.8413 -0.0351
 8047SOL    HW135603   0.456   4.584   4.934 -0.4609  1.9176 -1.9809
 8047SOL    HW235604   0.502   4.447   4.917 -1.0382 -1.3886 -2.0955
 8048SOL     OW35605   0.634   1.813   4.502  0.1704  0.5198 -0.2344
 8048SOL    HW135606   0.720   1.781   4.477 -0.0474 -1.2438  1.3117
 8048SOL    HW235607   0.632   1.800   4.597  1.0783  0.4110 -0.2332
 8049SOL     OW35608   4.465   1.128   1.369  0.6090  0.2051  0.2057
 8049SOL    HW135609   4.379   1.168   1.382 -0.0680 -1.4881  0.8995
 8049SOL    HW235610   4.509   1.202   1.327 -1.5869  1.2338 -0.2896
 8050SOL     OW35611   0.299   2.382   5.040 -0.1431  0.2144 -0.3781
 8050SOL    HW135612   0.246   2.361   4.964  0.3097 -1.3823 -0.2577
 8050SOL    HW235613   0.342   2.297   5.053  0.0630  0.7027  2.1091
 8051SOL     OW35614   2.355   2.435  10.297 -0.7731  0.6937 -0.4481
 8051SOL    HW135615   2.365   2.346  10.264  1.1158  0.5753  0.4103
 8051SOL    HW235616   2.434   2.434  10.351 -2.0393 -0.0258  1.3743
 8052SOL     OW35617   2.265   3.165   8.123 -0.0672  0.0305 -0.0169
 8052SOL    HW135618   2.228   3.129   8.203  3.0741  0.2256  1.5019
 8052SOL    HW235619   2.241   3.258   8.126 -2.8510 -0.7784  2.1424
 8053SOL     OW35620   1.831   1.100   2.355 -0.0520  0.2560  0.3454
 8053SOL    HW135621   1.768   1.090   2.427  1.3012  1.0637  1.6585
 8053SOL    HW235622   1.850   1.193   2.369  0.7414 -0.0118  1.0633
 8054SOL     OW35623   4.465   0.721   8.499 -0.6101  0.4736  0.0107
 8054SOL    HW135624   4.441   0.759   8.584 -2.0819 -0.5546  0.0426
 8054SOL    HW235625   4.418   0.778   8.439 -3.1875 -0.7847  0.8692
 8055SOL     OW35626   3.751   2.417   4.365 -0.6873 -0.5411  0.0927
 8055SOL    HW135627   3.769   2.331   4.327 -0.2872  0.2970 -1.6437
 8055SOL    HW235628   3.793   2.408   4.450 -1.4615 -1.0292  0.4216
 8056SOL     OW35629   1.473   3.842   0.926  0.0591  0.0728  0.1701
 8056SOL    HW135630   1.479   3.798   1.011 -0.0177 -2.4737 -1.1581
 8056SOL    HW235631   1.422   3.917   0.958 -1.2864 -0.6346 -0.3380
 8057SOL     OW35632   4.275   2.453   6.163  0.3006 -0.7600  0.0069
 8057SOL    HW135633   4.285   2.387   6.095 -2.3270 -0.7590 -0.3620
 8057SOL    HW235634   4.275   2.400   6.243  1.4693 -3.9448 -2.1323
 8058SOL     OW35635   2.714   2.765   8.346  0.1766 -0.5665  0.2144
 8058SOL    HW135636   2.789   2.761   8.287  0.0087 -1.8313  0.0790
 8058SOL    HW235637   2.686   2.674   8.332 -0.0364 -0.3013 -1.0878
 8059SOL     OW35638   1.368   0.199  15.119  0.3495 -0.5619 -0.1457
 8059SOL    HW135639   1.382   0.132  15.053  1.8305 -2.1591  1.7827
 8059SOL    HW235640   1.450   0.191  15.169 -0.3897  1.2219  1.3677
 8060SOL     OW35641   2.186   3.910   0.014  0.1883 -0.1561  1.0183
 8060SOL    HW135642   2.180   3.830  17.649 -1.5090  0.3852  0.3857
 8060SOL    HW235643   2.273   3.938  17.671 -0.1619  0.6818  0.7627
 8061SOL     OW35644   0.352   2.170   8.139 -0.1925  0.4436 -0.1171
 8061SOL    HW135645   0.398   2.142   8.219  1.2791  2.4828 -0.2520
 8061SOL    HW235646   0.318   2.087   8.104 -0.7631  0.9276 -0.7167
 8062SOL     OW35647   3.605   2.144  11.017  0.2777  1.3023  0.0495
 8062SOL    HW135648   3.614   2.221  11.073  0.3979  1.0832  0.3299
 8062SOL    HW235649   3.644   2.073  11.067 -0.2349  0.9745 -0.0166
 8063SOL     OW35650   0.072   2.063   8.354 -0.3651 -0.3817  0.3230
 8063SOL    HW135651   0.007   2.053   8.423  0.0281 -3.1661  0.3264
 8063SOL    HW235652   0.114   2.146   8.375  1.4897 -1.2768  0.1891
 8064SOL     OW35653   0.010   4.170   4.239  0.1068 -0.4322 -0.5722
 8064SOL    HW135654   4.696   4.153   4.327  0.9891  0.8619  0.0232
 8064SOL    HW235655   4.659   4.147   4.180  0.2490  0.2965 -1.0210
 8065SOL     OW35656   2.144   1.187   7.325 -0.5834 -0.9349 -0.2057
 8065SOL    HW135657   2.103   1.113   7.369  1.3661 -1.2165  1.1457
 8065SOL    HW235658   2.151   1.166   7.232  2.0266  1.2898 -0.5283
 8066SOL     OW35659   2.507   2.583  17.517  0.2651 -0.1547  0.3975
 8066SOL    HW135660   2.587   2.583  17.569  0.5839 -0.1500 -0.0942
 8066SOL    HW235661   2.540   2.610  17.432  3.0365  0.8272  1.7832
 8067SOL     OW35662   3.494   3.784   7.949  0.3449 -0.8310  0.0762
 8067SOL    HW135663   3.463   3.875   7.953  2.0641 -0.2701  0.9335
 8067SOL    HW235664   3.586   3.804   7.933 -0.2664  1.5328 -0.6503
 8068SOL     OW35665   3.018   1.828   6.898 -0.4257  0.5268 -0.5129
 8068SOL    HW135666   3.028   1.733   6.899  0.0996  0.5754 -4.9193
 8068SOL    HW235667   3.000   1.840   6.805 -0.7709 -1.2731 -0.6763
 8069SOL     OW35668   1.270   0.263   3.823  0.2969 -0.1249 -0.1497
 8069SOL    HW135669   1.257   0.179   3.868 -0.3947 -0.4647 -0.9678
 8069SOL    HW235670   1.363   0.281   3.831  0.9879 -3.2943 -0.9747
 8070SOL     OW35671   0.598   0.875   5.307  0.3202 -0.6959 -0.0202
 8070SOL    HW135672   0.665   0.929   5.266  1.1845 -2.3084 -0.7223
 8070SOL    HW235673   0.520   0.931   5.309 -0.5854 -1.9248 -1.4834
 8071SOL     OW35674   3.549   2.096  15.644  0.9043 -0.1161  0.3132
 8071SOL    HW135675   3.466   2.084  15.597  2.0137 -1.5609 -1.3068
 8071SOL    HW235676   3.551   2.016  15.696  1.4061 -0.9226 -0.9314
 8072SOL     OW35677   3.751   2.347  14.948 -0.1239  0.3967 -0.4407
 8072SOL    HW135678   3.828   2.388  14.908  0.3777  0.9761  1.1612
 8072SOL    HW235679   3.787   2.285  15.012 -0.0968  1.4606  0.5643
 8073SOL     OW35680   1.717   1.880   7.754  0.0479 -0.4632 -0.3152
 8073SOL    HW135681   1.795   1.847   7.708  1.4595  0.8404  1.1225
 8073SOL    HW235682   1.756   1.919   7.833  0.3756  1.7181 -1.5483
 8074SOL     OW35683   4.599   1.755   5.885 -0.2768  0.0235 -0.3350
 8074SOL    HW135684   4.680   1.709   5.905 -0.1229  0.8013  0.7991
 8074SOL    HW235685   4.591   1.727   5.794  1.9942 -1.0192 -0.2116
 8075SOL     OW35686   3.924   2.735  14.102  0.0637 -0.1766 -0.3828
 8075SOL    HW135687   3.851   2.797  14.097  0.3431 -0.0712 -3.1616
 8075SOL    HW235688   3.868   2.658  14.105  0.4304 -0.4406 -0.3218
 8076SOL     OW35689   3.879   0.396   5.264 -0.5532  1.2708  0.1003
 8076SOL    HW135690   3.888   0.399   5.360 -3.3164 -0.8312  0.4275
 8076SOL    HW235691   3.963   0.422   5.227  0.6415 -2.0067  0.5426
 8077SOL     OW35692   2.020   3.665   8.587 -0.1769 -0.5915 -0.6876
 8077SOL    HW135693   1.934   3.702   8.606  0.0283 -0.7212  0.5059
 8077SOL    HW235694   2.020   3.594   8.652  1.1204 -0.4089 -0.4881
 8078SOL     OW35695   1.343   3.476   5.055 -0.0287 -0.1213  0.5266
 8078SOL    HW135696   1.402   3.403   5.037 -1.2184 -1.6190  2.6598
 8078SOL    HW235697   1.393   3.529   5.116 -0.4525  0.2586  0.5454
 8079SOL     OW35698   1.611   4.544   9.048 -0.0683  0.0147  0.2259
 8079SOL    HW135699   1.689   4.582   9.089  1.1549 -1.6185 -0.5578
 8079SOL    HW235700   1.651   4.542   8.961  0.8547 -0.4554  0.6550
 8080SOL     OW35701   2.473   3.626   6.369 -0.5461  0.1439  0.5099
 8080SOL    HW135702   2.422   3.567   6.314 -2.1082  0.5053  1.5850
 8080SOL    HW235703   2.528   3.562   6.415 -1.9671 -2.5813 -1.5636
 8081SOL     OW35704   1.314   0.361   9.830 -0.8032  0.8496 -0.3365
 8081SOL    HW135705   1.305   0.363   9.925  0.7624  0.7940 -0.1907
 8081SOL    HW235706   1.393   0.308   9.825 -1.4591 -0.2069  0.7559
 8082SOL     OW35707   3.573   2.319   9.840  0.4002 -0.2702 -0.5645
 8082SOL    HW135708   3.591   2.394   9.898  0.6740  1.1940 -2.5356
 8082SOL    HW235709   3.615   2.246   9.886  1.0149  0.4861  0.0953
 8083SOL     OW35710   3.003   3.201   6.256  0.6227  0.3148 -0.6828
 8083SOL    HW135711   2.952   3.159   6.187  3.1302 -1.0425 -1.7196
 8083SOL    HW235712   3.002   3.294   6.235  0.6038  1.1998  3.3289
 8084SOL     OW35713   3.709   1.136  14.591  0.6516  0.1907 -0.6073
 8084SOL    HW135714   3.623   1.120  14.630  0.5926  1.0512 -0.3760
 8084SOL    HW235715   3.745   1.047  14.592 -0.5576 -0.2845  0.3462
 8085SOL     OW35716   0.241   3.047   5.694 -0.4206 -0.2718  0.0576
 8085SOL    HW135717   0.153   3.031   5.727 -1.2171 -0.3229 -2.1025
 8085SOL    HW235718   0.270   2.959   5.669 -0.8338 -0.9962  2.0651
 8086SOL     OW35719   1.026   3.162   4.532 -0.0455 -0.0206 -0.3138
 8086SOL    HW135720   0.974   3.195   4.459 -2.9690  0.3640  1.9453
 8086SOL    HW235721   0.974   3.083   4.540  0.2806 -0.1142  0.9563
 8087SOL     OW35722   4.608   1.044   8.897 -0.1209 -0.6532  0.2866
 8087SOL    HW135723   4.685   1.100   8.883 -1.3462  0.9061 -0.2072
 8087SOL    HW235724   4.638   0.997   8.975 -0.4824 -0.7848  0.3459
 8088SOL     OW35725   4.669   3.010   6.841  0.1028 -0.2849  0.5403
 8088SOL    HW135726   4.597   3.072   6.839 -1.2235 -1.7836  1.4941
 8088SOL    HW235727   4.637   2.920   6.830  0.4332 -0.5361  1.6322
 8089SOL     OW35728   1.036   1.996   3.230  0.1739  0.0658 -0.7818
 8089SOL    HW135729   1.055   1.914   3.276 -1.1748  0.2816  0.1635
 8089SOL    HW235730   1.119   2.043   3.225  0.2786 -0.0517 -0.1494
 8090SOL     OW35731   1.461   0.996   9.201  0.3880 -0.3575  0.3230
 8090SOL    HW135732   1.382   1.049   9.186  0.4440 -0.4660 -0.3683
 8090SOL    HW235733   1.536   1.054   9.208  1.4984 -1.5833 -1.4048
 8091SOL     OW35734   1.463   1.929   9.393 -0.0692  0.7237 -0.4695
 8091SOL    HW135735   1.553   1.944   9.422  0.1027  0.6729 -0.9853
 8091SOL    HW235736   1.483   1.926   9.300  0.0866 -0.1181 -0.4062
 8092SOL     OW35737   4.579   1.549   3.763  0.6017  0.2191  0.5795
 8092SOL    HW135738   4.530   1.597   3.696  1.7216  0.7303  0.1393
 8092SOL    HW235739   4.664   1.549   3.719  0.3563 -1.5242  0.1220
 8093SOL     OW35740   1.090   1.119   4.507 -1.0139  0.8127  0.2412
 8093SOL    HW135741   1.027   1.050   4.531 -1.6022  1.0487 -0.6121
 8093SOL    HW235742   1.155   1.106   4.576  0.0165 -3.4774 -1.5241
 8094SOL     OW35743   4.412   4.140  13.092 -0.2994 -0.1166 -0.3201
 8094SOL    HW135744   4.450   4.216  13.136 -3.9284  1.9146 -0.7079
 8094SOL    HW235745   4.374   4.180  13.013 -1.7539  1.5686  1.2172
 8095SOL     OW35746   4.275   3.799   5.256 -0.7601  0.6435 -0.9604
 8095SOL    HW135747   4.211   3.791   5.326 -2.0672  2.9362 -1.8860
 8095SOL    HW235748   4.222   3.779   5.179  1.0302 -0.6089 -1.8785
 8096SOL     OW35749   2.886   3.638   5.982  0.0999 -0.6450  0.0469
 8096SOL    HW135750   2.813   3.691   6.014  1.0637  0.9639 -0.4473
 8096SOL    HW235751   2.943   3.708   5.950  0.2443 -0.2304  1.2247
 8097SOL     OW35752   3.931   0.025  10.800  0.7791  0.5717 -0.0878
 8097SOL    HW135753   3.975   0.079  10.866  1.1709  0.8887 -0.6116
 8097SOL    HW235754   3.846   0.070  10.803  0.6419  0.2600  0.9210
 8098SOL     OW35755   1.407   2.288   6.641 -0.0809 -0.1855 -0.1777
 8098SOL    HW135756   1.396   2.319   6.551 -0.7621 -1.0286 -0.3835
 8098SOL    HW235757   1.501   2.302   6.653 -0.1919 -0.1760  0.6650
 8099SOL     OW35758   4.513   3.232   7.047 -0.4801  0.4388 -0.3433
 8099SOL    HW135759   4.486   3.181   6.971  0.6790 -0.5197 -0.1076
 8099SOL    HW235760   4.552   3.157   7.093 -1.9692 -0.2359 -0.1651
 8100SOL     OW35761   0.184   0.348   5.591  0.4684  0.1795  0.0743
 8100SOL    HW135762   0.143   0.405   5.655 -1.2478  1.0165 -1.7767
 8100SOL    HW235763   0.135   0.266   5.587 -1.8814  1.5340  1.1263
 8101SOL     OW35764   4.137   1.686   4.278  0.0369 -0.1753 -0.1065
 8101SOL    HW135765   4.128   1.650   4.190 -1.6457  2.2860 -0.9459
 8101SOL    HW235766   4.050   1.726   4.285  0.0765  0.0598 -0.8642
 8102SOL     OW35767   4.136   0.184   5.569 -0.6207 -0.3586 -0.1525
 8102SOL    HW135768   4.047   0.149   5.574 -0.1384 -1.4238  0.9925
 8102SOL    HW235769   4.154   0.186   5.662 -0.8039  0.5011 -0.1373
 8103SOL     OW35770   4.206   2.326   7.198 -0.1009 -0.0853  0.1369
 8103SOL    HW135771   4.235   2.330   7.107  0.5889  2.2346  0.4745
 8103SOL    HW235772   4.277   2.360   7.252  1.3859 -0.0928 -1.8248
 8104SOL     OW35773   4.375   4.196   0.518  0.6553 -0.3873  0.7710
 8104SOL    HW135774   4.384   4.117   0.465 -0.6694  0.7775 -1.2362
 8104SOL    HW235775   4.461   4.235   0.505  0.4110  0.2867  1.1440
 8105SOL     OW35776   1.565   2.024   4.391  0.0873  0.1045 -0.2818
 8105SOL    HW135777   1.543   2.041   4.300 -3.3808  1.7331  0.8409
 8105SOL    HW235778   1.504   1.950   4.401  1.1593 -0.4902  1.8098
 8106SOL     OW35779   0.215   3.349   7.772 -0.3008  0.0425 -0.0939
 8106SOL    HW135780   0.123   3.373   7.770  0.1239  1.6917  0.8160
 8106SOL    HW235781   0.249   3.357   7.683 -1.5566 -1.5459 -0.7208
 8107SOL     OW35782   0.163   0.023  16.126 -0.1017  0.0923  0.9791
 8107SOL    HW135783   0.130   0.041  16.038 -0.7721 -2.3075  0.7237
 8107SOL    HW235784   0.174   4.649  16.113 -0.3837  0.1661  0.1956
 8108SOL     OW35785   2.375   3.237   7.398 -0.4547 -0.3991  0.1403
 8108SOL    HW135786   2.306   3.216   7.461 -1.2491  0.0583 -0.5670
 8108SOL    HW235787   2.452   3.204   7.443 -1.2170 -0.7782  1.1615
 8109SOL     OW35788   4.178   4.383   4.287  0.4955  0.4486  0.1522
 8109SOL    HW135789   4.176   4.329   4.366 -1.0012  0.3981  0.0778
 8109SOL    HW235790   4.170   4.472   4.324 -0.7089  0.9198 -1.2638
 8110SOL     OW35791   3.171   3.150   7.201 -0.1995 -0.4616 -0.2622
 8110SOL    HW135792   3.086   3.114   7.224 -0.3663  1.8859  2.7946
 8110SOL    HW235793   3.145   3.241   7.213 -4.4602 -1.5729 -1.1442
 8111SOL     OW35794   0.901   2.722   5.590  0.2677  0.2070 -0.0257
 8111SOL    HW135795   0.957   2.689   5.660 -1.7267 -1.0168  1.0073
 8111SOL    HW235796   0.823   2.748   5.639  0.2685  1.1605 -0.5323
 8112SOL     OW35797   2.258   0.947   3.218 -0.3652  0.6239  0.1875
 8112SOL    HW135798   2.193   0.881   3.193  1.3053 -0.7025 -0.6307
 8112SOL    HW235799   2.204   1.002   3.275 -0.1844 -0.3933  1.3307
 8113SOL     OW35800   3.914   0.773  14.096  0.2304 -0.4919  0.1319
 8113SOL    HW135801   3.911   0.683  14.062  0.2425 -0.7385  0.7886
 8113SOL    HW235802   3.989   0.815  14.054 -0.3010  1.9884  1.6616
 8114SOL     OW35803   4.224   1.441   5.027  0.5571 -0.4158  0.1640
 8114SOL    HW135804   4.148   1.410   4.977 -0.3974  0.7278  0.8832
 8114SOL    HW235805   4.277   1.429   4.948 -0.2084  0.5664 -0.5072
 8115SOL     OW35806   4.312   3.941  16.826  0.4125 -0.2928  0.2812
 8115SOL    HW135807   4.280   3.989  16.902 -0.6775  1.3360 -1.2039
 8115SOL    HW235808   4.362   4.010  16.782 -1.1603 -0.2343 -1.3898
 8116SOL     OW35809   4.333   3.631  11.640 -0.5897  0.1270  0.7244
 8116SOL    HW135810   4.310   3.588  11.723  1.0926 -0.3735  0.9279
 8116SOL    HW235811   4.412   3.678  11.664  0.4393 -2.0421  1.5806
 8117SOL     OW35812   1.307   2.960   6.480 -0.0001  0.0793  0.4329
 8117SOL    HW135813   1.237   3.021   6.456  1.5986  1.3391 -1.0741
 8117SOL    HW235814   1.316   2.922   6.392  0.4833  0.0451  0.4932
 8118SOL     OW35815   1.782   2.376   4.923 -0.4772 -0.0117 -0.5931
 8118SOL    HW135816   1.797   2.308   4.857 -0.3965  0.2922 -0.8926
 8118SOL    HW235817   1.749   2.321   4.993 -0.0017 -1.5039 -1.5387
 8119SOL     OW35818   3.206   2.837  15.519 -0.1371 -0.1978  0.2106
 8119SOL    HW135819   3.116   2.811  15.498 -0.7235  1.0436  1.2486
 8119SOL    HW235820   3.260   2.758  15.511  1.8479  1.2734 -1.0137
 8120SOL     OW35821   3.020   1.577   4.322  0.1173 -0.1840 -0.5455
 8120SOL    HW135822   2.978   1.632   4.388  2.3369  1.6431 -0.6496
 8120SOL    HW235823   3.101   1.629   4.321 -1.6211  2.5695  0.0966
 8121SOL     OW35824   3.796   4.191  11.637 -0.0290  0.6854 -0.0723
 8121SOL    HW135825   3.857   4.118  11.623 -0.5372  0.6842 -2.2185
 8121SOL    HW235826   3.726   4.148  11.686  0.6659  0.5334  0.7829
 8122SOL     OW35827   4.069   1.242   9.889 -0.1313 -0.5938  0.0242
 8122SOL    HW135828   4.009   1.297   9.939 -0.5909 -1.1761  0.1062
 8122SOL    HW235829   4.104   1.304   9.825  1.3373 -1.5332 -0.0895
 8123SOL     OW35830   3.042   4.367   2.700 -0.3898  0.2640 -0.2812
 8123SOL    HW135831   2.966   4.375   2.756 -1.7311  0.8689 -2.1822
 8123SOL    HW235832   3.028   4.438   2.636 -1.8521  0.5826  0.3905
 8124SOL     OW35833   3.515   3.527  11.525  0.3304  0.5965  0.4138
 8124SOL    HW135834   3.599   3.551  11.563  0.8367 -1.3250  0.4702
 8124SOL    HW235835   3.539   3.460  11.462  0.6911 -0.2909  1.4948
 8125SOL     OW35836   0.962   2.272   5.370 -0.5913 -0.1163 -0.3439
 8125SOL    HW135837   0.923   2.354   5.400  2.1019  1.9721 -2.5528
 8125SOL    HW235838   0.891   2.209   5.383 -0.0416 -0.8828 -1.0890
 8126SOL     OW35839   3.260   2.057   3.160 -0.0825  0.0413  0.0236
 8126SOL    HW135840   3.315   2.126   3.198  1.6361 -0.7370 -1.0471
 8126SOL    HW235841   3.210   2.102   3.093 -0.1490  0.0015  0.0471
 8127SOL     OW35842   1.946   1.053   0.455  0.0636  0.5615 -0.1766
 8127SOL    HW135843   1.973   1.036   0.545 -1.2430 -0.9528 -0.0750
 8127SOL    HW235844   1.892   1.132   0.464 -1.8929 -0.7065 -0.9048
 8128SOL     OW35845   3.746   2.346  13.068  0.1029 -0.0508 -0.3892
 8128SOL    HW135846   3.767   2.405  13.141 -0.6353 -0.4453  0.1298
 8128SOL    HW235847   3.825   2.292  13.072 -0.0893 -0.3486 -0.6626
 8129SOL     OW35848   1.524   3.842  10.163  0.1120 -0.0203 -0.3141
 8129SOL    HW135849   1.575   3.762  10.177 -1.2790 -0.6462  1.2869
 8129SOL    HW235850   1.481   3.809  10.084  0.6258  1.1842 -1.0933
 8130SOL     OW35851   4.604   3.832   4.445 -0.4669 -0.2078 -0.3381
 8130SOL    HW135852   4.550   3.827   4.366  1.5921 -1.1187 -1.6738
 8130SOL    HW235853   4.593   3.741   4.474  1.0947 -0.8172 -1.6806
 8131SOL     OW35854   0.428   0.368   5.704  0.4591 -0.5821 -0.1600
 8131SOL    HW135855   0.344   0.339   5.669 -0.3795  0.7861  0.6930
 8131SOL    HW235856   0.422   0.456   5.668  1.0205 -0.4940 -0.0415
 8132SOL     OW35857   4.712   0.174   7.512  0.5197  0.4638  0.0468
 8132SOL    HW135858   4.697   0.138   7.424  0.3461  2.8013 -0.8614
 8132SOL    HW235859   4.651   0.247   7.512 -0.2856 -0.2040  0.4757
 8133SOL     OW35860   1.450   0.501  10.735  0.0072  0.1994  0.4661
 8133SOL    HW135861   1.424   0.419  10.692  1.0492 -0.7466  1.6455
 8133SOL    HW235862   1.387   0.516  10.805  0.1602 -0.1563  0.6841
 8134SOL     OW35863   2.495   4.338  10.330 -0.2155  0.3529  0.3599
 8134SOL    HW135864   2.430   4.364  10.265  0.1658 -0.3597 -0.3104
 8134SOL    HW235865   2.570   4.355  10.274  0.1541  1.1866  1.0988
 8135SOL     OW35866   3.120   1.451   7.832  0.4739  0.0960 -0.2160
 8135SOL    HW135867   3.204   1.427   7.870 -0.6353  1.8512  3.3310
 8135SOL    HW235868   3.155   1.491   7.752  0.5393  0.2712 -0.1001
 8136SOL     OW35869   3.276   0.628   1.364  0.0712 -0.4646 -0.0732
 8136SOL    HW135870   3.361   0.623   1.408 -0.8973  1.1314  2.0354
 8136SOL    HW235871   3.231   0.544   1.372  0.1146 -0.5674 -0.9922
 8137SOL     OW35872   3.824   0.867   3.472 -0.4992 -0.2366 -0.0148
 8137SOL    HW135873   3.871   0.835   3.550 -0.5995 -3.4800 -1.2811
 8137SOL    HW235874   3.854   0.957   3.467  3.7179 -1.7461 -2.1342
 8138SOL     OW35875   2.989   2.223   3.507 -0.2189 -0.4115 -0.1149
 8138SOL    HW135876   3.080   2.245   3.487 -0.3255 -1.0541 -1.3754
 8138SOL    HW235877   2.954   2.311   3.501  0.2055 -0.0163  3.5012
 8139SOL     OW35878   0.884   0.132  13.940 -0.0452 -0.6457 -0.4236
 8139SOL    HW135879   0.970   0.102  13.909 -0.9298 -2.9742 -0.5600
 8139SOL    HW235880   0.900   0.138  14.034  1.1944  2.3824 -0.8218
 8140SOL     OW35881   0.003   3.220   3.385  0.0429  0.7197 -0.3169
 8140SOL    HW135882   0.075   3.227   3.448 -0.6947  1.0476  0.4790
 8140SOL    HW235883   4.684   3.138   3.413 -1.2064  1.2068 -0.6812
 8141SOL     OW35884   3.194   2.194   6.710 -0.1287 -0.2093 -0.0032
 8141SOL    HW135885   3.165   2.252   6.781  3.2838 -0.0035  1.2687
 8141SOL    HW235886   3.253   2.136   6.758  1.2213  0.7623 -0.4740
 8142SOL     OW35887   4.553   1.221  11.664  0.2709 -0.2511  0.6431
 8142SOL    HW135888   4.471   1.268  11.650  1.8640  2.1575 -0.7575
 8142SOL    HW235889   4.574   1.191  11.576  0.5931  0.6028  0.4243
 8143SOL     OW35890   1.512   0.928   9.682 -0.4633  0.5648 -0.1914
 8143SOL    HW135891   1.482   0.889   9.601 -2.2814  1.4657  0.0566
 8143SOL    HW235892   1.487   0.851   9.732  2.9501 -1.6124 -1.8409
 8144SOL     OW35893   0.512   3.624   3.413 -0.0929  0.6637 -0.0708
 8144SOL    HW135894   0.592   3.573   3.422 -0.9360 -0.5119  0.7804
 8144SOL    HW235895   0.485   3.643   3.503 -0.4348 -0.5126  0.0746
 8145SOL     OW35896   3.789   0.443   4.877  0.1242 -0.4757  0.1266
 8145SOL    HW135897   3.766   0.352   4.892 -0.4093 -0.3614 -0.0022
 8145SOL    HW235898   3.884   0.449   4.891  0.0820  0.0259  0.1946
 8146SOL     OW35899   4.152   0.330   3.499 -0.0481 -0.0376  0.0460
 8146SOL    HW135900   4.165   0.421   3.527  0.7455  0.1687 -1.0428
 8146SOL    HW235901   4.071   0.304   3.544 -0.5873  0.5545 -0.5923
 8147SOL     OW35902   0.408   2.319   2.911 -0.3773  0.0101 -0.2179
 8147SOL    HW135903   0.393   2.390   2.848  0.0765 -0.3521 -0.7316
 8147SOL    HW235904   0.449   2.372   2.979 -0.4908  0.7238 -0.7000
 8148SOL     OW35905   4.350   1.448   3.823 -0.7358  0.0923 -0.0622
 8148SOL    HW135906   4.432   1.496   3.807 -0.6254  0.3029  1.1252
 8148SOL    HW235907   4.299   1.465   3.744 -1.4410 -0.5970  0.2498
 8149SOL     OW35908   2.086   1.634   5.922  0.5535 -0.5726 -0.0469
 8149SOL    HW135909   2.017   1.611   5.859 -0.2763 -0.8464  0.9558
 8149SOL    HW235910   2.041   1.660   6.003 -0.5102  0.6672 -1.0421
 8150SOL     OW35911   0.461   3.948   5.513  0.0057 -0.2701  0.4625
 8150SOL    HW135912   0.538   3.948   5.457 -0.2242  1.1652  0.1304
 8150SOL    HW235913   0.400   3.980   5.445  1.5828 -0.2356 -0.9356
 8151SOL     OW35914   2.300   0.891   3.769  0.0499 -0.2303 -0.0775
 8151SOL    HW135915   2.339   0.804   3.769 -1.8290 -1.0719 -0.5451
 8151SOL    HW235916   2.318   0.902   3.863 -2.8455 -0.4508  0.5069
 8152SOL     OW35917   0.103   0.169  11.338 -0.0329  0.2065  0.6097
 8152SOL    HW135918   0.037   0.226  11.377  1.3472  2.0564  0.2326
 8152SOL    HW235919   0.111   0.215  11.254  0.2275  1.1861  1.1753
 8153SOL     OW35920   3.100   3.861   6.669  0.2361 -0.2633  0.0063
 8153SOL    HW135921   3.106   3.772   6.703  1.6288 -1.2354 -2.7485
 8153SOL    HW235922   3.195   3.872   6.663 -0.2608  3.1226 -1.6355
 8154SOL     OW35923   1.732   3.183   3.733  0.3348 -0.0546  0.4434
 8154SOL    HW135924   1.742   3.157   3.641 -2.5139  0.5764 -0.0402
 8154SOL    HW235925   1.802   3.247   3.745  1.4468 -1.1207 -0.3535
 8155SOL     OW35926   3.832   3.012   4.753 -0.3120  0.0316 -0.1505
 8155SOL    HW135927   3.786   3.095   4.765  0.4742  0.4265  0.1849
 8155SOL    HW235928   3.912   3.046   4.713  0.6123 -0.3494  1.3714
 8156SOL     OW35929   1.880   0.540  15.234  0.7958  0.3899 -0.1483
 8156SOL    HW135930   1.834   0.457  15.248  1.1135 -0.1293 -2.1649
 8156SOL    HW235931   1.841   0.566  15.151  0.3955 -1.7696 -0.6459
 8157SOL     OW35932   0.342   1.133   8.750 -0.6748  0.2937 -0.1685
 8157SOL    HW135933   0.358   1.226   8.735 -2.1026  0.4352 -0.7362
 8157SOL    HW235934   0.378   1.105   8.666  0.6957  0.1910  0.4466
 8158SOL     OW35935   4.236   4.371   5.222 -0.0264 -0.1576  0.5985
 8158SOL    HW135936   4.142   4.372   5.241 -0.2124 -1.8710 -0.2684
 8158SOL    HW235937   4.241   4.280   5.193  0.6571  0.7486 -2.0469
 8159SOL     OW35938   3.726   0.588   7.506  0.3809 -0.2578 -0.0053
 8159SOL    HW135939   3.800   0.596   7.446 -0.2760 -1.2014 -0.9430
 8159SOL    HW235940   3.656   0.599   7.443  1.2116  0.4935 -0.7975
 8160SOL     OW35941   2.654   0.500   3.829  0.3750 -0.4343 -0.1009
 8160SOL    HW135942   2.629   0.497   3.737  0.6264 -2.2983 -0.1091
 8160SOL    HW235943   2.587   0.546   3.879  1.1403 -0.8510  1.2987
 8161SOL     OW35944   0.806   0.995   1.356 -0.0969  0.4231  0.1269
 8161SOL    HW135945   0.794   0.966   1.266 -3.4956 -1.5043  1.2192
 8161SOL    HW235946   0.879   1.056   1.344 -0.0518  0.1141 -1.1153
 8162SOL     OW35947   2.960   0.758   2.400  0.5327 -0.0529  0.3084
 8162SOL    HW135948   3.043   0.804   2.414  0.4199  0.8020 -1.8712
 8162SOL    HW235949   2.907   0.831   2.367  0.6782 -0.0917 -0.0108
 8163SOL     OW35950   0.713   1.100   4.927  0.3222 -0.4863  0.0947
 8163SOL    HW135951   0.771   1.026   4.910  0.6504  0.2708 -2.0802
 8163SOL    HW235952   0.634   1.058   4.960 -0.6694 -0.8005 -2.6213
 8164SOL     OW35953   3.407   1.143   8.267 -0.2332 -0.5032 -0.3269
 8164SOL    HW135954   3.381   1.134   8.359 -1.5434  1.2282 -0.5409
 8164SOL    HW235955   3.500   1.127   8.284 -0.0661  0.1193 -0.6943
 8165SOL     OW35956   2.728   1.441   3.658 -0.1286 -0.3162  0.5653
 8165SOL    HW135957   2.790   1.421   3.728 -1.3768 -0.5655  1.6133
 8165SOL    HW235958   2.728   1.536   3.667  0.4725 -0.5089  2.6114
 8166SOL     OW35959   3.689   2.698   7.234 -0.0261  0.3956  0.7818
 8166SOL    HW135960   3.750   2.689   7.161 -0.3581 -2.6781  0.9008
 8166SOL    HW235961   3.706   2.612   7.273  1.3057  0.3540  0.1276
 8167SOL     OW35962   0.102   4.309   2.093 -0.0352 -0.0924 -0.0960
 8167SOL    HW135963   0.026   4.289   2.149  0.9689 -0.3792  1.1535
 8167SOL    HW235964   0.057   4.352   2.021 -0.8819 -1.2751 -0.2709
 8168SOL     OW35965   2.491   2.338  15.781  0.2029  0.9814 -0.5043
 8168SOL    HW135966   2.544   2.284  15.723 -0.2772 -0.9992  0.9338
 8168SOL    HW235967   2.557   2.404  15.801  0.1986  0.2630  1.8877
 8169SOL     OW35968   4.196   0.851   7.334  0.4793  0.0024 -0.5712
 8169SOL    HW135969   4.192   0.774   7.277 -1.7530  1.1641 -2.0031
 8169SOL    HW235970   4.255   0.905   7.283  1.2499 -0.8234 -0.5502
 8170SOL     OW35971   3.359   4.480   8.604 -0.0690  0.3584 -0.6683
 8170SOL    HW135972   3.332   4.519   8.521  1.3134  0.6510 -0.9952
 8170SOL    HW235973   3.391   4.558   8.651 -0.4436  0.1335 -0.0363
 8171SOL     OW35974   1.905   4.642   2.844  0.2158 -0.1532 -0.3958
 8171SOL    HW135975   1.866   4.574   2.900  2.5769 -1.8751 -0.8289
 8171SOL    HW235976   1.958   4.585   2.788 -1.2993 -2.0717  0.1084
 8172SOL     OW35977   0.136   0.107   5.261 -0.1764  0.1721 -0.2378
 8172SOL    HW135978   0.200   0.040   5.286  0.5188  1.1777  0.7089
 8172SOL    HW235979   0.099   0.127   5.348  0.0274 -1.1834  0.1570
 8173SOL     OW35980   2.840   1.739  14.606 -1.0051 -0.1175 -0.0449
 8173SOL    HW135981   2.906   1.729  14.675  0.4195 -2.5407 -1.7627
 8173SOL    HW235982   2.767   1.787  14.646 -0.9180 -0.3001  0.3325
 8174SOL     OW35983   0.064   2.095   5.766 -0.1836  0.2510  0.1791
 8174SOL    HW135984   0.078   2.047   5.847 -1.9133 -0.0914  0.2679
 8174SOL    HW235985   4.692   2.118   5.773 -0.8501 -2.3279 -0.3889
 8175SOL     OW35986   2.312   1.271   3.554  0.1589  0.1497 -0.5245
 8175SOL    HW135987   2.220   1.297   3.546  0.2046  0.9526  1.5720
 8175SOL    HW235988   2.301   1.254   3.647  2.3257  0.7005 -0.1601
 8176SOL     OW35989   0.375   3.496  11.207  0.3158  0.1269  0.0389
 8176SOL    HW135990   0.388   3.538  11.122  0.2397  0.8959  0.4111
 8176SOL    HW235991   0.465   3.476  11.231  0.1779  0.1403  0.5736
 8177SOL     OW35992   2.163   4.060   7.287  0.3925  0.5077 -0.2812
 8177SOL    HW135993   2.123   4.032   7.370 -2.2346  0.2866 -1.6065
 8177SOL    HW235994   2.222   3.986   7.275  0.5225  0.0335  3.0308
 8178SOL     OW35995   4.354   0.347   9.078  0.0114 -0.4072 -0.2963
 8178SOL    HW135996   4.278   0.405   9.086  0.3916  0.2036 -1.0706
 8178SOL    HW235997   4.416   0.403   9.031  0.6148 -0.9924 -0.1861
 8179SOL     OW35998   3.368   1.329   5.928  0.5103  0.3123 -0.0134
 8179SOL    HW135999   3.413   1.398   5.879  2.1830  0.8591  2.2776
 8179SOL    HW236000   3.283   1.372   5.930  1.5739  2.2944  2.2329
 8180SOL     OW36001   3.428   2.848   1.112 -0.5089  0.1152  0.6002
 8180SOL    HW136002   3.360   2.871   1.050  1.4497  3.7527 -0.1595
 8180SOL    HW236003   3.375   2.796   1.173 -0.5449  1.2516  1.5340
 8181SOL     OW36004   3.657   3.243   5.804 -0.0284 -0.0424 -0.1064
 8181SOL    HW136005   3.696   3.325   5.834 -0.8828  0.3494 -0.0609
 8181SOL    HW236006   3.564   3.263   5.814  0.6268  3.2982 -0.4194
 8182SOL     OW36007   3.158   0.301  10.955  0.3727  0.7382  0.2473
 8182SOL    HW136008   3.197   0.371  11.007  1.0226  0.4902  0.0856
 8182SOL    HW236009   3.106   0.359  10.900  1.3713  2.2690  0.9253
 8183SOL     OW36010   0.246   1.149   7.318  0.4909  0.1659  0.1962
 8183SOL    HW136011   0.328   1.137   7.367  0.4661  0.1906  0.2439
 8183SOL    HW236012   0.270   1.087   7.250 -1.4275  0.3087 -0.5976
 8184SOL     OW36013   0.816   0.289   1.790  0.0809 -0.6353  0.2136
 8184SOL    HW136014   0.813   0.305   1.695 -2.0630 -0.8657  0.2499
 8184SOL    HW236015   0.769   0.206   1.799  0.7599 -1.0231  0.2400
 8185SOL     OW36016   4.438   1.796   7.896 -0.7417  0.0145  0.2174
 8185SOL    HW136017   4.502   1.743   7.849 -1.3227  0.0877 -0.6496
 8185SOL    HW236018   4.398   1.727   7.951 -4.3834  0.5801 -1.7286
 8186SOL     OW36019   1.536   3.954   7.430 -0.0368 -0.3771 -0.2312
 8186SOL    HW136020   1.535   3.930   7.523  0.8761 -0.3788 -0.2239
 8186SOL    HW236021   1.515   4.047   7.427  0.2792 -0.3374 -1.2343
 8187SOL     OW36022   1.807   0.397   4.217  0.0546 -0.0309 -0.5834
 8187SOL    HW136023   1.825   0.410   4.310 -1.6527  0.5608 -0.3461
 8187SOL    HW236024   1.850   0.312   4.209  1.8488  0.6898  1.4679
 8188SOL     OW36025   3.430   0.765   5.327 -0.1084  0.4183  0.1449
 8188SOL    HW136026   3.490   0.712   5.379 -0.6110 -1.3833 -1.1230
 8188SOL    HW236027   3.392   0.703   5.265 -2.0925  1.0504  0.7198
 8189SOL     OW36028   1.779   1.261  13.170  0.1869 -0.1657  0.1784
 8189SOL    HW136029   1.710   1.281  13.234  0.4567 -0.6361  0.6154
 8189SOL    HW236030   1.847   1.320  13.202  0.1857  0.0057 -0.1359
 8190SOL     OW36031   3.038   4.566   5.732  0.5146 -0.4378 -0.2209
 8190SOL    HW136032   3.029   4.544   5.824 -0.5960  2.4943  0.3552
 8190SOL    HW236033   2.944   4.559   5.716  0.7246 -0.4977 -1.4334
 8191SOL     OW36034   3.907   1.836   7.554  0.3946 -0.6071 -0.2047
 8191SOL    HW136035   3.882   1.921   7.591 -1.6367 -1.3344  0.0486
 8191SOL    HW236036   3.875   1.849   7.464 -2.8221 -2.5060  0.6610
 8192SOL     OW36037   0.377   2.143   4.234 -0.1233 -0.1992 -0.3045
 8192SOL    HW136038   0.330   2.065   4.262  0.0525  0.2357  1.2127
 8192SOL    HW236039   0.458   2.135   4.284 -0.6794  0.7032  0.7406
 8193SOL     OW36040   0.730   3.805   6.720 -0.0861 -0.1979  0.6175
 8193SOL    HW136041   0.658   3.855   6.759  0.2699 -0.4945  1.6484
 8193SOL    HW236042   0.677   3.761   6.654 -0.7511 -0.0757  1.0798
 8194SOL     OW36043   3.765   0.345   7.624  0.0587  0.0001  0.1571
 8194SOL    HW136044   3.730   0.356   7.713  0.3410  0.7738  0.1695
 8194SOL    HW236045   3.753   0.434   7.592  1.4141  0.7604  1.7821
 8195SOL     OW36046   1.684   4.342   7.537 -0.2128 -0.4127 -0.2960
 8195SOL    HW136047   1.637   4.398   7.476 -1.1662 -2.0122 -1.0223
 8195SOL    HW236048   1.706   4.401   7.609 -0.2807 -0.2822 -0.3829
 8196SOL     OW36049   2.317   2.649   4.930 -0.4397 -0.1351 -0.4062
 8196SOL    HW136050   2.338   2.575   4.873 -0.5129 -0.9397  0.6114
 8196SOL    HW236051   2.256   2.703   4.880 -2.3302 -0.8828  1.0890
 8197SOL     OW36052   3.284   4.297  11.038  0.1440  0.2715  0.9246
 8197SOL    HW136053   3.298   4.222  10.980 -1.9362 -0.8569  1.8704
 8197SOL    HW236054   3.372   4.335  11.038  1.4592 -2.8069  3.4548
 8198SOL     OW36055   0.025   4.174   7.101 -0.1424 -0.5611  0.6510
 8198SOL    HW136056   0.034   4.130   7.017 -0.8053 -0.8079  0.7048
 8198SOL    HW236057   0.061   4.262   7.088 -0.0949 -0.8371 -1.0096
 8199SOL     OW36058   0.701   4.481   5.141  0.5163  0.5471 -0.2246
 8199SOL    HW136059   0.715   4.391   5.112  1.8013  1.5250 -2.6040
 8199SOL    HW236060   0.787   4.515   5.115  0.5778  0.3533 -0.2686
 8200SOL     OW36061   2.955   2.771  13.800 -0.1203 -0.0660 -0.1863
 8200SOL    HW136062   2.874   2.821  13.807 -0.7392 -0.9888 -0.6382
 8200SOL    HW236063   2.999   2.845  13.758  2.1510 -0.4202  1.5778
 8201SOL     OW36064   0.477   0.506   0.465  0.4327  0.2102  0.0372
 8201SOL    HW136065   0.497   0.466   0.380 -2.0434 -1.8854  0.4467
 8201SOL    HW236066   0.381   0.505   0.465  0.4573 -2.7695 -0.4674
 8202SOL     OW36067   0.529   3.965   6.791 -0.2999 -0.7419  0.1609
 8202SOL    HW136068   0.469   3.969   6.865  0.6013 -0.5800  0.8856
 8202SOL    HW236069   0.592   4.030   6.822  0.5513 -1.3608 -0.2645
 8203SOL     OW36070   1.473   0.731   2.228 -0.0651  0.3319 -0.2530
 8203SOL    HW136071   1.539   0.663   2.240  0.8041  1.1148 -0.6263
 8203SOL    HW236072   1.522   0.780   2.162  0.7802  0.1098  0.2150
 8204SOL     OW36073   1.172   0.277   9.352  0.3897  0.5859 -0.1213
 8204SOL    HW136074   1.169   0.306   9.443 -1.7646  2.8184 -0.9121
 8204SOL    HW236075   1.248   0.219   9.349  0.8164  1.1641 -0.6011
 8205SOL     OW36076   0.698   3.592  11.933 -0.1061  0.0024 -0.1632
 8205SOL    HW136077   0.617   3.550  11.962  0.3500 -0.0856  0.9945
 8205SOL    HW236078   0.745   3.511  11.910 -0.7954 -1.5572  3.8229
 8206SOL     OW36079   1.899   0.889  10.464 -0.2887 -0.4488 -0.1402
 8206SOL    HW136080   1.806   0.865  10.466  0.0179 -1.5529  0.6780
 8206SOL    HW236081   1.930   0.819  10.406 -0.8765 -1.5899  0.9262
 8207SOL     OW36082   2.412   1.699   8.020  0.3298  0.0806 -0.4709
 8207SOL    HW136083   2.399   1.765   8.088  2.5452 -0.6964  0.6950
 8207SOL    HW236084   2.323   1.669   8.000  0.2810 -2.2026  3.2247
 8208SOL     OW36085   0.864   0.651   3.965  0.4646 -0.0027  0.0186
 8208SOL    HW136086   0.832   0.601   4.040 -0.7237  0.5348 -0.1247
 8208SOL    HW236087   0.806   0.624   3.893 -1.3331  0.3684  1.3287
 8209SOL     OW36088   4.444   1.469   4.861  0.4153  0.4956  0.4474
 8209SOL    HW136089   4.527   1.476   4.813  0.5296 -0.6346  0.4842
 8209SOL    HW236090   4.465   1.543   4.918  1.9933  0.1331  0.3470
 8210SOL     OW36091   1.988   2.163   4.203  0.6449  0.2522 -0.4312
 8210SOL    HW136092   1.921   2.159   4.136 -0.9456  2.0639  1.0549
 8210SOL    HW236093   2.068   2.159   4.152  1.1485 -1.2881  0.4486
 8211SOL     OW36094   1.534   3.577   5.220  0.2063  0.3154 -0.3896
 8211SOL    HW136095   1.613   3.559   5.171 -0.6588  0.2313 -1.7556
 8211SOL    HW236096   1.562   3.659   5.261 -1.4816  1.1978 -0.9724
 8212SOL     OW36097   4.463   1.312   8.261 -0.2537  0.1315  0.0494
 8212SOL    HW136098   4.391   1.371   8.283  0.4818  0.8077  0.6440
 8212SOL    HW236099   4.528   1.319   8.332 -3.8467  1.8539  3.1665
 8213SOL     OW36100   1.197   2.016   5.066  0.1193  0.1727  0.0370
 8213SOL    HW136101   1.111   2.016   5.109  0.0030  0.0431 -0.1988
 8213SOL    HW236102   1.173   2.040   4.977  0.2747  0.6413  0.1195
 8214SOL     OW36103   2.592   4.560   8.874  0.0396 -0.3003  0.3120
 8214SOL    HW136104   2.664   4.623   8.884  0.0032 -0.0814 -0.8673
 8214SOL    HW236105   2.567   4.580   8.784  0.1514 -1.9813 -0.0913
 8215SOL     OW36106   1.069   3.164   6.003  0.8076  0.1152 -0.1297
 8215SOL    HW136107   1.029   3.217   5.934  2.0259  1.6703  0.3468
 8215SOL    HW236108   1.150   3.137   5.959  1.3859 -0.0305  0.9994
 8216SOL     OW36109   2.735   3.473  10.734  0.2243 -0.4350 -0.3960
 8216SOL    HW136110   2.742   3.488  10.828 -0.0597  0.4652 -0.5185
 8216SOL    HW236111   2.698   3.557  10.707  1.6639  0.7284  1.2736
 8217SOL     OW36112   0.792   0.589  11.311 -0.5771 -0.1257  0.4719
 8217SOL    HW136113   0.839   0.544  11.241 -0.3059  1.8438 -0.5982
 8217SOL    HW236114   0.862   0.651  11.330 -0.4255 -0.2788  0.4173
 8218SOL     OW36115   4.340   2.194   8.496 -0.1683  0.1575  0.2354
 8218SOL    HW136116   4.418   2.218   8.546 -0.2891  1.1035 -0.0172
 8218SOL    HW236117   4.342   2.246   8.415 -1.8083  0.0904  0.1636
 8219SOL     OW36118   1.549   0.881   1.153  0.4233  0.4365  0.5140
 8219SOL    HW136119   1.548   0.786   1.144 -1.6222  0.3859  1.1212
 8219SOL    HW236120   1.455   0.898   1.143  0.1888 -1.4586 -0.3966
 8220SOL     OW36121   3.406   2.203   1.981 -0.2255  1.0761  0.4067
 8220SOL    HW136122   3.453   2.204   2.064 -0.6994  1.2092  0.6758
 8220SOL    HW236123   3.473   2.178   1.919 -1.8848 -2.3361  0.0069
 8221SOL     OW36124   4.290   2.095  16.051  0.0238  0.2078 -0.1210
 8221SOL    HW136125   4.226   2.152  16.007 -1.8756 -1.3144  0.6927
 8221SOL    HW236126   4.344   2.054  15.983  0.5978 -0.0891  0.5132
 8222SOL     OW36127   4.274   0.438   0.221 -0.2293 -0.5243  0.1361
 8222SOL    HW136128   4.202   0.378   0.201  0.3848 -1.3448  0.3737
 8222SOL    HW236129   4.306   0.413   0.307  1.9965  1.7365 -0.0373
 8223SOL     OW36130   2.690   3.507   9.431  0.0074  0.3637  0.2332
 8223SOL    HW136131   2.715   3.594   9.464  2.5145 -1.1330  2.2731
 8223SOL    HW236132   2.631   3.530   9.359 -2.5995 -1.1937  1.8845
 8224SOL     OW36133   2.849   3.800   1.030 -0.4279 -0.5381  0.3674
 8224SOL    HW136134   2.818   3.739   1.097  1.1873 -1.8848 -0.1143
 8224SOL    HW236135   2.829   3.882   1.074  0.1520 -1.0732  1.6296
 8225SOL     OW36136   0.387   0.652   5.642  0.0846 -0.5506 -0.3249
 8225SOL    HW136137   0.395   0.666   5.736 -1.3003  0.2461 -0.3228
 8225SOL    HW236138   0.427   0.736   5.618 -0.0693 -1.3007 -3.1935
 8226SOL     OW36139   2.462   4.133   6.070 -0.5032  0.2110  0.1167
 8226SOL    HW136140   2.397   4.126   6.000  0.0648 -0.5106 -0.3401
 8226SOL    HW236141   2.501   4.219   6.053 -0.9172  0.3164 -0.2956
 8227SOL     OW36142   0.551   1.921  13.850  0.4633  0.2317 -0.2064
 8227SOL    HW136143   0.469   1.945  13.806 -1.4169 -1.7439  2.2121
 8227SOL    HW236144   0.536   1.830  13.876 -4.3957  0.5762 -1.6813
 8228SOL     OW36145   0.217   3.096   0.960 -0.3710  0.2171  0.3191
 8228SOL    HW136146   0.237   3.185   0.930  0.7852 -0.4333 -0.8280
 8228SOL    HW236147   0.129   3.102   0.999 -0.9632 -1.0716 -0.8323
 8229SOL     OW36148   1.075   2.542   0.065 -0.0683  0.1428 -0.2397
 8229SOL    HW136149   1.006   2.555  17.685 -1.9339 -2.7661  1.1234
 8229SOL    HW236150   1.032   2.486   0.129 -0.7546 -3.2795 -3.7102
 8230SOL     OW36151   3.537   4.042  15.843  0.1598  0.2677  0.4873
 8230SOL    HW136152   3.535   4.081  15.755  1.6857 -0.8933 -0.0607
 8230SOL    HW236153   3.632   4.050  15.853  0.2912 -0.8657  0.1667
 8231SOL     OW36154   0.795   1.467   3.686  0.0279  0.0398  0.7238
 8231SOL    HW136155   0.736   1.529   3.729  2.3996  1.1994  2.3192
 8231SOL    HW236156   0.744   1.387   3.697 -0.1714 -0.1238 -1.3648
 8232SOL     OW36157   4.389   0.866   9.701  0.4342 -0.0427  0.2774
 8232SOL    HW136158   4.332   0.789   9.707  1.2064 -0.6037  0.4832
 8232SOL    HW236159   4.349   0.916   9.772 -1.9496 -0.9073 -0.4671
 8233SOL     OW36160   1.090   0.009   4.219  0.4922 -0.0902  0.1748
 8233SOL    HW136161   1.179   4.694   4.222  0.4023 -0.0316  3.3528
 8233SOL    HW236162   1.077   0.068   4.293 -2.5174  1.6734 -1.7818
 8234SOL     OW36163   0.248   0.078   1.438  0.7128 -0.0967  0.0850
 8234SOL    HW136164   0.289   4.714   1.457 -1.7857 -1.3753 -0.2869
 8234SOL    HW236165   0.276   0.089   1.347 -0.5240  1.4760 -0.1120
 8235SOL     OW36166   1.940   3.528   0.306  0.4222  0.1406 -0.3114
 8235SOL    HW136167   1.968   3.439   0.287  0.8079 -0.0116  0.9375
 8235SOL    HW236168   1.874   3.549   0.239  0.3016  1.7328  0.3020
 8236SOL     OW36169   1.982   4.125   4.191 -0.0689 -0.1875  0.0708
 8236SOL    HW136170   1.974   4.030   4.182  0.2112 -0.3236  1.3233
 8236SOL    HW236171   1.893   4.152   4.211  0.3092  1.3650 -0.3798
 8237SOL     OW36172   2.040   2.915   6.046  0.4119 -0.1623  0.2681
 8237SOL    HW136173   2.000   2.989   6.092 -1.0051 -1.2333  0.7570
 8237SOL    HW236174   2.002   2.840   6.091  0.5509 -0.0354  0.5927
 8238SOL     OW36175   3.551   0.047   4.864 -0.1559 -0.5107  0.8771
 8238SOL    HW136176   3.518   0.006   4.784  2.6131  0.1131 -0.5742
 8238SOL    HW236177   3.646   0.051   4.866 -0.1707 -0.3540  1.2150
 8239SOL     OW36178   1.618   2.006   6.946 -0.6748  0.3380 -0.3251
 8239SOL    HW136179   1.546   1.944   6.935  1.2550 -1.9257 -0.3209
 8239SOL    HW236180   1.613   2.041   6.857 -2.7786 -1.2560 -0.8428
 8240SOL     OW36181   1.160   0.660   6.722 -0.0873  0.2757 -0.9588
 8240SOL    HW136182   1.230   0.664   6.788 -1.0214 -0.0717  0.0555
 8240SOL    HW236183   1.217   0.649   6.646  0.5187 -0.8862 -0.3365
 8241SOL     OW36184   4.428   3.998   3.296  0.1517 -0.4679  0.4248
 8241SOL    HW136185   4.336   4.023   3.292 -0.0517 -0.9164  2.3087
 8241SOL    HW236186   4.423   3.903   3.309  1.2503 -0.7412 -1.1980
 8242SOL     OW36187   2.531   3.681   7.091  0.4131 -0.0543 -0.4520
 8242SOL    HW136188   2.489   3.641   7.015 -2.0058 -0.0205  0.8737
 8242SOL    HW236189   2.557   3.604   7.143 -3.2174 -0.9474  0.0857
 8243SOL     OW36190   2.284   3.335   9.196 -0.0916 -0.1799  0.4789
 8243SOL    HW136191   2.330   3.259   9.161 -0.4503 -0.5750  0.8766
 8243SOL    HW236192   2.222   3.364   9.129  1.1802  2.3410  0.3544
 8244SOL     OW36193   1.976   4.161   8.808 -0.2850 -0.0883  0.4777
 8244SOL    HW136194   2.029   4.167   8.887  0.4717  0.3053 -0.0687
 8244SOL    HW236195   1.897   4.208   8.835 -0.1314  0.9860 -0.9586
 8245SOL     OW36196   4.169   4.373   3.615  0.0539 -0.8428  0.1300
 8245SOL    HW136197   4.205   4.288   3.640  0.6274 -0.9217 -0.9776
 8245SOL    HW236198   4.209   4.375   3.528 -0.3636 -0.3855 -0.0546
 8246SOL     OW36199   4.276   0.844   5.630  0.1594  0.2251 -0.2211
 8246SOL    HW136200   4.280   0.931   5.592  0.5892  0.1948 -0.2407
 8246SOL    HW236201   4.368   0.820   5.642 -0.2430 -1.2422  0.0497
 8247SOL     OW36202   1.584   1.584   8.607  0.3019 -0.0752  0.7153
 8247SOL    HW136203   1.659   1.641   8.619  0.7097 -0.6600  0.9520
 8247SOL    HW236204   1.543   1.595   8.692 -1.7318 -0.3840 -0.2230
 8248SOL     OW36205   0.136   2.114  12.850 -0.7457  0.6643 -0.3756
 8248SOL    HW136206   0.125   2.127  12.944 -1.2672  0.7273 -0.4451
 8248SOL    HW236207   0.062   2.163  12.815 -0.6987  2.2111  1.6955
 8249SOL     OW36208   1.221   4.145   6.022 -0.0042 -0.3805 -0.0355
 8249SOL    HW136209   1.302   4.196   6.023 -0.1866 -0.0878 -0.2843
 8249SOL    HW236210   1.192   4.163   5.933 -1.1338 -0.7323  0.2630
 8250SOL     OW36211   4.250   4.541  10.181  0.0628 -0.4644 -0.0853
 8250SOL    HW136212   4.280   4.505  10.098  2.2852 -0.1436  0.5862
 8250SOL    HW236213   4.321   4.516  10.240 -0.7865 -2.3882  0.1264
 8251SOL     OW36214   3.430   1.324   6.250  0.1747 -0.0686 -0.5038
 8251SOL    HW136215   3.411   1.359   6.163 -1.9923  0.1632  0.0605
 8251SOL    HW236216   3.447   1.233   6.228 -0.7944 -0.3455 -0.1049
 8252SOL     OW36217   4.242   1.205  10.139  0.4259  0.5700  0.5139
 8252SOL    HW136218   4.151   1.198  10.110  0.2800  0.4013  1.0157
 8252SOL    HW236219   4.257   1.299  10.139 -1.6858  0.9307 -0.9260
 8253SOL     OW36220   3.164   2.628   9.706  0.2229 -0.2717 -0.2924
 8253SOL    HW136221   3.259   2.622   9.717  0.1094 -1.0270  0.2723
 8253SOL    HW236222   3.138   2.556   9.764  0.0875  0.7620  0.9401
 8254SOL     OW36223   4.474   2.854   5.870 -0.1496 -0.3858 -0.1706
 8254SOL    HW136224   4.469   2.871   5.964 -1.3563 -2.6541  0.1786
 8254SOL    HW236225   4.383   2.834   5.846  0.7559 -1.4712 -2.6122
 8255SOL     OW36226   2.845   0.805  10.111 -0.6451 -0.0145 -0.3480
 8255SOL    HW136227   2.793   0.845  10.182  0.6901  1.0923 -0.0055
 8255SOL    HW236228   2.927   0.831  10.153 -0.5779 -1.0076  0.1468
 8256SOL     OW36229   2.064   1.096   0.734  0.0722 -0.2773  0.0313
 8256SOL    HW136230   2.140   1.142   0.770  0.3192 -1.2708  0.7577
 8256SOL    HW236231   2.023   1.063   0.813  0.1637 -0.4164  0.0210
 8257SOL     OW36232   4.016   4.669   5.977  0.7391 -0.3996  0.1182
 8257SOL    HW136233   4.016   4.675   6.073 -1.8574 -1.7159  0.2173
 8257SOL    HW236234   3.943   4.607   5.977  2.5085 -2.4935 -1.1178
 8258SOL     OW36235   4.011   3.570   8.995  0.1869  0.1007 -0.0002
 8258SOL    HW136236   4.061   3.505   8.946  2.0208  1.5243 -0.0178
 8258SOL    HW236237   3.988   3.623   8.919  2.0979 -1.4602 -1.6551
 8259SOL     OW36238   4.338   1.226   6.680 -0.4035  0.0354 -0.0058
 8259SOL    HW136239   4.376   1.183   6.604 -1.2210 -0.8585  0.0988
 8259SOL    HW236240   4.276   1.158   6.708  1.4739 -1.3487  0.8036
 8260SOL     OW36241   0.032   4.214   7.407 -0.1733 -0.0448  0.9447
 8260SOL    HW136242   0.080   4.291   7.377  0.6233 -0.6483  0.6797
 8260SOL    HW236243   0.023   4.169   7.322 -2.3828 -1.0761  1.7089
 8261SOL     OW36244   1.300   0.240   7.243 -0.2876  0.1548 -0.4278
 8261SOL    HW136245   1.319   0.156   7.200 -1.3609  0.1869 -0.9597
 8261SOL    HW236246   1.205   0.241   7.252 -0.0183  0.9374  2.1875
 8262SOL     OW36247   4.432   3.134   5.087 -0.2301  0.0645  0.1268
 8262SOL    HW136248   4.428   3.219   5.041 -0.9779  0.1612  0.3635
 8262SOL    HW236249   4.434   3.165   5.178  0.5296 -0.2152  0.2011
 8263SOL     OW36250   1.844   1.096   2.716  0.1902  0.0107  0.1236
 8263SOL    HW136251   1.809   1.180   2.686  0.4901 -0.1651 -0.7104
 8263SOL    HW236252   1.937   1.099   2.693  0.1846 -0.6475  0.0243
 8264SOL     OW36253   1.157   3.325   4.186 -0.4890  0.5845  0.1833
 8264SOL    HW136254   1.102   3.266   4.135  1.1906 -1.3857  0.6545
 8264SOL    HW236255   1.107   3.406   4.182 -0.4648  0.4481 -2.8148
 8265SOL     OW36256   0.237   0.120   4.236  0.0460  1.0309  0.0437
 8265SOL    HW136257   0.163   0.073   4.274 -0.6238  1.5070 -0.6598
 8265SOL    HW236258   0.187   0.165   4.168 -2.3003 -0.0214  1.0486
 8266SOL     OW36259   1.775   0.993  13.090  0.2119  0.2415 -0.5827
 8266SOL    HW136260   1.767   0.958  13.179  2.1080  0.9230 -0.1561
 8266SOL    HW236261   1.788   1.087  13.104 -1.7611  0.1088  2.0781
 8267SOL     OW36262   4.069   2.395   9.385  0.3281  0.6823 -0.2546
 8267SOL    HW136263   4.033   2.373   9.299  0.0352  3.2234 -0.7846
 8267SOL    HW236264   3.990   2.423   9.433  0.0204  1.5969 -1.3041
 8268SOL     OW36265   0.344   0.756   7.307 -0.1448  0.1335  0.2254
 8268SOL    HW136266   0.380   0.839   7.277  0.2764 -0.3121 -0.4827
 8268SOL    HW236267   0.406   0.722   7.372 -0.8801 -2.2834 -0.3261
 8269SOL     OW36268   0.351   0.241   6.461 -0.2321  0.0628 -0.1133
 8269SOL    HW136269   0.400   0.295   6.399  0.6688 -0.3017  0.2807
 8269SOL    HW236270   0.315   0.304   6.523  0.1428 -1.1842  1.3751
 8270SOL     OW36271   1.389   4.498   1.198 -0.0155 -0.0702  0.6949
 8270SOL    HW136272   1.354   4.543   1.121  0.6619 -1.6354 -0.5106
 8270SOL    HW236273   1.450   4.559   1.239  0.2472  0.7407 -0.9001
 8271SOL     OW36274   3.994   1.566  11.459  0.2192 -0.3881 -0.0836
 8271SOL    HW136275   4.079   1.588  11.496  0.1831  1.3553 -1.0418
 8271SOL    HW236276   3.937   1.566  11.536 -0.0088  3.4686 -0.2807
 8272SOL     OW36277   1.041   0.945   3.275 -0.2498  0.1233  0.1910
 8272SOL    HW136278   1.010   0.866   3.232  1.0786  0.9180 -2.2660
 8272SOL    HW236279   1.129   0.920   3.304 -0.4917 -0.4130  0.4527
 8273SOL     OW36280   1.952   1.618   7.373  0.2917  0.0881  0.1373
 8273SOL    HW136281   1.942   1.524   7.361 -0.1245  0.2914 -1.1378
 8273SOL    HW236282   1.876   1.637   7.428  0.5938 -0.0221  0.5951
 8274SOL     OW36283   0.157   4.596   3.712 -0.8084 -0.1661 -0.4973
 8274SOL    HW136284   0.225   4.664   3.710 -0.9242 -0.0258  0.3359
 8274SOL    HW236285   0.205   4.519   3.681 -1.2386 -1.2019  1.4274
 8275SOL     OW36286   1.539   2.774   4.974  0.0258  0.7074  0.4534
 8275SOL    HW136287   1.595   2.800   5.048  2.0455 -1.8531 -0.1703
 8275SOL    HW236288   1.601   2.713   4.933  0.4170  1.4888 -0.1228
 8276SOL     OW36289   4.278   0.996   3.442  0.2036 -0.3332 -0.5834
 8276SOL    HW136290   4.334   0.949   3.380  0.6645 -0.7802  0.1775
 8276SOL    HW236291   4.322   1.080   3.455  1.0593 -0.9420  0.4248
 8277SOL     OW36292   0.060   2.022   4.449 -0.1754  0.3314 -0.3346
 8277SOL    HW136293   0.060   1.943   4.504 -0.8168  1.5421  1.4068
 8277SOL    HW236294   0.136   2.064   4.489  1.7507 -0.7088 -2.9312
 8278SOL     OW36295   2.153   1.093   9.535 -0.5531 -0.1394  0.4972
 8278SOL    HW136296   2.072   1.122   9.578 -0.2662  1.4124  0.0019
 8278SOL    HW236297   2.181   1.178   9.502 -4.4065  0.3975 -1.3739
 8279SOL     OW36298   0.899   2.159  12.065 -0.0876 -0.1642 -0.0442
 8279SOL    HW136299   0.969   2.125  12.121 -0.1427  0.4707  0.4136
 8279SOL    HW236300   0.830   2.174  12.130 -0.7344 -1.4950 -0.4301
 8280SOL     OW36301   0.790   2.462   8.704  0.4761 -0.1110 -0.0358
 8280SOL    HW136302   0.854   2.423   8.763  0.4138 -0.7478 -0.3831
 8280SOL    HW236303   0.719   2.397   8.703  0.1712  0.2263 -0.2965
 8281SOL     OW36304   0.788   2.661   7.854 -0.0359 -0.3273  0.0158
 8281SOL    HW136305   0.765   2.728   7.790 -2.2026 -1.7019 -0.6715
 8281SOL    HW236306   0.708   2.609   7.867 -0.1029  0.1430  1.4769
 8282SOL     OW36307   0.396   4.711   9.858 -0.2739 -0.9369 -0.0587
 8282SOL    HW136308   0.307   4.719   9.892  0.4089 -2.6311  2.1198
 8282SOL    HW236309   0.440   4.682   9.938 -0.4858 -3.0326 -0.7195
 8283SOL     OW36310   3.693   2.214  10.362 -0.4840 -0.1173  0.1129
 8283SOL    HW136311   3.642   2.265  10.424 -0.2244  0.5996 -0.2703
 8283SOL    HW236312   3.686   2.122  10.388 -2.8012  0.4721  1.4860
 8284SOL     OW36313   1.878   3.507   1.467 -0.3651  0.2553 -0.1120
 8284SOL    HW136314   1.969   3.518   1.439 -0.7138 -0.9549 -1.7282
 8284SOL    HW236315   1.836   3.465   1.391  0.9291 -1.0051 -0.1344
 8285SOL     OW36316   1.129   3.988   8.915  0.1005 -0.3103  0.2729
 8285SOL    HW136317   1.045   3.962   8.954  0.5219 -0.4220  1.1197
 8285SOL    HW236318   1.117   4.081   8.896 -0.4004 -0.3471  0.4114
 8286SOL     OW36319   2.916   1.328   3.013 -0.4059 -0.2478  0.4897
 8286SOL    HW136320   2.863   1.321   3.093  0.8496 -0.4811  1.2965
 8286SOL    HW236321   2.922   1.419   2.985  1.3628  0.1348  2.1080
 8287SOL     OW36322   0.674   1.425  11.914 -0.2721 -0.2804  0.0691
 8287SOL    HW136323   0.647   1.385  11.831 -1.9922 -0.4330  0.7118
 8287SOL    HW236324   0.609   1.389  11.974  1.4091 -0.6584  1.6419
 8288SOL     OW36325   1.292   3.528   3.514  0.9096 -0.0398 -0.0676
 8288SOL    HW136326   1.274   3.509   3.422  1.2678  0.7060 -0.2907
 8288SOL    HW236327   1.359   3.594   3.499 -0.0781  0.8090 -0.6947
 8289SOL     OW36328   0.085   2.545   9.268  0.2997 -0.0501 -0.0884
 8289SOL    HW136329   0.109   2.627   9.312  0.8125 -1.3182  1.9946
 8289SOL    HW236330   0.018   2.571   9.205  1.0648 -0.2275 -0.9616
 8290SOL     OW36331   0.521   1.862   3.097  0.0373  0.4278  0.2045
 8290SOL    HW136332   0.536   1.957   3.096  1.6523  0.1501 -0.7463
 8290SOL    HW236333   0.450   1.861   3.033 -2.5494  1.6214  3.0156
 8291SOL     OW36334   4.579   2.988   3.432  0.3213  0.4899 -0.0143
 8291SOL    HW136335   4.520   2.964   3.503  2.2109 -0.9077  1.0957
 8291SOL    HW236336   4.588   2.904   3.387  1.2426 -0.4463  1.9154
 8292SOL     OW36337   4.580   4.392  10.741  0.0301 -1.0708  0.3045
 8292SOL    HW136338   4.537   4.401  10.656  2.1749 -1.5504 -0.8249
 8292SOL    HW236339   4.507   4.378  10.802  0.0722  0.2443  0.6599
 8293SOL     OW36340   3.664   1.539   6.227 -0.5684  0.3860  0.5298
 8293SOL    HW136341   3.705   1.538   6.141  2.4744 -0.8529  2.0026
 8293SOL    HW236342   3.615   1.456   6.225  1.2212 -0.5622 -3.0942
 8294SOL     OW36343   1.799   0.336   6.626  0.1803 -0.1687  0.5680
 8294SOL    HW136344   1.814   0.431   6.621  1.4904 -0.3964  0.1917
 8294SOL    HW236345   1.732   0.324   6.559  0.5125 -0.5241  0.3020
 8295SOL     OW36346   4.519   0.328  12.102 -0.7121 -0.7660  0.3897
 8295SOL    HW136347   4.558   0.244  12.075  1.5302  0.5146 -0.3908
 8295SOL    HW236348   4.579   0.397  12.072 -0.2591 -1.2729  0.1253
 8296SOL     OW36349   3.401   2.435   9.121 -0.1822 -0.5075 -0.3844
 8296SOL    HW136350   3.436   2.415   9.208 -0.7598  0.4450  0.0729
 8296SOL    HW236351   3.407   2.347   9.084  0.8576 -0.4688 -0.2929
 8297SOL     OW36352   2.689   0.402  11.303  0.1459 -0.8124 -0.0575
 8297SOL    HW136353   2.702   0.311  11.330 -0.6666 -0.8484  0.2139
 8297SOL    HW236354   2.773   0.447  11.315  0.9246 -1.9444 -1.2217
 8298SOL     OW36355   1.043   2.563  13.554  0.1570  0.3255 -0.1400
 8298SOL    HW136356   1.062   2.594  13.466  2.3827 -1.0735 -0.1610
 8298SOL    HW236357   1.121   2.510  13.573 -0.7791 -1.2334 -0.7022
 8299SOL     OW36358   0.577   3.021   8.851 -0.2568 -0.3919  0.5399
 8299SOL    HW136359   0.555   3.089   8.915 -0.2184  2.1227 -2.1312
 8299SOL    HW236360   0.671   3.035   8.845 -0.5201  1.8455  1.6793
 8300SOL     OW36361   1.438   1.793   1.291  0.2749  0.3800  0.6125
 8300SOL    HW136362   1.366   1.737   1.321  0.1427 -0.9981 -2.1820
 8300SOL    HW236363   1.510   1.761   1.344  0.6926  0.6489  0.2087
 8301SOL     OW36364   4.350   2.377   8.289  0.4834  0.6477 -0.1997
 8301SOL    HW136365   4.378   2.376   8.198 -0.5336  1.4150 -0.5215
 8301SOL    HW236366   4.333   2.471   8.299  0.2340  0.6622 -0.7527
 8302SOL     OW36367   3.226   4.474   3.133 -0.5819  0.2155 -0.4346
 8302SOL    HW136368   3.224   4.394   3.081  0.6275  1.2544 -2.0552
 8302SOL    HW236369   3.239   4.539   3.064  0.5532  0.6150  0.1512
 8303SOL     OW36370   1.268   2.916   7.275  0.2037  0.2022 -0.2979
 8303SOL    HW136371   1.281   2.822   7.271 -0.9851 -0.0239  0.9569
 8303SOL    HW236372   1.338   2.942   7.335  1.3300 -0.4150 -1.3646
 8304SOL     OW36373   3.732   0.242   7.084 -0.2493  0.2375  0.6094
 8304SOL    HW136374   3.773   0.183   7.021 -0.9332  1.7130 -1.2050
 8304SOL    HW236375   3.728   0.184   7.160 -1.9801  0.5117  0.7281
 8305SOL     OW36376   4.073   3.110  10.050 -0.3105  0.3026 -0.2081
 8305SOL    HW136377   4.035   3.177  10.107  1.0979 -0.4369  1.6175
 8305SOL    HW236378   4.070   3.138   9.959 -0.5620  2.9379  0.6215
 8306SOL     OW36379   0.493   4.482   9.313  0.2407 -0.2089  0.0179
 8306SOL    HW136380   0.400   4.468   9.328  0.6458 -1.1826  1.6012
 8306SOL    HW236381   0.537   4.440   9.387 -2.5061 -1.2304  1.0647
 8307SOL     OW36382   1.378   1.328   5.767 -0.0287  0.0502 -0.3886
 8307SOL    HW136383   1.295   1.285   5.747  0.1856 -1.3781  1.7779
 8307SOL    HW236384   1.352   1.410   5.809 -2.0238 -1.0337  0.5121
 8308SOL     OW36385   3.771   4.154  14.913  0.9492 -0.2931  0.1019
 8308SOL    HW136386   3.691   4.188  14.952  1.8666  0.9655  0.8963
 8308SOL    HW236387   3.807   4.114  14.992 -1.6534  0.0708  1.4718
 8309SOL     OW36388   1.239   3.785   5.797 -0.2626  0.4497  0.0306
 8309SOL    HW136389   1.180   3.816   5.866  0.1253  0.1697  0.4888
 8309SOL    HW236390   1.245   3.868   5.751 -1.5052  0.5357  0.0244
 8310SOL     OW36391   2.157   2.985   3.563 -0.7241  0.6945  0.4441
 8310SOL    HW136392   2.173   3.075   3.592 -2.1705  1.1193 -0.0688
 8310SOL    HW236393   2.198   2.929   3.629 -0.5951  0.0404 -0.1905
 8311SOL     OW36394   1.419   3.236   7.206  0.4093  0.0656  0.2912
 8311SOL    HW136395   1.434   3.157   7.258 -0.1559  1.1891  2.1468
 8311SOL    HW236396   1.328   3.259   7.219  1.1629  3.1720 -0.0790
 8312SOL     OW36397   3.694   0.331   6.450 -0.3264  0.1045 -0.0666
 8312SOL    HW136398   3.759   0.361   6.513 -3.1670  0.3876  2.6996
 8312SOL    HW236399   3.713   0.238   6.464 -0.8633 -0.1547 -1.0151
 8313SOL     OW36400   2.918   3.089   9.992  0.1751  0.4951  0.5446
 8313SOL    HW136401   2.832   3.131  10.001  0.0791  0.5846 -0.7570
 8313SOL    HW236402   2.900   3.000   9.962 -2.7799  1.4717 -0.5818
 8314SOL     OW36403   1.824   2.063  11.906 -0.5206  0.1771 -0.4116
 8314SOL    HW136404   1.779   2.071  11.822 -0.4099  0.6334 -0.4271
 8314SOL    HW236405   1.777   2.114  11.972  1.9988  0.0915  1.4561
 8315SOL     OW36406   2.308   4.606   8.241 -0.0768 -0.0179 -0.0414
 8315SOL    HW136407   2.241   4.657   8.194  1.4677  2.5154  0.4691
 8315SOL    HW236408   2.255   4.534   8.273 -1.5279 -0.0598 -2.5557
 8316SOL     OW36409   4.150   0.208   6.603  0.0067 -0.3709 -0.5394
 8316SOL    HW136410   4.203   0.158   6.666 -0.3200 -0.0445 -0.0014
 8316SOL    HW236411   4.097   0.258   6.665  0.8618  0.3735 -0.3992
 8317SOL     OW36412   0.169   1.292   5.937 -0.1168 -0.0442  0.3552
 8317SOL    HW136413   0.206   1.302   5.849  0.4687  0.1457  0.6249
 8317SOL    HW236414   0.228   1.224   5.968  1.8278  0.8142 -1.4663
 8318SOL     OW36415   4.555   4.143   5.063 -0.0253  0.0751  0.6524
 8318SOL    HW136416   4.534   4.081   5.133  0.2287  0.7460  1.3184
 8318SOL    HW236417   4.625   4.198   5.098  0.9403  0.6355 -2.1327
 8319SOL     OW36418   3.110   2.885   6.693 -0.3643 -0.0491 -0.1214
 8319SOL    HW136419   3.129   2.975   6.665  2.0702 -0.2682  0.7898
 8319SOL    HW236420   3.031   2.897   6.744  0.9321 -4.0852  2.8783
 8320SOL     OW36421   2.698   3.673   4.337  0.0691  0.5183 -0.0571
 8320SOL    HW136422   2.611   3.712   4.332 -0.0041  0.1130 -2.3150
 8320SOL    HW236423   2.677   3.586   4.370  0.2126  0.1085 -1.0467
 8321SOL     OW36424   2.091   3.686  13.551  0.0384 -0.0464 -0.5228
 8321SOL    HW136425   2.172   3.641  13.528 -0.2964 -0.8990 -0.0237
 8321SOL    HW236426   2.117   3.775  13.529 -1.4621  0.3766 -0.6367
 8322SOL     OW36427   0.671   4.304   1.868  0.3177  0.0165  0.3161
 8322SOL    HW136428   0.607   4.298   1.939 -0.9808  2.1602 -0.7045
 8322SOL    HW236429   0.630   4.254   1.798  2.4273  0.5068 -1.2776
 8323SOL     OW36430   0.494   0.626   3.941  0.0070 -0.2724  0.2048
 8323SOL    HW136431   0.449   0.681   4.006 -1.0253 -1.2860  0.3368
 8323SOL    HW236432   0.432   0.601   3.874  1.2504 -1.8765 -0.3354
 8324SOL     OW36433   1.038   2.830   1.248  0.4706  0.2783 -0.1044
 8324SOL    HW136434   1.018   2.792   1.334  3.0122 -0.8563 -0.0097
 8324SOL    HW236435   1.087   2.906   1.282  2.2402 -0.7968 -0.2886
 8325SOL     OW36436   0.610   3.032  13.300  0.0268 -0.0462  0.2372
 8325SOL    HW136437   0.620   3.077  13.216  2.4725  1.3767  1.3024
 8325SOL    HW236438   0.685   3.066  13.348 -0.5446  3.2080 -1.1251
 8326SOL     OW36439   4.308   0.890   8.306 -0.1942 -0.0418 -0.0187
 8326SOL    HW136440   4.237   0.951   8.324  0.1019  0.7859 -1.6100
 8326SOL    HW236441   4.283   0.860   8.218  0.2155 -0.2770 -0.0514
 8327SOL     OW36442   4.368   0.147   8.296 -0.1144 -0.2415 -0.5320
 8327SOL    HW136443   4.419   0.066   8.300 -1.4109 -1.0631 -0.4665
 8327SOL    HW236444   4.289   0.130   8.348  0.1478 -0.1639 -0.1068
 8328SOL     OW36445   3.150   0.139   7.972 -0.2088 -0.0134 -0.1607
 8328SOL    HW136446   3.065   0.115   8.010 -0.2601  3.7538  2.1642
 8328SOL    HW236447   3.200   0.164   8.050 -2.0718 -0.5087  1.1815
 8329SOL     OW36448   2.982   2.650  17.596  0.0452 -0.0172 -0.0080
 8329SOL    HW136449   3.032   2.646  17.678  0.0554  2.4407  0.1257
 8329SOL    HW236450   2.937   2.567  17.606 -0.7797  0.4779  0.3793
 8330SOL     OW36451   3.116   1.946   3.566  0.5432  0.1469  0.0321
 8330SOL    HW136452   3.073   1.990   3.493  0.0287 -2.6194 -1.3080
 8330SOL    HW236453   3.132   2.033   3.605 -0.0507 -0.8752  2.5861
 8331SOL     OW36454   2.211   0.068   8.817 -0.8164 -0.5173  0.1290
 8331SOL    HW136455   2.240   0.065   8.726  0.0898  3.6392  0.2909
 8331SOL    HW236456   2.285   0.029   8.862 -0.9907  0.0148  0.8679
 8332SOL     OW36457   0.455   1.902   8.330  0.5957  0.3112 -0.2495
 8332SOL    HW136458   0.491   1.842   8.394 -0.3211 -0.4473 -0.4388
 8332SOL    HW236459   0.528   1.916   8.270 -0.5373 -2.4991 -2.2671
 8333SOL     OW36460   2.667   4.386  10.132  0.2744  0.0043 -0.0864
 8333SOL    HW136461   2.730   4.315  10.127 -1.8094 -1.6747 -2.6206
 8333SOL    HW236462   2.659   4.417  10.042 -2.2136 -0.3748  0.0021
 8334SOL     OW36463   3.989   0.908   6.526  0.1179  0.2017 -0.4309
 8334SOL    HW136464   3.990   1.003   6.533 -1.8277  0.1258  1.0408
 8334SOL    HW236465   3.953   0.905   6.437  1.2069 -0.5544 -0.8448
 8335SOL     OW36466   1.786   0.236   5.481 -0.2130 -0.3623  0.1798
 8335SOL    HW136467   1.701   0.261   5.518  0.4917 -0.7079  2.0395
 8335SOL    HW236468   1.767   0.213   5.390  0.6424 -0.3436  0.0061
 8336SOL     OW36469   1.927   1.707   6.161  0.1161 -0.3687  0.0552
 8336SOL    HW136470   1.940   1.711   6.256 -0.4393 -0.0084  0.1153
 8336SOL    HW236471   1.893   1.794   6.140  2.3614  0.4441 -0.2933
 8337SOL     OW36472   2.680   3.513  13.291  0.5972  0.4101 -0.1324
 8337SOL    HW136473   2.620   3.468  13.233 -0.3854 -1.2470  2.1673
 8337SOL    HW236474   2.631   3.572  13.349 -0.9283 -0.8581 -0.1345
 8338SOL     OW36475   0.722   0.585   9.662  0.1085  0.6735  0.7286
 8338SOL    HW136476   0.725   0.584   9.758 -2.5540 -0.8975  0.7929
 8338SOL    HW236477   0.658   0.521   9.631  2.6258 -1.6016  0.1879
 8339SOL     OW36478   4.566   1.264  10.237 -0.0526  0.0512 -0.3850
 8339SOL    HW136479   4.560   1.234  10.328 -1.5613  1.7193  0.0797
 8339SOL    HW236480   4.514   1.193  10.199 -0.1682 -0.3450  0.5022
 8340SOL     OW36481   1.571   3.056  16.025 -0.1021 -0.0331 -0.4990
 8340SOL    HW136482   1.485   3.039  15.987  0.3352 -1.9296 -0.6365
 8340SOL    HW236483   1.588   3.147  16.003  0.1428  0.2976  1.0577
 8341SOL     OW36484   4.222   1.405   4.685  0.0019 -0.3523 -0.6172
 8341SOL    HW136485   4.191   1.479   4.634 -0.6524  1.3536  2.2691
 8341SOL    HW236486   4.288   1.454   4.734 -1.9391  0.2944  1.3758
 8342SOL     OW36487   0.052   4.163  11.510  0.1327 -0.0902  0.4176
 8342SOL    HW136488   0.017   4.143  11.596  3.7855 -0.3185  1.8704
 8342SOL    HW236489   0.074   4.076  11.476 -2.0095 -0.8031  0.8533
 8343SOL     OW36490   0.713   3.195   3.878 -0.3630  0.0146  0.1701
 8343SOL    HW136491   0.764   3.193   3.797  2.7278  0.9331  2.0901
 8343SOL    HW236492   0.664   3.274   3.853 -0.0604 -0.3180 -1.4514
 8344SOL     OW36493   1.260   2.212   4.605  0.0475  0.7228  0.2005
 8344SOL    HW136494   1.235   2.290   4.655  2.0718  1.4512  0.0501
 8344SOL    HW236495   1.245   2.247   4.517  0.7418  0.2392 -0.1045
 8345SOL     OW36496   0.463   3.672   4.797  0.3073 -0.3961 -0.0313
 8345SOL    HW136497   0.499   3.623   4.872 -0.0731  1.5418  1.4104
 8345SOL    HW236498   0.388   3.614   4.783  0.0261 -0.0632  0.0810
 8346SOL     OW36499   1.645   4.698   2.418 -0.0096  0.6639 -0.2975
 8346SOL    HW136500   1.685   0.053   2.376  1.3706  0.7049  1.0888
 8346SOL    HW236501   1.633   4.632   2.350 -0.6871  1.8288 -1.3103
 8347SOL     OW36502   4.644   3.540   6.802 -0.5029 -0.1348  0.4326
 8347SOL    HW136503   4.685   3.481   6.866 -2.9496 -2.9766 -0.5954
 8347SOL    HW236504   4.581   3.583   6.860  0.3939  0.4216  0.9840
 8348SOL     OW36505   3.295   4.642   5.929 -0.4152  0.2335  0.1708
 8348SOL    HW136506   3.288   4.694   5.849  0.3813 -1.1498 -0.7919
 8348SOL    HW236507   3.299   4.714   5.992 -0.2683  1.1316 -0.8672
 8349SOL     OW36508   4.446   1.061   2.375  0.4483 -0.3019 -0.2514
 8349SOL    HW136509   4.407   1.109   2.448  0.0499 -0.1999 -0.5305
 8349SOL    HW236510   4.506   1.130   2.345 -1.1272  0.7258 -1.0884
 8350SOL     OW36511   1.437   1.185   6.229  0.1680  0.0451 -0.2117
 8350SOL    HW136512   1.408   1.276   6.234 -1.1231 -0.1869 -3.2434
 8350SOL    HW236513   1.449   1.174   6.134 -1.6139  0.1872 -0.4637
 8351SOL     OW36514   0.761   0.267  16.168  0.0218 -0.8758 -0.2794
 8351SOL    HW136515   0.799   0.349  16.198  0.0817 -1.2472  0.6606
 8351SOL    HW236516   0.683   0.262  16.223  1.9336 -1.1646  2.4350
 8352SOL     OW36517   1.007   3.724  10.496  0.0682  0.5689  0.0482
 8352SOL    HW136518   0.920   3.763  10.488  0.7057  2.1925  1.1859
 8352SOL    HW236519   0.975   3.635  10.514 -0.5655  0.7284 -0.2757
 8353SOL     OW36520   1.317   3.905  14.719 -0.0947  0.1497 -0.4216
 8353SOL    HW136521   1.321   3.864  14.633 -2.5118  1.5933 -1.2346
 8353SOL    HW236522   1.407   3.894  14.749 -0.6895  0.8220  1.5924
 8354SOL     OW36523   1.517   3.094   6.073  0.2636 -0.1630  0.0730
 8354SOL    HW136524   1.575   3.102   6.148 -0.9015 -1.1190  1.0825
 8354SOL    HW236525   1.584   3.097   6.004 -0.2211 -2.8033 -0.5138
 8355SOL     OW36526   4.409   0.123   5.279  0.3149  0.6433  0.2950
 8355SOL    HW136527   4.458   0.134   5.197 -1.1730 -0.2281 -0.7088
 8355SOL    HW236528   4.329   0.079   5.251  0.0218  0.8257  0.8510
 8356SOL     OW36529   3.362   2.508   6.377  0.0775  0.2533  0.4212
 8356SOL    HW136530   3.327   2.573   6.438  1.4042 -0.1615  1.6227
 8356SOL    HW236531   3.323   2.427   6.411 -1.7308  0.4415 -1.2363
 8357SOL     OW36532   2.194   4.256   6.061  0.1390 -0.6241 -1.2751
 8357SOL    HW136533   2.194   4.210   5.977 -2.2838 -1.2539 -0.9332
 8357SOL    HW236534   2.187   4.182   6.122  0.9277  0.3436 -0.0223
 8358SOL     OW36535   1.625   1.217   2.561  0.1364 -0.5706 -0.2165
 8358SOL    HW136536   1.581   1.132   2.556  0.5625 -0.9173  1.9152
 8358SOL    HW236537   1.550   1.273   2.539 -1.1350 -2.1989  0.0230
 8359SOL     OW36538   2.275   3.260   3.398 -0.1255  0.3784 -0.1063
 8359SOL    HW136539   2.181   3.263   3.381  0.0086  0.3613 -0.8399
 8359SOL    HW236540   2.271   3.234   3.490 -2.9839  0.9136 -0.0862
 8360SOL     OW36541   2.904   2.944   4.925 -0.5333 -0.3609 -0.7480
 8360SOL    HW136542   2.984   2.895   4.946 -1.4541 -1.3185  0.5320
 8360SOL    HW236543   2.852   2.921   5.002  0.3623  1.8299  0.5183
 8361SOL     OW36544   4.650   2.054   8.580  0.4326  0.4197 -0.0868
 8361SOL    HW136545   4.592   1.990   8.622  0.6641 -0.7183 -1.5278
 8361SOL    HW236546   0.008   2.052   8.634 -0.0165 -1.2954  0.5326
 8362SOL     OW36547   1.077   2.370   4.134 -0.4326 -0.0300  0.0508
 8362SOL    HW136548   1.047   2.460   4.146  2.2129  1.2394 -2.9020
 8362SOL    HW236549   0.994   2.323   4.129  0.9710 -2.4547 -0.1944
 8363SOL     OW36550   3.546   3.489  11.896 -0.2766  0.2898 -0.6936
 8363SOL    HW136551   3.476   3.479  11.832 -1.8733  1.6754  0.8314
 8363SOL    HW236552   3.505   3.433  11.962 -1.9218  1.2227 -0.9454
 8364SOL     OW36553   2.572   1.943  17.373 -0.2931 -0.4945  0.3755
 8364SOL    HW136554   2.600   1.852  17.379  0.2798 -0.2413  1.6198
 8364SOL    HW236555   2.619   1.965  17.293  1.9870  1.5826  2.2572
 8365SOL     OW36556   0.477   1.472   9.191  0.1933  0.0397 -0.4747
 8365SOL    HW136557   0.506   1.395   9.240  0.1854  0.1117 -0.3568
 8365SOL    HW236558   0.467   1.538   9.260 -1.0404 -0.4208 -0.2208
 8366SOL     OW36559   2.455   4.631   3.976 -0.9515 -0.3971 -0.3369
 8366SOL    HW136560   2.371   4.618   3.932 -0.4656 -1.9348 -0.8311
 8366SOL    HW236561   2.443   4.697   4.043 -2.5250  1.1475 -2.1397
 8367SOL     OW36562   1.984   1.473   0.444  0.3565  0.0553 -0.0262
 8367SOL    HW136563   1.938   1.390   0.454 -0.1574  0.4456  0.8847
 8367SOL    HW236564   2.029   1.445   0.364  0.8229  0.2783  0.1591
 8368SOL     OW36565   1.655   4.625  16.654 -0.1566  0.7706 -0.1504
 8368SOL    HW136566   1.703   4.707  16.639 -2.3004  1.6000 -2.6196
 8368SOL    HW236567   1.564   4.646  16.636 -0.6443 -0.6675  0.6131
 8369SOL     OW36568   3.902   3.084   3.718 -0.2464 -0.2682  0.5041
 8369SOL    HW136569   3.971   3.149   3.702 -0.1745 -0.2890  0.7219
 8369SOL    HW236570   3.936   3.041   3.796 -0.6203 -0.1104  0.7561
 8370SOL     OW36571   2.692   4.119  13.890 -0.1854  0.4477 -0.0925
 8370SOL    HW136572   2.626   4.068  13.843  0.2884  0.2582 -0.5664
 8370SOL    HW236573   2.764   4.122  13.826  0.5112  1.8778  0.7745
 8371SOL     OW36574   1.625   0.024   3.626  0.1801  0.4486  0.2720
 8371SOL    HW136575   1.545   4.713   3.584 -0.8857  1.7720  1.2673
 8371SOL    HW236576   1.635   4.695   3.707  0.2658  0.8665  0.5208
 8372SOL     OW36577   2.838   3.630  16.263  0.6742  0.5539  0.1368
 8372SOL    HW136578   2.919   3.640  16.213  0.7237 -0.3839  0.0315
 8372SOL    HW236579   2.788   3.705  16.231 -0.5331  1.2461  3.6562
 8373SOL     OW36580   4.164   4.034   3.456  0.0661  0.0873  0.1799
 8373SOL    HW136581   4.101   3.970   3.423 -0.3310 -0.3819  1.8121
 8373SOL    HW236582   4.109   4.098   3.502  1.0472  1.0354  0.0135
 8374SOL     OW36583   4.233   4.662   3.184  0.1422 -0.2785  0.0724
 8374SOL    HW136584   4.291   0.007   3.223 -1.5915 -0.5551  3.0939
 8374SOL    HW236585   4.242   4.682   3.090 -0.8936 -0.9496 -0.1786
 8375SOL     OW36586   3.123   1.542   8.666 -0.4144  0.0102 -0.7107
 8375SOL    HW136587   3.144   1.485   8.592  0.2558  0.2619 -0.7185
 8375SOL    HW236588   3.040   1.511   8.701  0.3447  0.1198  1.2185
 8376SOL     OW36589   2.223   0.697  13.384  0.0860  0.5254  0.0278
 8376SOL    HW136590   2.301   0.751  13.373  0.0135  0.8057  0.8416
 8376SOL    HW236591   2.197   0.698  13.292 -0.8422 -2.5410  0.2606
 8377SOL     OW36592   4.062   1.463   5.663  0.7049  0.6002 -0.4009
 8377SOL    HW136593   4.068   1.369   5.645 -0.1052 -0.3436  4.2169
 8377SOL    HW236594   4.135   1.467   5.724  0.3551  0.1514  0.0472
 8378SOL     OW36595   1.932   0.002   5.547 -0.1866  0.1464 -0.2630
 8378SOL    HW136596   1.903   0.083   5.505 -1.4794 -0.5064 -0.6268
 8378SOL    HW236597   1.906   4.667   5.475  0.1732  1.0281 -1.0783
 8379SOL     OW36598   2.780   2.480   6.032  0.2311  0.1215 -0.6888
 8379SOL    HW136599   2.704   2.450   6.081  0.4780  0.5951 -0.0129
 8379SOL    HW236600   2.763   2.574   6.045  0.5482 -0.2812  2.7714
 8380SOL     OW36601   0.615   4.578  13.776  0.5780  0.0716  0.3067
 8380SOL    HW136602   0.709   4.588  13.765  0.5511 -0.2630 -0.2229
 8380SOL    HW236603   0.596   4.566  13.869 -0.1010  0.4729  0.2191
 8381SOL     OW36604   1.228   2.734   7.596 -0.5315  0.5150 -0.2240
 8381SOL    HW136605   1.319   2.756   7.618  0.0380 -0.3997 -1.7097
 8381SOL    HW236606   1.217   2.646   7.634  0.2550 -1.1941 -4.0035
 8382SOL     OW36607   3.454   2.727  17.154  0.3698  0.6508  0.0018
 8382SOL    HW136608   3.364   2.757  17.164  0.5681  0.7275  1.6088
 8382SOL    HW236609   3.501   2.810  17.142 -0.6464  1.4096  1.2567
 8383SOL     OW36610   0.962   2.778   7.475 -0.4691 -0.2652 -0.2341
 8383SOL    HW136611   1.048   2.760   7.514  0.1912  0.0426 -1.5501
 8383SOL    HW236612   0.907   2.788   7.553 -1.1646 -2.5846 -0.4303
 8384SOL     OW36613   1.609   2.022  16.155  0.1517 -0.2426 -0.3138
 8384SOL    HW136614   1.553   2.059  16.223  1.2503 -0.2975  0.6046
 8384SOL    HW236615   1.608   2.092  16.089  2.7566  0.4384  0.3601
 8385SOL     OW36616   2.676   3.269   9.965 -0.2364  0.0979  0.9413
 8385SOL    HW136617   2.676   3.194   9.906 -0.1799  0.6078  0.2983
 8385SOL    HW236618   2.586   3.302   9.964  0.2025  1.1416 -1.9296
 8386SOL     OW36619   1.832   2.394   5.938 -0.1010 -0.6641 -0.2576
 8386SOL    HW136620   1.805   2.433   5.855 -0.1264  1.8661  0.9187
 8386SOL    HW236621   1.752   2.406   5.990 -0.1604 -0.2934 -0.4313
 8387SOL     OW36622   0.799   2.858   4.780 -0.2559 -0.3801 -0.7358
 8387SOL    HW136623   0.892   2.875   4.797  0.0485 -0.6104 -2.1210
 8387SOL    HW236624   0.790   2.906   4.697  1.0834  0.3572 -0.4576
 8388SOL     OW36625   0.376   0.754  11.803  0.4215  0.4985  0.1418
 8388SOL    HW136626   0.345   0.679  11.854  0.1469  0.8226  0.4534
 8388SOL    HW236627   0.296   0.771  11.753  1.2672 -1.3374 -1.8348
 8389SOL     OW36628   0.782   4.089  15.924  0.1775 -0.7298  0.2978
 8389SOL    HW136629   0.759   3.996  15.938  0.6016 -0.5947  1.9146
 8389SOL    HW236630   0.744   4.133  16.000 -0.8665  2.9129 -2.3908
 8390SOL     OW36631   4.648   3.924   0.543 -0.0038  0.6131  0.0160
 8390SOL    HW136632   4.681   3.852   0.490  0.5163  0.9729 -0.1577
 8390SOL    HW236633   4.606   3.984   0.480  2.8222  2.2648 -0.3023
 8391SOL     OW36634   2.225   4.388   6.375 -0.0964 -0.7766  0.0435
 8391SOL    HW136635   2.190   4.421   6.292  1.1207 -0.2343 -0.2552
 8391SOL    HW236636   2.309   4.350   6.348 -0.6748 -2.6350  0.8667
 8392SOL     OW36637   0.141   1.617   8.047  0.3373 -0.2158  0.2870
 8392SOL    HW136638   0.202   1.545   8.065 -0.1548 -1.1165 -1.5574
 8392SOL    HW236639   0.092   1.597   8.127 -0.2814  0.2374  0.0171
 8393SOL     OW36640   2.101   0.552   6.584 -0.6134 -0.5115  0.2101
 8393SOL    HW136641   2.157   0.590   6.652 -1.2262 -3.8059  2.5629
 8393SOL    HW236642   2.105   0.458   6.600  0.4264 -0.3287  1.0361
 8394SOL     OW36643   4.195   3.655   4.513 -0.1336  0.0591 -0.3677
 8394SOL    HW136644   4.131   3.644   4.443 -0.0420  0.4446 -0.5100
 8394SOL    HW236645   4.147   3.723   4.560  0.9896  1.9074 -1.9383
 8395SOL     OW36646   4.201   1.392   8.931 -0.0600  0.9897 -1.0087
 8395SOL    HW136647   4.140   1.448   8.978  0.1452 -0.2236  0.7268
 8395SOL    HW236648   4.288   1.403   8.970  0.3311  1.2765 -1.9787
 8396SOL     OW36649   2.858   3.291   9.297  0.7107  0.0802 -0.1670
 8396SOL    HW136650   2.872   3.385   9.286  0.6029  0.0898 -0.2303
 8396SOL    HW236651   2.877   3.273   9.389 -1.2867 -0.2603  0.1807
 8397SOL     OW36652   0.522   2.521   7.195 -0.0825 -0.1609 -0.2397
 8397SOL    HW136653   0.465   2.589   7.159 -0.2293 -1.0389 -1.6672
 8397SOL    HW236654   0.475   2.440   7.176 -0.4636 -0.0234  0.1375
 8398SOL     OW36655   2.230   1.125   0.412  0.2011  0.1205  0.7023
 8398SOL    HW136656   2.207   1.218   0.403  1.2494  0.3871  0.6735
 8398SOL    HW236657   2.144   1.096   0.383  0.6642 -0.3481 -0.2159
 8399SOL     OW36658   2.726   0.967   6.722  0.0675 -0.5497  0.4707
 8399SOL    HW136659   2.753   0.945   6.633 -0.7411  4.1929 -0.9897
 8399SOL    HW236660   2.809   1.001   6.756  0.8842  1.1014 -3.1351
 8400SOL     OW36661   4.058   2.604   6.398  0.2230  0.4331  0.1093
 8400SOL    HW136662   4.128   2.584   6.459  1.7471  2.4733 -0.9383
 8400SOL    HW236663   3.984   2.593   6.457 -1.4945 -0.7256 -2.2426
 8401SOL     OW36664   1.362   0.995   7.675 -0.2479 -0.2443 -0.9518
 8401SOL    HW136665   1.432   0.931   7.679 -2.6366 -2.6933  0.9609
 8401SOL    HW236666   1.311   0.969   7.752  2.3381 -1.1901  0.4310
 8402SOL     OW36667   3.005   4.684   7.062  0.4393 -0.2881 -0.0285
 8402SOL    HW136668   3.085   4.687   7.009 -1.9125  1.2618 -3.4653
 8402SOL    HW236669   3.025   4.608   7.117  1.7938  0.1756  0.1413
 8403SOL     OW36670   1.821   4.545  10.760  0.4747  0.3981 -0.3889
 8403SOL    HW136671   1.849   4.622  10.809  0.7650 -0.2232  0.4209
 8403SOL    HW236672   1.844   4.575  10.672 -0.9121 -0.7468 -1.1489
 8404SOL     OW36673   3.223   0.485  11.134 -0.3099 -0.5971 -0.0351
 8404SOL    HW136674   3.210   0.575  11.162  0.6126 -0.5090  0.0962
 8404SOL    HW236675   3.144   0.448  11.173 -1.3633  0.5870 -1.0554
 8405SOL     OW36676   2.878   4.479   6.610 -0.3277  0.2735  0.0163
 8405SOL    HW136677   2.847   4.400   6.565 -0.3830 -0.4526  1.3558
 8405SOL    HW236678   2.834   4.474   6.694  0.4978 -0.5135  0.4116
 8406SOL     OW36679   1.261   0.960   2.137 -0.1625  0.1085 -0.1115
 8406SOL    HW136680   1.236   0.870   2.114 -1.3817  0.4744 -0.2196
 8406SOL    HW236681   1.336   0.966   2.078 -0.2622  0.1536 -0.2359
 8407SOL     OW36682   1.187   0.132   4.910 -0.9299  0.2263 -0.2879
 8407SOL    HW136683   1.281   0.150   4.923 -0.8449  0.2833 -0.9491
 8407SOL    HW236684   1.144   0.194   4.969  0.2957  1.2390 -0.4458
 8408SOL     OW36685   4.231   2.547   6.613 -0.7225 -0.8267  0.4116
 8408SOL    HW136686   4.289   2.553   6.688  0.6809 -0.2383 -0.7307
 8408SOL    HW236687   4.230   2.456   6.584  1.9796  0.0240 -2.3652
 8409SOL     OW36688   2.313   3.380   0.574 -0.2490 -0.1240 -0.2639
 8409SOL    HW136689   2.307   3.441   0.501 -0.7113  1.3310  0.9922
 8409SOL    HW236690   2.218   3.367   0.579 -0.4216  0.3673 -2.4247
 8410SOL     OW36691   0.978   1.876   0.359  0.3510 -0.0496 -0.6059
 8410SOL    HW136692   0.969   1.838   0.446  1.9547  2.3316  0.6092
 8410SOL    HW236693   1.027   1.807   0.315  1.9461 -0.5467  2.0161
 8411SOL     OW36694   0.577   3.753   2.434  0.4249 -0.1139 -0.0075
 8411SOL    HW136695   0.643   3.722   2.372 -0.1576  1.2513 -1.3114
 8411SOL    HW236696   0.628   3.825   2.472 -0.1584  1.0878 -1.5044
 8412SOL     OW36697   4.403   3.123   7.444 -0.5359 -0.2658 -0.3681
 8412SOL    HW136698   4.441   3.143   7.358 -2.5892 -0.6049 -1.3544
 8412SOL    HW236699   4.357   3.205   7.457 -0.9223 -0.8880  2.1401
 8413SOL     OW36700   2.714   2.136   2.594  0.0579 -0.3643  0.3564
 8413SOL    HW136701   2.647   2.202   2.574  0.9203  0.8065  1.3292
 8413SOL    HW236702   2.671   2.051   2.591 -0.4685 -0.1472  1.7771
 8414SOL     OW36703   1.237   0.635  11.165 -0.0591 -0.1637  0.4785
 8414SOL    HW136704   1.269   0.596  11.246  1.5591  1.4349  0.6197
 8414SOL    HW236705   1.160   0.680  11.200 -0.4217 -0.2385 -0.2263
 8415SOL     OW36706   0.491   3.444  10.443 -0.0454  0.2661  0.0558
 8415SOL    HW136707   0.494   3.350  10.458  0.5697 -0.0082 -1.7315
 8415SOL    HW236708   0.561   3.457  10.379 -1.1015  0.8588 -0.9999
 8416SOL     OW36709   0.360   3.305   6.716 -0.0434 -0.7683  0.0042
 8416SOL    HW136710   0.301   3.230   6.722 -0.4147 -0.7351 -3.4610
 8416SOL    HW236711   0.428   3.275   6.776 -2.1406 -0.5166  2.5297
 8417SOL     OW36712   0.521   0.630   7.487 -0.1016 -0.4831  0.2957
 8417SOL    HW136713   0.553   0.712   7.525  1.8948 -0.6330 -1.0626
 8417SOL    HW236714   0.463   0.604   7.558 -1.5339  1.2716 -0.2285
 8418SOL     OW36715   0.967   0.082   2.773  0.0196  0.4262  0.5849
 8418SOL    HW136716   1.015   0.140   2.714 -0.6858 -1.0512 -1.4536
 8418SOL    HW236717   0.940   0.015   2.710 -0.5921  0.7080  0.5460
 8419SOL     OW36718   1.240   1.968  14.958 -0.2644  0.8760  0.0207
 8419SOL    HW136719   1.311   1.911  14.990 -0.1482  1.3315  0.5749
 8419SOL    HW236720   1.189   1.902  14.911  1.3297  0.6281 -1.3382
 8420SOL     OW36721   3.546   3.734   2.282 -0.1279  0.1463 -0.3628
 8420SOL    HW136722   3.630   3.722   2.238  0.8839  0.3631  1.5163
 8420SOL    HW236723   3.493   3.724   2.203  0.1137 -1.7129 -0.2899
 8421SOL     OW36724   2.950   1.392   3.831 -0.6727 -0.0755  0.1899
 8421SOL    HW136725   2.958   1.296   3.824  2.6045  0.3423 -1.9232
 8421SOL    HW236726   2.908   1.415   3.914  1.0063 -0.8086  1.2464
 8422SOL     OW36727   2.575   0.487  10.100  0.2130 -0.1504 -0.1556
 8422SOL    HW136728   2.529   0.559  10.057 -1.7737  0.7586  3.5669
 8422SOL    HW236729   2.532   0.411  10.061  1.6025 -0.9189 -0.1998
 8423SOL     OW36730   1.617   1.215  11.913 -0.3006  0.3178 -0.4822
 8423SOL    HW136731   1.556   1.283  11.943  0.6370  1.4025 -1.0613
 8423SOL    HW236732   1.672   1.219  11.992 -1.2844  1.6066  0.1494
 8424SOL     OW36733   0.490   3.618   7.383  0.3794 -0.2921  0.0845
 8424SOL    HW136734   0.480   3.618   7.479  0.3571  2.6825  0.0987
 8424SOL    HW236735   0.540   3.698   7.365 -1.3245  0.3887 -1.5016
 8425SOL     OW36736   3.771   1.634  15.705 -0.2633 -0.4112 -0.3594
 8425SOL    HW136737   3.803   1.701  15.765 -0.9365 -0.8272  0.4612
 8425SOL    HW236738   3.770   1.676  15.619 -1.4522 -0.3133 -0.2969
 8426SOL     OW36739   0.472   0.150   8.852 -0.1859 -0.4187  0.6628
 8426SOL    HW136740   0.485   0.239   8.820 -3.6890 -1.0537 -2.5862
 8426SOL    HW236741   0.413   0.129   8.779 -1.4939  1.6994  1.1091
 8427SOL     OW36742   1.010   1.081  12.093 -0.4503 -0.0867  0.1601
 8427SOL    HW136743   1.031   1.171  12.120  1.7445 -0.5081 -0.1494
 8427SOL    HW236744   0.952   1.096  12.019  0.0531  1.1071  0.0051
 8428SOL     OW36745   4.545   3.379   1.042 -0.3082 -0.4885 -0.1138
 8428SOL    HW136746   4.475   3.394   1.105  0.5190  1.0415  0.4304
 8428SOL    HW236747   4.573   3.470   1.034 -1.5979 -0.0494  0.4192
 8429SOL     OW36748   0.133   2.223   6.200 -0.3251 -0.1916 -0.1166
 8429SOL    HW136749   0.152   2.240   6.292 -0.1167  0.3779 -0.2615
 8429SOL    HW236750   0.097   2.305   6.166  0.7637  0.7424  0.9878
 8430SOL     OW36751   3.186   2.650  16.117  0.2370 -0.5525 -0.1579
 8430SOL    HW136752   3.224   2.735  16.137  2.6302 -1.3669 -1.1855
 8430SOL    HW236753   3.133   2.628  16.193 -0.9771  0.3735 -0.7302
 8431SOL     OW36754   0.599   3.309  17.595 -0.4509 -0.5171  0.1961
 8431SOL    HW136755   0.633   3.249  17.529  0.3854  0.9862 -0.7238
 8431SOL    HW236756   0.656   3.383  17.574 -1.0447 -0.0887  0.0736
 8432SOL     OW36757   3.745   3.907   5.018 -0.2463 -0.2601  0.3035
 8432SOL    HW136758   3.706   3.920   4.932  1.4956  1.0387 -0.3021
 8432SOL    HW236759   3.828   3.953   5.004 -0.8113  0.6869  0.1152
 8433SOL     OW36760   2.866   0.522  15.638 -0.0980  0.2679 -0.0437
 8433SOL    HW136761   2.861   0.586  15.567  2.0980  0.4436 -0.0292
 8433SOL    HW236762   2.795   0.462  15.617 -0.7374  0.9118  0.2668
 8434SOL     OW36763   2.706   1.459  16.256  0.1053  0.0929 -0.3837
 8434SOL    HW136764   2.780   1.399  16.243  0.3571  0.2394  0.3699
 8434SOL    HW236765   2.633   1.420  16.209  2.1338 -1.7171 -2.0394
 8435SOL     OW36766   2.499   4.519   7.199  0.2015  0.0608  0.1543
 8435SOL    HW136767   2.481   4.492   7.109  1.4038  0.3401 -0.1799
 8435SOL    HW236768   2.418   4.541   7.245  0.5904 -0.3406  1.0203
 8436SOL     OW36769   0.814   4.453  15.179 -0.0656  0.5104 -1.0303
 8436SOL    HW136770   0.798   4.519  15.247  0.1903 -0.1878 -0.2945
 8436SOL    HW236771   0.823   4.511  15.103  0.0757 -1.0771 -2.2233
 8437SOL     OW36772   2.545   1.718  12.618 -0.0430 -0.2241  0.2432
 8437SOL    HW136773   2.467   1.735  12.565  1.0469 -0.7985 -1.5529
 8437SOL    HW236774   2.573   1.639  12.571  2.7616 -0.1269  1.7264
 8438SOL     OW36775   3.269   2.641   2.571  0.0594  0.4455 -0.1369
 8438SOL    HW136776   3.195   2.595   2.532 -0.2623  0.6191  0.2565
 8438SOL    HW236777   3.252   2.731   2.541  1.5939  0.7749  0.0147
 8439SOL     OW36778   4.097   1.581  10.156  0.1111  0.4306 -0.1647
 8439SOL    HW136779   4.055   1.659  10.193  1.4236  0.4668  1.2572
 8439SOL    HW236780   4.182   1.572  10.199  1.1170 -0.6405 -2.3928
 8440SOL     OW36781   0.738   2.529   8.434  0.1346 -0.0306 -0.0414
 8440SOL    HW136782   0.785   2.524   8.517 -1.4030  0.4108  0.8562
 8440SOL    HW236783   0.652   2.536   8.474 -0.5438 -1.5144 -1.2358
 8441SOL     OW36784   3.033   1.188   6.359 -0.2811 -0.6172  0.9141
 8441SOL    HW136785   3.099   1.251   6.388 -1.2674  0.4274  0.8851
 8441SOL    HW236786   3.039   1.205   6.265 -3.2299  1.1829  1.0393
 8442SOL     OW36787   4.017   3.631   4.300  0.0310  0.2408  0.1035
 8442SOL    HW136788   3.972   3.556   4.260 -1.5301  1.2113  0.0609
 8442SOL    HW236789   4.068   3.664   4.226  0.8407 -3.4634 -1.0217
 8443SOL     OW36790   1.112   2.315  14.927 -0.1633  0.1656  0.3146
 8443SOL    HW136791   1.076   2.386  14.874  0.0242 -0.0934 -0.1684
 8443SOL    HW236792   1.107   2.357  15.012 -1.3124  1.7241 -0.5282
 8444SOL     OW36793   0.467   1.768  16.793  0.2978  0.4690 -0.7570
 8444SOL    HW136794   0.415   1.780  16.873 -2.2979  0.7492 -2.4853
 8444SOL    HW236795   0.396   1.791  16.733 -0.1538 -2.4370 -1.3585
 8445SOL     OW36796   0.954   4.534  13.753 -0.3158  0.2399 -0.3395
 8445SOL    HW136797   1.006   4.605  13.790 -1.8883  0.7943  0.8395
 8445SOL    HW236798   0.992   4.531  13.665  0.4856 -1.0019  0.0574
 8446SOL     OW36799   3.447   0.372  10.093  0.7260 -0.1439 -0.1179
 8446SOL    HW136800   3.436   0.292  10.143  1.5194  0.8540  1.6313
 8446SOL    HW236801   3.384   0.426  10.141 -0.8593 -0.7772 -1.4442
 8447SOL     OW36802   3.697   0.429   6.193  0.4975  0.1056 -0.1915
 8447SOL    HW136803   3.744   0.508   6.220  1.4824  0.0113 -1.6571
 8447SOL    HW236804   3.712   0.376   6.271 -0.1038 -1.9047 -1.4421
 8448SOL     OW36805   2.692   0.027   1.949 -0.5174  0.0656  0.3486
 8448SOL    HW136806   2.693   0.015   2.044  1.5372  1.7938  0.5492
 8448SOL    HW236807   2.735   0.112   1.948  1.5656 -0.9697 -2.2307
 8449SOL     OW36808   3.977   2.438   8.895  0.3211  0.0638 -0.1317
 8449SOL    HW136809   4.060   2.395   8.873  0.2529 -0.8611  1.4250
 8449SOL    HW236810   4.007   2.526   8.917  0.9183 -0.2394  0.2879
 8450SOL     OW36811   2.764   1.868   8.384  0.0626 -0.3621  0.2802
 8450SOL    HW136812   2.842   1.892   8.434  1.0590 -3.2173  0.1382
 8450SOL    HW236813   2.718   1.949   8.362  1.1656 -0.0817 -1.0339
 8451SOL     OW36814   0.209   1.037   7.615  0.1320 -0.3586  0.0977
 8451SOL    HW136815   0.123   1.075   7.598 -1.1739 -1.9056  3.2502
 8451SOL    HW236816   0.264   1.109   7.583  0.0689 -1.7366 -3.1580
 8452SOL     OW36817   0.244   2.119  15.083 -0.4510 -0.2196 -0.4871
 8452SOL    HW136818   0.184   2.072  15.140  1.0614 -0.4497  0.8919
 8452SOL    HW236819   0.274   2.047  15.027 -1.0017 -0.9757  0.1879
 8453SOL     OW36820   1.370   0.707   3.524 -0.3875  0.1702 -0.3425
 8453SOL    HW136821   1.431   0.726   3.595 -0.6787  2.5478 -0.7480
 8453SOL    HW236822   1.345   0.619   3.552 -0.9003  0.6644  0.7613
 8454SOL     OW36823   4.426   0.286   5.489 -0.0565 -0.1886 -0.0145
 8454SOL    HW136824   4.331   0.288   5.503 -0.1647 -1.5471 -0.5484
 8454SOL    HW236825   4.423   0.237   5.407  0.8021  0.8415 -0.6492
 8455SOL     OW36826   0.931   2.260   4.593  0.5559 -0.2027  0.0141
 8455SOL    HW136827   0.963   2.343   4.558 -1.4713  0.3694 -0.4789
 8455SOL    HW236828   0.948   2.278   4.686  0.0133  0.1331  0.0485
 8456SOL     OW36829   2.920   2.265  13.087 -0.7525 -0.1272  0.1824
 8456SOL    HW136830   2.930   2.309  13.003 -0.6253  1.6210  1.1078
 8456SOL    HW236831   3.013   2.268  13.112 -0.6864 -0.0321 -0.0792
 8457SOL     OW36832   3.388   1.398   9.642 -0.1060 -0.3583  0.4402
 8457SOL    HW136833   3.414   1.418   9.552  0.7015 -1.1331  0.5025
 8457SOL    HW236834   3.369   1.483   9.683  0.9397 -1.4273  3.1282
 8458SOL     OW36835   3.830   0.401  16.016 -0.3925 -0.0974 -0.6202
 8458SOL    HW136836   3.876   0.319  15.999  1.8357  0.8056  1.0683
 8458SOL    HW236837   3.876   0.461  15.958  4.3502  0.2136  3.4057
 8459SOL     OW36838   3.743   1.237   6.370 -0.1024 -0.1465 -0.1448
 8459SOL    HW136839   3.703   1.244   6.283  0.2899  0.3230 -0.2891
 8459SOL    HW236840   3.664   1.238   6.424 -0.9539 -0.4847 -1.3607
 8460SOL     OW36841   0.041   1.964   4.953  0.0076 -0.1740  0.0408
 8460SOL    HW136842   0.017   2.014   4.875  0.4278 -0.1188 -0.0524
 8460SOL    HW236843   0.090   2.033   4.999 -1.2939  0.9764 -0.3172
 8461SOL     OW36844   1.450   4.556  10.483  0.2093  0.0292 -0.0118
 8461SOL    HW136845   1.399   4.475  10.482  1.4600 -0.7683  0.2261
 8461SOL    HW236846   1.537   4.523  10.507  0.7399  0.2221 -1.6415
 8462SOL     OW36847   3.721   3.806   1.491  0.8934  0.4296 -0.1503
 8462SOL    HW136848   3.677   3.819   1.407 -0.1975  0.0786  0.3550
 8462SOL    HW236849   3.777   3.883   1.501  1.2733  0.3893 -2.0641
 8463SOL     OW36850   3.344   3.172  16.308 -0.1183 -0.0657  0.4113
 8463SOL    HW136851   3.250   3.183  16.316  0.2304  3.0709  0.5075
 8463SOL    HW236852   3.358   3.214  16.223  1.9554 -0.9139  0.3298
 8464SOL     OW36853   1.712   3.579  13.499  0.0152 -0.1024  0.2740
 8464SOL    HW136854   1.777   3.549  13.562 -0.8302  1.8657  2.0571
 8464SOL    HW236855   1.648   3.626  13.553  0.5279  1.2881 -0.3294
 8465SOL     OW36856   0.476   2.664   0.343  0.7425  0.4787 -0.3063
 8465SOL    HW136857   0.477   2.597   0.275 -0.5456  1.4136 -1.2330
 8465SOL    HW236858   0.525   2.737   0.306  0.0539  1.7202  1.2346
 8466SOL     OW36859   3.410   1.397  14.697 -0.3048 -0.4013 -0.3693
 8466SOL    HW136860   3.365   1.321  14.660 -0.5988 -0.8475  0.9011
 8466SOL    HW236861   3.389   1.374  14.787 -1.2234  0.7560 -0.2887
 8467SOL     OW36862   4.442   4.430  11.216 -0.5737 -0.4199 -0.4337
 8467SOL    HW136863   4.348   4.410  11.216 -1.2357  2.6119  0.5819
 8467SOL    HW236864   4.444   4.482  11.297  0.8215 -2.2640  0.6995
 8468SOL     OW36865   4.291   1.341  11.628  0.2408 -0.0498 -0.1545
 8468SOL    HW136866   4.283   1.421  11.576 -3.5811  1.0868  2.2202
 8468SOL    HW236867   4.202   1.313  11.647  0.2975 -0.1507 -0.0414
 8469SOL     OW36868   4.442   2.833   5.150 -0.1116  0.4025 -0.0278
 8469SOL    HW136869   4.464   2.923   5.125 -1.3002  0.9698  0.9615
 8469SOL    HW236870   4.488   2.789   5.079  1.2512  1.6063  0.0980
 8470SOL     OW36871   3.994   3.201  15.018 -0.4475  0.6124  0.0200
 8470SOL    HW136872   4.067   3.243  14.970  1.4321 -0.9443  1.5384
 8470SOL    HW236873   3.949   3.160  14.944 -1.5489  0.8892  0.5369
 8471SOL     OW36874   4.294   3.364  16.650  0.4956  0.3287  0.5713
 8471SOL    HW136875   4.224   3.413  16.692 -0.7916  1.6450 -3.1154
 8471SOL    HW236876   4.305   3.299  16.719 -0.3123  2.8998  3.1569
 8472SOL     OW36877   1.110   1.184   5.731  0.4518  0.1401 -0.5139
 8472SOL    HW136878   1.036   1.234   5.700  1.0021  1.8969  0.9973
 8472SOL    HW236879   1.081   1.096   5.706  0.0283 -0.2611  1.3522
 8473SOL     OW36880   3.575   0.652   9.526  0.0090 -0.2591  0.2920
 8473SOL    HW136881   3.524   0.710   9.583  1.2052  0.6185  0.4719
 8473SOL    HW236882   3.541   0.566   9.549 -2.1386  0.3499 -0.5911
 8474SOL     OW36883   2.261   2.261  15.899  0.1875  0.2730 -0.4485
 8474SOL    HW136884   2.346   2.277  15.859  0.3536  0.4650 -0.0100
 8474SOL    HW236885   2.203   2.288  15.828 -1.1920  2.7829  1.6247
 8475SOL     OW36886   3.847   0.274  15.331  0.1665  0.1705 -0.2103
 8475SOL    HW136887   3.912   0.342  15.311  0.2322 -0.1526 -1.0986
 8475SOL    HW236888   3.803   0.306  15.410  1.6446  1.2325  0.1843
 8476SOL     OW36889   4.393   0.235   9.469  0.0945 -0.4796  0.1272
 8476SOL    HW136890   4.300   0.244   9.488 -0.2743  0.1417 -1.9717
 8476SOL    HW236891   4.402   0.282   9.386  0.5699 -0.7262  0.0356
 8477SOL     OW36892   0.763   1.901   8.339 -0.0632 -0.3851  0.8820
 8477SOL    HW136893   0.734   1.849   8.414 -0.0760 -0.0967  1.0729
 8477SOL    HW236894   0.796   1.827   8.288  0.4158  0.8619 -0.6055
 8478SOL     OW36895   4.546   0.376   1.899 -0.7460 -0.5033 -0.0635
 8478SOL    HW136896   4.476   0.323   1.860 -1.1592 -0.5719  0.7881
 8478SOL    HW236897   4.597   0.386   1.819 -0.2938  0.6541  0.3665
 8479SOL     OW36898   0.366   0.732  17.092  0.3861 -0.6018  0.2006
 8479SOL    HW136899   0.316   0.750  17.172 -1.1735 -0.1609 -0.8789
 8479SOL    HW236900   0.324   0.653  17.057 -0.3565 -0.2575  0.3225
 8480SOL     OW36901   3.180   0.330   5.660  0.1464 -0.0813  0.4127
 8480SOL    HW136902   3.265   0.354   5.696 -0.6900  1.6140  1.2415
 8480SOL    HW236903   3.194   0.235   5.663  1.4556  0.0554 -1.7169
 8481SOL     OW36904   0.399   1.640  13.072 -0.5423  0.4914  0.1357
 8481SOL    HW136905   0.314   1.683  13.081  0.0445  1.4330  1.2036
 8481SOL    HW236906   0.430   1.649  13.162  1.0173  1.1405 -0.4718
 8482SOL     OW36907   0.875   3.097   2.995 -0.2221  0.3668  0.2760
 8482SOL    HW136908   0.882   3.124   2.903  0.7056  0.4443  0.3665
 8482SOL    HW236909   0.873   3.002   2.979  2.8089  0.4045 -0.3861
 8483SOL     OW36910   0.096   1.795   7.648  0.3033 -0.0281  0.1772
 8483SOL    HW136911   0.019   1.830   7.602  1.2231  1.4873 -0.1919
 8483SOL    HW236912   0.070   1.819   7.737  0.5869 -0.1417  0.2911
 8484SOL     OW36913   2.721   0.888   7.298 -0.2227 -0.5065  0.2966
 8484SOL    HW136914   2.626   0.881   7.290 -0.0635  0.4324 -2.3714
 8484SOL    HW236915   2.739   0.967   7.248  0.5458 -1.5730 -1.1227
 8485SOL     OW36916   1.914   0.216   1.049  0.4848  0.1537 -1.1073
 8485SOL    HW136917   1.976   0.169   1.103 -0.9531  1.9520  2.0935
 8485SOL    HW236918   1.891   0.156   0.978  1.0398  0.9056 -1.9315
 8486SOL     OW36919   0.269   1.341   5.704 -0.5033 -0.4362 -0.2868
 8486SOL    HW136920   0.252   1.411   5.641 -0.6924 -1.5628 -1.4882
 8486SOL    HW236921   0.357   1.363   5.734 -0.9805  1.5660 -0.2995
 8487SOL     OW36922   1.974   0.705   7.754  0.3729  0.3244  0.0873
 8487SOL    HW136923   1.975   0.658   7.838 -1.9041 -1.5994 -0.9458
 8487SOL    HW236924   1.939   0.634   7.700 -0.7772  0.5586  0.5403
 8488SOL     OW36925   2.255   0.310   6.952 -0.0116  0.1140 -0.2951
 8488SOL    HW136926   2.343   0.334   6.922  0.2769  0.9587  1.2361
 8488SOL    HW236927   2.216   0.253   6.885 -0.9384 -1.3146  1.4855
 8489SOL     OW36928   1.343   1.439  17.002  0.5751 -0.0499 -0.7146
 8489SOL    HW136929   1.421   1.445  17.057  0.1385  0.1877 -0.1322
 8489SOL    HW236930   1.320   1.530  16.984  0.3477 -0.0541 -0.4296
 8490SOL     OW36931   3.792   3.855   2.163 -0.0583 -0.1381  0.3670
 8490SOL    HW136932   3.859   3.920   2.141  0.1161 -0.1990  0.7214
 8490SOL    HW236933   3.719   3.876   2.104 -0.8749 -2.9822  0.3674
 8491SOL     OW36934   0.024   1.562   6.646  0.1960 -0.2925 -0.2743
 8491SOL    HW136935   0.064   1.478   6.621 -2.2176 -2.1189  2.0365
 8491SOL    HW236936   4.654   1.537   6.666  0.5020 -2.0300 -0.9834
 8492SOL     OW36937   1.419   0.551  14.952 -0.1265  0.5841  0.7763
 8492SOL    HW136938   1.442   0.606  14.877 -0.0798 -2.4845 -1.4896
 8492SOL    HW236939   1.505   0.516  14.971 -0.2066 -0.0029  0.0959
 8493SOL     OW36940   0.465   4.099   3.721 -0.0793 -0.3085  0.6953
 8493SOL    HW136941   0.435   4.035   3.656 -0.7051  2.0338 -1.3298
 8493SOL    HW236942   0.407   4.069   3.791 -0.0531 -1.0861  0.3795
 8494SOL     OW36943   2.979   1.836  13.312  0.3081  0.3831  0.2878
 8494SOL    HW136944   2.914   1.769  13.330  0.5271 -0.1200 -0.8114
 8494SOL    HW236945   2.922   1.892  13.259  1.1830  1.0018  0.0033
 8495SOL     OW36946   0.351   0.052   7.251 -0.3548  0.5138  0.1463
 8495SOL    HW136947   0.396   0.010   7.324 -0.8908 -1.2348 -0.5334
 8495SOL    HW236948   0.424   0.075   7.194  1.1452 -0.9757  1.4888
 8496SOL     OW36949   0.496   4.263   6.489 -0.2984 -0.2134  0.2081
 8496SOL    HW136950   0.482   4.341   6.542  2.1766  0.7198 -0.4989
 8496SOL    HW236951   0.413   4.253   6.442  1.4525 -2.5373 -2.4093
 8497SOL     OW36952   1.392   2.261   5.810  0.2444  0.2257  0.3830
 8497SOL    HW136953   1.308   2.261   5.763 -0.6008 -1.9143  1.8768
 8497SOL    HW236954   1.375   2.323   5.881 -1.1053  1.3697 -0.9165
 8498SOL     OW36955   4.106   1.592   7.933 -0.2258 -0.0683 -0.4707
 8498SOL    HW136956   4.065   1.544   8.005 -1.8979  0.6606 -0.9463
 8498SOL    HW236957   4.170   1.637   7.988 -2.1270 -1.6074  3.0727
 8499SOL     OW36958   1.213   3.578   2.464 -0.1432  0.2817 -0.2874
 8499SOL    HW136959   1.286   3.622   2.509  0.3659 -1.2662  0.3923
 8499SOL    HW236960   1.244   3.490   2.485  0.7050  0.5173 -0.5270
 8500SOL     OW36961   1.427   3.366  16.246 -0.7275 -0.6460  0.3361
 8500SOL    HW136962   1.510   3.410  16.263 -2.2062  1.7055  1.4079
 8500SOL    HW236963   1.434   3.345  16.153  0.0045 -1.2591  0.5217
 8501SOL     OW36964   4.073   1.890  12.554 -0.0291 -0.5102  0.3267
 8501SOL    HW136965   3.994   1.865  12.505 -0.6714  1.4283  0.3957
 8501SOL    HW236966   4.064   1.984  12.538  2.2994 -0.4132 -0.3704
 8502SOL     OW36967   3.017   1.119   8.299 -0.3432 -0.4412 -0.3347
 8502SOL    HW136968   3.025   1.131   8.394 -3.0683  3.2205 -0.5968
 8502SOL    HW236969   2.927   1.086   8.296 -1.0743  1.3718  2.0379
 8503SOL     OW36970   1.696   2.725   9.507  0.1282  0.2347 -0.3196
 8503SOL    HW136971   1.743   2.805   9.484 -0.5883  0.2573 -1.6844
 8503SOL    HW236972   1.772   2.674   9.538  0.2492  0.2998 -0.5097
 8504SOL     OW36973   4.339   0.638   1.745 -0.2714 -0.3680  0.3586
 8504SOL    HW136974   4.314   0.576   1.814 -0.3754  0.5851  1.1665
 8504SOL    HW236975   4.394   0.701   1.792 -0.5003  0.4826 -0.5239
 8505SOL     OW36976   2.475   1.554   4.008  0.0192 -0.7814 -0.3020
 8505SOL    HW136977   2.440   1.465   4.019  0.5878 -0.7327  1.9499
 8505SOL    HW236978   2.445   1.566   3.918 -0.4741 -2.2959 -0.3445
 8506SOL     OW36979   3.360   3.807   0.067 -0.5577 -0.1375 -0.2822
 8506SOL    HW136980   3.289   3.858   0.029 -1.9278 -0.9141  1.2375
 8506SOL    HW236981   3.418   3.818  17.678 -1.4586  1.5561 -0.7346
 8507SOL     OW36982   4.072   0.866   2.131  0.1624  0.0823  0.4209
 8507SOL    HW136983   4.145   0.804   2.131 -0.2469 -0.3980  0.4377
 8507SOL    HW236984   4.103   0.948   2.092  1.8165 -0.7027  0.0752
 8508SOL     OW36985   4.287   0.424  12.471  0.3249  0.5477 -0.6636
 8508SOL    HW136986   4.318   0.457  12.556  1.0028  0.4483 -0.8677
 8508SOL    HW236987   4.369   0.388  12.437 -0.3512 -0.1004 -1.5975
 8509SOL     OW36988   0.906   3.583  10.159 -0.7783 -0.8179  0.1173
 8509SOL    HW136989   0.882   3.560  10.069  1.3858  0.3320 -0.7554
 8509SOL    HW236990   1.002   3.582  10.157 -0.7898  0.4098 -1.4038
 8510SOL     OW36991   4.155   4.587   3.791 -0.0444 -0.5373 -0.0366
 8510SOL    HW136992   4.169   4.657   3.726 -3.8288 -0.9444 -1.3252
 8510SOL    HW236993   4.159   4.518   3.724  0.6709 -1.8232  1.3449
 8511SOL     OW36994   0.326   4.237   8.146  0.1794  0.8618 -0.1840
 8511SOL    HW136995   0.383   4.161   8.158 -0.4029  0.4983  0.2933
 8511SOL    HW236996   0.325   4.283   8.230 -1.3673  1.8069 -0.7129
 8512SOL     OW36997   4.387   4.529   5.376  0.0930  0.0177 -0.2792
 8512SOL    HW136998   4.357   4.467   5.309  0.7251 -2.1470  1.4387
 8512SOL    HW236999   4.305   4.571   5.400 -0.8784 -1.5797 -0.7914
 8513SOL     OW37000   2.867   1.026   3.883  0.5088 -0.4238 -0.2439
 8513SOL    HW137001   2.779   1.059   3.861  0.1064 -0.3201  1.5282
 8513SOL    HW237002   2.841   0.938   3.911  2.5536 -1.7692 -2.6706
 8514SOL     OW37003   3.608   4.094   6.818 -0.0673 -0.5015 -0.3627
 8514SOL    HW137004   3.662   4.017   6.833 -0.5720 -0.7217  0.3288
 8514SOL    HW237005   3.643   4.132   6.738  2.3024  1.6843  1.7335
 8515SOL     OW37006   3.137   2.402   4.714 -0.0656  0.5314  0.6378
 8515SOL    HW137007   3.191   2.348   4.656 -0.6876  1.7933 -1.1083
 8515SOL    HW237008   3.093   2.344   4.776  1.2034 -1.5035 -0.3303
 8516SOL     OW37009   2.645   0.918  12.456 -0.6667 -0.6035 -0.1597
 8516SOL    HW137010   2.589   0.994  12.437  2.0058  1.9495  2.1199
 8516SOL    HW237011   2.628   0.872  12.374 -2.1503  1.9225 -1.2891
 8517SOL     OW37012   2.007   0.756   8.147 -0.4089 -1.0883  0.0853
 8517SOL    HW137013   2.062   0.742   8.224 -0.6218 -1.7356  0.1156
 8517SOL    HW237014   1.935   0.812   8.175 -0.0856 -0.6134 -0.0311
 8518SOL     OW37015   2.522   0.627  16.405  0.5597 -0.2400  0.7146
 8518SOL    HW137016   2.581   0.647  16.333  1.2398 -1.8258  0.8355
 8518SOL    HW237017   2.458   0.569  16.364  1.3722  2.0734 -3.8321
 8519SOL     OW37018   1.744   0.564   4.007  0.8021  0.1489  0.0646
 8519SOL    HW137019   1.790   0.552   3.924 -0.6140 -1.0803 -0.5473
 8519SOL    HW237020   1.783   0.516   4.080 -1.7672  0.7721  1.8662
 8520SOL     OW37021   4.048   3.570  10.230  0.4392  0.1817 -0.6577
 8520SOL    HW137022   4.087   3.656  10.241  1.5799 -0.4178 -0.0436
 8520SOL    HW237023   4.053   3.530  10.317  2.4708  2.8051  0.4181
 8521SOL     OW37024   3.310   0.030   5.433 -0.3685  0.1213 -0.2138
 8521SOL    HW137025   3.256   0.000   5.360 -0.2794 -0.8288  0.1101
 8521SOL    HW237026   3.333   0.119   5.405  0.9448  0.6924  2.6895
 8522SOL     OW37027   2.747   0.684  10.356  0.0274  0.0907 -0.6360
 8522SOL    HW137028   2.722   0.776  10.367 -3.0659 -0.7800 -0.3114
 8522SOL    HW237029   2.700   0.656  10.435 -1.8765  0.3478 -1.6819
 8523SOL     OW37030   1.142   4.584   4.822 -0.2717  0.6879  0.8919
 8523SOL    HW137031   1.182   4.516   4.876 -1.7005 -2.0371 -1.4718
 8523SOL    HW237032   1.162   4.672   4.852  0.7397 -0.1992  2.8289
 8524SOL     OW37033   3.704   1.813   5.615  0.2853 -0.1216 -0.6654
 8524SOL    HW137034   3.643   1.767   5.558 -1.9480  0.1044  1.5327
 8524SOL    HW237035   3.778   1.825   5.556  1.0795  0.1035  0.3737
 8525SOL     OW37036   3.461   2.186   2.242 -0.0444  0.1605  0.1340
 8525SOL    HW137037   3.508   2.245   2.301  1.8843 -0.5647 -0.6745
 8525SOL    HW237038   3.370   2.200   2.268 -0.2719 -0.1625 -0.4874
 8526SOL     OW37039   3.289   3.405   1.332 -0.0848 -0.1818  0.2521
 8526SOL    HW137040   3.320   3.460   1.261 -0.0526 -0.6693 -0.1085
 8526SOL    HW237041   3.279   3.319   1.292  0.8646 -0.4130  0.5120
 8527SOL     OW37042   2.558   3.890   8.205 -0.2040 -0.2199 -0.1952
 8527SOL    HW137043   2.625   3.868   8.270 -0.7692 -0.7944  0.2015
 8527SOL    HW237044   2.569   3.816   8.145 -0.1273  2.9293 -4.0841
 8528SOL     OW37045   4.644   2.831   9.287 -0.6133 -0.1089 -0.2636
 8528SOL    HW137046   4.701   2.885   9.341 -0.3909 -1.4411  0.8310
 8528SOL    HW237047   4.598   2.778   9.352  0.7825 -0.3737  0.4959
 8529SOL     OW37048   1.179   1.584  14.016 -0.5859  0.1874  0.5369
 8529SOL    HW137049   1.151   1.495  14.035  1.5808 -0.6644 -0.3098
 8529SOL    HW237050   1.215   1.560  13.931 -1.3297  0.9230  0.0109
 8530SOL     OW37051   2.167   2.327  10.473  0.2454  0.3290 -0.5275
 8530SOL    HW137052   2.225   2.371  10.412  1.9380 -0.5196  0.4849
 8530SOL    HW237053   2.199   2.342  10.562 -0.6948 -1.4746  0.1181
 8531SOL     OW37054   0.410   0.409  10.359  0.7971  0.2939 -0.1213
 8531SOL    HW137055   0.398   0.434  10.450  1.0799  3.6489 -1.0347
 8531SOL    HW237056   0.498   0.444  10.345  1.3154 -1.1735 -0.5947
 8532SOL     OW37057   4.526   3.649   5.203 -0.0183  0.2622  0.3432
 8532SOL    HW137058   4.573   3.719   5.158  1.6129 -1.1376 -0.1243
 8532SOL    HW237059   4.455   3.701   5.240  0.5342  1.3573 -0.1469
 8533SOL     OW37060   0.600   0.691   3.059  0.3216  0.0420  0.5410
 8533SOL    HW137061   0.600   0.602   3.096 -3.3283  0.4065  1.3733
 8533SOL    HW237062   0.615   0.667   2.968 -0.7366  0.4754  0.2567
 8534SOL     OW37063   3.607   3.112   6.050 -0.2663 -0.0273 -0.4319
 8534SOL    HW137064   3.595   3.032   5.999 -0.1426 -0.4420  0.1964
 8534SOL    HW237065   3.657   3.157   5.982 -0.0622 -0.8466 -0.8174
 8535SOL     OW37066   4.616   4.027   6.374 -0.5505 -0.2983 -0.3435
 8535SOL    HW137067   4.683   4.083   6.335  0.7552 -1.5279  0.1355
 8535SOL    HW237068   4.674   3.957   6.403 -0.8025 -0.8094 -1.0847
 8536SOL     OW37069   0.222   0.202  10.337  0.0261  0.5795  0.2160
 8536SOL    HW137070   0.265   0.136  10.392 -2.9470 -0.8831  0.7680
 8536SOL    HW237071   0.283   0.276  10.340  1.2236 -0.3792 -0.6489
 8537SOL     OW37072   3.758   0.865   0.460  0.1083  0.0117 -0.4354
 8537SOL    HW137073   3.664   0.854   0.442  0.2991 -1.4006 -0.6201
 8537SOL    HW237074   3.773   0.811   0.538  4.0787  2.5781  0.5643
 8538SOL     OW37075   1.807   0.940   9.026  0.1420 -0.1358  0.3301
 8538SOL    HW137076   1.803   0.875   9.096 -2.2230  0.3479  0.6345
 8538SOL    HW237077   1.875   1.000   9.057  0.6201 -0.9645  0.8648
 8539SOL     OW37078   3.195   1.399   3.019  0.3704 -0.2347  0.3363
 8539SOL    HW137079   3.262   1.370   3.080  0.7836  1.1037  0.5248
 8539SOL    HW237080   3.131   1.329   3.031  1.1421 -0.9939 -0.0612
 8540SOL     OW37081   3.776   1.455   6.789 -0.7083 -0.5683 -0.0365
 8540SOL    HW137082   3.794   1.442   6.696  0.4987  0.6471  0.0267
 8540SOL    HW237083   3.701   1.513   6.797 -0.3976 -0.2001  0.1799
 8541SOL     OW37084   4.249   0.024  16.662 -0.1629  0.1040 -0.0266
 8541SOL    HW137085   4.324   4.715  16.714 -0.8709 -0.6756  0.5512
 8541SOL    HW237086   4.185   4.694  16.713  1.2600  0.8740  2.5612
 8542SOL     OW37087   2.835   0.124   2.326 -0.6276 -0.0792 -0.0300
 8542SOL    HW137088   2.781   0.197   2.355 -0.5859  0.2537 -0.7900
 8542SOL    HW237089   2.881   0.161   2.251 -2.5620 -1.0766 -1.6953
 8543SOL     OW37090   2.743   2.730  17.444 -0.2382  0.0053 -0.4294
 8543SOL    HW137091   2.817   2.676  17.472 -0.6167 -0.7345 -0.8333
 8543SOL    HW237092   2.772   2.751  17.355  0.0878  4.8543  0.8145
 8544SOL     OW37093   0.916   3.054   7.939  0.3883  0.2815  0.6951
 8544SOL    HW137094   0.871   3.075   7.858 -0.2614 -1.6481  0.5677
 8544SOL    HW237095   0.987   3.000   7.906 -0.5137  0.4105 -1.4231
 8545SOL     OW37096   0.477   1.379  12.564 -0.4069 -0.0041 -0.6276
 8545SOL    HW137097   0.436   1.461  12.537 -0.0594 -0.3390 -2.1656
 8545SOL    HW237098   0.470   1.381  12.659 -0.1172  2.5589 -0.6486
 8546SOL     OW37099   0.097   3.887   4.620 -0.6916 -0.1086  0.3080
 8546SOL    HW137100   0.037   3.864   4.549 -0.4313  0.1129  0.0139
 8546SOL    HW237101   0.166   3.942   4.581 -1.2988 -0.4751 -1.2643
 8547SOL     OW37102   2.020   1.104  16.989 -0.4754 -0.0860  0.2862
 8547SOL    HW137103   2.057   1.046  17.056 -1.1917  1.6912  2.2100
 8547SOL    HW237104   1.928   1.076  16.990 -0.6002  0.3491  1.3930
 8548SOL     OW37105   2.754   2.942  17.595 -0.5928  0.0772 -0.5430
 8548SOL    HW137106   2.736   2.871  17.534 -1.1947  0.4712 -0.8306
 8548SOL    HW237107   2.834   2.914  17.639  0.4228  0.7363 -1.9895
 8549SOL     OW37108   2.128   3.244   2.352 -0.6256  0.2259  0.0263
 8549SOL    HW137109   2.093   3.169   2.400 -1.0773 -0.3203 -1.1611
 8549SOL    HW237110   2.210   3.215   2.313  1.5007  2.2998  2.9489
 8550SOL     OW37111   0.402   4.408   6.705  0.3365 -0.1996  0.3633
 8550SOL    HW137112   0.377   4.337   6.764 -0.0984 -1.2010 -1.0506
 8550SOL    HW237113   0.491   4.425   6.736  1.1256 -1.4379 -1.2760
 8551SOL     OW37114   2.938   0.884  16.622  0.0790 -0.1385  0.3297
 8551SOL    HW137115   3.013   0.890  16.562 -0.2884 -1.3092 -0.2465
 8551SOL    HW237116   2.971   0.824  16.689  0.7687  1.7453  1.6709
 8552SOL     OW37117   4.410   4.629  13.176  0.4611  0.2715  0.5503
 8552SOL    HW137118   4.413   4.537  13.202 -0.2966 -0.5215 -2.0833
 8552SOL    HW237119   4.421   4.616  13.081 -0.3042 -1.2454  0.6741
 8553SOL     OW37120   2.694   2.908   0.681  0.1522 -0.2341 -0.0418
 8553SOL    HW137121   2.652   2.993   0.689 -0.1070 -0.0871 -2.9430
 8553SOL    HW237122   2.653   2.858   0.752 -0.4400  1.4340  0.7753
 8554SOL     OW37123   2.563   3.258   5.801 -0.1189 -0.0061  0.1346
 8554SOL    HW137124   2.610   3.332   5.840  1.1113  0.3714 -2.0404
 8554SOL    HW237125   2.635   3.219   5.752  0.6224  1.7598 -0.2073
 8555SOL     OW37126   0.045   3.427   2.361 -0.8633  0.0632 -0.0699
 8555SOL    HW137127   0.084   3.504   2.320  1.5171 -1.1836 -0.1308
 8555SOL    HW237128   4.690   3.462   2.408  0.5507 -0.0494  2.3177
 8556SOL     OW37129   2.470   3.084   3.150  0.5406 -0.1065 -0.2261
 8556SOL    HW137130   2.491   3.059   3.240 -1.7075  1.8912  0.8411
 8556SOL    HW237131   2.503   3.173   3.163  0.0191  0.1005 -0.3303
 8557SOL     OW37132   4.576   4.270   3.732 -0.4195 -0.2424  0.0327
 8557SOL    HW137133   4.503   4.222   3.769 -0.2789 -1.1808 -0.9105
 8557SOL    HW237134   4.582   4.337   3.800  2.2844  1.2275 -1.6415
 8558SOL     OW37135   2.522   2.630   8.608  0.1550 -0.1738  0.2810
 8558SOL    HW137136   2.609   2.616   8.646  0.7856  1.6323 -0.4772
 8558SOL    HW237137   2.488   2.692   8.673  1.9363  2.4286 -1.2596
 8559SOL     OW37138   0.718   2.928  11.832 -0.4546  0.0056 -0.2382
 8559SOL    HW137139   0.734   3.011  11.788 -0.6334 -0.5772 -1.4197
 8559SOL    HW237140   0.803   2.889  11.811  0.0374 -0.0449  1.8217
 8560SOL     OW37141   0.415   3.117   4.833  0.4404 -0.0861 -0.1191
 8560SOL    HW137142   0.465   3.197   4.820  0.3678 -0.3328 -1.8071
 8560SOL    HW237143   0.451   3.078   4.913  2.0978  1.3274 -0.1741
 8561SOL     OW37144   3.681   1.969  10.438 -0.3700  0.2604  0.3619
 8561SOL    HW137145   3.700   1.930  10.524 -0.2560 -2.1511 -0.7688
 8561SOL    HW237146   3.688   1.891  10.383 -1.2218  0.0169  0.5943
 8562SOL     OW37147   2.602   2.264   4.665  0.0676  0.2696  0.4879
 8562SOL    HW137148   2.648   2.285   4.746  1.1939  1.5299 -0.4727
 8562SOL    HW237149   2.669   2.254   4.597 -0.6494  0.5653 -0.2597
 8563SOL     OW37150   4.068   2.888   4.444  0.2959 -0.3558 -0.4127
 8563SOL    HW137151   3.993   2.833   4.466  1.3060 -0.6770  2.2223
 8563SOL    HW237152   4.035   2.970   4.479  1.8130  0.4003 -0.7480
 8564SOL     OW37153   2.351   2.302   2.253 -0.5354 -0.2116 -0.1603
 8564SOL    HW137154   2.409   2.374   2.279  1.6547 -2.2896  0.7495
 8564SOL    HW237155   2.261   2.335   2.259 -1.6741 -3.5126  1.5191
 8565SOL     OW37156   3.060   0.462  11.455 -0.8058  0.5486 -0.2907
 8565SOL    HW137157   3.126   0.401  11.489 -2.2561 -0.5079  0.6214
 8565SOL    HW237158   3.037   0.423  11.371 -0.5157  0.5830 -0.3889
 8566SOL     OW37159   1.952   3.869   5.847  0.1392 -0.2211  0.0882
 8566SOL    HW137160   1.870   3.918   5.842  0.6616  0.4704 -1.6025
 8566SOL    HW237161   1.965   3.857   5.941 -0.8449 -1.5051  0.0658
 8567SOL     OW37162   3.736   0.503   6.670 -0.1812  0.6412 -0.5871
 8567SOL    HW137163   3.812   0.561   6.661  0.5319 -0.6957 -3.1706
 8567SOL    HW237164   3.672   0.562   6.709 -0.6414  0.0013 -0.3756
 8568SOL     OW37165   4.551   2.277   3.911  0.0355 -0.3299  0.2832
 8568SOL    HW137166   4.641   2.296   3.939 -0.0292  1.0219 -0.4076
 8568SOL    HW237167   4.542   2.344   3.843  0.9365  1.1805  1.6297
 8569SOL     OW37168   2.566   3.298   0.090 -0.0810  0.1712 -0.2225
 8569SOL    HW137169   2.635   3.313   0.155 -2.5686  0.8784  2.2831
 8569SOL    HW237170   2.630   3.275   0.023  2.8529  0.9908  2.3003
 8570SOL     OW37171   2.247   0.006   2.333  0.2721  0.3306 -0.1384
 8570SOL    HW137172   2.305   4.689   2.398 -1.0054 -2.0199 -0.3526
 8570SOL    HW237173   2.298   4.720   2.252  0.3776 -0.1774 -0.0254
 8571SOL     OW37174   3.601   1.567   4.362  0.6056 -0.1328  0.0036
 8571SOL    HW137175   3.558   1.559   4.277 -0.2565  0.5072  0.3735
 8571SOL    HW237176   3.594   1.661   4.380 -0.2932  0.0737 -1.4256
 8572SOL     OW37177   3.721   2.316   1.508 -0.2115 -0.2792  0.4455
 8572SOL    HW137178   3.699   2.332   1.417 -2.9609 -0.0275  1.1580
 8572SOL    HW237179   3.636   2.339   1.546  0.5720  0.5525  1.6738
 8573SOL     OW37180   2.207   3.880  16.076 -0.0923 -0.2565  0.2200
 8573SOL    HW137181   2.118   3.881  16.040 -0.2884  0.4260  0.7061
 8573SOL    HW237182   2.223   3.791  16.107 -1.0189 -0.8705 -1.0557
 8574SOL     OW37183   1.249   0.815   9.292  0.2873 -0.3826  0.4444
 8574SOL    HW137184   1.251   0.774   9.378  0.4138 -0.3108  0.4751
 8574SOL    HW237185   1.337   0.849   9.281  0.4326 -1.5195 -1.9481
 8575SOL     OW37186   3.415   0.691  16.562 -0.8782  0.0239 -0.5651
 8575SOL    HW137187   3.484   0.757  16.563  0.1603 -1.0670 -0.8671
 8575SOL    HW237188   3.351   0.728  16.624  1.7259  0.8496  1.6407
 8576SOL     OW37189   1.796   1.280   0.509  0.0147  0.4750  0.1432
 8576SOL    HW137190   1.722   1.341   0.504 -0.7610 -0.6741 -2.0731
 8576SOL    HW237191   1.758   1.218   0.571 -0.1987  0.6806  0.2194
 8577SOL     OW37192   0.939   2.578  12.175 -0.3233 -0.3144 -0.1160
 8577SOL    HW137193   0.929   2.655  12.231  0.2518 -0.3372  0.0267
 8577SOL    HW237194   1.031   2.559  12.196 -0.0314  1.1616 -0.0257
 8578SOL     OW37195   2.920   4.485  17.521  0.2400  0.1983  0.4613
 8578SOL    HW137196   2.854   4.553  17.514 -0.3109 -0.4105 -0.2592
 8578SOL    HW237197   2.989   4.551  17.512  0.5784 -0.0572  1.1433
 8579SOL     OW37198   3.309   0.532   5.196 -0.3578  0.6449  0.6011
 8579SOL    HW137199   3.305   0.439   5.219 -2.1145  0.8693  1.1397
 8579SOL    HW237200   3.348   0.525   5.109 -1.2715  4.4693 -0.1373
 8580SOL     OW37201   0.249   3.228   3.532 -0.3329  0.6242  1.2406
 8580SOL    HW137202   0.337   3.259   3.556 -0.2545  2.9136 -2.0076
 8580SOL    HW237203   0.228   3.295   3.468 -0.6940  0.3630  1.0891
 8581SOL     OW37204   3.157   1.900   1.992  0.5296  0.2314 -0.0626
 8581SOL    HW137205   3.170   1.808   2.019  3.4655  1.1012  1.5353
 8581SOL    HW237206   3.236   1.928   1.946 -1.7006  0.7430 -3.5608
 8582SOL     OW37207   0.080   3.441   6.348  0.3479  0.2374  0.0019
 8582SOL    HW137208   0.083   3.361   6.400  2.6415  0.0852 -0.3712
 8582SOL    HW237209   0.052   3.506   6.413  1.7272 -1.2727  2.0843
 8583SOL     OW37210   3.720   1.430   8.460 -0.1292 -0.2110  0.4923
 8583SOL    HW137211   3.755   1.387   8.538 -0.8462 -1.0064  0.3753
 8583SOL    HW237212   3.629   1.446   8.486  0.0564 -1.5164  1.9656
 8584SOL     OW37213   4.284   3.725  15.909 -0.1827  0.2200  0.0601
 8584SOL    HW137214   4.195   3.720  15.945  0.4747 -0.2425  1.6490
 8584SOL    HW237215   4.333   3.701  15.988 -0.2831 -0.9352 -0.2247
 8585SOL     OW37216   0.098   1.483  17.667 -0.2335  0.2671  0.0522
 8585SOL    HW137217   0.186   1.487  17.630 -0.7595  0.9358 -1.1608
 8585SOL    HW237218   0.080   1.576  17.682  1.4901  0.5301  0.5105
 8586SOL     OW37219   2.842   4.029  14.348 -0.1594 -0.4430  0.0866
 8586SOL    HW137220   2.914   3.980  14.388 -1.1326 -2.6656 -0.8668
 8586SOL    HW237221   2.881   4.116  14.340 -2.6950  0.8325  1.6908
 8587SOL     OW37222   0.113   1.687   8.367  0.4707  0.1296 -0.0255
 8587SOL    HW137223   0.024   1.700   8.335  0.1274  0.0458  0.8884
 8587SOL    HW237224   0.094   1.680   8.461  2.3166 -0.4256  0.3107
 8588SOL     OW37225   3.148   2.580  13.639 -0.0310 -0.0793 -0.4542
 8588SOL    HW137226   3.216   2.642  13.613  1.9724 -2.0128  0.1461
 8588SOL    HW237227   3.098   2.625  13.707  1.0246  2.3012 -1.2411
 8589SOL     OW37228   4.311   3.440  10.280 -0.1186 -0.5515 -0.4788
 8589SOL    HW137229   4.251   3.423  10.353 -0.0123 -1.7386 -0.6641
 8589SOL    HW237230   4.323   3.357  10.233  0.0295 -1.1643  0.6419
 8590SOL     OW37231   2.922   3.404   9.944 -0.2387  0.2382  0.4926
 8590SOL    HW137232   2.929   3.399  10.040  3.2221 -1.0298  0.1859
 8590SOL    HW237233   2.841   3.355   9.926  0.4969 -1.1056  0.7986
 8591SOL     OW37234   1.562   0.038   4.228  0.0444  0.1685  0.1080
 8591SOL    HW137235   1.512   0.120   4.229  0.8701  0.5733  4.4723
 8591SOL    HW237236   1.506   4.704   4.172  0.4030  0.5293 -0.6146
 8592SOL     OW37237   3.407   3.497   4.562 -0.0258  0.3507 -0.3659
 8592SOL    HW137238   3.349   3.540   4.499 -1.9555 -0.9846  0.5071
 8592SOL    HW237239   3.484   3.553   4.554  1.5872 -1.9753 -1.2209
 8593SOL     OW37240   4.034   4.286   6.213 -0.3891  0.4506  0.2501
 8593SOL    HW137241   4.053   4.369   6.171 -1.9493  1.1119  0.8753
 8593SOL    HW237242   3.969   4.320   6.275  0.2812  1.5953  0.3279
 8594SOL     OW37243   0.631   0.298   9.446 -0.0317  0.1475 -0.1830
 8594SOL    HW137244   0.579   0.219   9.436  1.5277 -0.8433 -0.3652
 8594SOL    HW237245   0.601   0.325   9.533 -0.9678  1.4082 -0.8909
 8595SOL     OW37246   3.837   2.720   6.617 -0.4172  0.7043  0.4351
 8595SOL    HW137247   3.795   2.634   6.609 -0.3015  0.4560  2.6691
 8595SOL    HW237248   3.770   2.779   6.650  0.7313  2.0404  0.3995
 8596SOL     OW37249   0.222   1.338   5.374  0.1102 -0.3324 -0.8253
 8596SOL    HW137250   0.131   1.366   5.380 -0.4241 -2.2050 -0.1966
 8596SOL    HW237251   0.213   1.260   5.430 -2.5286  1.0361  0.6362
 8597SOL     OW37252   3.196   2.363  12.643 -0.6021  0.5785 -0.4017
 8597SOL    HW137253   3.250   2.441  12.630  0.8450 -0.2580  0.7101
 8597SOL    HW237254   3.185   2.324  12.556 -0.3678  1.5262 -0.8598
 8598SOL     OW37255   1.729   1.280   9.919  0.1847  0.2225  0.0384
 8598SOL    HW137256   1.673   1.202   9.917 -1.0768  1.1553 -0.7960
 8598SOL    HW237257   1.764   1.275  10.008 -0.3247  1.3011  0.2937
 8599SOL     OW37258   0.945   3.172  15.006 -0.4017  0.1349  0.8632
 8599SOL    HW137259   0.862   3.219  14.991 -0.4396 -1.0334 -2.6086
 8599SOL    HW237260   0.914   3.085  15.031 -0.5710 -0.1689 -0.4055
 8600SOL     OW37261   1.476   1.873   2.891 -0.3157 -0.1552 -0.3765
 8600SOL    HW137262   1.475   1.925   2.972 -0.0903  0.5699 -0.8366
 8600SOL    HW237263   1.414   1.801   2.901  0.9584 -1.3602 -1.1166
 8601SOL     OW37264   3.504   2.799   2.562 -0.2291 -0.1126 -0.1549
 8601SOL    HW137265   3.431   2.737   2.567  1.1699 -1.8453 -1.0427
 8601SOL    HW237266   3.475   2.865   2.625 -1.6153 -0.9747  0.1126
 8602SOL     OW37267   4.200   3.032   4.217  0.1948  0.1101  0.1753
 8602SOL    HW137268   4.208   3.015   4.310  0.1752 -0.6570  0.0430
 8602SOL    HW237269   4.203   2.944   4.179  1.2487  1.0418 -1.9174
 8603SOL     OW37270   0.924   3.218   6.280 -0.1227  0.8180  0.7826
 8603SOL    HW137271   0.869   3.295   6.296 -0.3434  0.4579  1.7610
 8603SOL    HW237272   0.979   3.249   6.208 -2.4974 -1.3791 -1.9391
 8604SOL     OW37273   0.026   1.047   5.379 -0.7384 -0.3533  0.0883
 8604SOL    HW137274   4.692   1.052   5.457  1.6679  2.5861  1.6039
 8604SOL    HW237275   4.695   0.977   5.340 -2.2032  0.3181  0.8417
 8605SOL     OW37276   2.375   3.102   5.914 -0.2443 -0.3291 -0.4965
 8605SOL    HW137277   2.422   3.175   5.875 -0.0077 -0.1871  0.0460
 8605SOL    HW237278   2.428   3.034   5.874  0.9473 -1.2120  2.5866
 8606SOL     OW37279   2.935   1.141   3.605  0.0644  0.1049 -0.0863
 8606SOL    HW137280   2.855   1.135   3.657 -1.7803  0.4986 -2.8734
 8606SOL    HW237281   2.895   1.142   3.518  1.7434  0.1438 -0.8458
 8607SOL     OW37282   0.861   2.074   5.656 -0.1067  0.4738 -1.0496
 8607SOL    HW137283   0.930   2.009   5.671 -0.3717  0.8128  1.6913
 8607SOL    HW237284   0.819   2.096   5.739 -0.2668  1.4224 -1.3828
 8608SOL     OW37285   4.660   1.101   8.440 -0.2391  0.1959 -0.3731
 8608SOL    HW137286   4.629   1.042   8.371 -1.3181  0.0966  0.2027
 8608SOL    HW237287   4.717   1.036   8.482 -1.3567  0.5489  1.6742
 8609SOL     OW37288   0.173   3.703   9.020 -0.1057  0.2586  0.4060
 8609SOL    HW137289   0.119   3.751   8.956  0.2647 -2.2220 -1.7754
 8609SOL    HW237290   0.107   3.663   9.077  0.0317  1.9068  1.7088
 8610SOL     OW37291   3.935   4.520   8.126 -0.0643  0.5497  0.4372
 8610SOL    HW137292   4.008   4.517   8.065  0.1405 -1.0197  0.7825
 8610SOL    HW237293   3.949   4.594   8.185  0.3225  0.8756 -0.0583
 8611SOL     OW37294   0.813   4.719   4.553  0.1971 -0.8143 -0.5831
 8611SOL    HW137295   0.870   4.644   4.571 -1.1488 -1.8075 -0.5034
 8611SOL    HW237296   0.734   4.681   4.515 -0.5085  2.6270 -2.5540
 8612SOL     OW37297   3.712   2.042   8.769 -0.1544  0.0400 -0.4688
 8612SOL    HW137298   3.704   2.129   8.809 -0.4446  1.9360 -4.6115
 8612SOL    HW237299   3.749   2.063   8.683 -1.3929  0.2857 -0.9446
 8613SOL     OW37300   0.670   3.645   1.955 -0.0993 -0.2288  0.0133
 8613SOL    HW137301   0.599   3.639   1.891 -1.3874 -1.2113  1.5474
 8613SOL    HW237302   0.674   3.551   1.974  2.6865 -0.1877 -0.3689
 8614SOL     OW37303   4.634   1.997   2.851 -0.2993 -0.9818 -0.1593
 8614SOL    HW137304   4.554   2.038   2.820 -0.3644 -1.5490 -0.7219
 8614SOL    HW237305   4.704   2.056   2.823  0.5959 -1.1527  1.6880
 8615SOL     OW37306   0.609   2.856   5.456  0.2032  0.2499 -0.1020
 8615SOL    HW137307   0.533   2.906   5.427 -0.2211  0.9751  2.2440
 8615SOL    HW237308   0.633   2.908   5.533  0.3426 -1.4823  1.0231
 8616SOL     OW37309   3.470   2.528   8.379  0.0771  0.6776 -0.3342
 8616SOL    HW137310   3.542   2.526   8.316 -1.0265  0.4107 -1.6129
 8616SOL    HW237311   3.503   2.517   8.468 -1.9123  0.5243  0.3946
 8617SOL     OW37312   2.255   4.596   3.023  0.0285  0.2493 -1.0872
 8617SOL    HW137313   2.288   4.562   2.939  0.8620 -0.5037 -0.4531
 8617SOL    HW237314   2.327   4.649   3.058  0.1559 -0.4186 -0.3446
 8618SOL     OW37315   3.480   3.861   7.051 -0.0548 -0.2856  0.0464
 8618SOL    HW137316   3.539   3.925   7.010 -1.0067  0.7253  0.2529
 8618SOL    HW237317   3.428   3.907   7.117  1.4780  1.0261  0.3600
 8619SOL     OW37318   3.661   0.186   8.232  0.5131 -0.0590 -0.3275
 8619SOL    HW137319   3.656   0.102   8.186  1.7258 -0.6041  0.5169
 8619SOL    HW237320   3.672   0.161   8.324 -0.8961  0.0244 -0.1358
 8620SOL     OW37321   0.864   1.502   1.583  0.1582 -0.1322 -0.1519
 8620SOL    HW137322   0.813   1.460   1.653 -3.3437  3.0884 -0.7585
 8620SOL    HW237323   0.924   1.548   1.641 -1.9334  1.5661  0.6909
 8621SOL     OW37324   2.877   0.369   8.042  0.0271 -0.0422  0.2080
 8621SOL    HW137325   2.783   0.387   8.051  0.5102  1.9806  1.2096
 8621SOL    HW237326   2.889   0.296   8.104 -1.4606  0.7702  1.4756
 8622SOL     OW37327   1.826   3.417   5.830 -0.3997  0.0703 -0.3136
 8622SOL    HW137328   1.896   3.359   5.799  2.0586  2.1718  1.2568
 8622SOL    HW237329   1.821   3.471   5.751  0.2218  0.3989 -0.1286
 8623SOL     OW37330   3.904   0.444   5.538 -0.1288  0.1590  0.3331
 8623SOL    HW137331   3.965   0.517   5.549  1.2528 -1.2352  1.8608
 8623SOL    HW237332   3.859   0.445   5.623  1.9837 -0.2794  1.4598
 8624SOL     OW37333   0.284   3.492   0.397  0.2854 -0.1226 -0.3936
 8624SOL    HW137334   0.262   3.420   0.338 -3.7393  0.0630  0.8541
 8624SOL    HW237335   0.269   3.565   0.337 -0.8556 -0.5620 -0.6342
 8625SOL     OW37336   3.095   2.728  16.397  0.1542  0.7466 -0.0437
 8625SOL    HW137337   3.016   2.682  16.427  0.8825  0.4441  1.4165
 8625SOL    HW237338   3.151   2.688  16.463 -0.8622  0.1846  0.4858
 8626SOL     OW37339   0.603   1.850   2.709 -0.5232 -0.3222  0.6144
 8626SOL    HW137340   0.555   1.920   2.753  0.9198  0.0553  1.5772
 8626SOL    HW237341   0.678   1.895   2.670 -0.6220 -1.3406 -0.7769
 8627SOL     OW37342   0.248   4.398   4.223 -0.8444  0.0076  0.1807
 8627SOL    HW137343   0.286   4.464   4.164  0.0443 -2.4683 -2.0462
 8627SOL    HW237344   0.155   4.413   4.207 -0.7913  0.4085  0.2320
 8628SOL     OW37345   3.155   0.320   7.780 -0.2163 -0.0007  0.2792
 8628SOL    HW137346   3.067   0.345   7.752 -0.7658 -2.3676 -0.0390
 8628SOL    HW237347   3.131   0.249   7.840  0.0488  0.1609  0.5774
 8629SOL     OW37348   0.568   3.576  15.785 -0.1094  0.1809 -1.1751
 8629SOL    HW137349   0.557   3.603  15.877  1.1272 -2.4594 -0.2553
 8629SOL    HW237350   0.477   3.573  15.758 -0.5269 -2.1083  0.4664
 8630SOL     OW37351   4.308   1.105   6.189 -0.2302  0.4151  0.7198
 8630SOL    HW137352   4.256   1.181   6.216  0.2834  0.4364  1.6329
 8630SOL    HW237353   4.283   1.040   6.254 -0.2395  1.2669  1.5774
 8631SOL     OW37354   0.630   1.642   3.002  0.0284 -0.3852 -0.1096
 8631SOL    HW137355   0.721   1.653   3.027  0.2884  0.5089 -1.4671
 8631SOL    HW237356   0.593   1.725   3.032 -0.0020 -0.6948  0.6908
 8632SOL     OW37357   2.903   2.962   5.660 -0.8381 -0.1667  0.0090
 8632SOL    HW137358   2.837   2.936   5.596 -1.7201  3.1870 -0.4168
 8632SOL    HW237359   2.978   2.903   5.651  0.5533  1.7493 -1.0700
 8633SOL     OW37360   4.248   2.817   2.692  0.1083 -0.1982  0.6168
 8633SOL    HW137361   4.327   2.774   2.661 -0.2808 -1.9692  2.1074
 8633SOL    HW237362   4.188   2.787   2.623  0.3982  0.7361 -0.0523
 8634SOL     OW37363   1.669   3.498  16.247  0.0865 -0.0346  0.5935
 8634SOL    HW137364   1.730   3.501  16.320  0.5311 -2.0910  0.2866
 8634SOL    HW237365   1.720   3.454  16.180  1.3486  0.1328  1.4517
 8635SOL     OW37366   3.882   1.729   2.492 -0.1122 -0.4019 -0.2029
 8635SOL    HW137367   3.867   1.795   2.560  1.8329 -0.7410  0.5640
 8635SOL    HW237368   3.951   1.676   2.531 -0.8211 -1.0174  0.2272
 8636SOL     OW37369   3.352   1.657   8.771 -0.1364 -0.3968 -0.0384
 8636SOL    HW137370   3.257   1.646   8.767 -0.5251  3.0617 -0.5227
 8636SOL    HW237371   3.360   1.737   8.719  1.7817 -1.2451 -1.0160
 8637SOL     OW37372   0.636   4.396   0.143 -0.0005 -0.4420 -0.3676
 8637SOL    HW137373   0.578   4.454   0.192  0.2635 -0.1819 -0.3643
 8637SOL    HW237374   0.717   4.446   0.155 -0.6117  0.2805  0.7725
 8638SOL     OW37375   0.020   0.152   8.136  0.9806  0.2934 -0.3089
 8638SOL    HW137376   0.082   0.223   8.152  1.4274  0.3504 -2.3590
 8638SOL    HW237377   4.672   0.199   8.089  0.4184 -0.0214  0.2016
 8639SOL     OW37378   2.498   3.756   7.813  0.3552  0.6670 -0.1240
 8639SOL    HW137379   2.471   3.830   7.758  0.8245 -0.0749 -1.3558
 8639SOL    HW237380   2.513   3.689   7.746  0.0010 -0.1361  0.6098
 8640SOL     OW37381   3.753   4.288  13.217  0.3708  0.1729  0.6469
 8640SOL    HW137382   3.813   4.341  13.165  1.2184 -0.1184  1.3178
 8640SOL    HW237383   3.822   4.230  13.251  1.4568  2.1432  1.8323
 8641SOL     OW37384   4.005   0.022   7.650 -0.0275  0.1301 -0.7626
 8641SOL    HW137385   4.034   0.107   7.682 -2.0516 -0.2198  2.0105
 8641SOL    HW237386   3.909   0.033   7.648  0.0932  1.2168 -0.6522
 8642SOL     OW37387   3.472   0.713   6.026  0.4051  0.1250  0.2091
 8642SOL    HW137388   3.405   0.733   6.091  1.9014 -1.1259  2.1157
 8642SOL    HW237389   3.411   0.708   5.953 -0.8479  1.8323  1.1414
 8643SOL     OW37390   2.683   3.112   9.234 -0.2403 -0.1679 -0.1281
 8643SOL    HW137391   2.743   3.037   9.234 -1.4001 -1.1033 -2.1598
 8643SOL    HW237392   2.739   3.178   9.275  0.3653  0.0557 -1.3111
 8644SOL     OW37393   0.028   0.929   7.095 -0.4625  0.2157  0.2149
 8644SOL    HW137394   0.049   0.859   7.033 -0.7765 -0.9480  1.4044
 8644SOL    HW237395   4.702   0.880   7.163 -1.6427  1.5757  0.3894
 8645SOL     OW37396   0.871   3.576   7.538 -0.0765 -0.2154  0.3871
 8645SOL    HW137397   0.947   3.603   7.590 -0.3743  2.4146 -0.5513
 8645SOL    HW237398   0.804   3.550   7.601 -0.8842 -1.1474 -0.8591
 8646SOL     OW37399   1.471   0.261  12.217 -0.2081  0.6724 -0.4660
 8646SOL    HW137400   1.453   0.309  12.137 -1.3111  1.5214  0.2906
 8646SOL    HW237401   1.539   0.204  12.182 -0.6222  0.1634 -0.4492
 8647SOL     OW37402   0.065   1.214   7.827  0.2135  0.1025  0.0825
 8647SOL    HW137403   0.059   1.125   7.793  1.6223  1.4252 -3.6495
 8647SOL    HW237404   0.092   1.189   7.915  1.1180  0.6684 -0.0352
 8648SOL     OW37405   0.982   2.423  11.949 -0.1251  0.2084 -0.7662
 8648SOL    HW137406   0.960   2.473  12.028  1.3143 -1.4865  0.7068
 8648SOL    HW237407   0.945   2.336  11.965  1.4216 -0.4842 -1.0303
 8649SOL     OW37408   2.710   0.447   0.141  0.4069 -0.0423 -0.3506
 8649SOL    HW137409   2.634   0.462   0.197 -1.1118  0.1480 -2.4616
 8649SOL    HW237410   2.699   0.515   0.075  2.9374  2.8150  2.1494
 8650SOL     OW37411   4.646   2.419   6.747 -0.1739 -0.3745 -0.1847
 8650SOL    HW137412   4.612   2.500   6.783  0.3649  0.4634 -1.5538
 8650SOL    HW237413   4.568   2.364   6.744 -0.3816 -0.1183  0.7788
 8651SOL     OW37414   2.366   3.733   1.337  0.0545  0.2475  0.6625
 8651SOL    HW137415   2.458   3.747   1.359 -0.0901  0.9297  0.8236
 8651SOL    HW237416   2.375   3.684   1.255 -0.3604 -0.9895  1.3428
 8652SOL     OW37417   3.657   0.061   4.012  0.5850 -0.1730 -0.0033
 8652SOL    HW137418   3.580   0.017   4.049 -0.1968 -0.7901 -2.3616
 8652SOL    HW237419   3.726   0.040   4.075 -1.2902 -0.1837  2.0826
 8653SOL     OW37420   4.217   0.013   7.986 -0.6471 -0.2238 -0.3097
 8653SOL    HW137421   4.210   0.091   8.041  0.1989  0.0017 -0.5242
 8653SOL    HW237422   4.272   0.040   7.912 -1.4294  0.3255 -0.6861
 8654SOL     OW37423   0.590   1.537   7.341  0.2455 -0.0196 -0.1620
 8654SOL    HW137424   0.504   1.528   7.384 -0.3773 -2.0539 -1.8134
 8654SOL    HW237425   0.576   1.589   7.262  1.6595  0.7334  0.0767
 8655SOL     OW37426   2.726   2.827  10.128 -0.5904  0.0705  0.0225
 8655SOL    HW137427   2.757   2.781  10.206 -0.8956  0.5793  0.4406
 8655SOL    HW237428   2.692   2.907  10.168  1.5876  1.7631 -1.4771
 8656SOL     OW37429   0.954   3.522  14.089  0.5427 -0.4497  0.0888
 8656SOL    HW137430   0.861   3.499  14.079  0.3176  0.4429  0.1083
 8656SOL    HW237431   0.969   3.563  14.004 -0.1490  2.0610  1.1545
 8657SOL     OW37432   3.504   1.725   2.904  0.1129 -0.1490  0.6333
 8657SOL    HW137433   3.458   1.690   2.827 -1.9749  2.7415  0.5812
 8657SOL    HW237434   3.455   1.804   2.929  0.5683  1.1340 -2.5115
 8658SOL     OW37435   3.365   4.185   4.692  0.0207 -0.2924  0.0052
 8658SOL    HW137436   3.316   4.187   4.610  0.8626 -1.7029 -0.5241
 8658SOL    HW237437   3.374   4.280   4.700 -1.6331 -0.1836  0.6194
 8659SOL     OW37438   3.167   4.147   6.671 -0.1239  0.6466  0.3705
 8659SOL    HW137439   3.106   4.098   6.615 -0.2979 -2.0398  2.9293
 8659SOL    HW237440   3.251   4.152   6.625 -0.0673 -0.4010  0.3579
 8660SOL     OW37441   4.323   1.267   2.809  0.3242  0.4837 -0.8221
 8660SOL    HW137442   4.280   1.332   2.865 -0.0312 -0.0154 -0.5172
 8660SOL    HW237443   4.415   1.275   2.833 -0.6691  0.6792  2.9609
 8661SOL     OW37444   1.917   0.144   4.192  0.9896 -0.0184 -0.2446
 8661SOL    HW137445   1.885   0.081   4.128 -1.5341 -1.5490  2.4712
 8661SOL    HW237446   2.008   0.116   4.203  1.0219  0.0868 -0.2449
 8662SOL     OW37447   2.659   3.557   6.651  0.4044  0.2990 -0.3288
 8662SOL    HW137448   2.754   3.558   6.644  0.3010 -1.2066 -1.6518
 8662SOL    HW237449   2.643   3.485   6.590 -0.9780  0.8663 -0.6523
 8663SOL     OW37450   1.370   2.899   2.111  0.3337 -0.7661 -0.3506
 8663SOL    HW137451   1.333   2.864   2.192 -4.0575 -1.2553 -2.5537
 8663SOL    HW237452   1.375   2.994   2.120 -0.6164 -0.6868 -0.6434
 8664SOL     OW37453   1.985   1.676   5.171  0.4620 -0.0981  0.2139
 8664SOL    HW137454   2.004   1.766   5.145  0.7575 -0.5805 -1.2087
 8664SOL    HW237455   2.013   1.676   5.263 -1.8952  3.2464  0.9109
 8665SOL     OW37456   3.111   3.122  17.289 -0.4883 -0.1034 -0.1088
 8665SOL    HW137457   3.055   3.050  17.320 -0.2708 -0.6544 -0.9951
 8665SOL    HW237458   3.185   3.114  17.350  0.3604 -0.2021 -1.1647
 8666SOL     OW37459   2.213   3.146  10.805  0.4290  0.1420  0.4924
 8666SOL    HW137460   2.174   3.060  10.819 -0.5799  0.4121 -0.6342
 8666SOL    HW237461   2.206   3.176  10.895  0.5884 -0.9219  0.8619
 8667SOL     OW37462   2.813   3.210   8.631  0.6183 -0.2305 -0.3387
 8667SOL    HW137463   2.799   3.116   8.622  0.9104 -0.3802  0.7740
 8667SOL    HW237464   2.805   3.233   8.724  0.1219 -1.2292 -0.1330
 8668SOL     OW37465   0.309   4.206   6.874 -0.6841 -0.1923  0.7681
 8668SOL    HW137466   0.353   4.255   6.944  2.0641 -1.1460 -0.2785
 8668SOL    HW237467   0.291   4.120   6.911  1.6495  0.0848  2.5198
 8669SOL     OW37468   3.618   0.979   4.930 -0.0963  0.5809  0.1877
 8669SOL    HW137469   3.576   1.054   4.973  0.2144  0.9732 -0.1912
 8669SOL    HW237470   3.660   0.935   5.004  0.6674 -0.2577 -0.7553
 8670SOL     OW37471   0.048   3.141   6.459  0.5125  0.2583  0.2351
 8670SOL    HW137472   0.071   3.131   6.551  0.7081  1.3636  0.3067
 8670SOL    HW237473   0.051   3.056   6.415 -0.3421  0.7334 -0.7370
 8671SOL     OW37474   0.040   4.240  16.477 -0.5277 -0.4591 -0.4035
 8671SOL    HW137475   0.015   4.148  16.465 -0.6358 -0.4877  0.0204
 8671SOL    HW237476   4.676   4.282  16.464 -0.5014 -0.0814  0.5954
 8672SOL     OW37477   0.853   2.942  15.910  0.5867 -0.1616  0.7883
 8672SOL    HW137478   0.770   2.938  15.958 -0.9990 -0.6903 -1.9204
 8672SOL    HW237479   0.828   3.003  15.840  2.0104  0.7185  1.0487
 8673SOL     OW37480   0.844   2.019   3.038 -0.2865 -0.3883  0.0830
 8673SOL    HW137481   0.847   1.932   2.998  0.4206  0.2040 -1.1383
 8673SOL    HW237482   0.898   2.000   3.114  0.6874  0.9363 -0.2647
 8674SOL     OW37483   2.362   3.882   7.468  0.4017 -0.1504 -0.1240
 8674SOL    HW137484   2.276   3.852   7.441  1.4496 -2.9251 -0.3646
 8674SOL    HW237485   2.341   3.928   7.549 -0.5020 -0.5147 -0.1540
 8675SOL     OW37486   3.954   2.682   2.818  0.7724 -0.3418 -0.0150
 8675SOL    HW137487   3.944   2.759   2.763 -1.5488 -1.8988 -1.7284
 8675SOL    HW237488   3.964   2.726   2.903  0.2399  1.0075 -0.6506
 8676SOL     OW37489   2.721   2.847   2.894 -0.0094  0.1850  0.2949
 8676SOL    HW137490   2.673   2.927   2.871 -0.3614  0.1434  0.8659
 8676SOL    HW237491   2.809   2.882   2.902  0.5796 -0.4759 -3.2736
 8677SOL     OW37492   0.485   0.406   8.742 -0.3045  0.4980  0.1293
 8677SOL    HW137493   0.502   0.501   8.745 -0.3611  0.5632 -1.6135
 8677SOL    HW237494   0.525   0.380   8.659  2.8378  0.8306  1.5220
 8678SOL     OW37495   4.255   1.191   2.550  0.5317  0.0372 -0.1128
 8678SOL    HW137496   4.195   1.117   2.557 -1.1703  1.3930 -0.6290
 8678SOL    HW237497   4.281   1.208   2.641 -1.5565  1.0586  0.2802
 8679SOL     OW37498   1.197   1.667  12.447 -0.5220 -0.3082  0.7815
 8679SOL    HW137499   1.178   1.593  12.505 -0.8574  0.2839  1.4357
 8679SOL    HW237500   1.127   1.727  12.472  1.3126  2.2587 -0.2800
 8680SOL     OW37501   1.109   0.167  14.365 -0.3057  0.1230 -0.1922
 8680SOL    HW137502   1.182   0.112  14.335  0.9162  1.8402 -0.3284
 8680SOL    HW237503   1.103   0.139  14.456  3.7906 -0.2872 -0.0123
 8681SOL     OW37504   2.593   0.248  16.042 -0.3931 -0.2840  0.1361
 8681SOL    HW137505   2.581   0.203  16.126  1.4516 -2.4538 -0.7786
 8681SOL    HW237506   2.500   0.270  16.030 -0.8430 -0.5229  3.1206
 8682SOL     OW37507   1.140   2.860   2.775 -0.0071 -0.0173  0.6117
 8682SOL    HW137508   1.070   2.880   2.836 -0.1207  1.4392  0.0103
 8682SOL    HW237509   1.174   2.774   2.797 -1.4948 -0.1820  2.1919
 8683SOL     OW37510   4.323   2.934   5.452 -0.2798 -0.7128 -0.5072
 8683SOL    HW137511   4.284   2.861   5.501  0.1030  2.1745  4.0907
 8683SOL    HW237512   4.251   2.965   5.398 -1.0621 -1.4178  0.1203
 8684SOL     OW37513   1.474   1.701  11.870 -0.3041 -0.4046 -0.3405
 8684SOL    HW137514   1.511   1.613  11.860 -1.7884 -0.9536 -1.1530
 8684SOL    HW237515   1.531   1.751  11.813 -0.8515  1.2648  0.5930
 8685SOL     OW37516   1.724   3.619   2.464 -0.1383 -0.1469  0.1965
 8685SOL    HW137517   1.674   3.612   2.545 -0.6821  0.2312 -0.1057
 8685SOL    HW237518   1.763   3.706   2.472  2.4721 -1.2341 -0.8061
 8686SOL     OW37519   3.775   4.072   4.767 -0.4216  1.1257 -0.4523
 8686SOL    HW137520   3.767   4.114   4.681 -1.9821 -0.1235 -0.9192
 8686SOL    HW237521   3.843   4.006   4.758 -3.5097 -1.9542 -1.3856
 8687SOL     OW37522   2.893   1.466   2.754  0.0892  0.0765  0.0200
 8687SOL    HW137523   2.947   1.545   2.754 -1.0181  0.8287 -2.6702
 8687SOL    HW237524   2.965   1.406   2.734  0.3531  1.3948 -2.9924
 8688SOL     OW37525   0.286   1.117   5.543 -0.0271  0.1981  0.3532
 8688SOL    HW137526   0.271   1.031   5.582 -1.5770  0.6412  0.7425
 8688SOL    HW237527   0.249   1.173   5.612  0.1779  2.5076 -1.4299
 8689SOL     OW37528   1.324   3.937   6.142 -0.1615 -0.0474 -0.2158
 8689SOL    HW137529   1.298   4.020   6.102  2.3388  0.7965 -0.1315
 8689SOL    HW237530   1.245   3.890   6.166  0.8168 -2.1595 -1.0673
 8690SOL     OW37531   1.981   1.013  15.814 -0.1120  1.1565  0.0142
 8690SOL    HW137532   1.915   0.985  15.877 -0.8023  1.7400 -0.4295
 8690SOL    HW237533   1.973   0.945  15.747  1.1250  1.7577 -0.7481
 8691SOL     OW37534   1.020   2.988   6.188  0.1728 -0.0991 -0.6459
 8691SOL    HW137535   1.039   3.059   6.126  0.2174  0.1190 -0.3824
 8691SOL    HW237536   0.978   3.040   6.256 -1.9811 -0.0213 -2.0535
 8692SOL     OW37537   1.733   1.934   2.076  0.3633 -0.2144 -0.0684
 8692SOL    HW137538   1.687   2.017   2.061 -1.2494 -0.7989  1.5989
 8692SOL    HW237539   1.730   1.893   1.990 -4.1632  0.9358 -0.4524
 8693SOL     OW37540   1.965   1.440   3.219  0.5825  0.2027  0.4060
 8693SOL    HW137541   2.013   1.366   3.257 -1.2987 -0.4086  1.5859
 8693SOL    HW237542   2.030   1.508   3.235 -0.0147  1.4512 -2.4112
 8694SOL     OW37543   0.510   3.010   3.409  0.5893 -0.1653 -0.3458
 8694SOL    HW137544   0.491   3.100   3.437  0.7800 -0.0459 -0.5935
 8694SOL    HW237545   0.557   2.978   3.485  2.3714  1.8985 -0.5733
 8695SOL     OW37546   4.297   0.472   3.831 -0.7812 -0.4092  0.1532
 8695SOL    HW137547   4.297   0.523   3.912 -2.8742 -0.2188  0.0383
 8695SOL    HW237548   4.204   0.467   3.807 -0.4677  1.1460 -1.4355
 8696SOL     OW37549   3.922   1.238   1.210  0.0678 -0.0566 -0.0027
 8696SOL    HW137550   3.915   1.199   1.122 -1.0863 -0.5445  0.3083
 8696SOL    HW237551   3.833   1.236   1.245 -0.3246  1.4302 -0.9305
 8697SOL     OW37552   1.955   1.266  14.028  0.1775  0.3557 -0.4269
 8697SOL    HW137553   1.921   1.267  13.938 -1.7660 -0.5884  0.3112
 8697SOL    HW237554   2.037   1.218  14.021  0.4512  0.7110  0.3898
 8698SOL     OW37555   3.652   2.211   3.423 -0.6390 -0.3726 -0.2578
 8698SOL    HW137556   3.658   2.117   3.405 -1.8533 -0.9552  2.2957
 8698SOL    HW237557   3.739   2.242   3.448 -0.6888 -0.0913 -0.4337
 8699SOL     OW37558   3.935   1.116   5.287 -0.3232 -0.3496  0.4053
 8699SOL    HW137559   3.962   1.207   5.303  1.1195 -0.5008 -1.2092
 8699SOL    HW237560   3.988   1.093   5.212  0.0677 -0.5202  0.7346
 8700SOL     OW37561   0.295   1.468  11.383 -0.3493  0.4176 -0.2217
 8700SOL    HW137562   0.371   1.442  11.332 -1.3456 -1.1694 -0.8987
 8700SOL    HW237563   0.272   1.557  11.355 -1.7195 -0.4208 -1.7258
 8701SOL     OW37564   1.463   3.094  17.209  0.3319  0.3270 -0.2083
 8701SOL    HW137565   1.454   3.090  17.114 -0.4721 -1.1905 -0.0694
 8701SOL    HW237566   1.544   3.048  17.234  0.6052 -0.0624 -1.8291
 8702SOL     OW37567   1.710   1.112  10.871  0.6139 -0.1833 -0.2058
 8702SOL    HW137568   1.629   1.063  10.861 -0.0440  0.2459  2.8849
 8702SOL    HW237569   1.724   1.138  10.962 -0.4152  0.5444 -0.2580
 8703SOL     OW37570   0.878   0.112   5.660 -0.7522 -0.1157 -0.2881
 8703SOL    HW137571   0.822   0.067   5.722 -0.7534 -0.6991 -0.7178
 8703SOL    HW237572   0.840   0.071   5.582 -0.6136 -0.5143 -0.1447
 8704SOL     OW37573   4.719   4.369   5.128  0.4832 -0.2368 -0.5864
 8704SOL    HW137574   0.039   4.381   5.042  3.8385 -1.7895  0.8021
 8704SOL    HW237575   0.072   4.350   5.186  0.4646  0.4742 -0.3413
 8705SOL     OW37576   3.990   3.291  11.674  0.4262  0.3012 -0.3056
 8705SOL    HW137577   4.055   3.331  11.616  2.5007 -0.6965  1.3307
 8705SOL    HW237578   4.038   3.214  11.704  0.7816  0.7607  0.3188
 8706SOL     OW37579   4.544   2.657   5.314 -0.4229  0.0025 -0.4323
 8706SOL    HW137580   4.518   2.720   5.246  0.4921 -0.0920 -0.8740
 8706SOL    HW237581   4.474   2.591   5.314 -1.1524  0.7749  2.8590
 8707SOL     OW37582   2.750   1.303   5.473  0.0258  0.5607  0.6664
 8707SOL    HW137583   2.767   1.323   5.381 -1.9491 -0.6828  0.0289
 8707SOL    HW237584   2.836   1.291   5.512 -0.8985 -2.3482  1.7640
 8708SOL     OW37585   3.903   1.135   3.474  0.8936  0.2866 -0.3687
 8708SOL    HW137586   3.822   1.185   3.470 -0.3166 -1.6744 -0.4124
 8708SOL    HW237587   3.943   1.158   3.390 -2.8648  0.2533 -2.1532
 8709SOL     OW37588   2.873   3.065   7.500  0.4726  0.2473 -0.4592
 8709SOL    HW137589   2.921   3.139   7.538 -0.0500 -0.1514  0.9888
 8709SOL    HW237590   2.784   3.099   7.507  1.2850  2.3704 -0.3908
 8710SOL     OW37591   2.668   1.900  11.986 -0.6273 -0.7519  0.3319
 8710SOL    HW137592   2.607   1.892  12.059  0.1741 -2.1121  0.8492
 8710SOL    HW237593   2.744   1.928  12.037 -0.9561  0.3702  0.2228
 8711SOL     OW37594   1.989   4.605   8.705 -0.1086 -1.0304 -0.1583
 8711SOL    HW137595   2.008   4.610   8.611  1.4079  0.8899  0.2577
 8711SOL    HW237596   2.062   4.660   8.732 -0.8401 -0.8127  1.3716
 8712SOL     OW37597   1.315   3.144   5.899  0.6885 -0.4267  0.0611
 8712SOL    HW137598   1.306   3.238   5.884 -0.9017 -0.9394 -2.2310
 8712SOL    HW237599   1.391   3.130   5.955  0.6135  2.6818  0.9314
 8713SOL     OW37600   0.926   4.174   7.524  0.1057 -0.3685 -0.0608
 8713SOL    HW137601   0.991   4.120   7.480  0.0265  1.0922 -1.9440
 8713SOL    HW237602   0.844   4.123   7.520 -0.3603  0.3026  0.8145
 8714SOL     OW37603   3.104   1.241  10.440 -0.1731 -0.5607 -0.4503
 8714SOL    HW137604   3.125   1.247  10.533  2.3006  0.6958 -1.0826
 8714SOL    HW237605   3.013   1.266  10.455 -0.0316 -0.5744  0.4149
 8715SOL     OW37606   4.307   0.224  10.105 -0.1766 -0.0050 -0.1735
 8715SOL    HW137607   4.389   0.272  10.093 -0.6554  0.9035  0.2347
 8715SOL    HW237608   4.243   0.275  10.056 -1.2298  0.2745  1.4779
 8716SOL     OW37609   1.078   1.921   2.259 -0.2981 -0.5276 -0.4379
 8716SOL    HW137610   1.166   1.941   2.293 -0.7323  0.1856  0.2597
 8716SOL    HW237611   1.038   2.008   2.252  1.4784  0.2980 -0.4006
 8717SOL     OW37612   3.017   0.884   4.214 -0.3171 -0.0236  0.3009
 8717SOL    HW137613   2.996   0.798   4.179 -1.5116  1.3923 -2.4469
 8717SOL    HW237614   3.105   0.909   4.188 -0.6095  1.2512  0.5154
 8718SOL     OW37615   3.830   4.008  15.165  0.3809  0.3492 -0.1713
 8718SOL    HW137616   3.804   4.043  15.250  0.9920  0.5588 -0.0711
 8718SOL    HW237617   3.788   3.922  15.166  0.1450  0.4676 -0.0459
 8719SOL     OW37618   0.355   2.453   1.933  0.3909 -0.3079 -0.7744
 8719SOL    HW137619   0.267   2.486   1.952  0.1025 -1.4709 -0.1425
 8719SOL    HW237620   0.352   2.368   1.976 -0.1450 -0.2820 -0.7647
 8720SOL     OW37621   4.588   3.455   9.866  0.3011 -0.6079 -0.2451
 8720SOL    HW137622   4.623   3.511   9.935 -1.2606  1.2335 -0.9523
 8720SOL    HW237623   4.595   3.369   9.907  3.0745  1.5126  3.6830
 8721SOL     OW37624   4.406   3.218  15.983  0.2356  0.3643  0.3688
 8721SOL    HW137625   4.411   3.126  16.012  0.7548 -0.5479 -2.6532
 8721SOL    HW237626   4.489   3.241  16.025 -1.0170  1.4085  2.2901
 8722SOL     OW37627   2.659   1.265   7.923 -0.1955  0.3921 -0.1041
 8722SOL    HW137628   2.712   1.303   7.853  0.5795  1.3021  0.9612
 8722SOL    HW237629   2.677   1.314   8.004 -0.2466  0.0371  0.1234
 8723SOL     OW37630   3.370   1.628   9.757  0.1802  0.4257  0.0027
 8723SOL    HW137631   3.344   1.672   9.838  0.0426 -1.1208  0.7860
 8723SOL    HW237632   3.450   1.674   9.732  1.3799 -0.9312  1.3734
 8724SOL     OW37633   0.022   3.701   0.404  0.3793  0.2563  0.0241
 8724SOL    HW137634   0.066   3.694   0.320 -0.9662 -2.4935 -0.4597
 8724SOL    HW237635   0.024   3.612   0.439 -0.4790  0.9030  1.7414
 8725SOL     OW37636   3.376   1.248   4.644  0.5848 -0.0432 -0.1038
 8725SOL    HW137637   3.425   1.268   4.564  1.3783 -0.2599  0.3316
 8725SOL    HW237638   3.301   1.308   4.633  0.4973  0.2155  1.9414
 8726SOL     OW37639   3.390   3.679   4.867  0.0529  0.0095  0.0837
 8726SOL    HW137640   3.408   3.750   4.929 -1.9073  0.8663 -0.3317
 8726SOL    HW237641   3.389   3.712   4.777 -2.5646  0.3206  0.2233
 8727SOL     OW37642   3.995   4.464  14.674  0.2603 -0.4464 -0.2246
 8727SOL    HW137643   3.914   4.429  14.638 -0.9225  2.0963 -0.0891
 8727SOL    HW237644   3.983   4.559  14.665  1.4002 -0.1086  1.7533
 8728SOL     OW37645   4.440   2.345   1.075  0.8729  0.2394 -0.1292
 8728SOL    HW137646   4.386   2.271   1.103  0.3503  0.3087 -0.9391
 8728SOL    HW237647   4.397   2.353   0.990  0.0799 -0.6496  0.1913
 8729SOL     OW37648   1.657   1.484  14.440  0.1261 -0.6568 -0.0761
 8729SOL    HW137649   1.678   1.422  14.370 -0.2985 -1.7993  0.8091
 8729SOL    HW237650   1.734   1.541  14.431 -0.8312  0.4671 -1.0758
 8730SOL     OW37651   1.909   3.662   7.289  0.1205  0.6396  0.3661
 8730SOL    HW137652   1.860   3.591   7.247  1.9187 -0.0029 -0.6407
 8730SOL    HW237653   1.865   3.744   7.265 -0.2158  0.7816  1.4620
 8731SOL     OW37654   4.110   3.972  15.782 -0.3302 -0.6155  0.4284
 8731SOL    HW137655   4.095   3.890  15.829  3.4193 -1.2479  0.4604
 8731SOL    HW237656   4.204   3.981  15.793 -0.3350  2.1764 -1.8460
 8732SOL     OW37657   4.614   4.622  11.052 -0.3963  0.0486  0.6481
 8732SOL    HW137658   4.525   4.613  11.017 -0.3138  0.4085  0.3372
 8732SOL    HW237659   4.618   4.550  11.114 -0.5436 -0.0589  0.5312
 8733SOL     OW37660   0.383   1.038   6.250 -0.0287  0.5420  0.3897
 8733SOL    HW137661   0.297   1.059   6.286 -0.5551  0.1604 -0.6350
 8733SOL    HW237662   0.406   0.964   6.306  1.3612  1.6208  1.2532
 8734SOL     OW37663   1.523   0.429  12.420 -0.2701  0.3116  0.3896
 8734SOL    HW137664   1.505   0.497  12.355  0.7302 -1.4169 -1.6767
 8734SOL    HW237665   1.505   0.349  12.371 -2.2422  0.4125  0.9319
 8735SOL     OW37666   2.724   1.581   4.777 -0.1752 -0.3319  0.0891
 8735SOL    HW137667   2.722   1.543   4.689 -0.7759  0.3233 -0.1848
 8735SOL    HW237668   2.631   1.575   4.799 -0.2261 -0.5412 -0.1850
 8736SOL     OW37669   3.774   3.735   6.662  0.0589  0.6144  0.8404
 8736SOL    HW137670   3.822   3.814   6.690  1.6948 -0.8524  2.2175
 8736SOL    HW237671   3.756   3.694   6.746 -4.9113 -1.6361 -1.3474
 8737SOL     OW37672   2.803   2.467   3.554 -0.1877  0.4854 -0.4175
 8737SOL    HW137673   2.735   2.418   3.601  0.3247  0.3604  0.1846
 8737SOL    HW237674   2.806   2.543   3.612 -1.9014 -0.1481  0.5048
 8738SOL     OW37675   3.302   1.159   1.058  0.2346 -0.9895 -0.4471
 8738SOL    HW137676   3.304   1.175   1.152  0.3333 -0.3322 -0.5605
 8738SOL    HW237677   3.282   1.066   1.051  2.0323 -1.3221 -1.1256
 8739SOL     OW37678   4.424   3.860   6.194 -0.0080  0.5361  0.3053
 8739SOL    HW137679   4.424   3.927   6.126  1.9153  1.6047  1.3428
 8739SOL    HW237680   4.515   3.835   6.209 -0.2103 -0.8853 -0.8215
 8740SOL     OW37681   2.386   2.429   4.794 -0.3521  0.2120 -0.0357
 8740SOL    HW137682   2.448   2.454   4.726 -0.2633 -1.0015 -0.4010
 8740SOL    HW237683   2.442   2.397   4.865 -1.9887 -3.3846 -0.3126
 8741SOL     OW37684   4.123   2.112   3.860  0.2198  0.5638 -0.3535
 8741SOL    HW137685   4.168   2.112   3.776  1.7768  4.0053  0.5062
 8741SOL    HW237686   4.056   2.181   3.865 -0.4212 -0.2874  2.8484
 8742SOL     OW37687   2.573   2.448   8.942  0.0700  0.1730  0.0564
 8742SOL    HW137688   2.587   2.416   9.031 -0.5595 -1.4273 -0.4089
 8742SOL    HW237689   2.566   2.366   8.893  1.5373 -1.7840  3.1135
 8743SOL     OW37690   0.569   0.024   1.251 -0.1831  0.5689  0.1677
 8743SOL    HW137691   0.486   0.064   1.278 -0.9442 -0.8205 -0.1621
 8743SOL    HW237692   0.537   4.662   1.216 -0.3456  0.7955 -0.2142
 8744SOL     OW37693   1.588   1.115  17.524  0.0101 -0.3105 -0.4621
 8744SOL    HW137694   1.540   1.132  17.605  2.2345 -1.9033  1.1709
 8744SOL    HW237695   1.530   1.152  17.457  0.6670 -0.6872 -1.2358
 8745SOL     OW37696   3.983   3.600  12.588 -0.2002 -0.6294 -0.5699
 8745SOL    HW137697   4.047   3.535  12.615  0.1716 -0.8638 -2.0130
 8745SOL    HW237698   4.032   3.649  12.522 -1.0544 -0.3731 -1.0118
 8746SOL     OW37699   1.607   1.449   1.179  0.1856 -0.0348  0.6249
 8746SOL    HW137700   1.584   1.467   1.271  1.0243 -0.2680  0.8785
 8746SOL    HW237701   1.701   1.432   1.186  0.5200  1.9714  0.9070
 8747SOL     OW37702   0.453   2.672   1.777  0.4198  0.3546  0.3399
 8747SOL    HW137703   0.383   2.726   1.739 -0.9024 -1.5979  0.0052
 8747SOL    HW237704   0.407   2.607   1.831  1.0666 -0.3282  0.0588
 8748SOL     OW37705   3.465   0.230   2.294  0.2800  0.1871  0.6570
 8748SOL    HW137706   3.504   0.303   2.343 -0.6922  1.3294 -0.2961
 8748SOL    HW237707   3.394   0.201   2.352 -2.3745  1.9231 -1.7336
 8749SOL     OW37708   3.906   4.549   3.921 -0.5122 -0.1972  0.0156
 8749SOL    HW137709   3.990   4.582   3.890 -0.8620  0.2537 -0.4609
 8749SOL    HW237710   3.932   4.481   3.983  0.3858  0.5114  0.4136
 8750SOL     OW37711   0.540   1.700  10.665  0.2484 -0.1502 -0.1635
 8750SOL    HW137712   0.569   1.688  10.575 -0.1145 -1.7195 -0.0783
 8750SOL    HW237713   0.534   1.605  10.679  3.3309 -0.5340 -1.3596
 8751SOL     OW37714   1.211   2.774   0.073 -0.3459  0.3627 -0.7521
 8751SOL    HW137715   1.184   2.794  17.670  0.8867  3.3748 -0.4302
 8751SOL    HW237716   1.164   2.690   0.081 -0.7390  0.6818  0.3170
 8752SOL     OW37717   1.175   2.536  15.188 -0.2824  0.5346 -0.2066
 8752SOL    HW137718   1.081   2.518  15.176 -0.0886 -0.2284 -0.5576
 8752SOL    HW237719   1.189   2.629  15.169  2.1595  0.2028  0.0044
 8753SOL     OW37720   2.916   2.350  16.605 -0.0909  0.3772 -0.0957
 8753SOL    HW137721   2.844   2.332  16.545  0.4710 -0.1878 -0.6157
 8753SOL    HW237722   2.943   2.264  16.636  1.5783  1.7868  2.4007
 8754SOL     OW37723   4.017   4.473   3.183  0.2307  0.4923 -0.1795
 8754SOL    HW137724   4.073   4.397   3.198 -0.1004  1.0872  4.1636
 8754SOL    HW237725   4.082   4.541   3.168 -0.6289  1.1893 -0.6813
 8755SOL     OW37726   3.657   0.495  12.492  0.1870  1.0479  0.4492
 8755SOL    HW137727   3.671   0.573  12.438 -1.4211  0.1986 -1.1964
 8755SOL    HW237728   3.585   0.532  12.543 -0.2148 -0.2714  0.8377
 8756SOL     OW37729   1.052   0.012   3.320  0.0993 -1.2062  0.2109
 8756SOL    HW137730   1.016   4.657   3.366 -3.1317 -0.6212 -1.3634
 8756SOL    HW237731   1.130   4.701   3.275 -1.0767 -3.7884  0.0061
 8757SOL     OW37732   0.934   3.295   3.432 -0.0484  0.4438  0.4846
 8757SOL    HW137733   0.926   3.239   3.354  0.8257  0.1850  0.5831
 8757SOL    HW237734   1.025   3.323   3.426  0.0387  0.1453  0.3643
 8758SOL     OW37735   0.443   3.188  13.451 -0.0369 -0.2163  0.9389
 8758SOL    HW137736   0.483   3.118  13.399 -2.0266 -0.0320 -0.8179
 8758SOL    HW237737   0.392   3.230  13.381  0.1759 -1.8584 -0.2166
 8759SOL     OW37738   0.814   3.058  11.458 -0.2103 -0.2848 -0.2002
 8759SOL    HW137739   0.848   3.136  11.414 -0.6303 -0.6221 -1.1325
 8759SOL    HW237740   0.782   3.091  11.541  1.8786  0.1043  0.4536
 8760SOL     OW37741   2.260   4.254   3.641 -0.4546  0.3564 -0.2451
 8760SOL    HW137742   2.247   4.160   3.654 -1.1248  0.2924 -1.4519
 8760SOL    HW237743   2.174   4.288   3.666 -1.6711 -1.8941 -1.3662
 8761SOL     OW37744   0.914   4.334   3.085 -0.2789  0.3324 -0.3564
 8761SOL    HW137745   0.835   4.324   3.137 -0.5512 -0.7695 -0.9959
 8761SOL    HW237746   0.904   4.420   3.044 -0.3318  0.8636  0.7720
 8762SOL     OW37747   2.217   0.433   4.123  0.1124 -0.1367 -0.5731
 8762SOL    HW137748   2.183   0.508   4.075  1.3781  1.6821  1.4003
 8762SOL    HW237749   2.209   0.371   4.050 -3.1721 -0.7373  0.3100
 8763SOL     OW37750   0.658   3.625  10.293 -0.8448 -0.1323 -0.9181
 8763SOL    HW137751   0.680   3.711  10.328 -1.3574 -0.5807  0.5206
 8763SOL    HW237752   0.725   3.615  10.226  0.9003  3.3960  0.3264
 8764SOL     OW37753   1.671   0.887   5.054  0.1363 -0.0662 -0.0115
 8764SOL    HW137754   1.684   0.960   5.115  0.3553 -0.1242  0.0130
 8764SOL    HW237755   1.761   0.878   5.022  0.8919 -0.8472  2.3382
 8765SOL     OW37756   1.809   4.358   2.525 -0.6138  0.9448  0.1681
 8765SOL    HW137757   1.727   4.386   2.484 -1.9486 -0.9257  1.5399
 8765SOL    HW237758   1.852   4.333   2.443  0.3763 -3.3793  2.0341
 8766SOL     OW37759   2.516   2.346   5.513 -0.2411 -0.0141  0.9201
 8766SOL    HW137760   2.429   2.379   5.537 -1.0806 -1.5376 -0.0400
 8766SOL    HW237761   2.542   2.347   5.605  2.6866  0.9709  0.0640
 8767SOL     OW37762   4.350   0.400   0.489 -0.3086 -0.7339  0.1061
 8767SOL    HW137763   4.385   0.488   0.508 -0.0166 -0.6556 -0.7754
 8767SOL    HW237764   4.323   0.366   0.573 -0.7481  0.3542  0.4052
 8768SOL     OW37765   3.831   0.455   5.815 -0.0046 -0.4478 -0.0006
 8768SOL    HW137766   3.855   0.547   5.827 -2.5218  0.2749 -0.4840
 8768SOL    HW237767   3.741   0.459   5.848  0.9151  2.4025  2.1615
 8769SOL     OW37768   3.527   0.842   9.697 -0.9303  0.4348  0.6964
 8769SOL    HW137769   3.557   0.900   9.767  1.5070 -1.1412  0.9408
 8769SOL    HW237770   3.558   0.885   9.618  0.7526 -1.8460  0.1032
 8770SOL     OW37771   0.995   0.193   7.321  0.1910 -0.5601 -0.0552
 8770SOL    HW137772   0.913   0.231   7.290  0.4291 -0.0432 -0.0552
 8770SOL    HW237773   0.988   0.237   7.405 -0.8719 -1.5591  0.3697
 8771SOL     OW37774   2.428   2.845   4.626  0.0430 -0.0697 -0.3210
 8771SOL    HW137775   2.369   2.786   4.578 -1.3783  1.7967 -0.8719
 8771SOL    HW237776   2.472   2.791   4.692  1.0202  0.0227 -0.8987
 8772SOL     OW37777   3.261   0.106   9.212 -0.0582  0.1196 -0.5115
 8772SOL    HW137778   3.222   0.022   9.187  1.8489 -0.5725 -1.1523
 8772SOL    HW237779   3.216   0.112   9.296 -0.5685 -1.2729 -0.6842
 8773SOL     OW37780   1.852   2.121   5.745 -0.0802  0.0870  0.0204
 8773SOL    HW137781   1.770   2.073   5.731 -1.0923  1.9219 -0.3298
 8773SOL    HW237782   1.854   2.125   5.840  0.3207  1.5459 -0.0576
 8774SOL     OW37783   2.140   4.602   4.158 -0.3085 -0.0423 -0.1200
 8774SOL    HW137784   2.166   4.510   4.164  0.1694  0.0957 -0.0576
 8774SOL    HW237785   2.190   4.617   4.238  2.2103  1.0531 -1.8820
 8775SOL     OW37786   0.215   0.646   2.810  0.0266 -0.0265  0.3085
 8775SOL    HW137787   0.143   0.654   2.873  0.4572  1.5244  0.6168
 8775SOL    HW237788   0.261   0.565   2.831 -0.9949 -0.7294 -0.2180
 8776SOL     OW37789   3.964   0.329   1.355 -0.3404  0.2111 -0.0803
 8776SOL    HW137790   4.045   0.369   1.388 -0.1838 -1.3547  1.3939
 8776SOL    HW237791   3.972   0.249   1.405  1.8051 -0.5904 -1.6868
 8777SOL     OW37792   1.961   1.742  13.066 -0.2292  0.0664 -0.3614
 8777SOL    HW137793   1.894   1.763  13.131 -2.1067 -0.9662 -1.9904
 8777SOL    HW237794   2.017   1.815  13.092 -1.1572 -0.0099  1.9090
 8778SOL     OW37795   2.865   4.015   4.733  0.1396  0.0493 -0.2541
 8778SOL    HW137796   2.836   3.998   4.823 -0.1430  0.4653 -0.2690
 8778SOL    HW237797   2.958   3.998   4.740  0.1836  0.1440 -0.6476
 8779SOL     OW37798   0.171   4.170   2.825 -0.0551 -0.0578 -0.6023
 8779SOL    HW137799   0.146   4.262   2.819  3.4513  1.0728  2.6468
 8779SOL    HW237800   0.210   4.174   2.912 -0.5576 -0.2618 -0.3706
 8780SOL     OW37801   4.361   1.405   0.149  0.4415  0.1328  0.2362
 8780SOL    HW137802   4.283   1.381   0.098  0.2466  1.5973 -0.1735
 8780SOL    HW237803   4.348   1.341   0.218  1.6726 -0.4871 -0.1182
 8781SOL     OW37804   0.366   0.418  12.677  0.0981 -0.3933  0.1103
 8781SOL    HW137805   0.304   0.377  12.738  1.5179 -0.9426  1.1667
 8781SOL    HW237806   0.397   0.350  12.617 -0.9508 -0.8840  0.1275
 8782SOL     OW37807   3.208   0.717  12.018  0.2112  0.1539 -0.3812
 8782SOL    HW137808   3.255   0.636  12.036  0.1050  0.0664 -0.5008
 8782SOL    HW237809   3.199   0.748  12.108  0.1077  0.6666 -0.5676
 8783SOL     OW37810   4.524   0.190   2.139  0.6718  0.3928  0.3402
 8783SOL    HW137811   4.494   0.141   2.062  0.0575 -1.7602  1.9661
 8783SOL    HW237812   4.446   0.183   2.193 -1.9261  1.4681 -3.2826
 8784SOL     OW37813   0.636   3.174   5.154  0.6494  1.0044 -0.2524
 8784SOL    HW137814   0.607   3.233   5.084 -1.1006  0.8877  0.3581
 8784SOL    HW237815   0.638   3.093   5.104 -1.8323  0.7043  0.0985
 8785SOL     OW37816   2.459   3.591  14.975  0.0449 -0.3794  0.1826
 8785SOL    HW137817   2.393   3.598  14.906  0.5326  0.9319 -0.1537
 8785SOL    HW237818   2.472   3.497  14.983  1.4703 -0.1749  0.2741
 8786SOL     OW37819   0.192   0.773   5.968  0.1906 -0.4297  0.4116
 8786SOL    HW137820   0.177   0.867   5.971  0.5705 -0.3776  0.5698
 8786SOL    HW237821   0.147   0.742   6.047 -2.3117  1.9370 -0.0586
 8787SOL     OW37822   3.915   1.856   0.237 -0.1811 -0.1286  0.1191
 8787SOL    HW137823   3.909   1.798   0.161  1.8438 -1.2286  0.7845
 8787SOL    HW237824   3.991   1.820   0.283 -0.6518 -1.5971 -0.2463
 8788SOL     OW37825   1.897   4.420   5.479  0.2565  0.0975  0.2555
 8788SOL    HW137826   1.804   4.430   5.458 -0.1881 -2.5909  0.9754
 8788SOL    HW237827   1.942   4.434   5.395 -0.2954 -2.4113 -0.4542
 8789SOL     OW37828   4.466   4.042   9.962  0.1214  0.2198 -0.3680
 8789SOL    HW137829   4.496   3.976   9.900  0.1598 -0.2371  0.1359
 8789SOL    HW237830   4.497   4.123   9.921 -1.2316 -0.1268 -2.0554
 8790SOL     OW37831   2.972   1.045   2.576  0.5561 -0.0043  0.9848
 8790SOL    HW137832   3.058   1.004   2.569 -0.6161 -1.8890 -2.5863
 8790SOL    HW237833   2.925   0.992   2.511  2.6094  0.6077 -1.0003
 8791SOL     OW37834   0.339   4.500   3.289  0.7894 -0.0286  0.2786
 8791SOL    HW137835   0.382   4.559   3.350  0.6631 -1.9524  2.2135
 8791SOL    HW237836   0.314   4.423   3.340 -0.5432  1.8079  2.3559
 8792SOL     OW37837   4.279   1.675   1.891  0.8233  0.3396 -0.2321
 8792SOL    HW137838   4.350   1.611   1.882 -1.7560 -2.3868 -0.8920
 8792SOL    HW237839   4.332   1.751   1.916  0.0991 -0.3222  3.2897
 8793SOL     OW37840   0.278   2.535   3.923 -0.0494  0.3388  0.1568
 8793SOL    HW137841   0.334   2.467   3.961 -1.4739 -0.7675  0.3031
 8793SOL    HW237842   0.225   2.559   3.999 -3.1888 -4.5271 -0.4918
 8794SOL     OW37843   3.193   0.994  14.146  0.4182  0.1618  0.5392
 8794SOL    HW137844   3.147   1.004  14.063  0.7293 -0.7088  0.2601
 8794SOL    HW237845   3.270   0.942  14.121 -0.5484 -0.4063 -1.2308
 8795SOL     OW37846   0.742   1.469  15.720  0.5373 -0.0707  0.1545
 8795SOL    HW137847   0.649   1.490  15.721  0.6065  0.2560 -0.3097
 8795SOL    HW237848   0.761   1.422  15.801  2.3481 -0.4915 -0.5181
 8796SOL     OW37849   1.349   2.933   2.610 -0.2758 -0.1483  0.0468
 8796SOL    HW137850   1.325   3.000   2.546 -0.0921  0.6371  0.7966
 8796SOL    HW237851   1.268   2.928   2.660 -0.6867  1.6504 -0.4555
 8797SOL     OW37852   4.706   0.314   1.677  0.2608 -0.0116  0.0374
 8797SOL    HW137853   0.037   0.233   1.675  0.8331  0.3393  0.7788
 8797SOL    HW237854   0.056   0.377   1.692  0.3575 -0.4966  1.5418
 8798SOL     OW37855   4.010   1.815   6.015 -0.6403 -0.4238 -0.1203
 8798SOL    HW137856   3.947   1.882   6.041  0.4496  0.1427  1.0952
 8798SOL    HW237857   4.086   1.848   6.063 -0.4300  0.0324 -0.7686
 8799SOL     OW37858   1.430   4.651   7.338 -0.5685  0.3097  0.2034
 8799SOL    HW137859   1.469   4.695   7.263 -1.7152  0.3354 -0.3748
 8799SOL    HW237860   1.341   4.683   7.329 -0.5580 -0.3055 -2.0916
 8800SOL     OW37861   2.168   4.340   0.048  0.5300 -1.1122 -0.1236
 8800SOL    HW137862   2.244   4.367  17.682  0.0765  3.4297  1.6224
 8800SOL    HW237863   2.147   4.424   0.088 -0.3929 -0.9686 -0.8901
 8801SOL     OW37864   4.121   2.604   7.127  0.5167 -0.8981 -0.3870
 8801SOL    HW137865   4.086   2.609   7.216  1.1408 -3.2711 -0.0023
 8801SOL    HW237866   4.057   2.657   7.080  1.4543 -0.0758 -0.7597
 8802SOL     OW37867   0.848   3.991  11.973 -0.7133  0.5653 -0.0119
 8802SOL    HW137868   0.799   4.072  11.957 -0.8105  0.9392  2.2456
 8802SOL    HW237869   0.893   4.012  12.055 -1.5595 -1.8326  1.0537
 8803SOL     OW37870   3.147   3.975   4.752 -0.4394  0.3378  0.1835
 8803SOL    HW137871   3.130   3.935   4.838  1.5093  0.2008  0.4996
 8803SOL    HW237872   3.226   4.027   4.768 -1.5338  2.2722 -0.6820
 8804SOL     OW37873   2.069   1.525   7.699 -0.1982  0.3808 -0.1205
 8804SOL    HW137874   2.003   1.565   7.643 -1.4572 -1.3717  0.1181
 8804SOL    HW237875   2.066   1.435   7.667  0.5855 -0.2439  1.5280
 8805SOL     OW37876   1.452   3.822   2.886 -0.3138  0.1232  0.1763
 8805SOL    HW137877   1.538   3.814   2.846  0.1545 -1.3314  1.4729
 8805SOL    HW237878   1.474   3.890   2.949  0.0223  0.9855 -0.8902
 8806SOL     OW37879   2.159   1.607   3.231  0.1220  0.2302 -0.1150
 8806SOL    HW137880   2.244   1.602   3.188  0.2578  3.0336 -0.1412
 8806SOL    HW237881   2.187   1.642   3.316 -3.2672 -0.1038  1.1448
 8807SOL     OW37882   1.768   3.522   0.062  0.0753  0.2117  0.5738
 8807SOL    HW137883   1.816   3.459   0.010  3.0650  4.5836 -1.8902
 8807SOL    HW237884   1.702   3.460   0.094 -0.4659  0.9938  0.9916
 8808SOL     OW37885   0.912   2.553   9.637  0.4609 -0.4092  0.4562
 8808SOL    HW137886   0.850   2.510   9.580  0.4686 -0.2942  0.3612
 8808SOL    HW237887   0.980   2.486   9.650  1.0507  0.0791 -0.0795
 8809SOL     OW37888   4.365   3.367   9.336 -0.1229 -0.6198 -0.3869
 8809SOL    HW137889   4.348   3.432   9.268 -2.1280 -3.1936 -2.3195
 8809SOL    HW237890   4.394   3.429   9.403  1.1016 -3.0642  1.3841
 8810SOL     OW37891   3.952   3.442   7.692  0.1189  0.1210 -0.2188
 8810SOL    HW137892   3.929   3.366   7.637  0.4995  0.9007 -1.4483
 8810SOL    HW237893   3.950   3.399   7.777  0.3891 -1.2708 -0.9053
 8811SOL     OW37894   0.597   0.187  10.237  0.7049 -0.2955 -0.2576
 8811SOL    HW137895   0.683   0.224  10.217 -0.4632  2.3876 -0.4061
 8811SOL    HW237896   0.540   0.253  10.196  0.4112 -0.0477  0.5350
 8812SOL     OW37897   2.582   4.417   4.071  0.0625  0.0559 -0.2168
 8812SOL    HW137898   2.517   4.357   4.033  1.9391 -1.4422 -1.0736
 8812SOL    HW237899   2.548   4.495   4.026 -1.3764 -0.4526 -0.0309
 8813SOL     OW37900   4.178   1.831   5.786  0.2613 -0.0829 -0.0238
 8813SOL    HW137901   4.119   1.797   5.853 -1.1844  1.2422 -0.6193
 8813SOL    HW237902   4.118   1.885   5.734 -0.2502  0.1060  0.7743
 8814SOL     OW37903   3.907   3.954   6.727  0.4622 -0.2004  0.3767
 8814SOL    HW137904   3.997   3.961   6.695 -0.2647 -0.6619 -1.7895
 8814SOL    HW237905   3.912   3.991   6.815  0.7797  0.2484  0.1707
 8815SOL     OW37906   2.796   0.899  11.799  0.0306 -1.1317 -0.0864
 8815SOL    HW137907   2.827   0.831  11.740 -0.8566 -1.0815 -0.6168
 8815SOL    HW237908   2.707   0.871  11.820 -0.7285  0.3000 -1.4287
 8816SOL     OW37909   2.526   3.380   0.729  0.0627 -0.0332  0.0802
 8816SOL    HW137910   2.547   3.472   0.712  0.8867  0.0351  1.5112
 8816SOL    HW237911   2.453   3.377   0.667  0.2175  1.1728 -0.1525
 8817SOL     OW37912   2.415   4.492   6.939 -0.0072  0.0744 -0.1648
 8817SOL    HW137913   2.333   4.455   6.972 -0.1529 -0.4296 -1.0873
 8817SOL    HW237914   2.400   4.475   6.846 -1.1060  0.7572 -0.1166
 8818SOL     OW37915   1.864   4.254  13.483  0.4654  0.5640 -0.0213
 8818SOL    HW137916   1.916   4.332  13.465  0.0780  1.0926  1.1806
 8818SOL    HW237917   1.794   4.290  13.536 -0.9592  0.1208 -1.5817
 8819SOL     OW37918   4.014   1.557   7.391  0.3081  0.4079  0.0724
 8819SOL    HW137919   4.106   1.533   7.406  0.1844 -0.8331 -1.1593
 8819SOL    HW237920   3.971   1.559   7.477  1.8040 -1.1147  0.8684
 8820SOL     OW37921   3.913   0.277  15.684 -0.0534  0.1374 -0.2088
 8820SOL    HW137922   3.956   0.362  15.676 -0.3066  0.2492 -0.3854
 8820SOL    HW237923   3.826   0.310  15.707  0.6483  0.7354  1.6119
 8821SOL     OW37924   3.903   3.804   7.389 -0.2816 -0.0589 -0.3550
 8821SOL    HW137925   3.883   3.833   7.478  0.1935 -0.9606  0.0438
 8821SOL    HW237926   3.846   3.728   7.376  0.0235 -0.3703  0.0971
 8822SOL     OW37927   0.560   1.702   6.363 -0.0127  0.7478  0.4680
 8822SOL    HW137928   0.565   1.679   6.455  1.6704  0.8086  0.4020
 8822SOL    HW237929   0.607   1.784   6.349  1.0647 -0.2362 -1.7889
 8823SOL     OW37930   2.211   1.901   3.033  0.0627  0.8524 -0.3150
 8823SOL    HW137931   2.256   1.817   3.041 -0.6744  0.4828 -0.0337
 8823SOL    HW237932   2.155   1.885   2.957  1.4192 -0.8355 -0.9346
 8824SOL     OW37933   3.792   2.057  15.477  0.5100 -0.2030  0.5524
 8824SOL    HW137934   3.790   2.099  15.391  2.0543 -1.5754 -0.1410
 8824SOL    HW237935   3.714   2.085  15.524 -0.0006 -2.6164  1.1314
 8825SOL     OW37936   2.616   2.114   3.216  0.0789 -0.6469 -0.8376
 8825SOL    HW137937   2.605   2.024   3.186 -0.1340 -0.9900  0.2819
 8825SOL    HW237938   2.547   2.161   3.169  0.5385  2.7976  1.9044
 8826SOL     OW37939   0.422   0.834   3.320 -0.0239 -1.2281 -0.0747
 8826SOL    HW137940   0.392   0.828   3.229  0.0204 -0.6469 -0.1258
 8826SOL    HW237941   0.511   0.867   3.312 -0.5897  0.5200  0.9766
 8827SOL     OW37942   4.003   2.378   8.526  0.3590  0.2146 -0.0377
 8827SOL    HW137943   4.031   2.452   8.471 -0.9896 -2.0274 -3.6944
 8827SOL    HW237944   4.067   2.392   8.596  0.5591  0.4071 -0.2562
 8828SOL     OW37945   1.769   3.196  16.741  0.7993 -0.4035  0.0686
 8828SOL    HW137946   1.762   3.288  16.769  1.1258 -0.1109 -0.7986
 8828SOL    HW237947   1.833   3.151  16.796  1.5121 -0.1054 -0.5015
 8829SOL     OW37948   2.720   1.625   8.506  0.3437 -0.2750  0.1490
 8829SOL    HW137949   2.688   1.571   8.434 -0.2810  0.6426 -0.2620
 8829SOL    HW237950   2.746   1.704   8.459 -1.5226 -0.0478 -0.4759
 8830SOL     OW37951   0.763   3.928   4.032 -0.0992  0.7355 -0.0886
 8830SOL    HW137952   0.751   4.014   3.992 -2.5011 -0.8521 -2.7531
 8830SOL    HW237953   0.828   3.938   4.102  2.3368  0.4285 -2.3012
 8831SOL     OW37954   3.636   1.266   1.235  1.0370 -0.3390  0.2581
 8831SOL    HW137955   3.551   1.257   1.279 -0.1653 -0.5094 -2.0634
 8831SOL    HW237956   3.603   1.238   1.149 -0.1689 -0.3004  0.7075
 8832SOL     OW37957   1.893   3.609   2.218  0.6914 -0.0391  0.0671
 8832SOL    HW137958   1.831   3.680   2.233  0.6541  0.1020 -0.7371
 8832SOL    HW237959   1.828   3.538   2.220 -1.4384  1.9336  1.3165
 8833SOL     OW37960   0.622   0.017  14.437  0.2393  0.7655 -0.0607
 8833SOL    HW137961   0.668   0.055  14.362  0.3120 -0.0678 -0.4335
 8833SOL    HW237962   0.583   4.662  14.393 -0.1462 -0.0554  1.7121
 8834SOL     OW37963   4.169   4.057   2.542  0.2540  0.1320 -0.7212
 8834SOL    HW137964   4.230   4.131   2.548 -0.0436  0.3186  0.0325
 8834SOL    HW237965   4.144   4.045   2.451 -0.7207  0.2775 -0.4733
 8835SOL     OW37966   0.699   0.548   4.133  0.2793 -0.6347 -0.4391
 8835SOL    HW137967   0.642   0.568   4.058 -0.9132 -0.6053  0.4642
 8835SOL    HW237968   0.659   0.607   4.197 -0.7453  0.2681 -1.9071
 8836SOL     OW37969   3.792   0.516   7.915 -0.0912 -0.7676 -0.5015
 8836SOL    HW137970   3.713   0.482   7.958 -1.5877  2.8464 -0.3487
 8836SOL    HW237971   3.862   0.492   7.976 -1.3045 -0.6255  0.9622
 8837SOL     OW37972   2.972   2.722   2.637 -0.3563 -0.5047  0.2145
 8837SOL    HW137973   2.988   2.685   2.725  1.0885  0.1590  0.2361
 8837SOL    HW237974   3.008   2.810   2.638 -2.2458  0.2693 -1.1826
 8838SOL     OW37975   0.319   3.149   4.461  0.0004  0.0724  0.5593
 8838SOL    HW137976   0.345   3.241   4.448  1.2959 -0.1507  1.4897
 8838SOL    HW237977   0.228   3.149   4.489  0.1497  0.7108  1.0517
 8839SOL     OW37978   2.913   0.101  10.646  0.0168 -0.2397 -0.1804
 8839SOL    HW137979   2.906   0.006  10.646  1.0550 -0.3314  4.1852
 8839SOL    HW237980   3.007   0.092  10.656 -0.1807  0.9895  2.9128
 8840SOL     OW37981   1.418   2.172   7.886 -0.1394  0.2418  0.0224
 8840SOL    HW137982   1.437   2.221   7.807 -0.2766 -0.2837 -0.3389
 8840SOL    HW237983   1.500   2.134   7.917 -1.2003 -0.3924  2.0693
 8841SOL     OW37984   1.077   2.053  17.219  0.3666  0.5758  0.1468
 8841SOL    HW137985   1.099   2.138  17.182  1.9678  0.2853  0.4423
 8841SOL    HW237986   1.152   2.033  17.275  0.8313 -1.7810 -1.2986
 8842SOL     OW37987   0.775   0.415  11.523 -0.0551  0.5468 -0.4223
 8842SOL    HW137988   0.847   0.364  11.486  0.1508 -1.1168  2.2804
 8842SOL    HW237989   0.769   0.486  11.459  1.2203 -0.5552 -1.7777
 8843SOL     OW37990   1.348   0.520   1.053 -0.0065 -0.7738 -0.5954
 8843SOL    HW137991   1.270   0.502   0.999 -0.7134  0.7008 -0.0747
 8843SOL    HW237992   1.341   0.439   1.104 -1.4345  0.9953  2.0336
 8844SOL     OW37993   1.470   2.802   3.780 -0.2745 -0.2598 -0.3502
 8844SOL    HW137994   1.535   2.861   3.817 -0.3687 -0.4970  0.1822
 8844SOL    HW237995   1.499   2.713   3.800  0.9039 -0.1719 -1.6990
 8845SOL     OW37996   0.694   0.106   3.257 -0.4593 -0.9201  0.5297
 8845SOL    HW137997   0.606   0.128   3.286 -0.5901 -0.6116 -0.1028
 8845SOL    HW237998   0.688   0.017   3.222  0.5264  0.6529 -3.6986
 8846SOL     OW37999   1.839   1.731   4.831 -0.2204 -0.3157  0.0366
 8846SOL    HW138000   1.817   1.730   4.925 -0.4595 -1.5280 -0.0414
 8846SOL    HW238001   1.761   1.772   4.794 -0.5910 -0.3714  0.7589
 8847SOL     OW38002   2.978   0.560   3.067 -0.5433 -0.3663 -0.3148
 8847SOL    HW138003   3.014   0.550   2.979 -2.1497 -0.9224 -0.9024
 8847SOL    HW238004   3.028   0.503   3.125 -0.1914 -1.3438 -1.5814
 8848SOL     OW38005   0.570   2.229  12.540  0.1423  0.5385 -0.0070
 8848SOL    HW138006   0.498   2.279  12.502 -0.2160 -0.1091 -0.1744
 8848SOL    HW238007   0.531   2.204  12.623 -1.4619 -0.8197 -1.1674
 8849SOL     OW38008   2.043   1.264   2.942  0.1692  0.3075 -0.1383
 8849SOL    HW138009   1.952   1.266   2.971 -0.0261  0.4952 -0.7709
 8849SOL    HW238010   2.032   1.191   2.880  0.7630  0.4547 -0.4187
 8850SOL     OW38011   3.234   1.760  16.201  0.0898  0.1001 -0.2265
 8850SOL    HW138012   3.178   1.705  16.146 -1.9737 -0.7135  2.6820
 8850SOL    HW238013   3.209   1.724  16.286 -0.4650 -0.8419 -0.8042
 8851SOL     OW38014   4.280   0.180   3.807 -0.2215  0.4962  0.2181
 8851SOL    HW138015   4.297   0.270   3.837  1.1339  0.5171 -0.6066
 8851SOL    HW238016   4.209   0.193   3.745 -1.1297 -0.3984  1.0829
 8852SOL     OW38017   1.400   4.482   6.426  0.4314  0.4717  0.7187
 8852SOL    HW138018   1.434   4.514   6.510 -0.6648  0.6575  1.0956
 8852SOL    HW238019   1.471   4.506   6.366 -1.6556  0.6737 -1.6396
 8853SOL     OW38020   1.349   1.922  13.375  0.2662  0.5709  0.7782
 8853SOL    HW138021   1.401   1.868  13.434  0.4872 -1.0489 -0.9053
 8853SOL    HW238022   1.402   1.906  13.297  0.1092  1.2524  0.5252
 8854SOL     OW38023   0.840   2.004   4.655 -0.6491  0.0724 -0.4369
 8854SOL    HW138024   0.888   2.079   4.619 -1.8174  2.0455  2.0501
 8854SOL    HW238025   0.832   1.944   4.581 -1.7095  0.0066 -0.2703
 8855SOL     OW38026   3.429   1.604   4.134 -0.0044 -0.0267  0.2841
 8855SOL    HW138027   3.384   1.670   4.081 -1.2510  1.8356  3.5886
 8855SOL    HW238028   3.371   1.601   4.210 -0.6829 -1.6292 -0.3224
 8856SOL     OW38029   0.882   3.894   8.921 -0.0641  0.0008  0.0558
 8856SOL    HW138030   0.834   3.954   8.979  0.2753  0.6080 -0.2914
 8856SOL    HW238031   0.886   3.813   8.972  2.0933 -0.8806 -1.4915
 8857SOL     OW38032   0.948   2.759   1.013  0.0908 -0.3888 -0.3794
 8857SOL    HW138033   0.857   2.750   1.042  0.1676  0.5657  0.1558
 8857SOL    HW238034   0.983   2.797   1.094 -0.4474  2.5885 -1.5569
 8858SOL     OW38035   0.234   0.703  11.290  0.0548 -0.2284  0.0219
 8858SOL    HW138036   0.299   0.730  11.355  0.0076  1.2735 -0.5533
 8858SOL    HW238037   0.194   0.632  11.340 -1.0080  0.4679  0.1629
 8859SOL     OW38038   3.628   2.027   3.056  0.3286  0.0557  0.1532
 8859SOL    HW138039   3.581   1.981   3.126 -1.7346 -2.5606 -2.9809
 8859SOL    HW238040   3.567   2.029   2.983 -0.9617 -1.1824  1.2160
 8860SOL     OW38041   3.612   4.226   1.819  0.6499 -0.0011 -0.1613
 8860SOL    HW138042   3.563   4.295   1.775  2.0105  0.4417 -0.9765
 8860SOL    HW238043   3.560   4.214   1.898  1.4541  1.3216  0.5620
 8861SOL     OW38044   2.058   2.431   5.048  0.9404 -0.5097  0.2105
 8861SOL    HW138045   1.993   2.476   4.994  0.0232 -1.9416  0.1438
 8861SOL    HW238046   2.090   2.371   4.981 -0.2285  1.5738 -2.2426
 8862SOL     OW38047   0.134   3.205   7.140 -0.1540  0.3545  0.0428
 8862SOL    HW138048   0.107   3.218   7.230 -0.2658  0.3519  0.0088
 8862SOL    HW238049   0.099   3.287   7.106  2.8694  0.6056 -2.5061
 8863SOL     OW38050   0.190   0.138   9.030  0.5662  0.4326  0.6971
 8863SOL    HW138051   0.242   0.153   9.109 -0.2901  1.0401  1.1479
 8863SOL    HW238052   0.192   0.228   8.997  2.7097 -0.9006 -2.7974
 8864SOL     OW38053   3.578   0.922   3.803 -0.0480 -0.6447  0.1058
 8864SOL    HW138054   3.489   0.933   3.836 -0.9467  2.2609 -3.3555
 8864SOL    HW238055   3.617   0.944   3.888 -1.2892 -0.9741  0.7598
 8865SOL     OW38056   2.987   0.387   5.890 -0.0727 -0.0849  0.7057
 8865SOL    HW138057   2.971   0.302   5.930  1.6326 -1.2101 -0.9735
 8865SOL    HW238058   3.038   0.364   5.811 -0.9281  1.5503 -0.3272
 8866SOL     OW38059   2.728   4.224   6.555 -0.0181 -0.1104  0.8089
 8866SOL    HW138060   2.762   4.139   6.528 -1.1241 -0.6964  1.3002
 8866SOL    HW238061   2.757   4.238   6.645  0.4662  1.9621  0.3266
 8867SOL     OW38062   3.664   1.548  15.331  0.0130  0.3572  0.1212
 8867SOL    HW138063   3.737   1.586  15.283 -0.1238 -0.2995 -0.5911
 8867SOL    HW238064   3.708   1.520  15.411  0.0388  1.3629  0.4555
 8868SOL     OW38065   2.646   4.309   7.354  0.6533  0.2174  0.1504
 8868SOL    HW138066   2.641   4.240   7.287 -0.2099  1.3411 -0.9396
 8868SOL    HW238067   2.569   4.363   7.340  1.5851  1.2016 -1.1575
 8869SOL     OW38068   3.359   3.802  11.765 -0.5003 -0.0170  0.4528
 8869SOL    HW138069   3.444   3.789  11.722  0.3988 -1.4656  2.6940
 8869SOL    HW238070   3.356   3.898  11.765 -1.4330 -0.0492 -1.2239
 8870SOL     OW38071   0.416   2.383   5.954  0.2477  0.1599 -0.1938
 8870SOL    HW138072   0.340   2.429   5.918 -0.7760  0.3638  2.2270
 8870SOL    HW238073   0.472   2.460   5.965  0.8424 -0.4486  1.0405
 8871SOL     OW38074   4.446   0.007   2.534 -0.2772 -0.1993 -0.6264
 8871SOL    HW138075   4.477   0.008   2.625 -2.1263  1.7142 -0.0156
 8871SOL    HW238076   4.514   4.682   2.485  0.4280 -0.6048  0.7311
 8872SOL     OW38077   2.873   0.846  11.492  0.1513 -0.9192  0.0771
 8872SOL    HW138078   2.954   0.876  11.451 -1.3713  1.1569 -1.3933
 8872SOL    HW238079   2.902   0.774  11.549 -0.5942 -0.7852  0.6201
 8873SOL     OW38080   2.494   1.841   6.495  1.0539 -0.5342 -0.0822
 8873SOL    HW138081   2.432   1.787   6.543 -0.9118 -0.2517 -2.3090
 8873SOL    HW238082   2.447   1.924   6.500  4.4851  1.4071  0.2981
 8874SOL     OW38083   2.447   1.924  15.969  0.4151  0.0925 -0.4390
 8874SOL    HW138084   2.402   1.851  16.011  0.5372  0.0263 -0.4237
 8874SOL    HW238085   2.473   1.878  15.889 -0.2866  0.5995 -0.9619
 8875SOL     OW38086   1.918   4.037  12.548 -0.5302 -0.2595  0.2955
 8875SOL    HW138087   2.008   4.021  12.520  0.1056 -0.0274  2.1955
 8875SOL    HW238088   1.937   4.095  12.622  0.8945  1.8753 -1.7742
 8876SOL     OW38089   1.653   2.041   6.654 -0.6883 -0.0653 -0.2536
 8876SOL    HW138090   1.655   1.983   6.577 -0.0899 -0.0775 -0.2346
 8876SOL    HW238091   1.565   2.077   6.642 -1.0333 -1.5404 -2.3055
 8877SOL     OW38092   2.627   1.329   2.800 -0.5644 -0.1543  0.0106
 8877SOL    HW138093   2.555   1.335   2.863 -0.7670 -1.6217 -0.0701
 8877SOL    HW238094   2.694   1.389   2.833 -1.2826  0.3450  0.5595
 8878SOL     OW38095   2.137   1.391   3.944  0.0515 -0.2395 -0.2677
 8878SOL    HW138096   2.064   1.330   3.957 -0.7230  0.3002 -2.0651
 8878SOL    HW238097   2.099   1.472   3.975 -0.0175  0.3538 -1.9033
 8879SOL     OW38098   1.514   3.861   5.133  0.6002 -0.3013  0.3444
 8879SOL    HW138099   1.589   3.858   5.192  2.0572 -1.7852 -1.5996
 8879SOL    HW238100   1.539   3.802   5.062 -2.9785  0.5269 -1.6085
 8880SOL     OW38101   0.354   3.358   7.529 -0.6858  0.3531  0.1500
 8880SOL    HW138102   0.390   3.318   7.450 -2.4770  1.5171 -1.2571
 8880SOL    HW238103   0.413   3.431   7.547 -0.1411  0.3946 -1.8830
 8881SOL     OW38104   4.200   3.567   6.283  0.0361  0.2901 -0.4117
 8881SOL    HW138105   4.112   3.573   6.322 -0.3754 -1.7190 -1.0444
 8881SOL    HW238106   4.201   3.635   6.216  0.1710 -0.5395 -1.2375
 8882SOL     OW38107   1.557   0.677   2.941 -0.2491 -0.1609  0.0660
 8882SOL    HW138108   1.601   0.735   2.879  1.3337 -1.5586 -0.1164
 8882SOL    HW238109   1.494   0.738   2.980  0.4956  0.0630  0.9228
 8883SOL     OW38110   0.570   3.546   6.856  0.4121 -0.0067  0.0109
 8883SOL    HW138111   0.513   3.493   6.911  0.6670  1.2285  1.4421
 8883SOL    HW238112   0.640   3.581   6.911 -0.0110 -1.7992  1.7003
 8884SOL     OW38113   4.270   4.354   5.902  0.1299 -0.2047  0.2665
 8884SOL    HW138114   4.289   4.313   5.986 -0.1575  0.4073  0.6305
 8884SOL    HW238115   4.205   4.289   5.873 -0.0638  0.4855 -0.8202
 8885SOL     OW38116   3.032   2.035   5.538 -0.0095 -0.0426 -0.0733
 8885SOL    HW138117   3.111   1.982   5.530 -0.6518 -0.5040 -3.3757
 8885SOL    HW238118   2.991   1.995   5.616  0.7532  1.9330  1.3265
 8886SOL     OW38119   0.951   4.104  15.283 -0.2683 -0.4149 -0.4484
 8886SOL    HW138120   0.968   4.011  15.268 -1.5294 -0.5357 -1.1138
 8886SOL    HW238121   1.037   4.129  15.317 -1.1744 -1.6899  2.7973
 8887SOL     OW38122   0.713   3.288  12.146  0.8369 -0.3718  0.1037
 8887SOL    HW138123   0.729   3.194  12.154 -1.0497 -0.7821 -0.9185
 8887SOL    HW238124   0.651   3.281  12.073  0.3289  0.7415  0.4296
 8888SOL     OW38125   1.029   2.338   4.828 -0.5513  0.5282  0.2722
 8888SOL    HW138126   1.101   2.398   4.810  0.5086 -0.7349  0.3190
 8888SOL    HW238127   0.993   2.374   4.909 -1.1656  1.8743 -0.5957
 8889SOL     OW38128   3.555   2.921   8.907  0.0468  0.5145 -0.5282
 8889SOL    HW138129   3.588   3.001   8.948 -0.5699  0.0444  0.8696
 8889SOL    HW238130   3.635   2.899   8.861 -0.8081 -0.4869 -1.5303
 8890SOL     OW38131   2.155   3.897   7.021 -0.2377  0.1554  0.6101
 8890SOL    HW138132   2.169   3.837   7.094  0.1860 -0.8036 -0.2671
 8890SOL    HW238133   2.083   3.953   7.052  0.5000  0.0445  2.5808
 8891SOL     OW38134   2.771   3.458   7.205 -0.3718  0.1882  0.0951
 8891SOL    HW138135   2.703   3.476   7.270 -0.4034  0.3593  0.0141
 8891SOL    HW238136   2.734   3.391   7.147  0.0082 -0.4289  0.5686
 8892SOL     OW38137   2.709   1.816   1.604 -0.0269 -0.0518  0.3434
 8892SOL    HW138138   2.748   1.742   1.558  0.1095 -1.0017  1.9926
 8892SOL    HW238139   2.726   1.799   1.697  1.1201  3.1237  0.7278
 8893SOL     OW38140   0.206   2.792   0.348  0.1960  0.7173  0.8081
 8893SOL    HW138141   0.247   2.706   0.352  0.4286  0.7553 -0.8910
 8893SOL    HW238142   0.240   2.834   0.427 -0.6291 -0.4270  1.7556
 8894SOL     OW38143   3.910   4.513   1.847  0.5682 -1.2289  0.5681
 8894SOL    HW138144   3.908   4.609   1.851 -1.0294 -1.3248  2.4466
 8894SOL    HW238145   3.847   4.483   1.913  0.9519 -1.6757  0.7354
 8895SOL     OW38146   0.084   1.367   8.394 -0.3608 -0.0911  0.7511
 8895SOL    HW138147   0.056   1.276   8.403  1.7164 -0.4207  4.0866
 8895SOL    HW238148   0.072   1.405   8.481  1.5103 -0.2765  1.0999
 8896SOL     OW38149   4.171   3.324   5.776 -0.0268  0.1090  0.1559
 8896SOL    HW138150   4.188   3.263   5.703  1.1048 -0.1354  0.6242
 8896SOL    HW238151   4.253   3.372   5.771  1.0839 -1.7665  0.3061
 8897SOL     OW38152   3.420   0.539   2.592  0.0580  0.1591 -1.0521
 8897SOL    HW138153   3.412   0.540   2.687  2.1795 -1.0701 -0.8474
 8897SOL    HW238154   3.424   0.633   2.580 -1.6190  0.1778 -1.4562
 8898SOL     OW38155   3.749   4.112   6.576 -0.1567 -0.7323  0.2927
 8898SOL    HW138156   3.809   4.157   6.516 -0.9155 -0.5295 -0.3098
 8898SOL    HW238157   3.804   4.049   6.623  0.6488 -0.1808  0.0822
 8899SOL     OW38158   3.694   2.503   3.961 -0.5205 -0.1981  0.1058
 8899SOL    HW138159   3.634   2.446   3.912 -0.4627 -0.1448 -0.0291
 8899SOL    HW238160   3.775   2.491   3.911 -0.8726  0.6209 -0.6555
 8900SOL     OW38161   4.100   2.175  10.023  0.3646  0.3041 -0.2729
 8900SOL    HW138162   4.138   2.139  10.103  0.8756 -1.2258 -1.1963
 8900SOL    HW238163   4.017   2.213  10.053  0.4874 -0.1446  0.6329
 8901SOL     OW38164   1.790   0.474   8.681  0.3626 -0.0343  0.3745
 8901SOL    HW138165   1.869   0.527   8.669 -1.2632  2.1737 -0.6590
 8901SOL    HW238166   1.726   0.543   8.662  0.4942 -0.5780 -2.0456
 8902SOL     OW38167   4.566   0.175   7.270  0.5127  0.1687 -0.6008
 8902SOL    HW138168   4.492   0.177   7.210 -0.9593  2.4432  1.2771
 8902SOL    HW238169   4.593   0.264   7.246  2.7074  0.4105  2.7724
 8903SOL     OW38170   1.675   2.392   0.349 -0.4377  0.1086 -0.5206
 8903SOL    HW138171   1.747   2.335   0.376 -2.1122 -1.4636  0.6185
 8903SOL    HW238172   1.719   2.467   0.309  1.2590 -0.7903 -0.3350
 8904SOL     OW38173   4.178   4.121  10.305  0.4605  0.0600  0.3573
 8904SOL    HW138174   4.117   4.195  10.300 -0.0770 -0.4192 -0.2767
 8904SOL    HW238175   4.260   4.158  10.274 -0.5892  1.2824 -0.9587
 8905SOL     OW38176   1.981   1.710   9.552  0.2902  0.2990 -0.6367
 8905SOL    HW138177   1.895   1.669   9.561  0.2448  0.0744 -2.1006
 8905SOL    HW238178   2.040   1.636   9.555 -0.1605 -0.0807 -1.0359
 8906SOL     OW38179   1.558   1.521  12.257  0.0322 -0.0383  0.1391
 8906SOL    HW138180   1.567   1.543  12.164  0.1666 -2.4341 -0.4010
 8906SOL    HW238181   1.559   1.426  12.250  2.8340  0.0308 -0.6205
 8907SOL     OW38182   1.832   3.009   7.663  0.0213  0.3421  0.8862
 8907SOL    HW138183   1.753   2.958   7.646  1.5933 -1.1809 -1.8700
 8907SOL    HW238184   1.863   3.022   7.574 -0.0255  2.9934  1.2712
 8908SOL     OW38185   0.315   0.087   6.134  0.3585 -0.3105  0.4855
 8908SOL    HW138186   0.399   0.131   6.124  0.6589 -1.2579 -1.2134
 8908SOL    HW238187   0.275   0.113   6.217 -0.2203  0.0635  0.0820
 8909SOL     OW38188   0.324   4.001   8.857 -0.3806 -0.2231  0.0274
 8909SOL    HW138189   0.240   4.031   8.892  0.7174 -0.0048  2.4808
 8909SOL    HW238190   0.361   4.077   8.812 -1.5246  0.1270 -0.3313
 8910SOL     OW38191   4.303   0.638   7.223 -0.9893  0.2524 -0.3776
 8910SOL    HW138192   4.392   0.624   7.256 -0.6988  1.2826 -0.7172
 8910SOL    HW238193   4.253   0.569   7.266 -1.2229 -0.5934 -2.0258
 8911SOL     OW38194   0.428   1.359  17.629  0.4526 -0.4515 -0.0373
 8911SOL    HW138195   0.410   1.453  17.627  2.8805  0.0331  0.7738
 8911SOL    HW238196   0.425   1.336  17.536 -0.7956  1.2660 -0.4207
 8912SOL     OW38197   0.872   4.280   3.568  0.2774 -0.5388  0.2495
 8912SOL    HW138198   0.779   4.267   3.545 -0.2644 -1.8979  3.2418
 8912SOL    HW238199   0.915   4.202   3.533  0.2893  0.6204 -2.3351
 8913SOL     OW38200   0.907   0.433   2.055 -0.0739 -0.2957  0.3662
 8913SOL    HW138201   0.955   0.506   2.015 -0.8153 -0.1492 -0.2776
 8913SOL    HW238202   0.884   0.384   1.975  0.5135 -2.2882  1.4302
 8914SOL     OW38203   2.876   4.225   8.152  1.0193  0.0862  0.6496
 8914SOL    HW138204   2.908   4.314   8.141 -0.6634  0.4719 -1.0338
 8914SOL    HW238205   2.787   4.239   8.183  1.1965 -0.8526  1.5945
 8915SOL     OW38206   1.335   3.304   8.784 -0.0312 -0.1208 -0.0571
 8915SOL    HW138207   1.400   3.237   8.806  0.6413  0.2532 -0.9019
 8915SOL    HW238208   1.392   3.381   8.777  2.9593 -2.3926 -0.6925
 8916SOL     OW38209   1.939   4.229   8.098  0.2315 -0.2567  0.5146
 8916SOL    HW138210   1.980   4.145   8.118  1.2877  0.0594 -0.3376
 8916SOL    HW238211   2.021   4.278   8.111  0.3861 -0.2665 -0.4480
 8917SOL     OW38212   0.194   2.675   1.108 -0.1112 -0.5815 -0.0417
 8917SOL    HW138213   0.172   2.751   1.161  0.2826  0.0469 -0.7938
 8917SOL    HW238214   0.123   2.680   1.044 -0.5069 -0.7997  0.3734
 8918SOL     OW38215   3.775   1.967   6.409 -0.2051 -0.2998 -0.1564
 8918SOL    HW138216   3.727   1.901   6.360  1.0073 -2.2700  1.2998
 8918SOL    HW238217   3.857   1.962   6.361 -0.1317  1.5590 -0.2539
 8919SOL     OW38218   2.299   1.179   4.672 -0.2973 -0.6113  0.3693
 8919SOL    HW138219   2.228   1.128   4.711 -0.1846  0.1035  1.5199
 8919SOL    HW238220   2.361   1.178   4.745  1.1029  0.6135 -0.7900
 8920SOL     OW38221   2.929   3.550   2.737 -0.4991  0.4595  0.4890
 8920SOL    HW138222   2.940   3.473   2.793 -1.5822 -0.9080 -1.1831
 8920SOL    HW238223   3.008   3.560   2.685 -0.1207 -0.2450  0.9324
 8921SOL     OW38224   2.171   2.207   7.370 -0.4714 -0.1983 -0.6761
 8921SOL    HW138225   2.216   2.131   7.332 -0.2363 -0.4933  0.1930
 8921SOL    HW238226   2.120   2.168   7.441 -0.5468  0.0596 -0.5880
 8922SOL     OW38227   4.285   1.435   3.553 -0.0059  0.1071  0.6156
 8922SOL    HW138228   4.195   1.460   3.533 -0.1133 -0.5552  0.2487
 8922SOL    HW238229   4.331   1.483   3.483 -0.8149  1.6525  1.1590
 8923SOL     OW38230   2.270   2.812   8.563 -0.3668 -0.0315 -0.0977
 8923SOL    HW138231   2.339   2.854   8.511  0.6998 -1.2501  0.3223
 8923SOL    HW238232   2.312   2.803   8.648 -0.4467 -0.0238 -0.0575
 8924SOL     OW38233   3.724   2.944   4.119 -0.3817  0.2146 -0.3161
 8924SOL    HW138234   3.739   2.885   4.046  0.7384  0.9431 -0.6760
 8924SOL    HW238235   3.629   2.945   4.122 -0.4398  2.1966 -3.0510
 8925SOL     OW38236   4.474   2.140   9.606 -0.2230 -0.5988  0.6481
 8925SOL    HW138237   4.406   2.161   9.542  1.2362  0.5445 -0.5394
 8925SOL    HW238238   4.454   2.213   9.664 -0.8069 -0.8506  0.7640
 8926SOL     OW38239   2.758   1.916   2.894  0.1308  0.3208  0.0533
 8926SOL    HW138240   2.788   1.859   2.965 -1.5486 -0.8209 -0.1727
 8926SOL    HW238241   2.777   1.865   2.816 -2.9456 -1.4440  0.4729
 8927SOL     OW38242   1.071   0.773   7.425 -0.1733  0.5873  0.2117
 8927SOL    HW138243   1.025   0.857   7.418 -0.7209  0.2926  0.3119
 8927SOL    HW238244   1.015   0.718   7.479 -0.3229 -1.9719 -2.5296
 8928SOL     OW38245   1.053   0.261   4.051  0.4104 -0.0904 -0.1096
 8928SOL    HW138246   0.967   0.293   4.078 -0.1980 -1.1498 -0.8275
 8928SOL    HW238247   1.061   0.175   4.092  1.3453  1.1687  2.3924
 8929SOL     OW38248   3.283   1.753   1.380 -0.2787 -0.2268 -0.4742
 8929SOL    HW138249   3.188   1.769   1.376  0.1954  2.6358 -0.1130
 8929SOL    HW238250   3.279   1.666   1.420  2.2073 -0.0859  0.0428
 8930SOL     OW38251   1.399   3.641   5.957  0.2303  0.4764  0.1738
 8930SOL    HW138252   1.349   3.699   5.900 -1.8759  1.1276  2.7210
 8930SOL    HW238253   1.476   3.692   5.984  0.3044 -0.6910  2.1695
 8931SOL     OW38254   2.305   2.347   7.033  0.0663  0.2740 -0.3666
 8931SOL    HW138255   2.359   2.292   7.090 -1.7816 -0.4153  0.7262
 8931SOL    HW238256   2.213   2.325   7.044  0.6097 -1.2684  1.0628
 8932SOL     OW38257   1.375   0.114   6.422 -0.4096  0.1943  0.2249
 8932SOL    HW138258   1.304   0.177   6.431 -0.5991 -0.0130  0.1890
 8932SOL    HW238259   1.330   0.031   6.437 -1.4878  0.5387 -1.0964
 8933SOL     OW38260   1.527   1.040   0.424  0.3631 -0.6571 -0.0525
 8933SOL    HW138261   1.508   0.948   0.438 -1.4990 -0.4349 -1.0463
 8933SOL    HW238262   1.595   1.058   0.489  3.0729 -1.0391 -2.8225
 8934SOL     OW38263   1.261   2.280   2.455 -0.3131  0.3191 -0.1610
 8934SOL    HW138264   1.312   2.360   2.468 -1.9153  1.4081 -0.4914
 8934SOL    HW238265   1.171   2.302   2.430 -0.8773 -0.4491  1.1709
 8935SOL     OW38266   2.938   3.695   9.148 -0.4797  0.5487  0.7286
 8935SOL    HW138267   2.862   3.674   9.094  0.9235 -2.7562  0.0313
 8935SOL    HW238268   2.973   3.769   9.099  2.6786  0.0354  2.1897
 8936SOL     OW38269   1.155   1.601  16.270  0.1598 -0.4103  0.2500
 8936SOL    HW138270   1.128   1.544  16.198 -0.6936 -1.6858  1.6005
 8936SOL    HW238271   1.069   1.617  16.308 -0.1785 -3.9025  0.9080
 8937SOL     OW38272   4.377   0.657  17.486  0.1019 -0.3212  0.0036
 8937SOL    HW138273   4.362   0.660  17.580  0.5044  0.2528  0.0468
 8937SOL    HW238274   4.452   0.599  17.495  0.2611 -0.0575  0.3784
 8938SOL     OW38275   0.495   3.086   8.611  0.4844 -0.6451 -0.1194
 8938SOL    HW138276   0.576   3.057   8.569 -1.7589 -4.7644 -1.6647
 8938SOL    HW238277   0.519   3.051   8.696  0.0396  0.0276  0.2841
 8939SOL     OW38278   0.455   2.970  11.607  0.1970 -0.5518  0.0581
 8939SOL    HW138279   0.488   3.038  11.548 -1.8250  0.7464  0.4200
 8939SOL    HW238280   0.511   2.990  11.681  2.5321  1.9974 -2.4130
 8940SOL     OW38281   2.092   1.802   4.030  0.3707  0.0363 -0.0637
 8940SOL    HW138282   2.007   1.831   4.063 -0.3465  0.8107 -2.6223
 8940SOL    HW238283   2.066   1.727   3.977 -0.2937  0.8518 -0.8812
 8941SOL     OW38284   2.403   0.918   6.373  0.6539  0.4454  0.2937
 8941SOL    HW138285   2.367   0.933   6.460  4.7231 -1.4939  2.3219
 8941SOL    HW238286   2.345   0.969   6.316  1.9455 -2.1798 -3.3651
 8942SOL     OW38287   3.278   2.522   6.647  0.4288  0.5250  0.1084
 8942SOL    HW138288   3.184   2.501   6.653  0.2962  0.9201 -0.6002
 8942SOL    HW238289   3.277   2.612   6.614 -1.4184  1.1255  1.7727
 8943SOL     OW38290   3.190   0.470  12.682  0.2740  0.0635  0.1109
 8943SOL    HW138291   3.198   0.450  12.589  2.8392 -2.2052  0.8040
 8943SOL    HW238292   3.114   0.529  12.680  0.4810  0.3086 -0.5002
 8944SOL     OW38293   3.683   3.732   7.557  0.1425 -0.1552 -0.1851
 8944SOL    HW138294   3.622   3.800   7.585  1.1797  0.1985  1.2163
 8944SOL    HW238295   3.640   3.691   7.481 -0.0701 -0.5213  0.1333
 8945SOL     OW38296   2.476   1.035   8.221  0.2331 -0.9405  0.4887
 8945SOL    HW138297   2.493   0.973   8.292  0.9073  0.9742  2.0003
 8945SOL    HW238298   2.529   0.994   8.152 -0.2699 -0.9158  0.0848
 8946SOL     OW38299   1.883   4.415   5.928 -0.4589  0.4016  0.1181
 8946SOL    HW138300   1.898   4.387   6.018 -1.1960 -2.4953 -0.6778
 8946SOL    HW238301   1.803   4.467   5.929  0.3947  1.7522 -1.4726
 8947SOL     OW38302   4.281   2.729   4.886  0.7975 -0.1671 -0.2278
 8947SOL    HW138303   4.272   2.824   4.886  2.9859  0.0479 -1.4887
 8947SOL    HW238304   4.270   2.714   4.792 -2.0506 -0.4619  0.1379
 8948SOL     OW38305   0.821   2.448   4.984  0.3740 -0.1502  0.3593
 8948SOL    HW138306   0.769   2.470   5.062  0.7882  1.0315  0.3009
 8948SOL    HW238307   0.831   2.537   4.950 -0.0769 -0.2456 -0.0166
 8949SOL     OW38308   0.627   4.704  11.646  0.8902 -0.0464 -0.1382
 8949SOL    HW138309   0.592   0.024  11.567 -0.0410  2.3971  1.5236
 8949SOL    HW238310   0.558   0.021  11.701 -1.3285 -4.6798  0.2627
 8950SOL     OW38311   4.018   4.379  15.441  0.0760 -0.5170  0.0790
 8950SOL    HW138312   4.018   4.329  15.359 -1.1397  2.1796 -1.5293
 8950SOL    HW238313   3.942   4.437  15.436  0.1319 -0.4656 -0.1540
 8951SOL     OW38314   4.473   4.106  16.661 -0.0413 -0.1282 -0.1006
 8951SOL    HW138315   4.552   4.134  16.707  0.3246 -1.6676  0.2240
 8951SOL    HW238316   4.474   4.158  16.581 -2.9361  2.1337  1.3281
 8952SOL     OW38317   4.006   3.982   6.191 -0.3534  0.0248 -0.8984
 8952SOL    HW138318   3.959   4.066   6.194 -3.2409 -1.6320  0.1892
 8952SOL    HW238319   4.021   3.966   6.284  1.5784  1.3850 -0.9721
 8953SOL     OW38320   3.491   3.206   1.740 -0.4376  0.5540 -0.6964
 8953SOL    HW138321   3.498   3.111   1.731 -0.7199  0.5319 -0.6682
 8953SOL    HW238322   3.408   3.221   1.695  0.7635  0.8601 -2.8303
 8954SOL     OW38323   4.702   4.379   8.658  0.1113 -0.3991  0.4416
 8954SOL    HW138324   4.669   4.290   8.669  1.9971 -0.8873  2.0575
 8954SOL    HW238325   4.681   4.408   8.747  2.0828  0.4246  0.6320
 8955SOL     OW38326   2.776   1.666  13.652  0.1805  0.0591 -0.2086
 8955SOL    HW138327   2.746   1.660  13.743  0.7467  0.2021 -0.0112
 8955SOL    HW238328   2.745   1.585  13.611  0.8448 -0.6578  0.7099
 8956SOL     OW38329   3.560   2.687   5.392  0.1907  0.2856  0.2055
 8956SOL    HW138330   3.608   2.765   5.419 -0.0047  0.3449  0.3765
 8956SOL    HW238331   3.573   2.698   5.298 -1.6693  1.5948  0.1207
 8957SOL     OW38332   3.007   3.651   7.092  0.2260  0.0668 -0.1331
 8957SOL    HW138333   2.949   3.583   7.127 -1.0636  0.1368 -2.0734
 8957SOL    HW238334   2.985   3.729   7.142 -1.0348 -0.8395  0.7248
 8958SOL     OW38335   4.386   0.967   7.157  0.7280  0.3955  0.7833
 8958SOL    HW138336   4.409   0.970   7.064 -0.1377  0.7617  0.5792
 8958SOL    HW238337   4.441   0.895   7.187  1.3817  0.3249 -0.5522
 8959SOL     OW38338   1.291   1.188   4.095  0.0220  0.2651  0.2542
 8959SOL    HW138339   1.250   1.131   4.029  1.2028  1.6986 -1.7152
 8959SOL    HW238340   1.361   1.126   4.116  1.0252  1.2244 -0.3021
 8960SOL     OW38341   4.009   0.136   3.753  0.5586 -0.0472 -0.2735
 8960SOL    HW138342   4.011   0.129   3.849 -0.5526  1.2994 -0.1588
 8960SOL    HW238343   3.920   0.105   3.739  1.3922 -2.4548 -0.1600
 8961SOL     OW38344   3.837   2.760   8.249 -0.3356  0.2523  0.0703
 8961SOL    HW138345   3.850   2.831   8.312 -0.4459  0.9730 -0.7321
 8961SOL    HW238346   3.886   2.792   8.173  0.1241 -1.6662 -0.4296
 8962SOL     OW38347   4.373   1.185   3.847  0.2409 -0.0571  0.8275
 8962SOL    HW138348   4.452   1.178   3.901  1.2610 -0.0386 -0.6726
 8962SOL    HW238349   4.343   1.273   3.868 -1.2137 -1.1425  3.2753
 8963SOL     OW38350   0.061   0.100   3.328  0.5129  0.0153 -0.1688
 8963SOL    HW138351   0.075   0.135   3.416 -1.0365 -1.1381  0.5269
 8963SOL    HW238352   4.709   0.038   3.332 -0.7278  1.4804  0.1986
 8964SOL     OW38353   1.493   0.590   7.883 -0.0318  0.0548  0.3023
 8964SOL    HW138354   1.570   0.611   7.935  1.8383 -2.2646 -1.5410
 8964SOL    HW238355   1.536   0.530   7.822 -2.8721 -1.1921 -0.4773
 8965SOL     OW38356   2.878   3.824   7.274  0.1500  0.2238 -0.5646
 8965SOL    HW138357   2.891   3.801   7.366 -2.5781 -0.6179 -0.3897
 8965SOL    HW238358   2.786   3.849   7.269 -0.6010 -1.8999  2.3373
 8966SOL     OW38359   1.182   3.649  15.266  0.3096  0.2905  0.2903
 8966SOL    HW138360   1.223   3.620  15.346 -0.4459 -1.2086  0.1351
 8966SOL    HW238361   1.265   3.667  15.221 -0.8051  2.8123 -0.8116
 8967SOL     OW38362   4.458   4.305   6.898 -0.0596 -0.3871  0.7237
 8967SOL    HW138363   4.390   4.252   6.857 -0.4044  0.9702 -0.4374
 8967SOL    HW238364   4.423   4.393   6.883 -1.2416 -0.6778  1.7475
 8968SOL     OW38365   0.591   2.888   7.219  0.3995 -0.2863  0.2267
 8968SOL    HW138366   0.634   2.804   7.238  1.6314 -0.2371 -2.4556
 8968SOL    HW238367   0.497   2.874   7.229  0.1028  0.0321 -2.2240
 8969SOL     OW38368   2.623   2.909   8.931  0.0529  0.3129 -0.5837
 8969SOL    HW138369   2.691   2.958   8.977  0.6961 -0.4066 -0.7821
 8969SOL    HW238370   2.654   2.819   8.938  1.1808  0.9052  2.0166
 8970SOL     OW38371   4.546   3.572   2.909  0.6092 -0.7201  0.0037
 8970SOL    HW138372   4.615   3.561   2.843  0.5052  0.9200 -0.3654
 8970SOL    HW238373   4.599   3.556   2.987  0.8581  0.1968  0.0192
 8971SOL     OW38374   3.762   0.602   1.597 -0.1378 -0.6981  0.2328
 8971SOL    HW138375   3.838   0.557   1.560  0.1555  0.1971 -0.2509
 8971SOL    HW238376   3.796   0.690   1.585 -0.8377 -0.5343 -0.5500
 8972SOL     OW38377   0.112   0.322   3.154  0.3569 -1.0432  0.2608
 8972SOL    HW138378   0.177   0.352   3.218 -2.9238  3.2870  1.5607
 8972SOL    HW238379   0.068   0.261   3.214 -0.8109  0.6044  1.0654
 8973SOL     OW38380   2.746   4.447   2.029  0.2268 -0.0062 -0.8058
 8973SOL    HW138381   2.662   4.431   1.987  0.1398 -0.3352 -0.5059
 8973SOL    HW238382   2.733   4.540   2.047 -0.9581 -0.5924  1.3150
 8974SOL     OW38383   3.680   2.104   8.019  0.2142 -0.0544 -0.5582
 8974SOL    HW138384   3.692   2.181   7.964 -2.8548  0.9989  0.2028
 8974SOL    HW238385   3.614   2.144   8.076  1.4025  1.6647 -0.4146
 8975SOL     OW38386   1.424   2.333  11.194  0.3771 -0.1822 -0.0002
 8975SOL    HW138387   1.435   2.275  11.269 -0.1566 -0.5774 -0.2248
 8975SOL    HW238388   1.437   2.413  11.246  1.1786  0.1790 -0.7564
 8976SOL     OW38389   1.842   4.337   3.121 -0.0246 -0.0119 -0.5595
 8976SOL    HW138390   1.875   4.426   3.135  0.3580 -0.3543  0.7828
 8976SOL    HW238391   1.918   4.283   3.144 -0.6250 -0.4392  0.4676
 8977SOL     OW38392   4.122   0.202   7.428 -0.7464 -0.3244 -0.5287
 8977SOL    HW138393   4.092   0.156   7.506 -0.3698 -0.4261 -0.4428
 8977SOL    HW238394   4.194   0.144   7.404  1.0695  1.5583  0.3082
 8978SOL     OW38395   1.620   1.669   6.489  0.3658  0.2910  0.0368
 8978SOL    HW138396   1.627   1.606   6.417 -1.7034 -2.0213  1.8271
 8978SOL    HW238397   1.525   1.661   6.500  0.5861 -1.3309  0.7679
 8979SOL     OW38398   4.176   2.232  15.641  0.6369 -0.2866  0.2179
 8979SOL    HW138399   4.170   2.261  15.732  0.3288 -0.0282  0.1167
 8979SOL    HW238400   4.219   2.310  15.606  2.0806 -0.5983  1.3068
 8980SOL     OW38401   4.637   0.072   9.438  0.3401  0.3055  0.0793
 8980SOL    HW138402   4.597   4.720   9.487 -1.0330  1.1468  0.1973
 8980SOL    HW238403   4.574   0.143   9.445  1.7574  1.7174 -1.7765
 8981SOL     OW38404   2.204   0.087  16.512 -0.5047 -0.0445 -1.8421
 8981SOL    HW138405   2.134   0.050  16.566  0.6280 -1.3549 -1.2635
 8981SOL    HW238406   2.185   0.180  16.522  0.5942 -0.0037 -0.0471
 8982SOL     OW38407   1.458   4.012   3.302  0.3023 -0.0435  0.1822
 8982SOL    HW138408   1.420   4.040   3.218  1.8186 -1.4172 -0.9655
 8982SOL    HW238409   1.516   4.087   3.319  2.1077 -1.5765  0.6939
 8983SOL     OW38410   2.045   1.992   8.760  0.4122  0.5705  0.4172
 8983SOL    HW138411   2.005   2.075   8.787 -1.8053  0.1178 -1.5177
 8983SOL    HW238412   1.965   1.940   8.766  0.9574 -0.5385 -2.0112
 8984SOL     OW38413   2.859   2.864   5.194 -0.1488 -0.0526 -0.6466
 8984SOL    HW138414   2.915   2.905   5.260  0.1848  1.1739 -1.6937
 8984SOL    HW238415   2.787   2.926   5.204  1.2735  1.6124 -0.7571
 8985SOL     OW38416   2.693   0.315   6.678 -0.6419  0.1273 -0.2343
 8985SOL    HW138417   2.739   0.318   6.595  1.3886  0.9700  0.9148
 8985SOL    HW238418   2.612   0.351   6.642 -0.2571  0.7446 -0.4710
 8986SOL     OW38419   4.044   4.355   7.095 -0.4154  0.4183  0.4602
 8986SOL    HW138420   4.057   4.368   7.189 -3.0660  1.5155  0.6609
 8986SOL    HW238421   3.956   4.390   7.082 -1.5015 -1.8615  1.7122
 8987SOL     OW38422   4.037   0.287   7.708 -0.3580  0.1457 -0.3862
 8987SOL    HW138423   3.945   0.286   7.682 -0.0240 -2.1027 -1.5205
 8987SOL    HW238424   4.035   0.363   7.766  0.5777 -0.1338  0.0080
 8988SOL     OW38425   1.319   3.945  11.731 -0.2518 -0.7064  0.3252
 8988SOL    HW138426   1.393   3.979  11.682  0.3037  0.3797  1.9250
 8988SOL    HW238427   1.306   4.010  11.800 -1.2299 -0.1347 -0.3985
 8989SOL     OW38428   3.053   2.567  13.291  0.1147 -0.5452  0.4640
 8989SOL    HW138429   3.092   2.486  13.325 -0.1437  0.1966  2.5182
 8989SOL    HW238430   2.971   2.568  13.339  0.4731 -1.0918  1.0865
 8990SOL     OW38431   1.680   3.554   6.406  0.0113  0.1020 -0.9706
 8990SOL    HW138432   1.618   3.483   6.419  0.7159 -0.4814 -0.7623
 8990SOL    HW238433   1.632   3.630   6.374  1.5827  1.8296  0.7433
 8991SOL     OW38434   4.251   0.680   5.364  0.3544  0.2578 -0.2997
 8991SOL    HW138435   4.192   0.673   5.439 -0.3242  1.5767 -0.6995
 8991SOL    HW238436   4.194   0.636   5.301  0.2756  0.5193 -0.4114
 8992SOL     OW38437   3.556   2.260  17.237 -0.2619  0.1066  0.6131
 8992SOL    HW138438   3.577   2.183  17.291 -0.1122 -1.1340 -1.2215
 8992SOL    HW238439   3.570   2.227  17.148 -2.5571  1.6047 -0.3057
 8993SOL     OW38440   2.072   3.506   3.304  0.0627  0.2887 -0.1865
 8993SOL    HW138441   2.006   3.559   3.260 -0.3189  0.1575  0.2218
 8993SOL    HW238442   2.148   3.563   3.312 -0.2174  0.4485  1.3878
 8994SOL     OW38443   2.801   1.989   6.964 -0.9781 -0.1913  0.0332
 8994SOL    HW138444   2.884   1.952   6.934 -1.4694 -0.7727 -0.6037
 8994SOL    HW238445   2.743   1.925   6.923 -0.7054 -0.8907  0.7293
 8995SOL     OW38446   3.821   3.135   0.172  0.1162 -0.0902 -0.1571
 8995SOL    HW138447   3.744   3.091   0.136 -0.0863  0.6556 -0.6428
 8995SOL    HW238448   3.873   3.155   0.095 -0.0410  1.5446  0.1567
 8996SOL     OW38449   4.558   4.629  11.799  0.5630 -0.3509  0.4232
 8996SOL    HW138450   4.583   4.541  11.771 -1.4416 -1.2698  1.5621
 8996SOL    HW238451   4.471   4.633  11.759 -0.0404  0.4023  1.8037
 8997SOL     OW38452   2.032   3.869   4.302  0.2701  0.1223  0.2218
 8997SOL    HW138453   1.945   3.890   4.336  1.5108  3.1525  1.5482
 8997SOL    HW238454   2.016   3.792   4.247 -0.6469 -0.3566  1.1624
 8998SOL     OW38455   4.080   3.607   8.626  0.3552 -0.0272  0.5450
 8998SOL    HW138456   3.993   3.618   8.587  1.0628 -1.6861 -1.4900
 8998SOL    HW238457   4.104   3.698   8.645  0.7760  0.0374 -0.3001
 8999SOL     OW38458   4.112   3.517   2.001 -0.2627 -0.1451  0.1327
 8999SOL    HW138459   4.141   3.529   1.910  0.3559 -0.5957  0.2784
 8999SOL    HW238460   4.131   3.424   2.009  1.1723  0.2507  1.2203
 9000SOL     OW38461   4.601   2.415  12.754  0.1540  0.3848  0.1236
 9000SOL    HW138462   4.617   2.354  12.682  2.5797  0.9872  0.1410
 9000SOL    HW238463   4.636   2.496  12.717  0.9765 -1.3875 -2.9342
 9001SOL     OW38464   4.453   3.697   4.226  0.1635  0.1870 -0.0111
 9001SOL    HW138465   4.368   3.732   4.199 -0.7859 -0.8835  1.5759
 9001SOL    HW238466   4.436   3.607   4.202 -2.7070  0.4801  0.9492
 9002SOL     OW38467   1.775   0.493   7.084 -0.1858  0.0468  0.2090
 9002SOL    HW138468   1.728   0.557   7.137  0.9773  1.7051 -0.7867
 9002SOL    HW238469   1.841   0.548   7.042 -0.0564 -2.0749 -2.3696
 9003SOL     OW38470   0.965   2.999   6.597  0.1091  0.5500 -0.9568
 9003SOL    HW138471   0.938   3.083   6.633  0.0359  0.2916 -0.4038
 9003SOL    HW238472   0.992   2.951   6.676 -0.5185  3.9839  1.3438
 9004SOL     OW38473   2.053   2.727   4.382 -0.1772  0.0105  0.4301
 9004SOL    HW138474   2.036   2.645   4.335 -2.9615  1.5991 -1.2979
 9004SOL    HW238475   2.130   2.757   4.333  1.2186 -1.3470  1.7862
 9005SOL     OW38476   0.453   1.454   2.147  0.0758  0.5911 -0.2569
 9005SOL    HW138477   0.438   1.525   2.084 -1.5247  0.2958 -0.1911
 9005SOL    HW238478   0.380   1.468   2.206 -0.9366 -0.2107 -1.3141
 9006SOL     OW38479   0.268   2.088   0.890 -0.5265  0.1835 -0.0235
 9006SOL    HW138480   0.230   2.159   0.942 -1.8082 -0.0316 -0.6791
 9006SOL    HW238481   0.343   2.133   0.851 -0.9799  1.2972  0.3852
 9007SOL     OW38482   3.219   0.184  12.564  0.1248 -0.2456 -0.0179
 9007SOL    HW138483   3.233   0.233  12.645  2.2595  2.8864 -2.3020
 9007SOL    HW238484   3.180   0.248  12.505 -1.2581 -0.6363  0.4759
 9008SOL     OW38485   4.118   2.666   6.147  0.4421  0.5533  0.0880
 9008SOL    HW138486   4.089   2.662   6.239 -1.0621  0.9161 -0.3626
 9008SOL    HW238487   4.165   2.584   6.139 -2.3148 -1.1116  0.9718
 9009SOL     OW38488   2.100   2.719   3.997 -0.1769  0.2340  0.3898
 9009SOL    HW138489   2.007   2.716   4.021 -0.5930  3.0862 -0.8433
 9009SOL    HW238490   2.122   2.627   3.981 -2.9432 -0.4791  0.7188
 9010SOL     OW38491   4.372   2.346   9.756  0.1446 -0.6262  0.3665
 9010SOL    HW138492   4.300   2.284   9.761  0.8068 -1.4461 -0.1860
 9010SOL    HW238493   4.324   2.421   9.721 -0.0691 -0.4595  1.0187
 9011SOL     OW38494   4.542   4.680  10.803 -0.1939 -0.1386 -0.2027
 9011SOL    HW138495   4.539   4.702  10.710 -0.1504  0.5804 -0.0309
 9011SOL    HW238496   4.452   4.654  10.823 -0.5128  1.4049  0.4125
 9012SOL     OW38497   4.449   3.278   5.983  0.1751  0.2114 -0.0096
 9012SOL    HW138498   4.407   3.327   5.913 -0.0528  0.6095  0.4049
 9012SOL    HW238499   4.540   3.302   5.965  0.7315 -2.9708 -1.4101
 9013SOL     OW38500   0.073   3.148   4.562  0.2053 -0.0744 -0.2348
 9013SOL    HW138501   0.014   3.203   4.614  1.3441  0.1373  0.8247
 9013SOL    HW238502   0.050   3.063   4.600 -2.1044  1.5131  1.9244
 9014SOL     OW38503   1.597   4.532   4.605 -0.1591 -0.4290 -0.2015
 9014SOL    HW138504   1.614   4.605   4.665  0.3032 -0.7777  0.0916
 9014SOL    HW238505   1.678   4.483   4.618  1.0932  1.2329 -1.6897
 9015SOL     OW38506   4.299   0.173   2.328  0.3545  0.5109  0.3473
 9015SOL    HW138507   4.248   0.106   2.283 -0.8487  2.4427 -1.1533
 9015SOL    HW238508   4.331   0.122   2.402 -0.0710 -0.1764  0.0679
 9016SOL     OW38509   3.751   4.543   3.174 -0.7583 -0.2073  0.6691
 9016SOL    HW138510   3.843   4.518   3.181 -0.9466 -0.7431  1.1588
 9016SOL    HW238511   3.708   4.460   3.156 -0.0940  0.0965 -2.3665
 9017SOL     OW38512   1.777   2.794  11.666 -0.1582 -0.2847  0.3518
 9017SOL    HW138513   1.700   2.780  11.611  1.5466 -0.2040 -2.0269
 9017SOL    HW238514   1.845   2.771  11.603 -1.2080 -1.7748 -0.2551
 9018SOL     OW38515   2.470   0.387   3.128  0.4939  0.4734  0.0464
 9018SOL    HW138516   2.389   0.436   3.143 -0.4367 -1.1656  0.4732
 9018SOL    HW238517   2.457   0.358   3.038  0.5295 -0.2217  0.2664
 9019SOL     OW38518   2.160   1.643   4.396  0.2156 -0.1679 -0.0478
 9019SOL    HW138519   2.195   1.691   4.471  0.3426  2.7322 -1.9593
 9019SOL    HW238520   2.207   1.679   4.321 -0.5719 -1.6602 -1.2724
 9020SOL     OW38521   1.906   0.764  16.467 -0.0717 -0.2932 -0.0196
 9020SOL    HW138522   2.001   0.777  16.467  0.1257 -1.7088 -1.6338
 9020SOL    HW238523   1.902   0.727  16.378 -1.7652  0.3111 -0.1933
 9021SOL     OW38524   4.153   3.678   7.265 -0.5560  0.2577 -0.1611
 9021SOL    HW138525   4.070   3.706   7.303 -0.1766  1.0371  0.0922
 9021SOL    HW238526   4.124   3.631   7.187 -1.4842 -1.8654  1.4659
 9022SOL     OW38527   1.612   2.443   7.769 -0.5780 -0.1645  0.3437
 9022SOL    HW138528   1.683   2.379   7.781 -1.3922 -1.5671 -2.2440
 9022SOL    HW238529   1.548   2.398   7.714  0.9104 -1.6668 -0.1764
 9023SOL     OW38530   0.233   4.384   9.376 -0.3301  0.1738 -0.1195
 9023SOL    HW138531   0.169   4.454   9.385  0.0472  0.8109 -2.4775
 9023SOL    HW238532   0.216   4.346   9.462  0.5505 -1.0374 -0.4706
 9024SOL     OW38533   2.391   1.649  17.395 -0.0509 -0.7320 -0.5176
 9024SOL    HW138534   2.361   1.560  17.378 -0.7180 -0.0759 -2.7432
 9024SOL    HW238535   2.483   1.631  17.415 -0.0432  3.1946  2.9489
 9025SOL     OW38536   3.401   0.002  12.473  0.1080  0.6364  0.1321
 9025SOL    HW138537   3.328   0.057  12.503 -1.0226 -1.6736  1.6903
 9025SOL    HW238538   3.471   0.057  12.508  1.9251 -0.7605 -1.3496
 9026SOL     OW38539   4.144   4.350  10.542  0.2925  0.6318  0.0275
 9026SOL    HW138540   4.197   4.303  10.477 -0.3970  2.7352 -2.0292
 9026SOL    HW238541   4.209   4.366  10.611 -0.4512 -0.6959  1.0389
 9027SOL     OW38542   0.254   1.033  10.129  0.0522  0.6915  0.1761
 9027SOL    HW138543   0.333   1.084  10.108 -0.1399  1.1499  0.5754
 9027SOL    HW238544   0.186   1.100  10.126 -2.2502 -1.5909  1.9683
 9028SOL     OW38545   4.633   3.917  13.714  0.0693  0.1812  0.0638
 9028SOL    HW138546   4.628   3.917  13.619 -1.4583  2.4018  0.1561
 9028SOL    HW238547   4.548   3.878  13.736  1.3194 -2.4201  0.3055
 9029SOL     OW38548   3.216   0.243   7.431 -0.0015  0.3110 -0.1654
 9029SOL    HW138549   3.292   0.298   7.450 -0.9090  0.8663  1.8446
 9029SOL    HW238550   3.149   0.306   7.457 -2.1824 -2.2084  0.2306
 9030SOL     OW38551   4.500   1.158  16.540  0.9160  0.4788 -0.2695
 9030SOL    HW138552   4.517   1.084  16.482 -1.8417  0.5258 -1.1024
 9030SOL    HW238553   4.592   1.183  16.551  0.5327  0.6645  2.4242
 9031SOL     OW38554   2.187   1.105   8.190  0.0073  0.2153 -0.1175
 9031SOL    HW138555   2.202   1.110   8.095 -2.0655 -2.1337 -0.5630
 9031SOL    HW238556   2.273   1.081   8.224 -0.5038  0.3348  1.2686
 9032SOL     OW38557   3.270   3.659   8.529 -0.2248 -0.4303 -0.0230
 9032SOL    HW138558   3.200   3.669   8.593  0.7384  0.3262  0.9153
 9032SOL    HW238559   3.282   3.754   8.517  0.5373 -0.7614 -1.9572
 9033SOL     OW38560   1.034   2.846   4.321 -0.4681  0.1595  0.8141
 9033SOL    HW138561   1.096   2.799   4.377  1.0170 -0.6721 -1.5291
 9033SOL    HW238562   1.077   2.834   4.236 -1.0262  1.0603  0.3987
 9034SOL     OW38563   3.804   2.247   9.550  0.0539  0.2423  0.6603
 9034SOL    HW138564   3.842   2.320   9.598  2.9087 -0.3139 -0.7639
 9034SOL    HW238565   3.826   2.175   9.609 -0.1528 -0.0822  0.3431
 9035SOL     OW38566   0.917   1.298   7.373  0.0584 -0.0922  0.5183
 9035SOL    HW138567   1.008   1.315   7.349 -0.1370 -2.3964 -1.8571
 9035SOL    HW238568   0.899   1.348   7.453 -2.6822 -0.0950 -0.1011
 9036SOL     OW38569   4.228   3.252   0.515 -0.0396 -0.0006  0.7562
 9036SOL    HW138570   4.191   3.194   0.581 -0.2121  1.1679  1.6770
 9036SOL    HW238571   4.299   3.194   0.486 -1.7057 -1.1401 -1.0298
 9037SOL     OW38572   3.772   0.453  16.579 -0.2613  0.3408  0.1760
 9037SOL    HW138573   3.807   0.456  16.490  0.2344  0.3396  0.3710
 9037SOL    HW238574   3.763   0.543  16.608  1.5739  0.8574 -0.8493
 9038SOL     OW38575   0.647   2.589  14.742  0.1711  0.1997 -0.1487
 9038SOL    HW138576   0.706   2.545  14.682 -0.4518 -0.6407 -0.1473
 9038SOL    HW238577   0.676   2.680  14.734 -1.5635  0.8255  0.5971
 9039SOL     OW38578   0.897   0.422  11.072 -0.1181 -0.8634  0.2759
 9039SOL    HW138579   0.913   0.503  11.023 -3.3815  0.3265  1.1614
 9039SOL    HW238580   0.941   0.357  11.017 -1.2170 -0.5921 -0.9437
 9040SOL     OW38581   4.115   3.547   2.778 -0.0736 -0.4537  0.2547
 9040SOL    HW138582   4.076   3.462   2.756  0.3400 -0.6990  0.4826
 9040SOL    HW238583   4.156   3.579   2.698  1.5559 -2.5172  0.2761
 9041SOL     OW38584   4.699   4.638   6.657  0.2233 -0.0268 -0.3766
 9041SOL    HW138585   0.024   4.586   6.722  0.7316 -1.2121 -1.6930
 9041SOL    HW238586   0.054   4.679   6.615  2.1434 -1.7367  1.4684
 9042SOL     OW38587   3.592   3.296  11.380 -0.2010  0.0074 -0.2460
 9042SOL    HW138588   3.673   3.252  11.406 -0.9411 -1.2531 -0.0860
 9042SOL    HW238589   3.527   3.239  11.422  0.6382  0.0796  1.1613
 9043SOL     OW38590   2.713   4.223   8.578 -0.0808  0.4814 -0.2611
 9043SOL    HW138591   2.661   4.142   8.579  1.2768 -0.3531  3.1249
 9043SOL    HW238592   2.646   4.283   8.546  0.1579  1.1811  0.5466
 9044SOL     OW38593   2.604   2.355  10.085  0.6299  0.4885 -0.0555
 9044SOL    HW138594   2.613   2.323  10.175  0.6786 -2.0359 -0.9648
 9044SOL    HW238595   2.687   2.398  10.063  0.9336 -0.4797 -0.8182
 9045SOL     OW38596   0.962   2.299   1.548 -0.2003 -0.8393 -0.3247
 9045SOL    HW138597   0.966   2.361   1.475  0.0078  0.2903  0.6594
 9045SOL    HW238598   0.868   2.307   1.568 -0.0370  0.2878 -0.0044
 9046SOL     OW38599   4.395   2.867   7.815  0.2969  0.6214 -0.2196
 9046SOL    HW138600   4.334   2.880   7.888 -0.7007 -0.2681 -0.8895
 9046SOL    HW238601   4.392   2.777   7.785 -0.3637  0.7373 -0.5025
 9047SOL     OW38602   1.980   1.226   7.673  0.6404  0.0552  0.0136
 9047SOL    HW138603   1.905   1.201   7.728  0.5146  0.3484 -0.0230
 9047SOL    HW238604   2.015   1.139   7.654 -1.5186 -0.0621 -3.4410
 9048SOL     OW38605   4.295   0.051  13.363 -0.4317 -0.2927  0.3022
 9048SOL    HW138606   4.350   0.121  13.398  0.3834 -0.5071 -0.5612
 9048SOL    HW238607   4.342   0.010  13.291  0.3398  0.0992  0.5792
 9049SOL     OW38608   0.364   1.585   3.740  0.3027 -0.1808 -0.5322
 9049SOL    HW138609   0.362   1.532   3.820 -0.5853 -0.0501 -0.4698
 9049SOL    HW238610   0.457   1.609   3.748 -0.3672  2.6511 -1.4669
 9050SOL     OW38611   2.463   0.642   8.722 -0.3390 -0.2947  0.7318
 9050SOL    HW138612   2.431   0.603   8.641 -0.6191  0.2899  0.5671
 9050SOL    HW238613   2.449   0.577   8.791  0.1314  1.3860  2.4092
 9051SOL     OW38614   0.429   2.758   2.422 -0.4258  0.7254  0.1586
 9051SOL    HW138615   0.399   2.780   2.334  0.3784 -0.4929 -0.4210
 9051SOL    HW238616   0.433   2.663   2.413 -0.9728  0.9070 -2.0559
 9052SOL     OW38617   0.274   0.422   3.369 -0.0632  0.3127 -0.1039
 9052SOL    HW138618   0.207   0.489   3.384 -0.6911 -0.9054  2.5445
 9052SOL    HW238619   0.318   0.476   3.303 -1.6929 -0.1856 -1.6142
 9053SOL     OW38620   1.675   3.352   3.957 -0.3566  0.0123  0.3630
 9053SOL    HW138621   1.608   3.351   4.026 -0.9238 -1.6735 -0.2276
 9053SOL    HW238622   1.675   3.257   3.944  1.3880  0.0734 -0.1100
 9054SOL     OW38623   1.075   3.260   8.939 -0.2163  0.2565 -0.1717
 9054SOL    HW138624   1.143   3.301   8.885 -1.1970 -1.1777 -2.5089
 9054SOL    HW238625   1.104   3.169   8.933 -1.5311 -0.1907  0.2357
 9055SOL     OW38626   1.000   0.185   1.943 -0.1362 -0.6064 -0.4202
 9055SOL    HW138627   0.969   0.240   1.871  0.2649  0.3500  0.1402
 9055SOL    HW238628   0.916   0.165   1.986 -0.7830  2.8774 -0.1224
 9056SOL     OW38629   0.726   0.516  15.520 -0.8322  0.7601  0.2095
 9056SOL    HW138630   0.763   0.430  15.537  0.4469  0.8657 -1.9887
 9056SOL    HW238631   0.735   0.555  15.607  1.7321 -2.7167  1.4858
 9057SOL     OW38632   2.551   4.457   7.733  0.2139  0.0966  0.3150
 9057SOL    HW138633   2.524   4.463   7.641  2.2752 -1.8022 -0.4173
 9057SOL    HW238634   2.636   4.416   7.717 -0.8108 -1.7289 -0.4557
 9058SOL     OW38635   3.632   1.417   7.097  0.3194  0.3015  0.5054
 9058SOL    HW138636   3.715   1.442   7.139  0.8797  0.0586 -0.4517
 9058SOL    HW238637   3.579   1.493   7.121  1.4672  0.9835  0.9042
 9059SOL     OW38638   4.185   0.754   3.535  0.7076  0.2578  0.0125
 9059SOL    HW138639   4.205   0.847   3.534 -1.8523  0.8088 -0.6188
 9059SOL    HW238640   4.264   0.722   3.578 -0.7601 -1.8026  1.1480
 9060SOL     OW38641   2.332   4.553   2.730 -0.3331 -0.4690  0.2617
 9060SOL    HW138642   2.293   4.489   2.671 -2.1638 -0.3822  1.4139
 9060SOL    HW238643   2.373   4.612   2.666 -0.8255  0.6280  0.9621
 9061SOL     OW38644   4.043   3.128   4.545  0.0603  0.5965 -0.1846
 9061SOL    HW138645   3.996   3.211   4.550  0.5690  0.7930  1.1212
 9061SOL    HW238646   4.133   3.157   4.532 -0.8337  4.1259  1.6181
 9062SOL     OW38647   0.447   2.720   9.585  0.1497 -0.4335  0.3669
 9062SOL    HW138648   0.474   2.783   9.652  0.0213 -0.1728  0.1753
 9062SOL    HW238649   0.464   2.773   9.507  0.0095 -0.1162  0.5470
 9063SOL     OW38650   4.604   2.946  15.054  0.0778 -0.5279  0.9161
 9063SOL    HW138651   4.511   2.934  15.034  0.4746 -0.4991 -0.8897
 9063SOL    HW238652   4.629   2.857  15.081 -1.6506 -1.2662  0.0846
 9064SOL     OW38653   4.243   2.487   3.953  0.2132 -0.0726 -0.5428
 9064SOL    HW138654   4.288   2.545   4.014 -1.1810 -0.0629  0.4879
 9064SOL    HW238655   4.252   2.527   3.867  1.3135 -0.1282 -0.4504
 9065SOL     OW38656   2.878   3.170   7.152 -0.3982 -0.2929  0.2504
 9065SOL    HW138657   2.843   3.224   7.081 -1.4261 -0.6263  0.4998
 9065SOL    HW238658   2.796   3.135   7.186 -0.6326  1.7266  1.7400
 9066SOL     OW38659   3.375   3.779  10.460  0.2429 -0.0451 -0.2120
 9066SOL    HW138660   3.401   3.695  10.498 -2.0901 -1.6850 -2.2900
 9066SOL    HW238661   3.291   3.762  10.417 -1.2027  1.5483  1.9990
 9067SOL     OW38662   1.218   4.075   2.585  0.1842  0.3840  0.4562
 9067SOL    HW138663   1.219   4.082   2.489  2.3929 -1.0997  0.3878
 9067SOL    HW238664   1.172   4.157   2.604 -1.2016 -0.5562  1.2038
 9068SOL     OW38665   3.847   2.751   5.471 -0.1775  0.9927  0.9201
 9068SOL    HW138666   3.817   2.813   5.404 -0.0540 -0.7304 -0.7249
 9068SOL    HW238667   3.796   2.770   5.549  0.8597  1.1398  1.5602
 9069SOL     OW38668   3.330   3.970   5.005 -0.5324  0.2720 -0.5933
 9069SOL    HW138669   3.317   4.058   5.040  1.1763  0.6365 -0.8365
 9069SOL    HW238670   3.423   3.978   4.981 -0.2647 -1.1313 -0.0645
 9070SOL     OW38671   0.851   1.236   4.285 -0.1229  0.1254  0.3209
 9070SOL    HW138672   0.851   1.146   4.317  2.5514  0.5789  1.6329
 9070SOL    HW238673   0.944   1.254   4.266 -0.6159  1.2384 -1.0531
 9071SOL     OW38674   0.546   1.184   4.195 -0.0646 -0.3271  0.0107
 9071SOL    HW138675   0.562   1.156   4.285 -1.4802  1.5937  0.8745
 9071SOL    HW238676   0.595   1.266   4.182 -2.0542  0.5062 -2.1709
 9072SOL     OW38677   0.956   1.886  14.569  0.1965  0.8250 -0.5801
 9072SOL    HW138678   0.884   1.850  14.622  1.3734 -1.1519 -0.2965
 9072SOL    HW238679   0.987   1.807  14.524 -1.4897 -1.5486  2.4141
 9073SOL     OW38680   0.456   1.311   4.520  0.2713  0.3611 -0.0897
 9073SOL    HW138681   0.424   1.359   4.596 -0.9452 -0.8402  0.1586
 9073SOL    HW238682   0.523   1.364   4.476  0.7440 -0.0716  0.1175
 9074SOL     OW38683   0.135   1.101   6.373  0.5609 -0.4502  0.2883
 9074SOL    HW138684   0.088   1.020   6.352 -0.9848 -0.0522  2.1509
 9074SOL    HW238685   0.057   1.156   6.387  0.6522 -0.7524  2.0424
 9075SOL     OW38686   0.108   0.400   8.258  0.2646 -0.3230 -0.8394
 9075SOL    HW138687   0.124   0.438   8.171 -1.6138 -0.8393 -1.4140
 9075SOL    HW238688   0.029   0.450   8.280  2.3019  1.7167  1.8055
 9076SOL     OW38689   3.798   2.106   0.272  0.6057  0.1502  0.4868
 9076SOL    HW138690   3.821   2.013   0.277 -2.7718 -0.8092 -1.7145
 9076SOL    HW238691   3.885   2.134   0.244  0.8305 -0.1637  0.8734
 9077SOL     OW38692   3.813   2.090   1.647 -0.2505  0.2197  0.3742
 9077SOL    HW138693   3.903   2.118   1.660  0.1102 -1.3043  1.1837
 9077SOL    HW238694   3.780   2.160   1.591  2.6754 -0.3000 -2.0020
 9078SOL     OW38695   2.197   3.393   2.883 -0.6401 -0.4093 -0.5073
 9078SOL    HW138696   2.280   3.349   2.901 -0.7593  0.0597  1.1576
 9078SOL    HW238697   2.208   3.404   2.789  0.2033  1.6308 -0.1715
 9079SOL     OW38698   1.102   0.708   8.208 -0.3816 -0.4153 -0.1986
 9079SOL    HW138699   1.023   0.670   8.169 -0.3706 -0.3355 -0.2982
 9079SOL    HW238700   1.078   0.708   8.301 -2.9321  0.5558 -0.8368
 9080SOL     OW38701   0.082   4.414  10.978 -0.0648 -0.2193 -0.0999
 9080SOL    HW138702   0.073   4.434  11.072 -1.3934 -3.0515  0.3615
 9080SOL    HW238703   0.105   4.322  10.985 -0.7494 -0.3437  0.5030
 9081SOL     OW38704   2.986   1.463  17.044  0.6295 -0.4047 -0.3268
 9081SOL    HW138705   2.899   1.456  17.083  0.1070  2.1976 -1.0773
 9081SOL    HW238706   2.975   1.442  16.952 -1.1047  1.0217 -0.4280
 9082SOL     OW38707   2.301   1.425   6.687 -0.2686  0.0406 -0.1607
 9082SOL    HW138708   2.291   1.363   6.759  0.2324 -0.3862 -0.4553
 9082SOL    HW238709   2.251   1.378   6.619  0.6457 -0.5809 -0.3947
 9083SOL     OW38710   1.586   1.926   8.213 -0.1680 -0.0924 -0.0900
 9083SOL    HW138711   1.506   1.949   8.166 -0.6754  1.4904  1.5322
 9083SOL    HW238712   1.606   2.006   8.261  0.9402 -0.2552 -0.2922
 9084SOL     OW38713   4.034   3.440   1.546  0.6926 -0.3128  0.5504
 9084SOL    HW138714   3.988   3.507   1.496  2.9867  1.0166  0.2087
 9084SOL    HW238715   4.043   3.481   1.632 -0.6002 -0.0291  0.5509
 9085SOL     OW38716   1.503   0.166   8.449 -0.9320 -0.2450  0.1528
 9085SOL    HW138717   1.476   0.140   8.361  1.8892 -1.0988 -0.4697
 9085SOL    HW238718   1.588   0.123   8.442 -0.0372  0.8880  4.2528
 9086SOL     OW38719   4.404   4.720  13.977  0.5056  0.4485 -0.3163
 9086SOL    HW138720   4.379   0.087  14.008  0.6360  0.6411 -0.7473
 9086SOL    HW238721   4.406   4.672  14.059  0.9530  1.6736  0.3842
 9087SOL     OW38722   2.846   2.644  14.057 -0.0434  0.0040 -1.0360
 9087SOL    HW138723   2.904   2.675  13.988  1.3979 -1.1242 -0.3111
 9087SOL    HW238724   2.841   2.550  14.043  1.0407 -0.5139  1.9431
 9088SOL     OW38725   2.232   0.932   6.609 -0.1929  0.3037  0.0261
 9088SOL    HW138726   2.175   0.913   6.683  0.4627 -0.9992  0.1956
 9088SOL    HW238727   2.227   1.027   6.604  0.0177  0.4318  2.5676
 9089SOL     OW38728   1.943   1.247   9.656 -0.0201 -0.1916  0.1129
 9089SOL    HW138729   1.935   1.249   9.751 -0.2412  0.6167  0.0740
 9089SOL    HW238730   1.856   1.213   9.634 -0.6502  2.7400 -1.9521
 9090SOL     OW38731   0.253   0.500   2.034 -0.0503 -0.2413 -0.5318
 9090SOL    HW138732   0.193   0.567   2.001  0.7598 -0.4730 -2.4867
 9090SOL    HW238733   0.234   0.422   1.982  0.9152 -0.9883  0.2312
 9091SOL     OW38734   2.286   0.568  17.033 -0.2003  0.2606  0.1180
 9091SOL    HW138735   2.332   0.596  17.112 -0.8737 -0.8481  0.9084
 9091SOL    HW238736   2.199   0.582  17.072  0.4979  0.5284  1.6103
 9092SOL     OW38737   2.766   1.391   0.533  0.1928  0.1705  0.1403
 9092SOL    HW138738   2.827   1.464   0.548 -0.1576  0.8512 -1.7225
 9092SOL    HW238739   2.722   1.424   0.455 -0.0573  0.5000  0.4183
 9093SOL     OW38740   4.398   0.131   3.240 -0.5007  0.0618 -0.0852
 9093SOL    HW138741   4.473   0.091   3.284 -0.5336  2.5402  2.1900
 9093SOL    HW238742   4.434   0.172   3.161  2.1217 -0.2788  0.9347
 9094SOL     OW38743   1.332   1.994  16.400  0.1339 -0.2129  0.1382
 9094SOL    HW138744   1.291   1.943  16.329  0.2815 -0.2426  0.0739
 9094SOL    HW238745   1.266   1.991  16.469  1.2231  1.1063  1.2161
 9095SOL     OW38746   3.443   1.483   5.727  0.3928 -0.5337  0.2175
 9095SOL    HW138747   3.403   1.525   5.651 -1.6940 -0.7296  1.2014
 9095SOL    HW238748   3.519   1.441   5.685  0.6546  2.1715 -1.9998
 9096SOL     OW38749   0.493   0.427   2.580 -0.0183 -0.3135  0.1504
 9096SOL    HW138750   0.443   0.503   2.549  1.6049  0.6162 -0.1816
 9096SOL    HW238751   0.575   0.473   2.597  1.2063 -2.6237  0.4897
 9097SOL     OW38752   4.673   0.442  13.083 -0.0331  0.0220 -0.1579
 9097SOL    HW138753   4.589   0.418  13.122  0.1752 -0.0598  0.2389
 9097SOL    HW238754   4.676   0.380  13.010 -0.7468  1.7885 -1.6962
 9098SOL     OW38755   2.295   4.008   8.923  0.0624 -0.0926 -0.0815
 9098SOL    HW138756   2.254   3.923   8.913  0.7339 -0.5101  0.6915
 9098SOL    HW238757   2.214   4.057   8.940  1.4681  1.3908  2.4779
 9099SOL     OW38758   4.384   3.724   0.569  0.5808  0.0489  0.7826
 9099SOL    HW138759   4.353   3.769   0.647  0.2371 -1.5795  1.5972
 9099SOL    HW238760   4.388   3.631   0.594 -1.6721 -0.8266 -2.0878
 9100SOL     OW38761   2.468   1.459  15.463 -0.3205 -0.0473  0.1132
 9100SOL    HW138762   2.467   1.440  15.370 -1.9102  0.0963  0.1062
 9100SOL    HW238763   2.427   1.546  15.468 -0.8021 -0.2669 -0.0807
 9101SOL     OW38764   4.614   4.139   8.723  0.3537 -0.6377  0.4387
 9101SOL    HW138765   4.700   4.109   8.753  0.0123  0.5197  2.5563
 9101SOL    HW238766   4.610   4.079   8.648 -0.6832  0.0751 -0.0844
 9102SOL     OW38767   2.372   1.855  13.614  0.0268 -0.0191 -0.2598
 9102SOL    HW138768   2.334   1.942  13.623  1.7000  0.5900  1.0152
 9102SOL    HW238769   2.325   1.803  13.679 -1.2778 -0.8824 -1.8890
 9103SOL     OW38770   1.153   2.300   5.623  0.2656 -0.5490 -0.1403
 9103SOL    HW138771   1.101   2.278   5.546  0.1321 -1.4754  0.2111
 9103SOL    HW238772   1.185   2.387   5.602  3.0455 -1.7036 -0.6824
 9104SOL     OW38773   0.628   1.253   3.700 -0.1131 -0.0726 -0.1082
 9104SOL    HW138774   0.553   1.235   3.643  0.3269 -1.5150 -0.2266
 9104SOL    HW238775   0.684   1.178   3.680 -0.4200 -1.1895  3.2496
 9105SOL     OW38776   1.731   2.423   1.134  0.0626  0.3858  0.2789
 9105SOL    HW138777   1.659   2.442   1.073  0.8701 -1.9674 -1.4325
 9105SOL    HW238778   1.721   2.482   1.208 -3.0146 -0.3493  0.4446
 9106SOL     OW38779   0.109   0.826   2.341 -0.0450 -0.3583 -0.0911
 9106SOL    HW138780   0.134   0.871   2.260  1.3755  0.1620  0.6395
 9106SOL    HW238781   0.020   0.796   2.322 -0.0922 -1.2898  1.6731
 9107SOL     OW38782   0.728   3.739  15.601 -0.0875  0.1929 -0.7104
 9107SOL    HW138783   0.674   3.702  15.672 -1.7480  2.0987 -0.9876
 9107SOL    HW238784   0.807   3.684  15.597 -0.2515  0.0431 -1.8545
 9108SOL     OW38785   0.654   2.656  11.942 -0.1941  0.6461 -0.5384
 9108SOL    HW138786   0.698   2.609  11.872  1.0149 -0.1904  0.7933
 9108SOL    HW238787   0.658   2.748  11.916  2.0698  0.9158  0.8557
 9109SOL     OW38788   1.462   0.494  10.324  0.5560 -0.5295 -0.6111
 9109SOL    HW138789   1.397   0.424  10.315  0.7318 -0.8806  1.0180
 9109SOL    HW238790   1.411   0.559  10.371  0.9793  0.1357 -1.0645
 9110SOL     OW38791   4.084   2.817  10.128 -0.2035 -0.3357 -0.5727
 9110SOL    HW138792   4.124   2.785  10.048  0.7393  1.4775 -0.8127
 9110SOL    HW238793   4.080   2.911  10.110  1.2495 -0.4818 -1.6617
 9111SOL     OW38794   2.798   3.168   8.300  0.0668 -0.5937  0.1514
 9111SOL    HW138795   2.803   3.258   8.333 -0.3892 -0.5704  0.1606
 9111SOL    HW238796   2.827   3.122   8.378 -1.2194 -0.6641  0.5832
 9112SOL     OW38797   1.746   2.239  12.094 -0.5909 -0.1609  0.2376
 9112SOL    HW138798   1.775   2.324  12.130 -3.7810  1.5510 -1.2559
 9112SOL    HW238799   1.722   2.178  12.164  0.5644  0.8301  1.5125
 9113SOL     OW38800   3.624   0.071   3.234 -0.0371 -0.1191  0.4937
 9113SOL    HW138801   3.683   0.007   3.194 -1.2675 -1.1631  0.3514
 9113SOL    HW238802   3.616   0.047   3.327  0.4740  0.2510  0.6353
 9114SOL     OW38803   0.033   0.598   1.182 -0.1839 -0.5546 -0.4922
 9114SOL    HW138804   4.669   0.556   1.163 -0.0663 -0.7856 -0.5028
 9114SOL    HW238805   0.074   0.554   1.256  1.9949  0.4092 -1.1519
 9115SOL     OW38806   0.316   1.649   7.682 -0.1998  0.2458  0.0782
 9115SOL    HW138807   0.235   1.700   7.679  0.1827  0.7894 -1.1295
 9115SOL    HW238808   0.364   1.700   7.748  1.0160 -0.3848 -0.3126
 9116SOL     OW38809   3.450   0.442  16.624  0.0879 -0.1735 -0.0080
 9116SOL    HW138810   3.429   0.534  16.605 -2.1408 -0.0814  2.7924
 9116SOL    HW238811   3.533   0.415  16.586  0.2268  0.1421  0.0670
 9117SOL     OW38812   0.449   2.142   5.605  0.3254 -0.9097 -0.1871
 9117SOL    HW138813   0.372   2.196   5.592  0.3175 -0.9518 -0.3219
 9117SOL    HW238814   0.438   2.092   5.524  0.8686 -0.5793 -0.4658
 9118SOL     OW38815   2.945   2.976   2.802 -0.2642  0.1144 -0.1259
 9118SOL    HW138816   2.932   3.061   2.760  2.0904  0.4413 -0.1445
 9118SOL    HW238817   3.038   2.963   2.788 -0.6743 -1.7784 -1.2179
 9119SOL     OW38818   2.440   0.048   4.223  1.3753  0.3806  0.0341
 9119SOL    HW138819   2.513   0.092   4.266  0.7958  0.2292  1.1758
 9119SOL    HW238820   2.365   0.084   4.270  0.3544  0.6779 -1.8259
 9120SOL     OW38821   1.151   2.554   1.127  0.2295  0.3661  0.2725
 9120SOL    HW138822   1.075   2.601   1.092  1.1418  0.1286 -2.0135
 9120SOL    HW238823   1.182   2.506   1.050 -1.1511 -1.5565  0.9164
 9121SOL     OW38824   3.439   1.066  11.073  0.1874 -0.4217 -0.1161
 9121SOL    HW138825   3.502   1.122  11.026 -0.4298  2.4653  2.5103
 9121SOL    HW238826   3.468   0.986  11.028  0.2873  0.0590 -0.9068
 9122SOL     OW38827   0.603   0.440   7.275 -0.2253  0.3681  0.4002
 9122SOL    HW138828   0.598   0.527   7.314  0.8797  0.5939  0.0446
 9122SOL    HW238829   0.536   0.395   7.327  1.2190 -0.4364  1.5776
 9123SOL     OW38830   2.182   1.848   4.586  0.6066 -0.4132  0.1557
 9123SOL    HW138831   2.191   1.824   4.678  2.0816 -2.4743 -0.5052
 9123SOL    HW238832   2.245   1.919   4.584  1.4486 -1.0966  2.0020
 9124SOL     OW38833   3.187   4.609  11.370 -0.5447  0.0006 -0.3272
 9124SOL    HW138834   3.146   4.601  11.457  0.3068 -1.1874 -0.0355
 9124SOL    HW238835   3.119   4.581  11.308  0.4437 -2.3037 -0.3563
 9125SOL     OW38836   4.622   3.236  10.034 -0.0317  0.4133  0.0747
 9125SOL    HW138837   4.612   3.155   9.985  1.1434  0.1958  0.1872
 9125SOL    HW238838   4.545   3.231  10.090  1.1008 -1.4984  1.4606
 9126SOL     OW38839   2.508   2.289   7.223 -1.0090  0.1223 -0.2785
 9126SOL    HW138840   2.531   2.296   7.316 -4.0630 -3.4398  0.7226
 9126SOL    HW238841   2.531   2.379   7.197  0.5725 -0.1264  0.2805
 9127SOL     OW38842   4.058   1.318   6.864 -0.3011 -0.2085 -0.1909
 9127SOL    HW138843   4.047   1.304   6.958 -0.8005  1.1474 -0.0482
 9127SOL    HW238844   3.980   1.370   6.843 -0.3070  0.2582  1.0322
 9128SOL     OW38845   3.820   3.924  14.047 -0.5225  0.0699  0.0658
 9128SOL    HW138846   3.789   3.994  13.989  1.8573  1.5467  0.5726
 9128SOL    HW238847   3.874   3.962  14.116  2.6103 -0.4955 -2.0448
 9129SOL     OW38848   2.791   1.981  13.162 -0.3830  0.2360  0.4405
 9129SOL    HW138849   2.825   2.069  13.146 -2.9747  0.5031 -3.4693
 9129SOL    HW238850   2.705   1.995  13.203  0.5007  3.3709  1.2380
 9130SOL     OW38851   0.715   0.548   6.446  0.3524  0.0148  0.5017
 9130SOL    HW138852   0.752   0.630   6.477  1.8782 -0.0823 -1.0825
 9130SOL    HW238853   0.794   0.514   6.404 -0.2371 -1.1661  0.3336
 9131SOL     OW38854   4.069   4.615  13.359  0.6217 -0.2721  0.2505
 9131SOL    HW138855   4.064   4.665  13.277 -1.3878 -0.2123  0.4063
 9131SOL    HW238856   4.149   4.658  13.388  1.4277 -0.1134 -2.1828
 9132SOL     OW38857   2.213   4.618   4.590  0.0991 -0.3356 -0.4802
 9132SOL    HW138858   2.297   4.663   4.575  0.3057  0.2668  2.3616
 9132SOL    HW238859   2.227   4.549   4.525  0.2108 -0.6027 -0.1754
 9133SOL     OW38860   0.039   3.204   0.620  0.0397 -0.2425 -0.4534
 9133SOL    HW138861   0.129   3.183   0.641  0.4517  1.3720 -0.6305
 9133SOL    HW238862   4.713   3.204   0.703  0.0644 -0.0606 -0.4401
 9134SOL     OW38863   3.344   1.731   2.617 -0.7832 -0.0908 -0.1633
 9134SOL    HW138864   3.404   1.755   2.547  0.0781  1.3515  1.0716
 9134SOL    HW238865   3.332   1.817   2.656 -0.6458 -0.1216 -0.0548
 9135SOL     OW38866   1.017   1.555   4.243  0.4151  0.3243  0.2639
 9135SOL    HW138867   1.045   1.465   4.256  1.9196  0.8778  0.9235
 9135SOL    HW238868   1.013   1.563   4.339  2.1925  2.6403  0.1451
 9136SOL     OW38869   2.263   1.837  12.085  0.0323  0.6873 -0.3816
 9136SOL    HW138870   2.288   1.905  12.147 -3.8597  1.7548  0.0323
 9136SOL    HW238871   2.307   1.761  12.122 -0.7810 -0.4502 -1.7348
 9137SOL     OW38872   0.094   1.204   1.518  0.5071 -0.5539 -0.0862
 9137SOL    HW138873   0.183   1.224   1.489  1.2928 -0.1061  2.6225
 9137SOL    HW238874   0.070   1.123   1.473 -0.9624  0.0878 -0.4384
 9138SOL     OW38875   1.383   4.365   5.451 -0.0484 -0.7343  0.3870
 9138SOL    HW138876   1.431   4.288   5.481  0.1583 -1.1040 -0.9059
 9138SOL    HW238877   1.308   4.323   5.409  0.9776 -1.3589 -0.8149
 9139SOL     OW38878   2.643   2.217  10.315  0.1586  0.1681 -0.1951
 9139SOL    HW138879   2.603   2.141  10.356 -0.9208  0.1513 -1.2783
 9139SOL    HW238880   2.735   2.199  10.335 -0.2026 -0.0932  1.2532
 9140SOL     OW38881   1.352   0.582   8.174  0.1512  0.0203  0.0536
 9140SOL    HW138882   1.289   0.653   8.158  0.2093  0.1234  0.2824
 9140SOL    HW238883   1.285   0.514   8.175  0.2821 -0.1322 -1.6180
 9141SOL     OW38884   2.354   3.140   3.924 -0.3968  0.0958  0.3142
 9141SOL    HW138885   2.298   3.194   3.980 -1.1226 -2.7868  2.3286
 9141SOL    HW238886   2.362   3.208   3.857 -0.1168 -1.6092 -1.3591
 9142SOL     OW38887   3.073   4.617   0.277 -0.0496  0.5320  0.1170
 9142SOL    HW138888   2.989   4.585   0.244  0.8263 -0.3003 -1.3263
 9142SOL    HW238889   3.068   4.609   0.372 -0.0122 -1.4166 -0.0440
 9143SOL     OW38890   0.611   1.402  10.055 -0.3809 -0.1498 -0.4566
 9143SOL    HW138891   0.699   1.425  10.027  0.6442  2.3824  4.8520
 9143SOL    HW238892   0.574   1.488  10.034  3.3439  1.0001 -2.2788
 9144SOL     OW38893   3.910   0.764   0.698 -0.3346 -0.9329  0.2576
 9144SOL    HW138894   3.996   0.789   0.732  1.2090 -1.8744 -2.9431
 9144SOL    HW238895   3.849   0.833   0.725  0.1543  0.1026 -1.2761
 9145SOL     OW38896   3.700   1.390   5.036 -0.2171  0.7872  0.9123
 9145SOL    HW138897   3.677   1.314   5.090 -0.4100  1.3654  1.6393
 9145SOL    HW238898   3.632   1.390   4.968  0.6154 -0.4110  0.0751
 9146SOL     OW38899   0.894   0.343  15.366 -0.6416  0.1109  0.1657
 9146SOL    HW138900   0.836   0.406  15.323 -1.3979  0.2962  1.4551
 9146SOL    HW238901   0.919   0.293  15.289  1.6721 -0.6780  1.4518
 9147SOL     OW38902   3.522   2.508   7.423 -0.4013 -0.3323  0.6797
 9147SOL    HW138903   3.602   2.501   7.475  0.9841 -1.0714 -1.5538
 9147SOL    HW238904   3.509   2.414   7.410 -0.6581 -0.0008 -1.4616
 9148SOL     OW38905   1.994   0.169  10.412  0.2493 -0.1443  0.3220
 9148SOL    HW138906   2.050   0.158  10.489  1.7148 -0.6473 -0.8296
 9148SOL    HW238907   1.986   0.263  10.425 -0.6814 -0.0690 -0.8108
 9149SOL     OW38908   1.327   3.879   9.126  0.0359  0.0954 -0.1585
 9149SOL    HW138909   1.401   3.937   9.108  1.2270 -1.2411  0.4145
 9149SOL    HW238910   1.267   3.904   9.056  0.0656  0.7922  0.0670
 9150SOL     OW38911   0.666   1.608  14.078  0.7528  0.3598  0.3337
 9150SOL    HW138912   0.734   1.675  14.067  0.7442  0.2232 -0.5610
 9150SOL    HW238913   0.716   1.530  14.056 -1.0924 -0.7070 -0.1050
 9151SOL     OW38914   0.887   1.482  10.561  0.2062  0.5476 -0.5572
 9151SOL    HW138915   0.853   1.516  10.478 -0.6946  0.0752 -0.3767
 9151SOL    HW238916   0.934   1.558  10.596 -0.8548  0.3926  1.1951
 9152SOL     OW38917   3.478   0.092   2.064  0.4755  0.1488 -0.1777
 9152SOL    HW138918   3.566   0.130   2.061  0.0121  1.3884  1.9282
 9152SOL    HW238919   3.433   0.140   2.134 -0.6099 -4.0735  2.0350
 9153SOL     OW38920   0.063   3.327   5.649 -0.9859  0.3084 -0.6740
 9153SOL    HW138921   0.034   3.419   5.655  1.0968  0.8202  1.3485
 9153SOL    HW238922   0.084   3.303   5.739 -2.2442  1.9984  0.0916
 9154SOL     OW38923   4.512   1.183   8.646 -0.5304 -0.4703  0.3075
 9154SOL    HW138924   4.524   1.120   8.718  0.7425  0.9135  1.3238
 9154SOL    HW238925   4.561   1.148   8.572 -0.4763  0.0640  0.0866
 9155SOL     OW38926   0.105   2.582   8.348  0.6189 -0.5586 -0.3624
 9155SOL    HW138927   0.117   2.487   8.349  2.0767 -0.3182  4.0439
 9155SOL    HW238928   0.152   2.602   8.267  1.3577  0.5265  0.3191
 9156SOL     OW38929   2.951   1.712  11.797  0.2173 -0.4394  0.7005
 9156SOL    HW138930   2.964   1.762  11.877  1.1942  0.6719 -0.1475
 9156SOL    HW238931   3.024   1.649  11.795  0.8351  0.3075 -0.2817
 9157SOL     OW38932   3.332   0.192   4.277 -0.6983 -0.3698 -0.1523
 9157SOL    HW138933   3.336   0.161   4.367 -0.6272  0.7759  0.2372
 9157SOL    HW238934   3.342   0.106   4.237  0.0269  0.8723 -2.6343
 9158SOL     OW38935   2.814   3.996   2.557  0.2523  0.4827 -0.0154
 9158SOL    HW138936   2.823   4.049   2.477 -2.2732  1.0063  0.0505
 9158SOL    HW238937   2.849   3.914   2.523 -0.6444  0.0706  0.0740
 9159SOL     OW38938   2.366   2.478   7.789 -0.1149  0.5251  0.3178
 9159SOL    HW138939   2.431   2.447   7.852  0.2234 -0.5279 -0.5471
 9159SOL    HW238940   2.291   2.421   7.804 -0.6863  0.7788 -1.5834
 9160SOL     OW38941   2.663   3.701   3.966  0.0752 -0.3686  0.0786
 9160SOL    HW138942   2.629   3.616   3.995  0.9407  0.1333  2.4853
 9160SOL    HW238943   2.743   3.699   4.017 -0.3733 -2.3933  0.7077
 9161SOL     OW38944   4.701   3.465   0.237 -0.0692  0.2658  0.2884
 9161SOL    HW138945   0.040   3.392   0.250  0.5421  0.7188  0.0290
 9161SOL    HW238946   4.659   3.459   0.323  2.0725  2.0926  1.4730
 9162SOL     OW38947   3.848   4.333   5.503 -0.9425  0.7126 -0.6210
 9162SOL    HW138948   3.806   4.394   5.564  0.3924  0.5319  0.4828
 9162SOL    HW238949   3.787   4.260   5.495 -1.1801  0.8522 -0.0552
 9163SOL     OW38950   2.697   2.252   7.682 -0.1246  0.1653 -0.0137
 9163SOL    HW138951   2.724   2.280   7.770  3.1816  1.3239 -1.3752
 9163SOL    HW238952   2.683   2.158   7.693 -0.9282  0.2753 -0.1035
 9164SOL     OW38953   2.160   1.480  16.043  0.3212  0.3438 -0.2304
 9164SOL    HW138954   2.144   1.407  15.982  2.6397 -1.4948  1.3639
 9164SOL    HW238955   2.072   1.498  16.075  1.2494  0.8871  1.9952
 9165SOL     OW38956   2.272   4.374   5.673 -0.5627 -0.4208 -0.4766
 9165SOL    HW138957   2.300   4.390   5.583 -0.3754  0.9107 -0.1791
 9165SOL    HW238958   2.187   4.416   5.685 -0.5665 -0.5288 -0.1444
 9166SOL     OW38959   3.368   0.079   4.526  0.0678  0.2153 -0.1163
 9166SOL    HW138960   3.297   0.046   4.582  0.5124 -0.1092  0.2505
 9166SOL    HW238961   3.429   0.006   4.536 -1.4315 -0.9497  0.5574
 9167SOL     OW38962   3.101   1.555   6.968  0.1448 -0.0905  0.0058
 9167SOL    HW138963   3.138   1.559   6.880 -0.7094 -0.3183 -0.3583
 9167SOL    HW238964   3.179   1.563   7.023  0.0266 -0.1612  0.1848
 9168SOL     OW38965   1.835   4.631  14.876 -0.1585  0.3612  0.1655
 9168SOL    HW138966   1.876   4.573  14.813 -0.7915  0.9810 -0.8133
 9168SOL    HW238967   1.912   4.667  14.919 -0.5833 -2.3501  3.1919
 9169SOL     OW38968   3.104   0.190   3.978 -0.2162 -0.3280  0.0923
 9169SOL    HW138969   3.042   0.146   3.920  2.0980 -1.3123 -1.6340
 9169SOL    HW238970   3.177   0.128   3.976 -0.0720 -0.1656  0.3545
 9170SOL     OW38971   2.220   3.016  13.640 -0.0502  0.1054  0.1276
 9170SOL    HW138972   2.137   2.974  13.620  0.4731  0.4791 -2.9558
 9170SOL    HW238973   2.192   3.094  13.688  0.5331 -0.0737  0.7658
 9171SOL     OW38974   0.397   3.117   1.819 -0.1756  0.3837 -0.0817
 9171SOL    HW138975   0.492   3.125   1.821 -0.1015 -0.3471 -0.5458
 9171SOL    HW238976   0.383   3.053   1.889 -0.6069  1.0831  0.4669
 9172SOL     OW38977   4.570   4.614   6.996 -0.6761 -0.1078 -0.3201
 9172SOL    HW138978   4.497   4.662   6.957 -0.2002  1.1414  0.3229
 9172SOL    HW238979   4.630   4.676   7.037 -0.5555 -1.0384  0.9126
 9173SOL     OW38980   2.557   3.669   8.050 -0.3918  0.1599 -0.0468
 9173SOL    HW138981   2.517   3.720   7.979 -0.0679  1.2861  0.5849
 9173SOL    HW238982   2.498   3.594   8.058 -0.2114  0.0012 -0.2095
 9174SOL     OW38983   0.058   4.010   8.192  0.1802 -0.6719  0.7915
 9174SOL    HW138984   4.719   3.941   8.222  0.3765  0.2988  3.4529
 9174SOL    HW238985   0.007   4.089   8.206 -0.6268 -1.1217  0.3654
 9175SOL     OW38986   1.148   0.657   2.768  0.3790  0.5511 -0.2220
 9175SOL    HW138987   1.204   0.600   2.715  1.5894 -0.2742  1.9622
 9175SOL    HW238988   1.072   0.671   2.712 -0.6485 -1.6963  0.6122
 9176SOL     OW38989   1.397   0.129   0.080 -0.7302 -0.7978 -0.2366
 9176SOL    HW138990   1.464   0.172   0.026  0.4955 -1.1654  0.9987
 9176SOL    HW238991   1.359   0.206   0.122  0.2716  0.2462 -1.2381
 9177SOL     OW38992   1.705   0.828   6.472  0.1276  0.3808 -0.2975
 9177SOL    HW138993   1.793   0.807   6.440 -0.1469  1.9380 -2.0277
 9177SOL    HW238994   1.678   0.888   6.403  0.2802  0.4919 -0.2601
 9178SOL     OW38995   2.908   1.930   7.309 -0.1748  0.5379 -0.3492
 9178SOL    HW138996   2.825   1.892   7.340  0.7897  0.2635  1.9020
 9178SOL    HW238997   2.950   1.854   7.268 -0.3792  1.0179 -1.4627
 9179SOL     OW38998   4.551   3.881  13.477  0.2260 -0.3270 -0.6348
 9179SOL    HW138999   4.488   3.921  13.417 -0.9963  0.4089  1.1406
 9179SOL    HW239000   4.539   3.789  13.454 -2.3045  0.3743 -2.1956
 9180SOL     OW39001   1.559   3.599   8.182 -0.2700  0.6601 -0.0505
 9180SOL    HW139002   1.546   3.507   8.161  1.6222  0.2134  0.6940
 9180SOL    HW239003   1.655   3.603   8.189 -0.1990  0.2470 -0.8117
 9181SOL     OW39004   4.348   1.539   7.626  0.3004  0.1103 -0.3624
 9181SOL    HW139005   4.321   1.624   7.592 -0.0619 -0.0761 -0.5317
 9181SOL    HW239006   4.328   1.484   7.551  0.6707 -0.4989 -0.0192
 9182SOL     OW39007   0.822   3.688   3.128 -0.0775  0.8543  0.3842
 9182SOL    HW139008   0.814   3.691   3.032  0.1090  0.2697  0.3453
 9182SOL    HW239009   0.747   3.739   3.158  1.0351  2.3481  0.5891
 9183SOL     OW39010   2.154   3.091   8.363  0.1335 -0.4319 -0.0110
 9183SOL    HW139011   2.170   3.178   8.399  0.2242 -1.1372  1.6433
 9183SOL    HW239012   2.143   3.030   8.436  1.9019 -0.9750 -0.1836
 9184SOL     OW39013   1.043   2.737   8.846 -0.0444 -0.0378  0.2717
 9184SOL    HW139014   1.080   2.751   8.933  1.1930 -0.7674 -0.1450
 9184SOL    HW239015   1.119   2.712   8.795 -1.4640 -0.3374 -1.7054
 9185SOL     OW39016   0.946   2.707   6.726  0.0371 -0.4481  0.1281
 9185SOL    HW139017   0.932   2.620   6.765  0.1820 -0.5335 -0.0111
 9185SOL    HW239018   1.022   2.730   6.780 -1.0072 -3.0489  2.7239
 9186SOL     OW39019   3.910   1.842  10.899 -0.0272  0.4402 -0.1480
 9186SOL    HW139020   3.872   1.766  10.943  1.1309  1.1087  2.0094
 9186SOL    HW239021   3.996   1.841  10.940  0.1866 -1.5028 -0.6210
 9187SOL     OW39022   4.359   2.872   6.161 -0.0005  0.1323  0.2782
 9187SOL    HW139023   4.331   2.876   6.252  0.0030 -0.7231  0.3225
 9187SOL    HW239024   4.318   2.793   6.124  0.0870  0.6059 -0.8265
 9188SOL     OW39025   1.283   1.502   4.614  0.3458 -0.4212 -0.0517
 9188SOL    HW139026   1.302   1.476   4.704  0.2416 -2.1936 -0.5311
 9188SOL    HW239027   1.341   1.577   4.619 -2.0868  1.5913 -2.0829
 9189SOL     OW39028   2.324   0.552   6.815  0.0696  0.3176 -0.4685
 9189SOL    HW139029   2.365   0.629   6.854  1.1797 -0.3619 -0.2617
 9189SOL    HW239030   2.367   0.543   6.730  0.0415  0.5446 -0.5059
 9190SOL     OW39031   3.953   1.652  16.997  0.1029  0.1691 -0.1803
 9190SOL    HW139032   3.893   1.702  17.053  1.8984  0.7072  1.2510
 9190SOL    HW239033   3.895   1.595  16.947 -1.1148  0.1994  1.1837
 9191SOL     OW39034   3.311   3.090   8.040  0.2237  1.0942  0.4997
 9191SOL    HW139035   3.220   3.062   8.036  0.3054  1.0316 -0.7846
 9191SOL    HW239036   3.333   3.089   8.134 -0.1323 -0.9280  0.5475
 9192SOL     OW39037   3.900   3.533   2.461 -0.2753 -0.3144  0.1842
 9192SOL    HW139038   3.832   3.480   2.502 -2.0400  0.4907 -1.6999
 9192SOL    HW239039   3.871   3.537   2.370 -3.2877 -1.8509  1.0690
 9193SOL     OW39040   2.475   2.987   7.749  0.3126 -0.0192  0.3682
 9193SOL    HW139041   2.381   3.006   7.751  0.5088  1.3524 -2.4712
 9193SOL    HW239042   2.492   2.995   7.842 -1.5062 -0.1021  0.7175
 9194SOL     OW39043   0.551   2.387   1.349  0.0397  0.0306 -0.5805
 9194SOL    HW139044   0.510   2.455   1.296 -0.1632  1.7049  1.6998
 9194SOL    HW239045   0.549   2.308   1.296 -0.1737 -0.1155 -0.3548
 9195SOL     OW39046   3.303   1.724  13.229  0.3692  0.2493 -0.2146
 9195SOL    HW139047   3.344   1.715  13.142  1.4528 -1.2496  0.4441
 9195SOL    HW239048   3.294   1.631  13.248  1.4740 -0.0023 -0.8890
 9196SOL     OW39049   2.824   4.590   1.762  0.7018 -0.3822 -0.2104
 9196SOL    HW139050   2.753   4.645   1.793  1.5927  1.2773 -1.0895
 9196SOL    HW239051   2.840   4.533   1.837 -0.1833  0.5977  0.7204
 9197SOL     OW39052   1.465   3.037   8.773 -0.4023  0.2427  0.1683
 9197SOL    HW139053   1.554   3.072   8.771 -0.7042  1.1098  2.0154
 9197SOL    HW239054   1.481   2.944   8.759 -0.5887  0.1387  0.6350
 9198SOL     OW39055   2.548   3.833   2.188  0.1815  0.4620  0.1282
 9198SOL    HW139056   2.561   3.822   2.283  3.1926 -1.0762 -0.4807
 9198SOL    HW239057   2.640   3.840   2.162 -0.2180  1.6342 -0.9230
 9199SOL     OW39058   1.890   4.714  10.224 -0.4276  0.6672  0.1522
 9199SOL    HW139059   1.951   0.004  10.151 -1.0054  0.3623 -0.3725
 9199SOL    HW239060   1.941   0.045  10.287 -0.1859 -0.4907  0.9033
 9200SOL     OW39061   4.206   4.599   5.798  0.6249 -0.5544 -0.7717
 9200SOL    HW139062   4.144   4.616   5.870 -0.9228  2.2886 -2.7713
 9200SOL    HW239063   4.232   4.509   5.820  0.4567 -0.5931 -0.7318
 9201SOL     OW39064   4.447   3.142   1.995 -0.3997  0.3730 -0.5774
 9201SOL    HW139065   4.385   3.072   2.014  0.3854 -0.5617 -1.5147
 9201SOL    HW239066   4.480   3.112   1.910 -2.3356  1.8880 -1.8784
 9202SOL     OW39067   1.479   2.263   4.934 -0.1812  0.0878  0.0341
 9202SOL    HW139068   1.437   2.285   5.017 -2.8260 -0.4416 -1.1747
 9202SOL    HW239069   1.468   2.344   4.884 -1.2078  1.3426  2.2856
 9203SOL     OW39070   2.028   3.362   1.930  0.0203 -0.2373  0.0656
 9203SOL    HW139071   2.072   3.435   1.973  1.0421  0.7892 -2.7371
 9203SOL    HW239072   1.971   3.414   1.873 -0.4730  0.1081  0.8745
 9204SOL     OW39073   4.464   3.275   5.313  0.8507 -0.0226  0.2576
 9204SOL    HW139074   4.469   3.256   5.407  0.8747 -1.7066 -0.0769
 9204SOL    HW239075   4.549   3.318   5.299  1.9955 -1.6965  2.0533
 9205SOL     OW39076   2.342   0.277  13.266  0.3384 -0.4816 -0.0175
 9205SOL    HW139077   2.288   0.332  13.322 -0.3354 -1.2249  0.0650
 9205SOL    HW239078   2.391   0.236  13.337  0.7945  0.3037  0.1215
 9206SOL     OW39079   4.347   3.050  14.107  0.5451  0.1845  0.4162
 9206SOL    HW139080   4.366   3.110  14.178  0.1179  0.0306  0.6597
 9206SOL    HW239081   4.252   3.051  14.104  0.5186 -0.9771  0.8480
 9207SOL     OW39082   2.000   2.142   2.180  0.3408 -0.2179  0.7585
 9207SOL    HW139083   1.987   2.075   2.113  1.9185  1.4071 -1.1541
 9207SOL    HW239084   2.037   2.222   2.143  1.3172  0.0166  2.2560
 9208SOL     OW39085   0.051   1.347  12.679  0.8248 -0.8294  0.2152
 9208SOL    HW139086   0.029   1.439  12.693 -0.0021 -1.1451  0.9699
 9208SOL    HW239087   0.125   1.326  12.736 -1.3059 -1.9144  2.5980
 9209SOL     OW39088   4.428   0.865   8.778 -0.1871 -0.0760 -0.0439
 9209SOL    HW139089   4.502   0.897   8.829  2.0477  0.3281 -3.5245
 9209SOL    HW239090   4.362   0.933   8.792 -0.4000 -0.3379  0.2296
 9210SOL     OW39091   1.493   4.193   5.661  0.5356  0.7693 -0.1058
 9210SOL    HW139092   1.486   4.130   5.733  1.4605 -0.0258 -0.7104
 9210SOL    HW239093   1.523   4.268   5.712  3.5183  0.6026 -1.6043
 9211SOL     OW39094   2.566   4.655   8.232  0.0612  0.5976  0.0235
 9211SOL    HW139095   2.532   0.006   8.286 -0.9911 -0.1525  0.3633
 9211SOL    HW239096   2.481   4.614   8.214  0.4543  0.8295 -2.3396
 9212SOL     OW39097   2.896   2.487  16.855  0.1841  0.0811  0.3023
 9212SOL    HW139098   2.810   2.529  16.855  0.0961 -0.0990  0.1673
 9212SOL    HW239099   2.903   2.453  16.766  1.0122  0.8270  0.0871
 9213SOL     OW39100   0.963   4.425   7.444 -0.6250  0.2791  0.2046
 9213SOL    HW139101   0.948   4.332   7.463  0.5401 -0.0125 -0.3136
 9213SOL    HW239102   0.957   4.456   7.534 -0.4471  1.5264 -0.2222
 9214SOL     OW39103   4.155   0.545  12.218  0.1183  0.1342  0.0116
 9214SOL    HW139104   4.185   0.464  12.177  0.7709 -0.5046  1.7306
 9214SOL    HW239105   4.195   0.527  12.303  1.2882  1.3971 -0.2685
 9215SOL     OW39106   1.517   3.442   9.116 -0.9120  0.0414 -0.6108
 9215SOL    HW139107   1.556   3.379   9.056  1.2583  1.9922 -1.2378
 9215SOL    HW239108   1.529   3.519   9.060 -0.2071 -1.0805 -2.0196
 9216SOL     OW39109   4.627   1.017   6.708 -0.2527 -0.2052  0.2409
 9216SOL    HW139110   4.555   0.971   6.751 -0.9902  1.1463  0.4472
 9216SOL    HW239111   4.579   1.049   6.631  1.2858 -0.1068 -0.6698
 9217SOL     OW39112   0.426   4.325   1.999 -0.1022 -0.2671  0.1489
 9217SOL    HW139113   0.376   4.402   2.024  0.2216  0.6164 -1.8718
 9217SOL    HW239114   0.445   4.280   2.081  1.9012 -0.0662 -0.2090
 9218SOL     OW39115   4.187   3.327   0.913  0.5743 -0.4690  0.0918
 9218SOL    HW139116   4.156   3.417   0.926 -1.2905 -1.3094  1.5635
 9218SOL    HW239117   4.221   3.309   1.000 -0.2517 -0.8255  0.3462
 9219SOL     OW39118   3.911   0.061   1.986  0.6973  0.5601 -0.2487
 9219SOL    HW139119   3.960   0.140   1.966  0.3691  0.9073  0.2977
 9219SOL    HW239120   3.835   0.093   2.035  0.7932  1.9417 -0.9966
 9220SOL     OW39121   0.659   1.571   2.724  0.2117 -0.4377 -0.5347
 9220SOL    HW139122   0.642   1.661   2.697 -2.6368 -0.5786  0.7415
 9220SOL    HW239123   0.651   1.591   2.818 -0.1251  1.5264 -0.9995
 9221SOL     OW39124   3.389   1.330   4.379  0.5085  0.0335  0.2177
 9221SOL    HW139125   3.467   1.385   4.366  0.8807 -0.0651  2.1004
 9221SOL    HW239126   3.363   1.310   4.289 -1.5873 -1.1362  1.0833
 9222SOL     OW39127   2.862   2.403   2.144  0.1480 -0.1142  0.1193
 9222SOL    HW139128   2.957   2.398   2.151  0.2898 -0.9095 -2.2535
 9222SOL    HW239129   2.833   2.481   2.190 -0.3710  0.6312 -1.4582
 9223SOL     OW39130   2.475   2.646   5.867  0.0463  0.4223  0.1569
 9223SOL    HW139131   2.396   2.657   5.815 -0.7032  0.9337  1.4100
 9223SOL    HW239132   2.438   2.619   5.951  0.2531  0.7624  0.3598
 9224SOL     OW39133   3.714   0.017   3.754  0.1307 -0.2106 -0.0209
 9224SOL    HW139134   3.752   4.653   3.776 -0.5198 -0.6045 -0.4210
 9224SOL    HW239135   3.716   0.058   3.840 -0.4515 -3.2461  1.4049
 9225SOL     OW39136   4.137   4.331   7.370  0.2992 -0.1348 -0.1538
 9225SOL    HW139137   4.097   4.410   7.407 -0.1265 -0.0801 -0.7306
 9225SOL    HW239138   4.233   4.336   7.377  0.4485 -1.6633 -0.9845
 9226SOL     OW39139   2.780   0.692   4.277  0.5164  0.2203 -0.6280
 9226SOL    HW139140   2.824   0.753   4.337 -1.9672  1.9185 -0.5569
 9226SOL    HW239141   2.701   0.737   4.248  1.4808  1.5963 -1.1693
 9227SOL     OW39142   2.780   1.538   6.819  0.3637 -0.1797 -0.0748
 9227SOL    HW139143   2.803   1.482   6.894 -0.5792 -0.3761  0.0648
 9227SOL    HW239144   2.742   1.476   6.757 -1.0616 -0.1222  0.7459
 9228SOL     OW39145   4.460   3.709   2.040  0.0546 -0.4469 -1.0133
 9228SOL    HW139146   4.402   3.749   1.975  1.5679  2.4666 -0.5851
 9228SOL    HW239147   4.530   3.774   2.053  1.8280 -2.6031  0.1928
 9229SOL     OW39148   3.644   1.176   7.200 -0.5030  0.1092  0.5129
 9229SOL    HW139149   3.651   1.259   7.153 -1.9779  0.3731  0.7553
 9229SOL    HW239150   3.553   1.163   7.227 -1.0884 -1.0227 -2.0584
 9230SOL     OW39151   4.090   4.173   5.782 -0.3719 -0.4396  0.1231
 9230SOL    HW139152   3.997   4.157   5.767 -0.2596 -1.5676  0.5911
 9230SOL    HW239153   4.115   4.233   5.712 -1.7569 -0.8263 -0.7060
 9231SOL     OW39154   1.855   3.780  14.770  0.1649 -0.3218  0.4053
 9231SOL    HW139155   1.940   3.819  14.790 -0.4630  0.1784  2.1168
 9231SOL    HW239156   1.864   3.731  14.688  1.8554 -0.0498  0.4421
 9232SOL     OW39157   4.599   3.931   2.075 -0.3078 -0.7933 -0.4415
 9232SOL    HW139158   4.652   3.910   2.151 -0.3234  0.8461  0.0225
 9232SOL    HW239159   4.659   3.982   2.021 -1.2911 -0.8571 -1.5970
 9233SOL     OW39160   1.059   1.553   8.884  0.3459 -0.0184  0.0692
 9233SOL    HW139161   1.076   1.637   8.927  1.5385  0.6348 -1.6707
 9233SOL    HW239162   1.128   1.559   8.818 -0.9961  0.9888 -1.2453
 9234SOL     OW39163   4.648   2.070  14.888 -0.4469 -0.0298 -0.1288
 9234SOL    HW139164   4.564   2.058  14.932 -0.1821  0.0846  0.4002
 9234SOL    HW239165   4.684   1.981  14.890  0.2736  0.2543 -0.4226
 9235SOL     OW39166   1.933   4.006   5.497 -0.4523 -0.3793 -0.1469
 9235SOL    HW139167   1.963   4.034   5.584  0.5072 -0.2961 -0.5046
 9235SOL    HW239168   1.904   3.918   5.522 -1.0260  0.0211  0.6157
 9236SOL     OW39169   2.941   4.362   7.129  0.0618 -0.0095 -0.2092
 9236SOL    HW139170   2.846   4.357   7.126  0.2416 -1.9001 -2.4803
 9236SOL    HW239171   2.959   4.344   7.037 -0.5633  2.1498 -0.7500
 9237SOL     OW39172   0.426   1.207   1.736  0.0110 -0.1962 -0.0945
 9237SOL    HW139173   0.372   1.275   1.695 -0.5479 -0.5004  0.1426
 9237SOL    HW239174   0.419   1.139   1.669 -0.3488 -2.1612  1.9369
 9238SOL     OW39175   1.419   3.621   6.823 -0.0192 -0.2527  0.1909
 9238SOL    HW139176   1.485   3.679   6.783  0.1720  0.4263  1.4891
 9238SOL    HW239177   1.361   3.683   6.867  2.0716  0.8652  1.3489
 9239SOL     OW39178   2.660   0.005   5.695  0.5856 -0.1722 -0.2414
 9239SOL    HW139179   2.566   4.707   5.694  0.6935 -0.6668 -1.2493
 9239SOL    HW239180   2.659   0.090   5.738  1.8220 -0.5855  0.6088
 9240SOL     OW39181   1.261   1.672   7.537  0.2443 -0.3282  0.2311
 9240SOL    HW139182   1.354   1.648   7.536  0.6158  1.0093  1.6026
 9240SOL    HW239183   1.263   1.724   7.457 -1.6920  2.3067  1.9080
 9241SOL     OW39184   2.393   3.466  10.388 -0.1311 -0.2872 -0.0477
 9241SOL    HW139185   2.317   3.416  10.416 -0.3154  0.6187  1.0796
 9241SOL    HW239186   2.383   3.545  10.441 -0.3528  1.1570 -2.2267
 9242SOL     OW39187   1.255   0.957   6.857 -0.6893 -0.4690  0.4211
 9242SOL    HW139188   1.210   0.956   6.773 -1.2076 -3.2832  0.7423
 9242SOL    HW239189   1.189   0.980   6.923 -0.7114 -0.2879  0.3355
 9243SOL     OW39190   3.232   2.411   4.142 -0.1713 -0.1367 -0.0119
 9243SOL    HW139191   3.172   2.459   4.200  0.6923  1.1928 -0.2260
 9243SOL    HW239192   3.301   2.388   4.204 -0.0753 -1.9984 -0.8165
 9244SOL     OW39193   2.178   3.906   8.568  0.3128 -0.2616 -0.3443
 9244SOL    HW139194   2.089   3.874   8.559  0.3934 -1.4164  3.0225
 9244SOL    HW239195   2.190   3.910   8.663 -0.0166  2.0045 -0.3985
 9245SOL     OW39196   1.892   3.930   3.682 -0.2144 -0.0996  0.1298
 9245SOL    HW139197   1.968   3.909   3.627  0.5756  1.7738  0.4832
 9245SOL    HW239198   1.853   4.000   3.629 -2.4592 -0.6944  1.0062
 9246SOL     OW39199   4.068   3.661   3.492  0.4130  0.4912 -0.1096
 9246SOL    HW139200   4.019   3.730   3.446  1.2100  0.5727 -0.8371
 9246SOL    HW239201   4.046   3.589   3.433  0.2879 -0.3499  0.9760
 9247SOL     OW39202   1.629   4.687  14.730  0.2506 -0.2975 -0.0199
 9247SOL    HW139203   1.604   4.599  14.757  0.6358  0.1285  1.7427
 9247SOL    HW239204   1.703   4.696  14.791  0.0616 -2.7576  0.5645
 9248SOL     OW39205   3.624   1.657  13.251 -0.1495 -0.0084 -0.2134
 9248SOL    HW139206   3.639   1.737  13.200  0.9897 -1.4134 -2.0923
 9248SOL    HW239207   3.712   1.621  13.244 -0.3123 -0.2288 -1.0749
 9249SOL     OW39208   4.008   4.056   8.649  0.6128  0.0613 -0.1195
 9249SOL    HW139209   4.037   4.147   8.639 -2.2453  1.0052  0.2333
 9249SOL    HW239210   3.931   4.050   8.592 -0.5439  0.5725  1.3771
 9250SOL     OW39211   4.567   3.026   7.226  0.5450  0.1442 -0.3574
 9250SOL    HW139212   4.649   3.023   7.275 -0.0948 -0.5643  0.6839
 9250SOL    HW239213   4.580   2.945   7.176  3.5155  0.0243  0.6500
 9251SOL     OW39214   0.752   2.494   5.490  0.9809  0.0368  0.1808
 9251SOL    HW139215   0.812   2.565   5.515 -0.4431  0.6487  1.8682
 9251SOL    HW239216   0.684   2.520   5.552  2.0440 -0.1001  1.4025
 9252SOL     OW39217   4.013   0.969   1.731 -0.0313 -0.6465  0.1108
 9252SOL    HW139218   3.936   0.921   1.700  1.4420 -2.7589 -0.2843
 9252SOL    HW239219   4.000   1.062   1.711  3.6934 -0.0437  0.6197
 9253SOL     OW39220   0.782   4.240  11.870  0.2832  0.0591 -0.3008
 9253SOL    HW139221   0.877   4.229  11.873  0.2035 -0.3628  1.0100
 9253SOL    HW239222   0.774   4.331  11.899  0.6080 -0.0223  0.0434
 9254SOL     OW39223   1.625   4.671   0.959 -0.5830 -0.2032  0.0794
 9254SOL    HW139224   1.587   0.028   0.917 -1.0707 -0.9461 -0.8742
 9254SOL    HW239225   1.545   4.626   0.988  0.3867 -2.1885 -0.3706
 9255SOL     OW39226   0.579   2.349  12.902  0.2938 -0.3246  0.6489
 9255SOL    HW139227   0.647   2.385  12.846 -1.2556 -1.5326 -1.9666
 9255SOL    HW239228   0.569   2.263  12.863  0.2758  0.6411 -1.4518
 9256SOL     OW39229   4.191   3.463   3.653  0.0513 -0.0499 -0.9246
 9256SOL    HW139230   4.205   3.407   3.577  1.4405 -1.3237  0.2698
 9256SOL    HW239231   4.171   3.547   3.612  0.3262  0.1871 -0.5759
 9257SOL     OW39232   2.491   0.523   4.118 -0.1036 -0.1426  0.5668
 9257SOL    HW139233   2.516   0.518   4.210  0.4670 -2.8661  0.2771
 9257SOL    HW239234   2.407   0.476   4.122 -0.5490  0.6959  0.9650
 9258SOL     OW39235   4.713   2.789   0.716 -0.0922  0.0815 -0.6239
 9258SOL    HW139236   4.667   2.771   0.798  1.3508 -1.3714 -0.1287
 9258SOL    HW239237   4.687   2.880   0.701  1.2454  0.1506 -2.5597
 9259SOL     OW39238   0.848   0.071   7.658  0.5126 -0.3643 -0.2627
 9259SOL    HW139239   0.943   0.083   7.656  0.5440 -0.6022 -0.2141
 9259SOL    HW239240   0.827   0.048   7.749 -3.4099 -1.7237 -1.4883
 9260SOL     OW39241   1.252   4.555   6.896  0.8273  0.2230  0.7238
 9260SOL    HW139242   1.230   4.504   6.818 -1.3458  2.0627  0.1392
 9260SOL    HW239243   1.348   4.561   6.899  0.8111  1.7493 -1.7935
 9261SOL     OW39244   1.594   0.465   2.456  0.0204  0.4810 -0.2810
 9261SOL    HW139245   1.583   0.559   2.441  0.8196  0.5486 -0.4896
 9261SOL    HW239246   1.597   0.431   2.367  0.7025  2.2322 -0.9428
 9262SOL     OW39247   1.065   0.131   1.011  0.3155  0.4213  0.0100
 9262SOL    HW139248   1.054   0.050   0.961  1.4579  0.8274 -0.8995
 9262SOL    HW239249   0.979   0.134   1.054 -0.2382  0.3408 -1.0772
 9263SOL     OW39250   1.537   1.187   8.817  0.3351  0.2643  0.0575
 9263SOL    HW139251   1.592   1.263   8.839  0.4474 -0.1516  1.2206
 9263SOL    HW239252   1.596   1.119   8.784 -1.6744 -0.8970 -1.1152
 9264SOL     OW39253   3.059   2.684   2.243  0.3762 -0.4534 -0.4318
 9264SOL    HW139254   3.077   2.744   2.316  0.0069 -0.2815 -0.4784
 9264SOL    HW239255   3.065   2.609   2.302  1.8473 -0.5299 -0.6872
 9265SOL     OW39256   1.466   4.142  12.867 -0.0843 -0.4550 -0.0904
 9265SOL    HW139257   1.481   4.053  12.834 -1.0813 -0.4100 -0.6620
 9265SOL    HW239258   1.542   4.191  12.836 -0.7662  0.2308 -0.6642
 9266SOL     OW39259   0.758   3.955   7.665 -0.0383  0.1317 -0.0297
 9266SOL    HW139260   0.781   3.873   7.708 -1.0046 -0.5942 -0.8894
 9266SOL    HW239261   0.700   4.007   7.721 -0.4024  0.4196 -0.6692
 9267SOL     OW39262   4.344   3.981   4.513  0.1135  0.1694  0.4809
 9267SOL    HW139263   4.256   4.000   4.545  0.0334 -1.5131  1.2154
 9267SOL    HW239264   4.399   4.011   4.586 -1.4320  1.6113  1.0446
 9268SOL     OW39265   4.577   4.290   1.820  0.4265  0.3655  0.3087
 9268SOL    HW139266   4.499   4.295   1.765 -0.2393 -1.8504  1.0403
 9268SOL    HW239267   4.541   4.254   1.901 -0.8838  0.1321 -0.3717
 9269SOL     OW39268   3.377   1.668   6.547 -0.3885 -0.2186 -0.0641
 9269SOL    HW139269   3.472   1.675   6.554 -0.4598  0.1412  0.5332
 9269SOL    HW239270   3.355   1.755   6.582  2.9148  0.1853  0.9676
 9270SOL     OW39271   4.222   4.625   7.199  0.1459 -0.2230 -0.0039
 9270SOL    HW139272   4.152   4.592   7.255 -0.2310  0.5152 -0.0335
 9270SOL    HW239273   4.272   4.675   7.264 -1.7264 -1.5844  2.4652
 9271SOL     OW39274   0.253   3.879   5.166 -0.0896 -0.2705  0.5306
 9271SOL    HW139275   0.279   3.941   5.235  1.5948 -0.3862  0.0141
 9271SOL    HW239276   0.219   3.932   5.094 -2.3258 -3.2847 -0.6250
 9272SOL     OW39277   1.377   0.290   4.231  0.4885 -0.4809  0.4137
 9272SOL    HW139278   1.423   0.327   4.155 -0.8922 -3.2198 -1.7508
 9272SOL    HW239279   1.326   0.364   4.264  2.7608  0.8574  0.9208
 9273SOL     OW39280   2.276   0.494  17.350 -0.2273 -0.4232  0.0942
 9273SOL    HW139281   2.301   0.572  17.301  0.7464 -0.7374  0.0907
 9273SOL    HW239282   2.230   0.537  17.423  0.2624  0.8644 -0.3422
 9274SOL     OW39283   4.222   4.350   9.550 -0.0945 -0.1495 -0.2734
 9274SOL    HW139284   4.304   4.302   9.539 -2.3237 -3.9381 -0.3267
 9274SOL    HW239285   4.179   4.311   9.474  0.8985  1.3716 -1.6128
 9275SOL     OW39286   3.406   3.188   4.932  0.0780  0.0359 -0.3367
 9275SOL    HW139287   3.450   3.240   4.864 -1.7561  0.5865 -1.0965
 9275SOL    HW239288   3.470   3.122   4.959 -0.2329 -0.1818 -0.1453
 9276SOL     OW39289   0.763   3.280   6.967  0.1287 -0.6089 -0.2169
 9276SOL    HW139290   0.793   3.200   7.011 -1.6772 -1.6433 -0.8769
 9276SOL    HW239291   0.794   3.345   7.030 -1.4845 -0.1238  0.0747
 9277SOL     OW39292   3.184   1.973  13.261  0.3691 -0.1424 -0.0171
 9277SOL    HW139293   3.102   1.930  13.286 -0.3812  0.8894 -0.6769
 9277SOL    HW239294   3.233   1.892  13.250 -1.0727 -1.0506  0.1742
 9278SOL     OW39295   1.414   1.826  12.139 -0.4386  0.2153 -0.4054
 9278SOL    HW139296   1.340   1.777  12.175  0.3091 -0.2168  0.5145
 9278SOL    HW239297   1.404   1.800  12.048 -0.4470 -1.9953  0.2271
 9279SOL     OW39298   4.298   1.733   2.499  0.1497  0.4115 -0.1905
 9279SOL    HW139299   4.299   1.827   2.481  0.5638  0.3804 -0.3272
 9279SOL    HW239300   4.301   1.691   2.413 -1.1829  0.7985 -0.4308
 9280SOL     OW39301   0.052   4.379   8.967  0.5705 -0.1075  0.2564
 9280SOL    HW139302   4.702   4.394   9.030  0.3881 -1.4551  0.3650
 9280SOL    HW239303   0.073   4.470   8.946  0.9285 -0.0782  0.7343
 9281SOL     OW39304   2.053   1.985  17.344 -0.2114 -0.1895 -0.0131
 9281SOL    HW139305   2.146   1.976  17.322  0.3231  2.5749  1.2792
 9281SOL    HW239306   2.055   1.907  17.400  0.4779  0.6688  1.1488
 9282SOL     OW39307   3.452   3.896   2.871 -0.1278 -0.3104  0.0177
 9282SOL    HW139308   3.483   3.821   2.819  1.7988 -0.6573  1.6539
 9282SOL    HW239309   3.418   3.951   2.800 -0.1627  0.9140  0.9990
 9283SOL     OW39310   1.790   1.203   8.258 -0.5411 -0.1190  0.7024
 9283SOL    HW139311   1.728   1.273   8.278 -0.4577  0.3489 -0.6502
 9283SOL    HW239312   1.840   1.218   8.178 -0.4733 -0.4054  0.6919
 9284SOL     OW39313   3.759   2.286   8.871 -0.2553 -0.0828  0.6450
 9284SOL    HW139314   3.738   2.308   8.962 -1.5491  2.1143 -0.1970
 9284SOL    HW239315   3.845   2.327   8.860 -0.0876 -1.1025 -1.8434
 9285SOL     OW39316   4.296   3.189   8.908 -0.1704 -0.6330 -0.7422
 9285SOL    HW139317   4.227   3.162   8.969 -0.7531 -2.6773 -2.3159
 9285SOL    HW239318   4.245   3.212   8.830 -0.8172  1.6132  0.3468
 9286SOL     OW39319   0.316   3.985   6.582 -0.3229 -0.3444 -0.3869
 9286SOL    HW139320   0.256   4.023   6.646  0.4797 -0.7997  0.6394
 9286SOL    HW239321   0.394   4.029   6.615 -1.1843  0.0310  1.1172
 9287SOL     OW39322   2.827   3.168   6.060 -0.0865  0.3193  0.3896
 9287SOL    HW139323   2.746   3.189   6.106 -1.5170 -3.4326 -0.3999
 9287SOL    HW239324   2.791   3.101   6.002 -0.2997  0.4908  0.3266
 9288SOL     OW39325   4.384   2.605   0.943  0.3351 -0.0663  0.2739
 9288SOL    HW139326   4.341   2.530   0.902 -0.2026  0.7500 -0.6650
 9288SOL    HW239327   4.339   2.680   0.903 -1.7074 -1.7507 -0.5930
 9289SOL     OW39328   0.512   3.852   9.364  0.5796  0.5429 -0.2352
 9289SOL    HW139329   0.505   3.847   9.268 -0.0197 -2.1669 -0.0492
 9289SOL    HW239330   0.551   3.938   9.377  0.6986  1.0012 -3.4207
 9290SOL     OW39331   2.952   2.321   9.108 -0.3897  0.4437 -0.5867
 9290SOL    HW139332   2.955   2.265   9.186  0.4970  0.5658 -0.5355
 9290SOL    HW239333   2.989   2.256   9.048 -1.6622  0.3489 -1.2702
 9291SOL     OW39334   2.970   3.429   2.217 -0.3327 -0.1651  0.5623
 9291SOL    HW139335   2.922   3.502   2.178  1.6042  0.1714 -1.1676
 9291SOL    HW239336   2.989   3.373   2.142 -2.2746  0.9011 -0.7284
 9292SOL     OW39337   1.942   2.538   3.654 -0.0788  0.1247  0.4734
 9292SOL    HW139338   1.932   2.630   3.678 -0.6225 -0.1063  1.1254
 9292SOL    HW239339   1.896   2.535   3.570 -0.9057 -0.6123  0.9520
 9293SOL     OW39340   0.772   1.277  15.928  0.5613  0.2642 -0.0722
 9293SOL    HW139341   0.689   1.265  15.881  0.3972 -0.5693  0.4189
 9293SOL    HW239342   0.787   1.184  15.944 -1.8206 -0.1507 -0.1572
 9294SOL     OW39343   3.309   1.908  13.630  0.5184  0.1632 -0.1639
 9294SOL    HW139344   3.355   1.862  13.699 -0.8612 -0.8066  0.1201
 9294SOL    HW239345   3.258   1.836  13.591  0.7426 -0.2571  0.3194
 9295SOL     OW39346   3.792   4.193   5.197 -0.3934 -0.1112  0.0982
 9295SOL    HW139347   3.718   4.134   5.213 -0.6792  0.6936  1.6725
 9295SOL    HW239348   3.854   4.145   5.252  0.3825 -2.2059 -2.5972
 9296SOL     OW39349   4.355   4.092   2.987  0.3687  0.0809 -0.3589
 9296SOL    HW139350   4.438   4.045   2.984  0.8297  0.9530 -1.5465
 9296SOL    HW239351   4.304   4.031   3.040  1.5948 -1.4672 -0.9655
 9297SOL     OW39352   3.843   0.721   5.902  0.4874 -0.3438 -0.6096
 9297SOL    HW139353   3.893   0.710   5.982 -0.2898  0.5240  0.0024
 9297SOL    HW239354   3.786   0.798   5.910  0.8281 -0.3006  1.2804
 9298SOL     OW39355   1.998   3.795  13.113  0.4198 -0.3167  0.4029
 9298SOL    HW139356   1.952   3.753  13.186 -1.0640  0.8480  0.1284
 9298SOL    HW239357   2.075   3.823  13.163  1.1677 -0.0263 -0.9362
 9299SOL     OW39358   2.794   4.257   6.804 -0.0061  0.4337  0.3624
 9299SOL    HW139359   2.888   4.259   6.824  0.4026  0.9749 -1.6253
 9299SOL    HW239360   2.760   4.285   6.889 -3.1961  1.6644 -1.3550
 9300SOL     OW39361   0.729   1.591   2.155 -0.9423 -0.0327  0.2994
 9300SOL    HW139362   0.714   1.660   2.090 -1.8667  0.3482  0.9126
 9300SOL    HW239363   0.665   1.527   2.123 -0.7481 -0.1772  0.1998
 9301SOL     OW39364   3.408   2.209   7.982 -0.1431 -0.6894  0.2060
 9301SOL    HW139365   3.388   2.169   8.067 -1.3242  1.4898  0.9666
 9301SOL    HW239366   3.365   2.294   7.991 -1.7390 -1.5876  1.0437
 9302SOL     OW39367   1.070   1.354   8.369  0.2388 -0.7102  0.2143
 9302SOL    HW139368   1.026   1.276   8.402 -3.0436  0.9501 -0.2449
 9302SOL    HW239369   1.163   1.331   8.370  0.5554  0.5401 -0.3845
 9303SOL     OW39370   3.638   3.482   1.296 -0.1680 -0.0382  0.5631
 9303SOL    HW139371   3.545   3.489   1.272 -0.7721 -0.3817  2.7174
 9303SOL    HW239372   3.629   3.428   1.375  3.9532 -1.3743  0.0729
 9304SOL     OW39373   3.383   1.635   3.629 -0.1413 -0.2801  0.0393
 9304SOL    HW139374   3.424   1.548   3.632  1.4146  0.5297  1.9461
 9304SOL    HW239375   3.301   1.629   3.678  0.5742  0.2465  1.3085
 9305SOL     OW39376   2.346   2.734  17.025  0.3249  0.7831  0.1724
 9305SOL    HW139377   2.366   2.774  16.941  0.1041 -0.2568 -0.3610
 9305SOL    HW239378   2.327   2.643  17.005 -0.7611  1.0937 -0.1957
 9306SOL     OW39379   1.103   3.606   8.735  0.4613 -0.0805  0.5869
 9306SOL    HW139380   1.161   3.583   8.807  1.8666 -0.4298 -0.6617
 9306SOL    HW239381   1.013   3.602   8.767 -0.1163 -2.1245 -1.2229
 9307SOL     OW39382   3.406   3.785  11.401  0.1539  0.8970 -0.2101
 9307SOL    HW139383   3.474   3.820  11.459  0.1706  2.0038 -0.8988
 9307SOL    HW239384   3.383   3.708  11.452 -0.3160  0.5245 -0.9870
 9308SOL     OW39385   2.362   4.619   9.678  0.5038 -0.0236  0.4752
 9308SOL    HW139386   2.398   4.573   9.602 -0.4329 -0.1501  0.1013
 9308SOL    HW239387   2.291   4.664   9.632 -0.2697 -1.5378  0.1727
 9309SOL     OW39388   4.333   1.079  16.716 -0.0546  0.2088  0.3197
 9309SOL    HW139389   4.268   1.149  16.705 -1.9926 -2.1033 -2.9732
 9309SOL    HW239390   4.389   1.096  16.640 -1.0256  3.2441  0.2699
 9310SOL     OW39391   1.745   4.414  13.124 -0.2012 -0.8080  0.2338
 9310SOL    HW139392   1.766   4.507  13.136  1.2947 -1.3327  1.6729
 9310SOL    HW239393   1.755   4.396  13.031  0.8695 -1.4889  0.4842
 9311SOL     OW39394   1.728   4.088  13.044 -0.4118  0.1620 -0.0822
 9311SOL    HW139395   1.716   3.995  13.064 -2.1313  0.2680 -0.6741
 9311SOL    HW239396   1.763   4.093  12.955 -1.4365 -1.1842 -0.5645
 9312SOL     OW39397   0.738   3.169  11.715 -0.8677 -0.1641 -0.0147
 9312SOL    HW139398   0.653   3.195  11.747 -1.5281 -0.7053 -1.2946
 9312SOL    HW239399   0.794   3.234  11.757 -2.1024  0.1963  1.0439
 9313SOL     OW39400   0.687   3.163  17.173 -0.3195  0.2723 -0.1375
 9313SOL    HW139401   0.751   3.234  17.164 -0.7948  0.6323 -0.6556
 9313SOL    HW239402   0.735   3.093  17.217  0.4850  0.9509  0.0888
 9314SOL     OW39403   2.747   0.193   6.936  0.2185  0.2345 -0.1288
 9314SOL    HW139404   2.744   0.216   6.843 -0.4926  2.3591  0.4236
 9314SOL    HW239405   2.794   0.110   6.931 -0.2067 -0.0565  0.7805
 9315SOL     OW39406   4.624   1.815   9.456  0.1861 -0.3111 -0.1599
 9315SOL    HW139407   4.672   1.898   9.449  1.3256 -0.9942 -0.4590
 9315SOL    HW239408   4.667   1.774   9.531 -1.0101 -2.0145 -0.3965
 9316SOL     OW39409   3.671   0.896   6.450 -0.1459  0.4344  0.2270
 9316SOL    HW139410   3.662   0.868   6.541 -0.8683 -1.5369 -0.4447
 9316SOL    HW239411   3.678   0.991   6.457  2.9066  0.4182 -2.1446
 9317SOL     OW39412   3.524   4.714   1.610 -0.0947  0.2211  0.2418
 9317SOL    HW139413   3.477   4.710   1.694  0.0764  0.3057  0.3414
 9317SOL    HW239414   3.521   4.624   1.576  3.6389 -0.6123  2.1183
 9318SOL     OW39415   4.476   4.048  11.458 -0.1231 -0.9217 -0.6362
 9318SOL    HW139416   4.525   4.015  11.382 -1.1525 -1.5196 -1.0407
 9318SOL    HW239417   4.534   4.036  11.533  0.7358 -0.3207 -1.2102
 9319SOL     OW39418   1.179   2.590   9.812 -0.2485  0.5404 -0.1790
 9319SOL    HW139419   1.153   2.674   9.775 -3.5045 -0.1801  0.4734
 9319SOL    HW239420   1.183   2.533   9.736 -1.0546 -0.1401  0.2781
 9320SOL     OW39421   3.183   3.725   9.710 -0.1767 -0.4756 -0.0311
 9320SOL    HW139422   3.218   3.806   9.746 -0.9297  0.2077 -0.8213
 9320SOL    HW239423   3.152   3.754   9.624 -2.6428  0.4015  1.1578
 9321SOL     OW39424   3.771   0.223   4.564  0.8622  0.3315  0.2775
 9321SOL    HW139425   3.749   0.215   4.657  0.5023 -0.8599  0.0818
 9321SOL    HW239426   3.686   0.253   4.532  0.2137 -0.6568  1.0863
 9322SOL     OW39427   1.196   4.055   7.668  0.4604 -1.0051  0.6121
 9322SOL    HW139428   1.226   3.974   7.709 -0.6335 -2.0588 -0.7134
 9322SOL    HW239429   1.133   4.090   7.732  1.6080 -0.5455  1.4989
 9323SOL     OW39430   0.588   4.407   6.105 -0.1127  0.7005  0.2614
 9323SOL    HW139431   0.548   4.324   6.079  0.6275  1.5044 -3.3940
 9323SOL    HW239432   0.587   4.455   6.022  1.0656 -0.3723 -0.3621
 9324SOL     OW39433   3.177   4.167   5.245  0.1411 -0.0053 -0.0766
 9324SOL    HW139434   3.136   4.251   5.266  2.4170  1.1021 -0.0245
 9324SOL    HW239435   3.256   4.199   5.201 -0.3525 -1.8129 -2.2660
 9325SOL     OW39436   1.082   0.323   4.677  0.2541  0.0624 -0.3039
 9325SOL    HW139437   1.113   0.306   4.766 -1.2229  2.3342  0.6466
 9325SOL    HW239438   1.154   0.362   4.627 -1.3987  2.1996 -1.0431
 9326SOL     OW39439   3.491   3.851   0.295  0.1898  0.4375  0.4124
 9326SOL    HW139440   3.439   3.845   0.215 -1.8288 -0.5436  1.8089
 9326SOL    HW239441   3.428   3.842   0.366  1.6762 -0.0372  1.6768
 9327SOL     OW39442   1.176   0.902   6.117 -0.0565  0.3391  0.2234
 9327SOL    HW139443   1.127   0.960   6.175 -3.0715  0.7387 -2.7626
 9327SOL    HW239444   1.108   0.866   6.060  2.1901 -0.7582 -1.7891
 9328SOL     OW39445   0.358   0.115   8.619 -0.4497 -0.3992  0.3196
 9328SOL    HW139446   0.453   0.109   8.609 -0.3413  2.1428 -0.1254
 9328SOL    HW239447   0.325   0.088   8.534  0.7795  0.4911 -0.4355
 9329SOL     OW39448   4.539   2.353   9.430  0.1751  0.0718  0.5136
 9329SOL    HW139449   4.535   2.366   9.525 -0.5767  1.2613  0.3225
 9329SOL    HW239450   4.455   2.393   9.407 -0.4257 -2.2282 -1.2789
 9330SOL     OW39451   3.664   0.722   8.245  0.0769  0.2268 -0.4429
 9330SOL    HW139452   3.666   0.629   8.224  0.2111  0.8612 -3.2915
 9330SOL    HW239453   3.617   0.719   8.328  0.4883 -1.7454 -0.2908
 9331SOL     OW39454   4.016   2.954   0.328  0.0967 -0.2736 -0.4719
 9331SOL    HW139455   3.943   3.013   0.309 -0.0025  0.3394  1.7728
 9331SOL    HW239456   4.079   2.995   0.269  0.6640  1.5308  1.3707
 9332SOL     OW39457   1.378   1.267   7.701  0.3513  0.0479  0.0483
 9332SOL    HW139458   1.292   1.262   7.743 -0.4986  2.1187 -1.4524
 9332SOL    HW239459   1.381   1.174   7.678  0.6448  1.1056 -4.0317
 9333SOL     OW39460   2.450   0.515   4.699 -0.0921  0.0819 -0.4289
 9333SOL    HW139461   2.533   0.552   4.667 -0.8725  0.1204 -2.3575
 9333SOL    HW239462   2.485   0.447   4.757  1.1070  1.4988  0.5194
 9334SOL     OW39463   3.845   4.397   1.112  0.0895 -0.0247 -0.1664
 9334SOL    HW139464   3.871   4.307   1.133  1.2295  0.0125 -1.3608
 9334SOL    HW239465   3.822   4.393   1.019  0.1473  2.7199 -0.3144
 9335SOL     OW39466   0.300   3.697  15.033 -0.9042  0.1591  0.3492
 9335SOL    HW139467   0.345   3.651  14.962 -0.3966 -1.8384  1.9791
 9335SOL    HW239468   0.243   3.630  15.071 -0.9217 -0.6851 -1.1731
 9336SOL     OW39469   4.375   3.449   0.648  0.0982 -0.3322 -0.4855
 9336SOL    HW139470   4.337   3.392   0.581 -1.1023 -0.0828 -0.0131
 9336SOL    HW239471   4.339   3.413   0.729  1.1652 -0.9512 -0.2835
 9337SOL     OW39472   0.142   2.330   7.812 -0.0393 -0.3764 -0.1740
 9337SOL    HW139473   0.069   2.296   7.863 -0.9511 -1.7358 -2.4031
 9337SOL    HW239474   0.191   2.371   7.884 -1.0274 -0.3289  0.4658
 9338SOL     OW39475   0.056   3.561  17.673 -0.2266  0.0788  0.0315
 9338SOL    HW139476   0.022   3.558   0.077 -0.2698  1.2463  0.0553
 9338SOL    HW239477   0.051   3.467  17.655 -2.0041  0.6499 -2.3753
 9339SOL     OW39478   1.635   2.392  14.390 -0.1968  0.4903  0.3375
 9339SOL    HW139479   1.601   2.315  14.436 -1.3963  0.7555 -0.1193
 9339SOL    HW239480   1.577   2.400  14.315  0.7843  0.5661 -0.4155
 9340SOL     OW39481   0.209   0.010   6.525  0.6284  0.0884 -0.1603
 9340SOL    HW139482   0.269   4.676   6.473  0.5749 -0.7910  0.7125
 9340SOL    HW239483   0.269   0.085   6.525 -0.6860  1.1305  1.6021
 9341SOL     OW39484   0.956   2.233  10.781  0.0757  0.2474 -0.0856
 9341SOL    HW139485   0.892   2.299  10.754  0.8349  0.7240 -0.7344
 9341SOL    HW239486   0.997   2.262  10.862 -1.3431 -0.4200  0.8582
 9342SOL     OW39487   4.215   4.159  14.331 -0.3264 -0.6773  0.1349
 9342SOL    HW139488   4.128   4.123  14.345 -1.8907  2.8639 -0.3310
 9342SOL    HW239489   4.269   4.112  14.395  0.1101 -1.6816 -0.9728
 9343SOL     OW39490   3.533   4.270   2.323  0.3737  0.0775  0.1845
 9343SOL    HW139491   3.574   4.235   2.403  2.6616  0.4506 -0.8247
 9343SOL    HW239492   3.616   4.311   2.296 -0.5281  2.4233  0.9947
 9344SOL     OW39493   4.389   0.120   4.647  0.3368  0.0947  0.6568
 9344SOL    HW139494   4.374   0.144   4.739 -1.0918 -0.0649  0.4751
 9344SOL    HW239495   4.434   0.036   4.647  0.8685  0.3860 -3.5849
 9345SOL     OW39496   2.491   2.027   8.576 -0.1801  0.0568  0.4219
 9345SOL    HW139497   2.511   2.008   8.484 -1.3246 -1.5761  0.5085
 9345SOL    HW239498   2.402   1.993   8.573 -0.1953  0.0985  0.4014
 9346SOL     OW39499   2.423   2.598   2.111  0.2486 -0.1932 -0.1015
 9346SOL    HW139500   2.404   2.639   2.196 -2.2984 -3.7599  1.0697
 9346SOL    HW239501   2.391   2.657   2.043  1.0555 -0.2325 -0.5175
 9347SOL     OW39502   1.382   1.407  11.679 -0.4094  0.2117 -0.9151
 9347SOL    HW139503   1.445   1.365  11.620  2.7846  2.6261  0.7566
 9347SOL    HW239504   1.308   1.348  11.664 -0.3891  0.1793 -0.8894
 9348SOL     OW39505   0.616   1.352  10.331  0.0759  0.0013 -0.6073
 9348SOL    HW139506   0.680   1.291  10.368 -0.0149  1.0038  1.2023
 9348SOL    HW239507   0.639   1.351  10.238 -0.7668 -1.6014 -0.7925
 9349SOL     OW39508   0.919   2.382  15.904 -0.7698  0.6568 -0.0258
 9349SOL    HW139509   0.911   2.410  15.812  1.3634  1.2508 -0.0420
 9349SOL    HW239510   0.830   2.377  15.938 -0.9581 -2.7106 -1.0785
 9350SOL     OW39511   3.776   3.810   0.075 -0.1514 -0.0812  0.3681
 9350SOL    HW139512   3.717   3.877   0.043 -0.3356 -0.3825  0.0727
 9350SOL    HW239513   3.847   3.870   0.100 -0.8662  1.1352 -0.5343
 9351SOL     OW39514   0.837   3.176   8.629  0.0309  0.0130 -0.3273
 9351SOL    HW139515   0.810   3.098   8.581 -0.0019  0.1131 -0.4722
 9351SOL    HW239516   0.903   3.223   8.578 -0.3504 -0.9390 -1.6931
 9352SOL     OW39517   1.894   2.183   8.877 -0.1253 -0.6581  0.5049
 9352SOL    HW139518   1.891   2.107   8.935  1.4290 -0.8265  0.3589
 9352SOL    HW239519   1.874   2.254   8.939  1.7787 -1.2707  1.8340
 9353SOL     OW39520   3.915   1.706   6.491  0.0556 -0.0685 -0.2893
 9353SOL    HW139521   3.954   1.712   6.579  0.5064  2.3282 -0.6655
 9353SOL    HW239522   3.958   1.775   6.442 -1.0524  1.1325  0.4316
 9354SOL     OW39523   2.499   3.633   7.557 -0.5519 -0.1478  0.3941
 9354SOL    HW139524   2.418   3.593   7.590 -1.4994  0.9502 -0.6447
 9354SOL    HW239525   2.459   3.707   7.512 -1.0070  0.1487  1.2891
 9355SOL     OW39526   3.313   0.092   3.194  0.0627 -0.3492 -0.1078
 9355SOL    HW139527   3.379   0.026   3.211  1.6198  1.9153  2.5617
 9355SOL    HW239528   3.299   0.137   3.277  1.2635  1.4408 -0.8514
 9356SOL     OW39529   1.667   1.848   5.460  0.2181  0.2206  0.0366
 9356SOL    HW139530   1.661   1.759   5.424  0.4395 -0.0236  0.6005
 9356SOL    HW239531   1.692   1.905   5.387 -1.1421  0.9464  0.1301
 9357SOL     OW39532   3.582   1.011   2.272  0.4156 -0.4119  0.3442
 9357SOL    HW139533   3.516   1.069   2.234  1.2942  0.4251  0.0885
 9357SOL    HW239534   3.644   0.995   2.201  0.3024 -0.4185  0.2482
 9358SOL     OW39535   2.956   0.721   6.273 -0.0665 -0.2923  0.1140
 9358SOL    HW139536   2.886   0.743   6.211  1.0439  0.1493 -0.9704
 9358SOL    HW239537   3.013   0.670   6.216 -0.3460 -0.8358  0.3268
 9359SOL     OW39538   2.218   1.964   8.562  0.1153  0.0231 -0.6869
 9359SOL    HW139539   2.202   1.872   8.586 -0.5574  0.0117 -1.1906
 9359SOL    HW239540   2.172   2.012   8.631 -0.6051 -1.6210 -0.0202
 9360SOL     OW39541   1.072   1.461   5.507 -0.6323  0.4633  0.6058
 9360SOL    HW139542   1.055   1.555   5.503 -1.6102  0.0746 -4.0621
 9360SOL    HW239543   1.168   1.459   5.510 -0.4314  3.5330 -3.3997
 9361SOL     OW39544   0.777   0.514  15.784 -0.3149  0.3328 -0.6849
 9361SOL    HW139545   0.693   0.485  15.820  1.5155 -0.1733  3.1849
 9361SOL    HW239546   0.836   0.464  15.841 -0.3688  0.5021 -0.4790
 9362SOL     OW39547   1.717   2.109   2.600  0.3018 -0.0812  0.6861
 9362SOL    HW139548   1.737   2.127   2.508 -0.7214 -1.3773  0.2045
 9362SOL    HW239549   1.769   2.034   2.627  1.9103 -0.0507 -2.2961
 9363SOL     OW39550   2.122   3.488  15.084 -0.1406  0.2720 -0.1203
 9363SOL    HW139551   2.193   3.497  15.020  2.9370 -1.9892  2.9950
 9363SOL    HW239552   2.175   3.458  15.158 -0.9861  2.0977  1.2243
 9364SOL     OW39553   1.975   4.455  16.366  0.1715  0.4614 -0.0769
 9364SOL    HW139554   2.042   4.423  16.426  0.0292  2.6634  1.2438
 9364SOL    HW239555   1.887   4.446  16.404 -0.4056 -1.8493 -1.9601
 9365SOL     OW39556   3.445   0.777   8.081 -0.2510 -0.3863  0.2940
 9365SOL    HW139557   3.386   0.731   8.142  1.3082 -2.8537 -0.0566
 9365SOL    HW239558   3.529   0.757   8.122  1.2590  2.1697 -1.6063
 9366SOL     OW39559   0.979   3.385  16.673 -0.1138 -0.6073 -0.5419
 9366SOL    HW139560   1.005   3.476  16.666 -1.3542 -0.3082 -1.1891
 9366SOL    HW239561   1.064   3.342  16.666  0.9664  0.5971  4.8482
 9367SOL     OW39562   0.872   3.340  17.100 -0.2535  0.3227 -0.0973
 9367SOL    HW139563   0.968   3.346  17.097 -0.2138 -1.4638 -2.1650
 9367SOL    HW239564   0.858   3.345  17.006 -2.2455  1.1240  0.2461
 9368SOL     OW39565   0.604   1.159   0.679  0.0187 -0.2115  0.1254
 9368SOL    HW139566   0.531   1.192   0.730 -2.0440 -1.2478 -2.1554
 9368SOL    HW239567   0.678   1.185   0.734  1.8141  1.4399 -3.0681
 9369SOL     OW39568   1.457   0.194   5.260 -0.2544  0.5998 -0.0851
 9369SOL    HW139569   1.435   0.215   5.169 -1.1329 -0.9182 -0.2198
 9369SOL    HW239570   1.410   0.263   5.308 -1.0320 -0.9034  1.3029
 9370SOL     OW39571   2.915   3.690   3.360  0.2934  0.0701 -0.0265
 9370SOL    HW139572   2.937   3.691   3.267  0.9594 -0.3962  0.1262
 9370SOL    HW239573   2.996   3.658   3.400 -0.7696 -1.9312  0.5062
 9371SOL     OW39574   3.061   1.690   7.380  0.0217 -0.6414 -0.1817
 9371SOL    HW139575   3.103   1.770   7.412  2.1174 -1.5433 -0.6744
 9371SOL    HW239576   3.100   1.619   7.432  0.1969 -0.5289 -0.1601
 9372SOL     OW39577   3.238   0.002   7.720  0.4167  0.0901  0.2785
 9372SOL    HW139578   3.238   0.084   7.770 -1.5273  1.9016 -2.7133
 9372SOL    HW239579   3.327   0.000   7.686  1.1262  0.8669  2.1085
 9373SOL     OW39580   1.261   0.897   5.523 -0.2626  0.5748  0.0270
 9373SOL    HW139581   1.175   0.935   5.508 -0.6196 -1.5242 -3.2395
 9373SOL    HW239582   1.229   0.807   5.524 -1.1879  0.8924 -1.0015
 9374SOL     OW39583   1.337   2.666   3.513  0.2999  0.1507 -0.1156
 9374SOL    HW139584   1.301   2.675   3.601 -1.2946 -2.9195 -0.4621
 9374SOL    HW239585   1.320   2.756   3.483  1.2700  0.8021  1.2915
 9375SOL     OW39586   0.098   1.841   6.309  0.5767  0.0691 -0.0588
 9375SOL    HW139587   0.067   1.911   6.251 -0.0200  1.2641  1.7260
 9375SOL    HW239588   0.171   1.814   6.253  0.7238  1.6830 -0.6646
 9376SOL     OW39589   3.583   4.101   6.196 -0.2692 -0.2760 -0.2675
 9376SOL    HW139590   3.510   4.040   6.192 -0.2942 -0.1650 -1.3681
 9376SOL    HW239591   3.641   4.066   6.264 -1.2753 -0.9876  0.2212
 9377SOL     OW39592   3.907   0.683   8.439  0.3122 -0.3332 -0.1917
 9377SOL    HW139593   3.896   0.673   8.533 -0.9021 -0.4457 -0.3475
 9377SOL    HW239594   3.821   0.659   8.404  1.0767 -1.2900 -1.3810
 9378SOL     OW39595   1.015   2.836   1.549 -0.1433  0.3686  0.2597
 9378SOL    HW139596   0.921   2.824   1.559 -0.3415  1.9489  0.2449
 9378SOL    HW239597   1.041   2.879   1.631  1.5963 -1.5155  0.6902
 9379SOL     OW39598   1.567   2.421   5.619  0.0288 -0.3061  0.2445
 9379SOL    HW139599   1.514   2.501   5.624  0.2593 -0.0947 -0.6725
 9379SOL    HW239600   1.531   2.357   5.680  0.6717 -0.1140  0.8354
 9380SOL     OW39601   4.186   0.271  16.542 -0.0473 -0.2178  0.3103
 9380SOL    HW139602   4.216   0.191  16.586  0.4947 -0.5631 -0.6857
 9380SOL    HW239603   4.099   0.282  16.582  0.6621  1.1414  1.4669
 9381SOL     OW39604   0.027   1.376   8.671 -0.2963  0.3188  0.4313
 9381SOL    HW139605   0.087   1.340   8.736 -0.4966 -1.0477 -0.1386
 9381SOL    HW239606   4.671   1.320   8.680 -1.2030  1.0717 -2.6046
 9382SOL     OW39607   3.153   0.883   8.312  0.0932  0.4703  0.3758
 9382SOL    HW139608   3.111   0.965   8.286  1.2245  0.7518 -0.5638
 9382SOL    HW239609   3.161   0.901   8.405 -1.0563 -0.1854  0.6076
 9383SOL     OW39610   1.733   4.567   8.797 -0.4400  0.3189 -0.5762
 9383SOL    HW139611   1.812   4.584   8.746 -0.9059 -0.8464 -1.6643
 9383SOL    HW239612   1.679   4.637   8.760 -0.0210  1.5130  1.0483
 9384SOL     OW39613   2.671   4.031   9.963 -0.0257  0.0281 -0.0796
 9384SOL    HW139614   2.674   3.937   9.978 -1.8843 -0.0849 -0.4495
 9384SOL    HW239615   2.688   4.033   9.869  0.5733 -1.3697 -0.0027
 9385SOL     OW39616   1.581   4.708  15.844  1.0750  0.5575 -0.5368
 9385SOL    HW139617   1.503   4.663  15.876  1.6825  0.9411  1.4528
 9385SOL    HW239618   1.627   4.640  15.795 -0.4433 -0.4925 -0.5084
 9386SOL     OW39619   0.813   4.146   4.436  0.1190  0.0681  0.6365
 9386SOL    HW139620   0.889   4.196   4.405 -0.1968  0.9798  1.3475
 9386SOL    HW239621   0.851   4.072   4.483  0.7708  0.0240  0.0443
 9387SOL     OW39622   2.112   3.508   0.972  0.5016 -0.7576  0.9849
 9387SOL    HW139623   2.202   3.538   0.959  0.1112  0.0768  0.2381
 9387SOL    HW239624   2.086   3.564   1.045  0.3278 -0.2929  0.5655
 9388SOL     OW39625   3.679   3.369   9.433 -0.9672  0.9952 -0.4170
 9388SOL    HW139626   3.760   3.354   9.481 -1.1423  2.1409  0.2315
 9388SOL    HW239627   3.653   3.444   9.487  1.0865  1.3731  0.0503
 9389SOL     OW39628   3.912   1.876   3.956  0.4907 -0.0195 -0.3191
 9389SOL    HW139629   3.894   1.783   3.948 -1.1794  0.2589  0.1172
 9389SOL    HW239630   4.006   1.872   3.973  0.3103  1.0483  0.9505
 9390SOL     OW39631   0.005   3.164   1.133  0.2857  0.1088  0.0045
 9390SOL    HW139632   4.683   3.138   1.215  2.2255 -2.3535  0.2478
 9390SOL    HW239633   4.677   3.243   1.111  1.0159  0.7311  0.6628
 9391SOL     OW39634   4.040   1.477   1.189 -0.1896  0.4213 -0.0036
 9391SOL    HW139635   3.994   1.395   1.201  2.4620 -0.9974  0.4414
 9391SOL    HW239636   4.056   1.474   1.095 -0.5045 -1.5374  0.0100
 9392SOL     OW39637   1.162   4.024   3.446 -0.1401  0.2756 -0.1368
 9392SOL    HW139638   1.183   4.087   3.377 -0.6815 -0.1230 -0.6673
 9392SOL    HW239639   1.247   4.035   3.489 -0.8789  0.0118  1.3820
 9393SOL     OW39640   2.717   3.538  11.004 -0.0222 -0.3030  0.0331
 9393SOL    HW139641   2.781   3.545  11.075 -1.3592  0.0065  1.1947
 9393SOL    HW239642   2.635   3.543  11.052  0.7208  0.9137  1.1921
 9394SOL     OW39643   2.471   3.621   3.102  0.3027  0.5607 -0.0820
 9394SOL    HW139644   2.392   3.662   3.136  0.4935  0.9050 -0.0527
 9394SOL    HW239645   2.537   3.688   3.119  1.4999 -0.6918  0.2329
 9395SOL     OW39646   0.535   0.114  11.297  0.0272  0.2037  0.3464
 9395SOL    HW139647   0.479   0.189  11.321 -1.3306 -0.1292 -1.7862
 9395SOL    HW239648   0.593   0.154  11.233 -0.7902  2.0969  0.7633
 9396SOL     OW39649   3.312   2.308  12.966 -0.5997  0.1815  0.1766
 9396SOL    HW139650   3.274   2.236  12.915 -0.8434  2.8556 -3.4525
 9396SOL    HW239651   3.265   2.304  13.049  0.0181  2.2420  0.6144
 9397SOL     OW39652   0.118   0.568  13.957 -0.4356  0.2744  0.2144
 9397SOL    HW139653   0.121   0.623  14.035 -0.3471 -2.1142  1.9152
 9397SOL    HW239654   0.208   0.578  13.926 -0.5774  2.4366  0.5239
 9398SOL     OW39655   4.719   2.472   3.528  0.6887  0.4106  0.3955
 9398SOL    HW139656   0.055   2.480   3.452 -0.0265  1.1470 -0.0690
 9398SOL    HW239657   0.058   2.434   3.593 -1.2327 -1.4846  1.0735
 9399SOL     OW39658   1.360   0.286   7.630  0.3586  0.4545 -0.5595
 9399SOL    HW139659   1.414   0.328   7.563 -0.7438  0.1843 -1.6249
 9399SOL    HW239660   1.427   0.230   7.670  0.0716  1.6055  1.5235
 9400SOL     OW39661   1.524   2.073  11.791  0.0802 -0.4875 -0.1506
 9400SOL    HW139662   1.595   2.022  11.753 -0.3155 -2.9516  2.4015
 9400SOL    HW239663   1.448   2.022  11.760  0.7419 -2.1386  0.9146
 9401SOL     OW39664   3.343   1.044   8.034 -0.1231  0.2409 -0.2830
 9401SOL    HW139665   3.378   0.955   8.036 -2.4474 -0.6741 -0.8476
 9401SOL    HW239666   3.343   1.073   8.125 -2.5479  1.5888 -0.7169
 9402SOL     OW39667   1.026   2.587   2.159  0.1137  0.0611 -0.1622
 9402SOL    HW139668   1.085   2.574   2.086  0.8365  0.1154  0.4133
 9402SOL    HW239669   0.949   2.628   2.119 -0.8885 -0.7512  0.9195
 9403SOL     OW39670   4.081   4.587   7.421 -0.1842 -0.2569  0.4036
 9403SOL    HW139671   3.987   4.597   7.430 -0.1077 -0.9526  1.9482
 9403SOL    HW239672   4.101   4.618   7.510 -0.8795  1.2347  0.0340
 9404SOL     OW39673   3.999   3.218   3.285  0.0598 -0.7648  0.3575
 9404SOL    HW139674   3.942   3.256   3.352  0.9027 -0.3282  0.8293
 9404SOL    HW239675   4.049   3.296   3.263 -0.8378 -0.6238 -1.1594
 9405SOL     OW39676   1.537   1.425   9.066 -0.0747 -0.2346  0.3328
 9405SOL    HW139677   1.594   1.483   9.116 -1.5376 -0.7857  2.6200
 9405SOL    HW239678   1.580   1.339   9.071 -0.2595 -0.3851 -0.6496
 9406SOL     OW39679   1.793   3.059   4.524  0.1938 -0.6461 -0.7516
 9406SOL    HW139680   1.767   3.063   4.616  2.8104 -2.6387  0.0675
 9406SOL    HW239681   1.734   3.129   4.495  0.4364  0.3706  1.1898
 9407SOL     OW39682   0.821   4.574   1.621 -0.3685  0.2721  0.1169
 9407SOL    HW139683   0.894   4.541   1.569  1.3348  1.1796  1.9196
 9407SOL    HW239684   0.850   4.539   1.705  1.6690  0.2379 -0.6127
 9408SOL     OW39685   3.534   3.314  16.450  0.3144 -0.1764  0.1585
 9408SOL    HW139686   3.468   3.257  16.411  0.6231 -0.5288  0.1432
 9408SOL    HW239687   3.545   3.378  16.380  1.9116 -1.9462 -1.1902
 9409SOL     OW39688   0.341   2.132   6.022 -0.2037 -0.2014  0.1614
 9409SOL    HW139689   0.375   2.219   6.004  0.1074 -0.4580 -0.4986
 9409SOL    HW239690   0.262   2.144   6.074 -1.8810 -0.2795 -2.3951
 9410SOL     OW39691   0.245   1.702   0.163  0.4615 -0.2476 -0.1443
 9410SOL    HW139692   0.176   1.767   0.178  0.1432 -0.8314  0.9114
 9410SOL    HW239693   0.228   1.635   0.229  0.5724 -0.1104  0.0247
 9411SOL     OW39694   4.180   3.908   8.126 -0.0024  0.0335  0.6527
 9411SOL    HW139695   4.258   3.859   8.100 -0.2510  0.7002 -1.3798
 9411SOL    HW239696   4.172   3.971   8.053 -0.0888 -0.3067  0.3704
 9412SOL     OW39697   0.198   0.673   0.664 -0.4166 -0.2509  0.2583
 9412SOL    HW139698   0.130   0.644   0.725 -2.8929  2.5908 -1.1900
 9412SOL    HW239699   0.266   0.687   0.730 -0.9206 -0.0172  0.7228
 9413SOL     OW39700   0.540   3.370   1.435  0.1080 -0.1983  0.1086
 9413SOL    HW139701   0.610   3.362   1.500  0.6514 -2.5533 -0.7551
 9413SOL    HW239702   0.591   3.414   1.368 -0.6641  0.0248 -0.3299
 9414SOL     OW39703   1.429   1.665   2.518 -0.3868 -0.0151  0.1071
 9414SOL    HW139704   1.385   1.694   2.438  1.2501 -2.6194 -1.7389
 9414SOL    HW239705   1.451   1.754   2.545 -0.3250 -0.8838  2.8376
 9415SOL     OW39706   3.784   3.268   7.259  0.0345  0.3152 -0.4522
 9415SOL    HW139707   3.820   3.356   7.273  0.6484  0.0068 -0.0869
 9415SOL    HW239708   3.765   3.279   7.166 -0.7081 -0.7819 -0.4291
 9416SOL     OW39709   4.360   3.983  13.330 -0.1492  0.4113  0.6388
 9416SOL    HW139710   4.272   3.959  13.302  1.4050 -1.8561 -2.3689
 9416SOL    HW239711   4.369   4.055  13.268 -1.1203  2.5615  3.0198
 9417SOL     OW39712   3.748   4.181   7.547  0.1791  0.1416 -0.0611
 9417SOL    HW139713   3.761   4.221   7.461 -2.0319 -1.0229 -0.9467
 9417SOL    HW239714   3.833   4.184   7.590  0.7295  1.2231 -1.2175
 9418SOL     OW39715   1.132   1.600   2.982  0.3670  0.0794 -0.1375
 9418SOL    HW139716   1.051   1.651   2.988 -0.1901 -0.5972 -1.8947
 9418SOL    HW239717   1.172   1.652   2.911 -2.5345  4.5421  1.5387
 9419SOL     OW39718   4.047   0.438  15.342 -0.0868 -0.2287 -0.4990
 9419SOL    HW139719   4.018   0.529  15.333 -1.9118 -0.9457 -1.8359
 9419SOL    HW239720   4.101   0.443  15.421  0.6322 -0.3983 -0.9774
 9420SOL     OW39721   4.498   3.698   8.686  0.1486  0.0415  0.1314
 9420SOL    HW139722   4.429   3.731   8.743 -0.1422  0.0575 -0.2297
 9420SOL    HW239723   4.450   3.636   8.630  1.9380 -0.3826 -0.9448
 9421SOL     OW39724   1.461   3.235  15.160  0.0383 -0.3826  0.4572
 9421SOL    HW139725   1.369   3.225  15.137 -0.0131  0.1815  0.4302
 9421SOL    HW239726   1.493   3.248  15.071  0.2243 -0.6029  0.4927
 9422SOL     OW39727   4.669   0.744   1.658  0.3023 -0.3019 -0.4797
 9422SOL    HW139728   0.013   0.810   1.635  3.0339 -2.5945  0.5513
 9422SOL    HW239729   4.648   0.768   1.748 -2.5347 -1.7739 -0.7448
 9423SOL     OW39730   4.679   4.415   7.823 -0.1164  0.3708 -0.0378
 9423SOL    HW139731   4.678   4.448   7.734  0.8484 -3.0598 -1.3181
 9423SOL    HW239732   4.681   4.495   7.876 -1.1909  0.0915  0.4296
 9424SOL     OW39733   3.129   0.844   1.375  0.0644 -0.2935 -0.0300
 9424SOL    HW139734   3.157   0.886   1.294  0.5693  0.0323  0.3137
 9424SOL    HW239735   3.165   0.757   1.359  0.1292  0.6285 -4.8307
 9425SOL     OW39736   1.077   4.294   2.609 -0.3608 -0.0712  0.6269
 9425SOL    HW139737   0.983   4.309   2.603 -0.2591  0.6741  0.9388
 9425SOL    HW239738   1.089   4.303   2.703 -0.4910 -2.4840  0.8863
 9426SOL     OW39739   2.995   2.318  15.933  0.2789  0.0364  0.4681
 9426SOL    HW139740   2.908   2.339  15.966  0.0893  0.3322 -0.2317
 9426SOL    HW239741   2.983   2.225  15.910 -0.8504  0.5033 -0.8191
 9427SOL     OW39742   2.801   1.519   7.915  0.4577 -0.0741  0.1185
 9427SOL    HW139743   2.845   1.489   7.994 -1.8608  0.0037  1.4369
 9427SOL    HW239744   2.805   1.615   7.916  1.2912 -0.1134  0.0377
 9428SOL     OW39745   1.947   1.490   6.803 -0.6755 -0.3058  0.1932
 9428SOL    HW139746   1.944   1.395   6.792 -1.4857 -0.6256  2.9935
 9428SOL    HW239747   1.930   1.509   6.895 -2.9313  2.9214 -0.9079
 9429SOL     OW39748   0.712   3.372   5.360 -0.1890 -0.1037  0.2244
 9429SOL    HW139749   0.623   3.405   5.374 -0.3740  0.6369 -2.7202
 9429SOL    HW239750   0.708   3.300   5.297 -0.0520  1.4794 -1.5836
 9430SOL     OW39751   4.375   3.549   2.413  0.2901  0.2695  0.1407
 9430SOL    HW139752   4.296   3.565   2.464  0.3344  0.4797  0.1423
 9430SOL    HW239753   4.355   3.603   2.337 -0.0531  0.1938  0.1769
 9431SOL     OW39754   3.024   0.332   3.214  0.5450  0.0961  0.1843
 9431SOL    HW139755   2.947   0.330   3.271  0.4117  3.1548  0.0834
 9431SOL    HW239756   3.093   0.353   3.277  0.8802  1.2308 -0.5649
 9432SOL     OW39757   1.561   3.413   1.979 -0.1469 -0.0885  0.0480
 9432SOL    HW139758   1.596   3.502   1.979 -0.9072  0.2046  0.6531
 9432SOL    HW239759   1.644   3.365   1.977 -0.8612 -1.3429  0.8059
 9433SOL     OW39760   3.662   3.587   5.231 -0.3112  0.1875 -0.3788
 9433SOL    HW139761   3.691   3.675   5.255  0.2951  0.2785 -1.4646
 9433SOL    HW239762   3.568   3.595   5.211 -0.5249 -2.4056 -0.4843
 9434SOL     OW39763   1.121   2.707   4.645  0.1452  0.4060 -0.2939
 9434SOL    HW139764   1.179   2.744   4.578  0.0965 -1.7080 -1.5034
 9434SOL    HW239765   1.116   2.780   4.707  1.3926 -0.3157  0.6542
 9435SOL     OW39766   2.868   2.336   6.956 -0.6501  0.1461  0.4697
 9435SOL    HW139767   2.810   2.284   6.901 -2.1917  2.4408 -0.0535
 9435SOL    HW239768   2.874   2.287   7.038 -0.5665  1.1715  1.0882
 9436SOL     OW39769   1.449   3.411   9.361  0.1346 -0.0173  0.3550
 9436SOL    HW139770   1.385   3.354   9.319 -0.3297 -1.2700  2.7422
 9436SOL    HW239771   1.477   3.459   9.284 -1.5213 -1.3677 -1.1097
 9437SOL     OW39772   1.180   0.252  11.202 -0.5248  0.7523 -0.2266
 9437SOL    HW139773   1.150   0.206  11.123  0.5142 -1.2481  0.5335
 9437SOL    HW239774   1.263   0.287  11.171  0.8552 -0.7295  1.8225
 9438SOL     OW39775   1.590   4.293   4.958 -0.3928  0.0397 -0.7032
 9438SOL    HW139776   1.546   4.340   5.029 -0.9721 -0.0317 -1.0128
 9438SOL    HW239777   1.596   4.209   5.005  0.2100  0.2819 -0.3520
 9439SOL     OW39778   1.228   4.425   6.654 -0.4315 -0.0455  0.6166
 9439SOL    HW139779   1.139   4.400   6.630  0.0207  0.3184 -1.4415
 9439SOL    HW239780   1.267   4.434   6.567 -0.0019  2.1524  1.0222
 9440SOL     OW39781   2.146   0.181   8.312  0.3784  0.0361  0.1504
 9440SOL    HW139782   2.068   0.135   8.279  0.4527 -0.2434  0.3628
 9440SOL    HW239783   2.165   0.222   8.227 -2.3332  0.9084 -0.0359
 9441SOL     OW39784   3.160   3.881   7.957  0.2527 -0.2152 -0.2901
 9441SOL    HW139785   3.198   3.877   8.044  0.9908 -1.1366 -0.6556
 9441SOL    HW239786   3.138   3.789   7.944  0.0994 -0.0498 -1.2069
 9442SOL     OW39787   3.222   3.276   9.353  0.7272 -0.0185 -0.4355
 9442SOL    HW139788   3.160   3.342   9.324 -0.3359 -1.5160 -1.5345
 9442SOL    HW239789   3.293   3.291   9.290  2.2628  0.9270  1.5135
 9443SOL     OW39790   3.575   2.408   1.245  0.1008 -0.1198  0.0496
 9443SOL    HW139791   3.615   2.490   1.214 -0.2240  0.7331  1.8988
 9443SOL    HW239792   3.483   2.412   1.220  1.0492 -0.6974 -3.5501
 9444SOL     OW39793   3.537   0.587   4.965  0.0022  0.7807 -0.1532
 9444SOL    HW139794   3.617   0.540   4.943  0.3889  0.9653  0.8470
 9444SOL    HW239795   3.563   0.671   5.003  0.9670  0.6322 -0.4968
 9445SOL     OW39796   0.932   0.636   7.625  0.2159 -0.3419 -0.6098
 9445SOL    HW139797   0.837   0.644   7.620 -0.0178 -1.9399  1.2533
 9445SOL    HW239798   0.943   0.625   7.720 -0.5949  0.8604 -0.3732
 9446SOL     OW39799   0.957   2.350   8.055  0.1430 -0.1869 -0.7033
 9446SOL    HW139800   1.048   2.322   8.066 -0.7253 -2.2806  1.0311
 9446SOL    HW239801   0.935   2.356   7.962  0.5329  1.6985 -0.6740
 9447SOL     OW39802   0.663   3.522   7.699 -0.6071 -0.4507 -0.6007
 9447SOL    HW139803   0.570   3.501   7.711 -0.0897 -2.8539 -0.8628
 9447SOL    HW239804   0.669   3.579   7.776 -1.5871 -1.2630  0.0811
 9448SOL     OW39805   1.269   0.196  14.633 -0.2218 -0.0838 -0.0603
 9448SOL    HW139806   1.201   0.128  14.634 -0.2629 -0.0319  1.3563
 9448SOL    HW239807   1.223   0.280  14.634 -2.2222 -1.1855 -0.8345
 9449SOL     OW39808   3.971   1.323   2.709 -0.7919 -0.1961 -0.2109
 9449SOL    HW139809   3.987   1.241   2.755 -1.5435  0.2029  0.7741
 9449SOL    HW239810   3.903   1.305   2.643 -0.7992  1.0012 -0.5345
 9450SOL     OW39811   3.992   0.537   0.496 -0.2892  0.5271 -0.4205
 9450SOL    HW139812   3.932   0.593   0.546  0.0200 -0.8230  1.4650
 9450SOL    HW239813   3.989   0.451   0.538 -0.7433  0.3458 -0.8286
 9451SOL     OW39814   3.259   2.355   8.405 -0.0436  0.0639 -0.1548
 9451SOL    HW139815   3.192   2.423   8.411  0.3400  0.5780 -1.8129
 9451SOL    HW239816   3.338   2.407   8.395 -1.4386  2.1470 -0.4188
 9452SOL     OW39817   0.341   2.624   8.721  0.2983 -0.4606  0.0034
 9452SOL    HW139818   0.328   2.711   8.759  2.0195 -1.3348  2.5780
 9452SOL    HW239819   0.262   2.612   8.669  0.9427 -0.7207 -0.9277
 9453SOL     OW39820   0.598   0.962   6.475 -0.0353  0.0327  0.5092
 9453SOL    HW139821   0.603   0.956   6.571  0.7443 -1.7389  0.3584
 9453SOL    HW239822   0.548   0.881   6.465 -1.3943  1.1889 -1.9219
 9454SOL     OW39823   3.350   0.622   6.975  0.3402  0.1920  0.6582
 9454SOL    HW139824   3.409   0.550   6.997 -1.0901 -1.0345  0.4464
 9454SOL    HW239825   3.274   0.575   6.940  0.3518 -0.3096  1.3052
 9455SOL     OW39826   1.512   3.033   7.388 -0.1457  0.1363  0.1488
 9455SOL    HW139827   1.546   2.978   7.458  1.8300  1.8936  0.5641
 9455SOL    HW239828   1.580   3.045   7.322 -1.7828 -3.0224 -2.1617
 9456SOL     OW39829   0.234   1.026   1.848  0.0201 -0.2218  0.4020
 9456SOL    HW139830   0.320   1.053   1.816 -0.3461  0.6532  0.1442
 9456SOL    HW239831   0.191   1.112   1.849 -0.3477 -0.3924 -0.9899
 9457SOL     OW39832   1.858   4.020  17.082  0.2772 -0.3546  0.3843
 9457SOL    HW139833   1.772   4.019  17.126 -0.9967 -1.4397 -2.1466
 9457SOL    HW239834   1.858   4.110  17.049  0.1672 -0.3498  0.3944
 9458SOL     OW39835   3.823   0.749  10.756  0.0635  0.0436  0.2804
 9458SOL    HW139836   3.769   0.789  10.688  0.7778 -0.3811 -0.5580
 9458SOL    HW239837   3.771   0.774  10.832  0.3684 -0.7514  0.7538
 9459SOL     OW39838   4.281   4.229  15.064 -0.1453  0.0494  0.2444
 9459SOL    HW139839   4.276   4.273  15.149  0.1599 -1.4757  1.0545
 9459SOL    HW239840   4.321   4.144  15.086 -0.3868 -0.1613 -0.1217
 9460SOL     OW39841   2.986   0.196  13.302 -0.1759  0.3082 -0.5101
 9460SOL    HW139842   2.895   0.177  13.279 -0.6621  0.4369  1.3151
 9460SOL    HW239843   3.021   0.242  13.225  1.8655 -2.0519 -0.9929
 9461SOL     OW39844   0.404   2.498   5.272 -0.1623 -0.1831 -0.2560
 9461SOL    HW139845   0.421   2.419   5.324  1.8920 -1.4894 -2.9188
 9461SOL    HW239846   0.350   2.463   5.202  1.4361 -1.2129 -0.9590
 9462SOL     OW39847   1.706   2.764   7.127  0.7247  0.0927  0.0565
 9462SOL    HW139848   1.770   2.783   7.058 -0.7301 -0.3052 -1.4056
 9462SOL    HW239849   1.737   2.681   7.162 -0.0506 -0.4134 -0.4731
 9463SOL     OW39850   0.934   1.140   3.077  0.2441 -0.0068 -0.4554
 9463SOL    HW139851   0.989   1.095   3.141 -2.2277 -1.3104  0.7625
 9463SOL    HW239852   0.857   1.085   3.065 -0.0345  0.3014 -0.0823
 9464SOL     OW39853   3.328   2.852   9.623 -0.3672  0.3438 -0.2891
 9464SOL    HW139854   3.395   2.920   9.631 -0.4552  0.3707  0.1629
 9464SOL    HW239855   3.323   2.814   9.710 -0.7196  0.5609 -0.2167
 9465SOL     OW39856   1.408   2.348   0.389 -0.5541  0.0369  0.1805
 9465SOL    HW139857   1.487   2.402   0.378 -1.1885  0.8521 -0.4245
 9465SOL    HW239858   1.439   2.261   0.365  1.6862  1.2535 -1.4213
 9466SOL     OW39859   0.103   3.995  12.347  0.2195  0.0196  0.6403
 9466SOL    HW139860   0.048   4.030  12.418  1.8133  0.9146  1.4351
 9466SOL    HW239861   0.037   3.968  12.283 -1.9432  1.7364  2.1309
 9467SOL     OW39862   1.409   3.003   7.034 -0.0051 -0.4316  0.3619
 9467SOL    HW139863   1.433   3.081   7.085 -0.0513 -1.1330  1.4457
 9467SOL    HW239864   1.314   3.013   7.030 -0.0527 -0.6638  0.8940
 9468SOL     OW39865   4.025   1.556   8.414 -0.2510 -0.2772 -0.0458
 9468SOL    HW139866   3.945   1.600   8.443  0.9381  0.8341  1.5657
 9468SOL    HW239867   4.091   1.603   8.464  0.6812 -0.2581 -1.3047
 9469SOL     OW39868   1.818   3.770   5.594  0.2778  1.1166 -0.0295
 9469SOL    HW139869   1.730   3.773   5.633  0.8244  1.4814  1.1731
 9469SOL    HW239870   1.871   3.732   5.664 -0.9738 -0.0137  0.3042
 9470SOL     OW39871   1.837   1.352   4.809 -0.8417  0.4619  0.4271
 9470SOL    HW139872   1.860   1.328   4.719  1.0500 -1.1010  1.3312
 9470SOL    HW239873   1.849   1.267   4.852  1.5799 -0.2485 -1.7057
 9471SOL     OW39874   2.349   3.189  14.263  0.2711 -0.4169 -0.0922
 9471SOL    HW139875   2.283   3.257  14.253 -0.6524 -1.3985 -0.5926
 9471SOL    HW239876   2.424   3.246  14.281 -1.2969  2.0096 -1.2894
 9472SOL     OW39877   4.150   1.745  11.651  0.1694  0.1617 -0.3321
 9472SOL    HW139878   4.065   1.753  11.607 -0.5158 -0.6525  0.8529
 9472SOL    HW239879   4.173   1.836  11.672  0.4685 -0.1532  0.7044
 9473SOL     OW39880   4.659   3.330   8.571 -0.3394  0.2210  0.1460
 9473SOL    HW139881   4.624   3.261   8.627  0.0736  0.0661  0.2180
 9473SOL    HW239882   4.690   3.400   8.628 -1.4235 -1.2488  2.4895
 9474SOL     OW39883   3.302   1.530  13.673  0.0941 -0.5443 -0.6285
 9474SOL    HW139884   3.282   1.591  13.743  0.3913 -0.7563 -0.3602
 9474SOL    HW239885   3.256   1.572  13.601 -1.0366 -2.0643 -0.7825
 9475SOL     OW39886   4.637   2.090   3.549 -0.8888  0.0355  0.1433
 9475SOL    HW139887   4.580   2.078   3.625 -1.1517 -2.5274 -0.4550
 9475SOL    HW239888   4.605   2.171   3.510  2.5070  1.4669  0.3230
 9476SOL     OW39889   4.560   4.497  10.233 -0.0373 -0.3028 -0.6024
 9476SOL    HW139890   4.628   4.460  10.177 -1.3059 -0.8368 -1.8073
 9476SOL    HW239891   4.549   4.580  10.188 -1.1071 -0.6972 -1.0938
 9477SOL     OW39892   3.332   3.244   5.848  0.5615  0.3179 -0.0101
 9477SOL    HW139893   3.238   3.257   5.850  0.4493 -0.6746  1.1546
 9477SOL    HW239894   3.331   3.179   5.919 -2.8978 -0.1664 -0.5275
 9478SOL     OW39895   4.613   3.302  17.218  0.1604 -0.0605  0.0941
 9478SOL    HW139896   4.670   3.268  17.149 -0.7538  0.0677 -0.7105
 9478SOL    HW239897   4.530   3.256  17.205 -1.4120  2.4351  1.2396
 9479SOL     OW39898   4.097   4.356   5.579 -0.0346 -0.3076 -0.2062
 9479SOL    HW139899   4.122   4.444   5.551  1.3329 -0.4500  0.5860
 9479SOL    HW239900   4.001   4.353   5.577 -0.1073  1.0230  2.4479
 9480SOL     OW39901   3.719   4.053  16.505  0.0951 -0.0548  0.5555
 9480SOL    HW139902   3.676   4.080  16.587 -1.8009 -0.1114 -0.4269
 9480SOL    HW239903   3.772   3.980  16.538 -0.1405 -0.8000 -0.7583
 9481SOL     OW39904   4.655   4.525   4.819 -0.8059 -0.1326  0.0469
 9481SOL    HW139905   4.602   4.463   4.869 -1.6249  0.8131  0.3612
 9481SOL    HW239906   4.671   4.600   4.877 -0.7516 -1.0632  1.2405
 9482SOL     OW39907   2.268   2.301  11.278  0.1950 -0.0504  0.1919
 9482SOL    HW139908   2.241   2.223  11.229 -0.8622 -0.0700  0.7895
 9482SOL    HW239909   2.304   2.346  11.202 -2.0494  3.3521  1.1757
 9483SOL     OW39910   2.054   0.845   7.518  0.9203  0.2397  0.0701
 9483SOL    HW139911   2.079   0.815   7.606 -0.7625 -1.2113  0.0537
 9483SOL    HW239912   1.966   0.878   7.539 -0.0471 -0.7509 -2.5112
 9484SOL     OW39913   1.641   2.612  12.101  0.0302  0.0682  0.0334
 9484SOL    HW139914   1.637   2.691  12.155 -0.5403  1.0543 -1.4217
 9484SOL    HW239915   1.733   2.587  12.097  0.0753  0.1162  0.7562
 9485SOL     OW39916   1.909   2.346   9.171  0.3273  0.2007  0.5388
 9485SOL    HW139917   1.918   2.326   9.264 -1.6031 -2.0995  0.2366
 9485SOL    HW239918   1.837   2.408   9.185  0.1921  0.1217  0.1969
 9486SOL     OW39919   3.973   3.643  14.661 -0.4005  0.0036  0.2731
 9486SOL    HW139920   3.915   3.712  14.693  0.5565  0.9416 -0.0015
 9486SOL    HW239921   3.964   3.650  14.566  1.8005  2.1064  0.2156
 9487SOL     OW39922   4.163   1.845   9.860 -0.4496 -0.2512 -0.0432
 9487SOL    HW139923   4.162   1.802   9.775  2.8706 -0.9318  0.2382
 9487SOL    HW239924   4.118   1.777   9.910 -0.4871  0.1858  0.5257
 9488SOL     OW39925   1.362   0.510   2.623 -0.3814  0.0227  0.2623
 9488SOL    HW139926   1.296   0.469   2.568  0.4776 -0.3350 -0.5066
 9488SOL    HW239927   1.438   0.499   2.566 -1.6238 -1.1290 -1.1852
 9489SOL     OW39928   3.795   2.838   2.598 -0.0461  0.0259 -0.3939
 9489SOL    HW139929   3.769   2.798   2.515 -0.0651 -0.7257 -0.0284
 9489SOL    HW239930   3.719   2.818   2.653 -0.6562 -0.2176 -1.3386
 9490SOL     OW39931   0.414   0.943   3.682 -0.3857 -0.0300 -0.3268
 9490SOL    HW139932   0.395   1.020   3.628 -2.3256  0.8741  1.6170
 9490SOL    HW239933   0.472   0.902   3.618  3.1536  2.2387  1.4315
 9491SOL     OW39934   0.862   1.499   4.647  0.4278  0.0077  0.4442
 9491SOL    HW139935   0.876   1.405   4.649 -0.7996 -0.2125 -0.9725
 9491SOL    HW239936   0.792   1.518   4.709  0.0752  0.8683 -0.2196
 9492SOL     OW39937   0.443   2.682   2.072 -0.9544  0.0182 -0.1433
 9492SOL    HW139938   0.494   2.644   2.144 -1.2317  2.0519  1.1563
 9492SOL    HW239939   0.427   2.597   2.032  0.5812 -1.7063  2.8889
 9493SOL     OW39940   0.496   0.932   5.004 -0.2073 -0.6034 -0.5940
 9493SOL    HW139941   0.542   0.848   5.015  1.0259  0.0669 -0.6382
 9493SOL    HW239942   0.411   0.921   5.048  0.8575  0.0458  1.6504
 9494SOL     OW39943   1.590   0.875  11.502  0.2528 -0.2395  0.3606
 9494SOL    HW139944   1.630   0.836  11.579 -0.2720  1.0297  1.2879
 9494SOL    HW239945   1.511   0.902  11.550 -1.6168  0.8893 -3.3507
 9495SOL     OW39946   0.075   1.755   1.798  0.3521 -0.2457  0.2021
 9495SOL    HW139947   0.008   1.799   1.851  0.2247 -0.2767  0.0683
 9495SOL    HW239948   0.055   1.664   1.819 -0.0031 -0.1394  0.3356
 9496SOL     OW39949   0.856   2.560  17.597 -0.0339 -0.2100 -0.7813
 9496SOL    HW139950   0.796   2.496  17.558 -1.1066 -0.0630  0.6211
 9496SOL    HW239951   0.837   2.648  17.564  0.7810  0.2319 -0.0656
 9497SOL     OW39952   0.601   3.456   9.599 -0.5926 -0.2231 -0.4076
 9497SOL    HW139953   0.680   3.442   9.548  0.2691 -0.1443  0.8882
 9497SOL    HW239954   0.543   3.502   9.539  1.3562  2.4665 -0.2271
 9498SOL     OW39955   4.164   0.914   2.626  0.5947 -0.1758  0.9668
 9498SOL    HW139956   4.142   0.850   2.558  0.6447  1.0041 -0.1566
 9498SOL    HW239957   4.076   0.912   2.665  0.2022  1.8954  0.1939
 9499SOL     OW39958   4.008   1.751  11.254 -0.3129  0.1044 -0.4518
 9499SOL    HW139959   3.950   1.744  11.178 -0.3432  1.0804 -0.5286
 9499SOL    HW239960   3.978   1.675  11.303  0.5448  0.1042  0.0711
 9500SOL     OW39961   0.640   0.724   2.787 -0.1275  0.2473 -0.6995
 9500SOL    HW139962   0.694   0.798   2.758 -1.7629  0.8087 -2.3597
 9500SOL    HW239963   0.549   0.751   2.770 -0.3567  0.2600  0.5409
 9501SOL     OW39964   3.512   0.374   8.925 -0.0770 -0.0736 -0.0543
 9501SOL    HW139965   3.437   0.420   8.963  1.0468  1.3334  0.4514
 9501SOL    HW239966   3.510   0.296   8.982 -0.3442  0.5825  0.8377
 9502SOL     OW39967   3.378   1.036  11.848 -0.1266  0.3237  0.1452
 9502SOL    HW139968   3.438   0.963  11.834 -0.5139 -0.4602  2.6271
 9502SOL    HW239969   3.418   1.109  11.801 -0.6614 -0.1138 -1.0009
 9503SOL     OW39970   2.402   2.711   2.363  0.9645 -0.1248 -0.0143
 9503SOL    HW139971   2.420   2.798   2.398 -2.3649  0.3630  0.4667
 9503SOL    HW239972   2.307   2.704   2.362  0.9624 -0.0397 -0.7961
 9504SOL     OW39973   1.726   4.364   6.584  0.0804  0.1570 -0.8161
 9504SOL    HW139974   1.752   4.444   6.538  0.5637  0.3240 -0.2519
 9504SOL    HW239975   1.755   4.376   6.674 -0.5779  0.3633 -0.6275
 9505SOL     OW39976   3.108   1.502  16.406 -0.1128  0.4734  0.0593
 9505SOL    HW139977   3.065   1.435  16.353 -1.1223  0.5593  0.7900
 9505SOL    HW239978   3.184   1.460  16.445 -0.5979 -2.3103 -1.9978
 9506SOL     OW39979   3.438   4.649   7.165 -0.1255 -0.0451 -0.0708
 9506SOL    HW139980   3.453   4.634   7.072 -0.6502  3.5435 -0.7412
 9506SOL    HW239981   3.370   4.715   7.152  1.4927  1.7507  0.5252
 9507SOL     OW39982   3.467   2.650  11.532 -0.0198 -0.2945 -0.0903
 9507SOL    HW139983   3.478   2.558  11.554  0.2131  0.4823  3.0976
 9507SOL    HW239984   3.378   2.677  11.552  0.2851  1.3769 -0.9493
 9508SOL     OW39985   4.517   0.380   7.569 -0.7185  0.2634 -0.4325
 9508SOL    HW139986   4.521   0.445   7.639 -1.8236  0.4552 -0.5550
 9508SOL    HW239987   4.449   0.319   7.597 -0.2538 -0.4970 -0.9487
 9509SOL     OW39988   0.077   3.632   6.587 -0.1982 -1.0432 -0.0805
 9509SOL    HW139989   0.022   3.611   6.663 -0.5215  0.1463  0.0197
 9509SOL    HW239990   0.165   3.623   6.624 -0.3158 -1.1601  0.1716
 9510SOL     OW39991   4.336   2.678  16.617  0.3424 -0.0339 -0.0557
 9510SOL    HW139992   4.389   2.606  16.650 -1.4282 -1.4748 -0.4119
 9510SOL    HW239993   4.317   2.655  16.526 -1.6143  2.6507 -0.3413
 9511SOL     OW39994   3.852   4.062   5.754 -0.8991 -0.6547  0.4616
 9511SOL    HW139995   3.775   4.103   5.794 -1.6747 -0.5061 -1.2204
 9511SOL    HW239996   3.846   3.968   5.769  1.3379 -0.6512  1.4149
 9512SOL     OW39997   1.120   0.051   6.941 -0.4602  0.6400 -0.2031
 9512SOL    HW139998   1.189   4.705   6.937 -1.2804 -0.1057 -1.5743
 9512SOL    HW239999   1.052   0.007   6.891 -0.9110 -0.3806  1.2984
 9513SOL     OW40000   2.656   3.949  14.182 -0.2804  0.3397  0.3133
 9513SOL    HW140001   2.705   3.987  14.255 -1.3933  2.3498  0.0222
 9513SOL    HW240002   2.722   3.967  14.115  1.0683  3.0298  2.3634
 9514SOL     OW40003   3.102   2.686  10.817  0.0231 -0.0812  0.1993
 9514SOL    HW140004   3.078   2.613  10.874  0.4269 -1.4659 -1.4048
 9514SOL    HW240005   3.064   2.763  10.860 -0.1471 -0.0456 -0.0131
 9515SOL     OW40006   1.821   0.187  14.993 -0.6129 -0.5708 -0.1949
 9515SOL    HW140007   1.902   0.232  14.970  0.1103 -0.9135  1.6200
 9515SOL    HW240008   1.800   0.129  14.920 -1.2429 -0.7497  0.1270
 9516SOL     OW40009   0.587   0.280   9.711  0.2232  0.7766 -0.4353
 9516SOL    HW140010   0.557   0.310   9.797  1.4774 -1.1394  0.6549
 9516SOL    HW240011   0.581   0.185   9.721  0.9880  0.8642  0.8880
 9517SOL     OW40012   0.901   3.931   2.211 -0.2886 -0.3633 -0.1871
 9517SOL    HW140013   0.940   3.869   2.273 -1.2815 -0.8406 -0.0370
 9517SOL    HW240014   0.891   4.006   2.270 -1.5799 -0.3512 -0.4246
 9518SOL     OW40015   1.404   2.324   7.664 -0.4483 -0.1077 -0.3599
 9518SOL    HW140016   1.316   2.349   7.691 -0.2638  0.3100 -0.1358
 9518SOL    HW240017   1.380   2.309   7.572 -2.2173 -0.8339  0.2222
 9519SOL     OW40018   1.638   1.423  10.931 -0.2562 -0.2645 -1.0073
 9519SOL    HW140019   1.631   1.498  10.873  0.9035  0.0913 -0.6842
 9519SOL    HW240020   1.722   1.391  10.901  0.5090  1.8096 -1.0584
 9520SOL     OW40021   1.613   0.719  10.668 -0.1179 -0.1183 -0.3703
 9520SOL    HW140022   1.571   0.637  10.694 -2.0876  0.3558 -1.9987
 9520SOL    HW240023   1.587   0.775  10.740  1.9098 -1.0630  1.1014
 9521SOL     OW40024   1.534   0.983  11.826 -0.0639 -0.5759  0.5680
 9521SOL    HW140025   1.571   1.062  11.866 -0.1621 -0.3588  0.2299
 9521SOL    HW240026   1.470   1.008  11.760 -0.3680 -1.6523  0.4637
 9522SOL     OW40027   4.534   0.230   5.723 -0.2732  0.2087  0.0029
 9522SOL    HW140028   4.498   0.250   5.637 -1.7742  0.4917  0.6985
 9522SOL    HW240029   4.562   0.140   5.704  0.5305 -0.2907  3.5988
 9523SOL     OW40030   3.466   3.203   7.020 -0.4845 -0.9892  0.0817
 9523SOL    HW140031   3.376   3.212   6.989 -0.0216 -0.9958 -1.2564
 9523SOL    HW240032   3.465   3.108   7.031 -0.4620 -1.1874 -1.7067
 9524SOL     OW40033   0.682   3.925  15.225 -0.3987  0.3482  0.2522
 9524SOL    HW140034   0.660   4.015  15.198  1.2169  0.6297 -0.1007
 9524SOL    HW240035   0.754   3.902  15.167  0.2053 -0.8650  1.4905
 9525SOL     OW40036   3.060   3.975   7.612  0.0212  0.1803 -0.4340
 9525SOL    HW140037   2.997   3.997   7.542  0.8787  1.2655 -0.8594
 9525SOL    HW240038   3.012   3.992   7.693  1.4396 -1.0565  0.6646
 9526SOL     OW40039   0.009   0.284   3.736  0.4217 -0.2201 -1.0573
 9526SOL    HW140040   4.694   0.340   3.805 -0.4932  0.5094 -2.1383
 9526SOL    HW240041   4.651   0.265   3.686 -0.0172  0.3423 -0.5786
 9527SOL     OW40042   0.424   3.712   8.030 -1.0358 -0.2743  0.2847
 9527SOL    HW140043   0.382   3.685   8.112 -0.6439  0.1972  0.6454
 9527SOL    HW240044   0.348   3.738   7.978  0.4185  2.4773 -0.4900
 9528SOL     OW40045   2.328   3.265   0.931  0.2352 -0.1494 -0.2587
 9528SOL    HW140046   2.315   3.345   0.880 -0.6801 -0.0025  0.2130
 9528SOL    HW240047   2.390   3.292   1.000  2.8044 -0.9174 -2.2759
 9529SOL     OW40048   0.648   3.407   7.263 -0.4175 -0.1145 -0.9740
 9529SOL    HW140049   0.580   3.472   7.281  0.6948  0.7798  0.0097
 9529SOL    HW240050   0.722   3.452   7.223 -0.8623  2.7231  1.3563
 9530SOL     OW40051   0.681   3.185   7.424  0.1878 -0.3797 -0.2749
 9530SOL    HW140052   0.675   3.261   7.367 -2.0633  0.4263  1.0324
 9530SOL    HW240053   0.716   3.117   7.366  2.3284  0.7937 -0.3597
 9531SOL     OW40054   4.271   3.582   4.925 -0.5290  0.5753 -0.1829
 9531SOL    HW140055   4.303   3.534   5.001 -0.6344  0.1124 -0.4338
 9531SOL    HW240056   4.269   3.511   4.861 -1.9923  0.5558 -0.1165
 9532SOL     OW40057   3.006   4.190  11.132 -0.2204 -0.8717  0.8691
 9532SOL    HW140058   3.100   4.187  11.147 -0.3548  1.2018  2.1689
 9532SOL    HW240059   3.002   4.193  11.036 -1.3789 -0.9144  0.9108
 9533SOL     OW40060   1.277   0.345  10.096  0.0068  0.4018 -0.5351
 9533SOL    HW140061   1.336   0.291  10.149 -2.0110 -1.5602 -0.2897
 9533SOL    HW240062   1.199   0.346  10.152 -0.9691 -0.1499 -1.8908
 9534SOL     OW40063   1.425   1.259   0.299 -0.8522 -0.1936  0.1940
 9534SOL    HW140064   1.472   1.188   0.342 -2.5256 -0.5158  1.5243
 9534SOL    HW240065   1.469   1.336   0.333 -3.3095  0.2585  2.3256
 9535SOL     OW40066   2.686   0.577   4.601  0.3415  0.1134  0.0311
 9535SOL    HW140067   2.703   0.650   4.661  1.0920 -1.4910  1.7849
 9535SOL    HW240068   2.775   0.560   4.570  1.1892  2.4561  1.1049
 9536SOL     OW40069   0.562   2.492   7.812  0.1135  0.2317  0.0851
 9536SOL    HW140070   0.523   2.570   7.850  0.1530  0.0660  0.4651
 9536SOL    HW240071   0.504   2.425   7.847 -1.4543  1.0695 -0.9309
 9537SOL     OW40072   3.107   4.640  12.675  0.2826  1.1337 -0.4486
 9537SOL    HW140073   3.144   4.712  12.624  0.7737  0.2527 -1.3351
 9537SOL    HW240074   3.169   4.637  12.748 -1.1740 -2.4467  0.6325
 9538SOL     OW40075   3.990   2.861   3.559  0.1155 -0.2554  0.8008
 9538SOL    HW140076   3.938   2.930   3.599 -0.1274  0.2173 -0.3285
 9538SOL    HW240077   4.077   2.889   3.589 -0.0136  1.7801 -0.7765
 9539SOL     OW40078   1.013   0.079   0.227 -0.7907  0.6386 -0.1760
 9539SOL    HW140079   1.036   4.712   0.259 -1.5333  1.2873  2.1429
 9539SOL    HW240080   0.948   0.074   0.158  0.3404  0.3630 -1.2235
 9540SOL     OW40081   3.949   0.676   6.686 -0.1578  0.0822  0.1357
 9540SOL    HW140082   4.005   0.676   6.763 -1.6134  2.2941  1.2185
 9540SOL    HW240083   3.990   0.739   6.627  0.5340 -0.2123  0.3081
 9541SOL     OW40084   1.639   0.656   0.577  0.2353 -0.3537 -1.1336
 9541SOL    HW140085   1.657   0.571   0.618 -0.5684  0.7705  1.5337
 9541SOL    HW240086   1.677   0.720   0.636 -3.9558 -1.0739  2.3328
 9542SOL     OW40087   0.982   0.360  11.346  0.2217  0.2640  0.0195
 9542SOL    HW140088   0.951   0.351  11.256 -1.8733  0.9535  0.6689
 9542SOL    HW240089   1.076   0.372  11.331  0.7728 -3.3250  0.6464
 9543SOL     OW40090   0.495   0.938  12.926 -0.2369 -0.4722  0.5615
 9543SOL    HW140091   0.420   0.880  12.915 -0.6532  0.3432 -0.8681
 9543SOL    HW240092   0.451   0.995  12.988 -1.3779 -2.0239  1.1876
 9544SOL     OW40093   2.920   1.875   5.812  0.4167 -0.0594 -0.6336
 9544SOL    HW140094   2.850   1.870   5.878  1.3638 -0.0324  0.3675
 9544SOL    HW240095   2.996   1.861   5.868  0.6301  0.9896 -0.6747
 9545SOL     OW40096   3.113   1.076   7.474 -0.0383 -0.3411 -0.9370
 9545SOL    HW140097   3.032   1.026   7.488  0.0705 -0.3422 -0.2992
 9545SOL    HW240098   3.176   1.028   7.528  1.2569  1.5675 -0.7848
 9546SOL     OW40099   3.118   0.033   9.465 -0.1435 -0.5603 -0.1579
 9546SOL    HW140100   3.117   4.659   9.451 -2.0652 -0.9236  2.4527
 9546SOL    HW240101   3.147   0.047   9.555  0.1000  0.1327 -0.3419
 9547SOL     OW40102   0.880   1.147   8.382 -0.2306 -0.5052 -0.2701
 9547SOL    HW140103   0.796   1.159   8.428  1.0117  2.3397  1.2846
 9547SOL    HW240104   0.914   1.065   8.417 -1.8246 -0.8217  0.5495
 9548SOL     OW40105   1.360   2.365   8.670  0.2528  0.0883 -0.2506
 9548SOL    HW140106   1.450   2.341   8.694  0.7254  2.0547 -0.0512
 9548SOL    HW240107   1.358   2.344   8.576 -0.8336 -2.3315  0.3063
 9549SOL     OW40108   4.653   0.778   4.802 -0.2663  0.3174  0.1438
 9549SOL    HW140109   4.649   0.800   4.709  0.6767  0.2244  0.0812
 9549SOL    HW240110   0.018   0.736   4.798 -1.8553 -2.9992  0.6940
 9550SOL     OW40111   3.658   1.011  17.363 -0.1121 -0.3581 -0.1665
 9550SOL    HW140112   3.653   0.923  17.327  2.9426 -1.1573  1.3208
 9550SOL    HW240113   3.712   1.009  17.442  0.1141  2.2132 -0.2268
 9551SOL     OW40114   1.804   3.317   0.503 -0.6280 -0.1164 -0.0544
 9551SOL    HW140115   1.899   3.315   0.514 -0.4683 -0.9505 -1.5854
 9551SOL    HW240116   1.783   3.224   0.496 -1.1470  0.2111 -2.6521
 9552SOL     OW40117   3.356   2.095  13.430  0.6573  0.3399  0.0232
 9552SOL    HW140118   3.283   2.070  13.373 -0.2893  2.8231  0.1281
 9552SOL    HW240119   3.349   2.036  13.505  0.6359 -0.4027 -0.5586
 9553SOL     OW40120   4.092   1.833  11.952  0.6960  0.2114  0.4422
 9553SOL    HW140121   4.117   1.770  11.884  0.2756  0.7150 -0.1713
 9553SOL    HW240122   4.000   1.843  11.930  0.7793  0.9056  0.4188
 9554SOL     OW40123   1.481   2.709   7.781 -0.3844 -0.3467  0.0377
 9554SOL    HW140124   1.527   2.627   7.802 -2.4726 -1.8251 -1.2238
 9554SOL    HW240125   1.435   2.734   7.862 -2.5265 -2.2309 -0.5993
 9555SOL     OW40126   2.920   4.419   7.432  0.0838  0.0180 -0.4326
 9555SOL    HW140127   2.853   4.375   7.379 -0.4887  1.8781 -1.2616
 9555SOL    HW240128   3.002   4.410   7.383 -0.8746  0.6576 -2.1228
 9556SOL     OW40129   0.587   4.719   8.031 -0.1947 -0.3488  0.9082
 9556SOL    HW140130   0.614   4.708   8.122 -1.5361  1.0081  1.4638
 9556SOL    HW240131   0.607   0.088   8.003 -2.5833 -0.3554 -0.8562
 9557SOL     OW40132   2.677   1.002   5.370 -0.3896 -0.4735  0.2033
 9557SOL    HW140133   2.643   1.067   5.432  0.9009  0.7015 -0.3246
 9557SOL    HW240134   2.770   1.012   5.391 -0.0929 -0.3689 -1.2070
 9558SOL     OW40135   2.584   0.420  12.319 -0.0794 -0.0986  0.0446
 9558SOL    HW140136   2.590   0.425  12.224 -1.0266  0.8641  0.0360
 9558SOL    HW240137   2.552   0.509  12.331  1.3301  0.5486 -1.1159
 9559SOL     OW40138   2.939   1.415  16.777 -0.3026 -0.6056 -0.4414
 9559SOL    HW140139   2.874   1.347  16.758 -1.6372  0.5433  0.0455
 9559SOL    HW240140   2.919   1.487  16.717  0.9998  1.4849  1.6599
 9560SOL     OW40141   2.206   3.962   2.549  0.1142 -0.0152  0.2874
 9560SOL    HW140142   2.172   3.882   2.589  1.3128 -1.2744 -1.1904
 9560SOL    HW240143   2.144   3.979   2.479  1.8754 -0.4193 -1.3717
 9561SOL     OW40144   0.191   1.699   7.122  0.1024 -0.3075  0.0158
 9561SOL    HW140145   0.233   1.702   7.036  0.4069 -2.4396  0.0754
 9561SOL    HW240146   0.221   1.613   7.152 -0.6155 -1.2656 -2.0690
 9562SOL     OW40147   2.507   1.151  12.403  0.4495 -0.6777 -0.1084
 9562SOL    HW140148   2.511   1.225  12.464 -0.3615 -0.1436 -0.7029
 9562SOL    HW240149   2.416   1.130  12.424 -0.6274  2.8957 -1.2462
 9563SOL     OW40150   0.881   3.675   5.761  0.3940 -0.2385 -0.3483
 9563SOL    HW140151   0.952   3.613   5.745 -0.3561 -0.6149 -2.2419
 9563SOL    HW240152   0.823   3.602   5.781 -1.8322  0.8877 -2.6670
 9564SOL     OW40153   3.526   2.380  10.506  0.6672  0.1131 -0.2634
 9564SOL    HW140154   3.543   2.323  10.581  1.6591  0.6875 -0.0488
 9564SOL    HW240155   3.434   2.359  10.495  1.3577 -2.5966 -0.9145
 9565SOL     OW40156   2.476   3.263   1.438 -0.4435  0.1192  0.0744
 9565SOL    HW140157   2.436   3.308   1.363  0.8683  0.2175 -0.5689
 9565SOL    HW240158   2.486   3.334   1.501 -1.2674  0.0777  0.2486
 9566SOL     OW40159   2.606   0.178   7.797  0.2010  0.2886 -0.5345
 9566SOL    HW140160   2.596   0.236   7.873  1.3139 -1.7683  1.1774
 9566SOL    HW240161   2.534   0.115   7.807  0.0613  0.4917 -0.2495
 9567SOL     OW40162   2.043   4.535   8.981  0.1580 -0.0638  0.3685
 9567SOL    HW140163   2.020   4.566   8.893  3.6499 -2.6957 -1.4986
 9567SOL    HW240164   2.106   4.468   8.954 -2.2624 -2.0551 -0.4250
 9568SOL     OW40165   1.343   3.504   9.604 -0.6047 -0.1649  0.2649
 9568SOL    HW140166   1.278   3.454   9.653  0.8834 -1.6714  0.6996
 9568SOL    HW240167   1.347   3.464   9.517  0.7047 -0.2015  0.3336
   4.72079   4.72079  17.68563
